<event>
 7    1  0.9550390E-006  0.1821891E+03  0.7561462E-02  0.1165701E+00
          1   -1    0    0  501    0  0.00000000000E+00  0.00000000000E+00  0.10407106053E+03  0.10407106053E+03  0.00000000000E+00 0. -1.
         -1   -1    0    0    0  501 -0.00000000000E+00 -0.00000000000E+00 -0.38419732290E+03  0.38419732290E+03  0.00000000000E+00 0.  1.
         23    2    1    2    0    0 -0.55575868483E+02  0.15268306588E+03 -0.19531618407E+03  0.28319037094E+03  0.12509028209E+03 0.  0.
          5    1    3    3  502    0 -0.75774878667E+02  0.12132608471E+03 -0.19939785676E+03  0.24543599726E+03  0.41800000000E+01 0.  1.
         -5    1    3    3    0  502  0.20199010184E+02  0.31356981170E+02  0.40816726963E+01  0.37754373687E+02  0.41800000000E+01 0.  1.
        -11    1    1    2    0    0  0.76756723158E+02 -0.94040619623E+02 -0.38286973653E+02  0.12728364011E+03  0.00000000000E+00 0. -1.
         11    1    1    2    0    0 -0.21180854676E+02 -0.58642446255E+02 -0.46523104650E+02  0.77794372379E+02  0.00000000000E+00 0.  1.
</event>
<event>
 7    1  0.6506388E-006  0.8963318E+02  0.7561462E-02  0.1303742E+00
         -1   -1    0    0    0  501 -0.00000000000E+00  0.00000000000E+00  0.47127631857E+02  0.47127631857E+02  0.00000000000E+00 0.  1.
          1   -1    0    0  501    0  0.00000000000E+00 -0.00000000000E+00 -0.31101560978E+03  0.31101560978E+03  0.00000000000E+00 0. -1.
         23    2    1    2    0    0  0.43585735202E+02  0.29309065619E+02 -0.15171115121E+03  0.20352343563E+03  0.12508708090E+03 0.  0.
          5    1    3    3  502    0 -0.16551978559E+02  0.10185518169E+02 -0.13720510103E+03  0.13863774711E+03  0.41800000000E+01 0.  1.
         -5    1    3    3    0  502  0.60137713761E+02  0.19123547450E+02 -0.14506050186E+02  0.64885688525E+02  0.41800000000E+01 0.  1.
        -11    1    1    2    0    0 -0.55993490694E+02 -0.47971592161E+02 -0.51503134685E+02  0.89939521552E+02  0.00000000000E+00 0.  1.
         11    1    1    2    0    0  0.12407755492E+02  0.18662526542E+02 -0.60673692028E+02  0.64680284458E+02  0.00000000000E+00 0. -1.
</event>
<event>
 7    1  0.6506388E-006  0.9547312E+02  0.7561462E-02  0.1290114E+00
          1   -1    0    0  501    0  0.00000000000E+00  0.00000000000E+00  0.18037107767E+02  0.18037107767E+02  0.00000000000E+00 0. -1.
         -1   -1    0    0    0  501 -0.00000000000E+00 -0.00000000000E+00 -0.90282344284E+03  0.90282344284E+03  0.00000000000E+00 0.  1.
         23    2    1    2    0    0  0.57305130692E+02 -0.13948497437E+02 -0.53821597804E+03  0.55570023260E+03  0.12509145017E+03 0.  0.
          5    1    3    3  502    0  0.65217517990E+02  0.15544252848E+02 -0.50839747541E+03  0.51281615990E+03  0.41800000000E+01 0.  1.
         -5    1    3    3    0  502 -0.79123872982E+01 -0.29492750284E+02 -0.29818502630E+02  0.42884072698E+02  0.41800000000E+01 0.  1.
        -11    1    1    2    0    0 -0.67904625183E+02  0.29577769526E+02 -0.33482925974E+03  0.34292348381E+03  0.00000000000E+00 0.  1.
         11    1    1    2    0    0  0.10599494491E+02 -0.15629272089E+02 -0.11741097289E+02  0.22236834195E+02  0.00000000000E+00 0. -1.
</event>
<event>
 6    1  0.6506388E-006  0.2863402E+03  0.7561462E-02  0.1092276E+00
         -4   -1    0    0    0  501 -0.00000000000E+00  0.00000000000E+00  0.59144727318E+03  0.59144727318E+03  0.00000000000E+00 0.  1.
          4   -1    0    0  501    0  0.00000000000E+00 -0.00000000000E+00 -0.15020578326E+03  0.15020578326E+03  0.00000000000E+00 0. -1.
          5    1    1    2  502    0  0.28283325467E+02 -0.14637264515E+01  0.82658453401E+01  0.29797409179E+02  0.41800000000E+01 0. -1.
         -5    1    1    2    0  502 -0.14586503783E+03  0.33809092771E+02  0.18087174498E+03  0.23484404303E+03  0.41800000000E+01 0.  1.
        -11    1    1    2    0    0 -0.87340016883E+02  0.11315304003E+03  0.40758956612E+02  0.14863775281E+03  0.00000000000E+00 0.  1.
         11    1    1    2    0    0  0.20492172924E+03 -0.14549840635E+03  0.21134494299E+03  0.32837385141E+03  0.00000000000E+00 0. -1.
</event>
<event>
 7    1  0.6506388E-006  0.1716122E+03  0.7561462E-02  0.1176177E+00
         -2   -1    0    0    0  501 -0.00000000000E+00  0.00000000000E+00  0.42244858456E+03  0.42244858456E+03  0.00000000000E+00 0.  1.
          2   -1    0    0  501    0  0.00000000000E+00 -0.00000000000E+00 -0.84931844511E+02  0.84931844511E+02  0.00000000000E+00 0. -1.
         23    2    1    2    0    0 -0.32237613879E+02  0.13816506853E+03  0.26204571667E+03  0.32317905683E+03  0.12509154742E+03 0.  0.
          5    1    3    3  502    0  0.37177015159E+02  0.21191924865E+02  0.24692647209E+02  0.49582530813E+02  0.41800000000E+01 0.  1.
         -5    1    3    3    0  502 -0.69414629038E+02  0.11697314367E+03  0.23735306946E+03  0.27359652601E+03  0.41800000000E+01 0.  1.
        -11    1    1    2    0    0  0.59988450477E+02 -0.83194657578E+02  0.65824851153E+02  0.12187237697E+03  0.00000000000E+00 0. -1.
         11    1    1    2    0    0 -0.27750836598E+02 -0.54970410955E+02  0.96461722239E+01  0.62328995268E+02  0.00000000000E+00 0.  1.
</event>
<event>
 7    1  0.6506388E-006  0.1067212E+03  0.7561462E-02  0.1266765E+00
         -2   -1    0    0    0  501 -0.00000000000E+00  0.00000000000E+00  0.12633998948E+03  0.12633998948E+03  0.00000000000E+00 0.  1.
          2   -1    0    0  501    0  0.00000000000E+00 -0.00000000000E+00 -0.11711016368E+03  0.11711016368E+03  0.00000000000E+00 0. -1.
         23    2    1    2    0    0 -0.50630726551E+02  0.12255592143E+02  0.17699656028E+02  0.13661489499E+03  0.12504671807E+03 0.  0.
          5    1    3    3  502    0 -0.91192420581E+02  0.18898947132E+02  0.19580183937E+02  0.95257985372E+02  0.41800000000E+01 0. -1.
         -5    1    3    3    0  502  0.40561694030E+02 -0.66433549891E+01 -0.18805279084E+01  0.41356909620E+02  0.41800000000E+01 0. -1.
        -11    1    1    2    0    0  0.27143336275E+02  0.23648573700E+02  0.31769522506E+02  0.48013730354E+02  0.00000000000E+00 0.  1.
         11    1    1    2    0    0  0.23487390276E+02 -0.35904165843E+02 -0.40239352731E+02  0.58821527820E+02  0.00000000000E+00 0. -1.
</event>
<event>
 7    1  0.6506388E-006  0.1024322E+03  0.7561462E-02  0.1275263E+00
          2   -1    0    0  501    0  0.00000000000E+00  0.00000000000E+00  0.10809349844E+03  0.10809349844E+03  0.00000000000E+00 0. -1.
         -2   -1    0    0    0  501 -0.00000000000E+00 -0.00000000000E+00 -0.11867374143E+03  0.11867374143E+03  0.00000000000E+00 0.  1.
         23    2    1    2    0    0  0.41551939382E+01 -0.12138725122E+02 -0.30910859245E+02  0.12949635813E+03  0.12509680758E+03 0.  0.
          5    1    3    3  502    0  0.40178859880E+02  0.42495847083E+02 -0.24718063937E+02  0.63629339816E+02  0.41800000000E+01 0. -1.
         -5    1    3    3    0  502 -0.36023665942E+02 -0.54634572205E+02 -0.61927953086E+01  0.65867018315E+02  0.41800000000E+01 0. -1.
        -11    1    1    2    0    0 -0.40130747388E+02  0.18388084777E+02  0.36555555806E+02  0.57314110025E+02  0.00000000000E+00 0. -1.
         11    1    1    2    0    0  0.35975553449E+02 -0.62493596559E+01 -0.16224939560E+02  0.39956771714E+02  0.00000000000E+00 0.  1.
</event>
<event>
 7    1  0.6506388E-006  0.1214333E+03  0.7561462E-02  0.1240751E+00
         -1   -1    0    0    0  501 -0.00000000000E+00  0.00000000000E+00  0.11158402040E+03  0.11158402040E+03  0.00000000000E+00 0.  1.
          1   -1    0    0  501    0  0.00000000000E+00 -0.00000000000E+00 -0.29409187871E+03  0.29409187871E+03  0.00000000000E+00 0. -1.
         23    2    1    2    0    0  0.82012778712E+02 -0.62854931586E+02  0.22160226277E+02  0.16378395449E+03  0.12512901272E+03 0.  0.
          5    1    3    3  502    0  0.64421889106E+01  0.93523890122E+01  0.53288497395E+02  0.54645268165E+02  0.41800000000E+01 0.  1.
         -5    1    3    3    0  502  0.75570589802E+02 -0.72207320598E+02 -0.31128271119E+02  0.10913868633E+03  0.41800000000E+01 0.  1.
        -11    1    1    2    0    0 -0.55821909424E+02  0.77991077848E+02 -0.17478720483E+03  0.19937216648E+03  0.00000000000E+00 0. -1.
         11    1    1    2    0    0 -0.26190869289E+02 -0.15136146262E+02 -0.29880879758E+02  0.42519778138E+02  0.00000000000E+00 0.  1.
</event>
<event>
 7    1  0.6506388E-006  0.1096638E+03  0.7561462E-02  0.1261194E+00
         -2   -1    0    0    0  501 -0.00000000000E+00  0.00000000000E+00  0.46445599341E+02  0.46445599341E+02  0.00000000000E+00 0. -1.
          2   -1    0    0  501    0  0.00000000000E+00 -0.00000000000E+00 -0.32257518048E+03  0.32257518048E+03  0.00000000000E+00 0.  1.
         23    2    1    2    0    0 -0.24128992307E+02 -0.32870510146E+02 -0.96148682924E+02  0.16295624744E+03  0.12508993022E+03 0.  0.
          5    1    3    3  502    0 -0.73055198979E+02 -0.28304897684E+02 -0.39473508875E+02  0.87828580962E+02  0.41800000000E+01 0. -1.
         -5    1    3    3    0  502  0.48926206672E+02 -0.45656124622E+01 -0.56675174049E+02  0.75127666475E+02  0.41800000000E+01 0. -1.
        -11    1    1    2    0    0  0.35217866087E+02 -0.17955857909E+02 -0.12162092978E+03  0.12788417215E+03  0.00000000000E+00 0.  1.
         11    1    1    2    0    0 -0.11088873780E+02  0.50826368055E+02 -0.58359968435E+02  0.78180360239E+02  0.00000000000E+00 0. -1.
</event>
<event>
 7    1  0.6506388E-006  0.1311326E+03  0.7561462E-02  0.1225785E+00
         -3   -1    0    0    0  501 -0.00000000000E+00  0.00000000000E+00  0.60282201244E+03  0.60282201244E+03  0.00000000000E+00 0.  1.
          3   -1    0    0  501    0  0.00000000000E+00 -0.00000000000E+00 -0.37013390490E+02  0.37013390490E+02  0.00000000000E+00 0. -1.
         23    2    1    2    0    0  0.87024442288E+02 -0.40358557407E+02  0.39302704629E+03  0.42346060402E+03  0.12508619959E+03 0.  0.
          5    1    3    3  502    0  0.10894749275E+03  0.16274392956E+01  0.29507918472E+03  0.31458131284E+03  0.41800000000E+01 0.  1.
         -5    1    3    3    0  502 -0.21923050461E+02 -0.41985996702E+02  0.97947861573E+02  0.10887929118E+03  0.41800000000E+01 0.  1.
        -11    1    1    2    0    0 -0.69017828354E+02  0.91176128178E+01  0.43342752436E+02  0.82007229456E+02  0.00000000000E+00 0. -1.
         11    1    1    2    0    0 -0.18006613933E+02  0.31240944589E+02  0.12943882322E+03  0.13436756945E+03  0.00000000000E+00 0.  1.
</event>
<event>
 7    1  0.6506388E-006  0.1065967E+03  0.7561462E-02  0.1267005E+00
         -2   -1    0    0    0  501 -0.00000000000E+00  0.00000000000E+00  0.10663772270E+03  0.10663772270E+03  0.00000000000E+00 0.  1.
          2   -1    0    0  501    0  0.00000000000E+00 -0.00000000000E+00 -0.15949622140E+03  0.15949622140E+03  0.00000000000E+00 0. -1.
         23    2    1    2    0    0  0.62231030517E+02  0.20037332512E+02  0.24254999915E+01  0.14115703827E+03  0.12508089602E+03 0.  0.
          5    1    3    3  502    0  0.35013706710E+02  0.55129000813E+02  0.45058731521E+02  0.79453936809E+02  0.41800000000E+01 0.  1.
         -5    1    3    3    0  502  0.27217323807E+02 -0.35091668302E+02 -0.42633231529E+02  0.61703101462E+02  0.41800000000E+01 0.  1.
        -11    1    1    2    0    0  0.18782005498E+02 -0.10648190653E+02 -0.34692601627E+02  0.40862260123E+02  0.00000000000E+00 0. -1.
         11    1    1    2    0    0 -0.81013036014E+02 -0.93891418582E+01 -0.20591397060E+02  0.84114645704E+02  0.00000000000E+00 0.  1.
</event>
<event>
 7    1  0.6506388E-006  0.8694246E+02  0.7561462E-02  0.1310430E+00
         -2   -1    0    0    0  501 -0.00000000000E+00  0.00000000000E+00  0.12641299968E+03  0.12641299968E+03  0.00000000000E+00 0.  1.
          2   -1    0    0  501    0  0.00000000000E+00 -0.00000000000E+00 -0.10576108699E+03  0.10576108699E+03  0.00000000000E+00 0. -1.
         23    2    1    2    0    0  0.22654915181E+02  0.24261112386E+02  0.34541608786E+02  0.13396233439E+03  0.12510370715E+03 0.  0.
          5    1    3    3  502    0 -0.23151767201E+02  0.36056478769E+02  0.64695894468E+02  0.77711679603E+02  0.41800000000E+01 0. -1.
         -5    1    3    3    0  502  0.45806682381E+02 -0.11795366382E+02 -0.30154285682E+02  0.56250654786E+02  0.41800000000E+01 0. -1.
        -11    1    1    2    0    0 -0.50299302972E+02 -0.23927183971E+02  0.15545657459E+02  0.57829036634E+02  0.00000000000E+00 0. -1.
         11    1    1    2    0    0  0.27644387791E+02 -0.33392841579E+00 -0.29435353547E+02  0.40382715646E+02  0.00000000000E+00 0.  1.
</event>
<event>
 7    1  0.6506388E-006  0.1101174E+03  0.7561462E-02  0.1260353E+00
          2   -1    0    0  501    0  0.00000000000E+00  0.00000000000E+00  0.17224206284E+03  0.17224206284E+03  0.00000000000E+00 0. -1.
         -2   -1    0    0    0  501 -0.00000000000E+00 -0.00000000000E+00 -0.13217562568E+03  0.13217562568E+03  0.00000000000E+00 0.  1.
         23    2    1    2    0    0 -0.73477445594E+02 -0.62349741322E+02 -0.19155966904E+02  0.15906200179E+03  0.12508934444E+03 0.  0.
          5    1    3    3  502    0 -0.66784913274E+02 -0.76032169578E+02  0.31444673368E+02  0.10605354937E+03  0.41800000000E+01 0. -1.
         -5    1    3    3    0  502 -0.66925323192E+01  0.13682428256E+02 -0.50600640273E+02  0.53008452419E+02  0.41800000000E+01 0. -1.
        -11    1    1    2    0    0  0.21684266640E+02  0.42455965949E+02 -0.17405078848E+02  0.50750893924E+02  0.00000000000E+00 0.  1.
         11    1    1    2    0    0  0.51793178954E+02  0.19893775373E+02  0.76627482908E+02  0.94604792804E+02  0.00000000000E+00 0. -1.
</event>
<event>
 7    1  0.6506388E-006  0.2270819E+03  0.7561462E-02  0.1128711E+00
         -2   -1    0    0    0  501 -0.00000000000E+00  0.00000000000E+00  0.46502399918E+02  0.46502399918E+02  0.00000000000E+00 0.  1.
          2   -1    0    0  501    0  0.00000000000E+00 -0.00000000000E+00 -0.13678161512E+04  0.13678161512E+04  0.00000000000E+00 0. -1.
         23    2    1    2    0    0  0.19362778526E+03  0.91910769393E+02 -0.89053802926E+03  0.92446971009E+03  0.12508778739E+03 0.  0.
          5    1    3    3  502    0  0.10828266690E+03  0.83286963993E+02 -0.72717981450E+03  0.73991202811E+03  0.41800000000E+01 0.  1.
         -5    1    3    3    0  502  0.85345118363E+02  0.86238054004E+01 -0.16335821476E+03  0.18455768198E+03  0.41800000000E+01 0.  1.
        -11    1    1    2    0    0 -0.70951240437E+01 -0.36267277047E+02 -0.49669704821E+02  0.61909092600E+02  0.00000000000E+00 0.  1.
         11    1    1    2    0    0 -0.18653266122E+03 -0.55643492346E+02 -0.38110601722E+03  0.42793974845E+03  0.00000000000E+00 0. -1.
</event>
<event>
 7    1  0.6506388E-006  0.8973859E+02  0.7561462E-02  0.1303486E+00
         -2   -1    0    0    0  501 -0.00000000000E+00  0.00000000000E+00  0.19112606997E+03  0.19112606997E+03  0.00000000000E+00 0. -1.
          2   -1    0    0  501    0  0.00000000000E+00 -0.00000000000E+00 -0.74396792863E+02  0.74396792863E+02  0.00000000000E+00 0.  1.
         23    2    1    2    0    0  0.17066369122E+02  0.11178789235E+02  0.11607250939E+03  0.17186246067E+03  0.12509057385E+03 0.  0.
          5    1    3    3  502    0 -0.16268684671E+02 -0.49944797056E+02  0.72487580587E+02  0.89616262996E+02  0.41800000000E+01 0.  1.
         -5    1    3    3    0  502  0.33335053793E+02  0.61123586292E+02  0.43584928801E+02  0.82246197670E+02  0.41800000000E+01 0.  1.
        -11    1    1    2    0    0 -0.27716778623E+02  0.13000629690E+02  0.37445313417E+02  0.48367217064E+02  0.00000000000E+00 0. -1.
         11    1    1    2    0    0  0.10650409501E+02 -0.24179418925E+02 -0.36788545699E+02  0.45293185103E+02  0.00000000000E+00 0.  1.
</event>
<event>
 7    1  0.6506388E-006  0.1268549E+03  0.7561462E-02  0.1232199E+00
          2   -1    0    0  501    0  0.00000000000E+00  0.00000000000E+00  0.36043062785E+02  0.36043062785E+02  0.00000000000E+00 0. -1.
         -2   -1    0    0    0  501 -0.00000000000E+00 -0.00000000000E+00 -0.63256410906E+03  0.63256410906E+03  0.00000000000E+00 0.  1.
         23    2    1    2    0    0 -0.24459907478E+02 -0.69152850883E+02 -0.48556213067E+03  0.50675254103E+03  0.12508857359E+03 0.  0.
          5    1    3    3  502    0 -0.68033330018E+02 -0.19161908027E+02 -0.33141348464E+03  0.33889243561E+03  0.41800000000E+01 0. -1.
         -5    1    3    3    0  502  0.43573422540E+02 -0.49990942856E+02 -0.15414864603E+03  0.16786010542E+03  0.41800000000E+01 0. -1.
        -11    1    1    2    0    0  0.39369235001E+02  0.85624478478E+02 -0.98753949827E+02  0.13650578957E+03  0.00000000000E+00 0.  1.
         11    1    1    2    0    0 -0.14909327523E+02 -0.16471627595E+02 -0.12204965778E+02  0.25348841245E+02  0.00000000000E+00 0. -1.
</event>
<event>
 7    1  0.6506388E-006  0.1017695E+03  0.7561462E-02  0.1276618E+00
          1   -1    0    0  501    0  0.00000000000E+00  0.00000000000E+00  0.96074283834E+02  0.96074283834E+02  0.00000000000E+00 0. -1.
         -1   -1    0    0    0  501 -0.00000000000E+00 -0.00000000000E+00 -0.13976968527E+03  0.13976968527E+03  0.00000000000E+00 0.  1.
         23    2    1    2    0    0 -0.21799359031E+01 -0.14065810353E+02 -0.64928146695E+02  0.14164546001E+03  0.12508066584E+03 0.  0.
          5    1    3    3  502    0  0.60455745947E+02 -0.50844711328E+00 -0.40720696479E+02  0.73012350039E+02  0.41800000000E+01 0. -1.
         -5    1    3    3    0  502 -0.62635681850E+02 -0.13557363239E+02 -0.24207450216E+02  0.68633109975E+02  0.41800000000E+01 0. -1.
        -11    1    1    2    0    0  0.28025810083E+02  0.35435217885E+02 -0.12249224510E+02  0.46809659243E+02  0.00000000000E+00 0.  1.
         11    1    1    2    0    0 -0.25845874180E+02 -0.21369407532E+02  0.33481969767E+02  0.47388849848E+02  0.00000000000E+00 0. -1.
</event>
<event>
 6    1  0.6506388E-006  0.1081789E+03  0.7561462E-02  0.1263980E+00
         -2   -1    0    0    0  501 -0.00000000000E+00  0.00000000000E+00  0.10443531443E+04  0.10443531443E+04  0.00000000000E+00 0.  1.
          2   -1    0    0  501    0  0.00000000000E+00 -0.00000000000E+00 -0.15830520263E+02  0.15830520263E+02  0.00000000000E+00 0. -1.
          5    1    1    2  502    0  0.32579779682E+02  0.50016213324E+01  0.41947762271E+02  0.53512105357E+02  0.41800000000E+01 0. -1.
         -5    1    1    2    0  502 -0.66245190232E+02  0.35508101678E+02  0.62011475923E+03  0.62466714139E+03  0.41800000000E+01 0.  1.
        -11    1    1    2    0    0  0.57357485906E+02  0.39321710595E+01  0.19765661560E+03  0.20584819855E+03  0.00000000000E+00 0.  1.
         11    1    1    2    0    0 -0.23692075357E+02 -0.44441894070E+02  0.16880348696E+03  0.17615621928E+03  0.00000000000E+00 0. -1.
</event>
<event>
 7    1  0.6506388E-006  0.1095672E+03  0.7561462E-02  0.1261373E+00
          1   -1    0    0  501    0  0.00000000000E+00  0.00000000000E+00  0.35541622574E+03  0.35541622574E+03  0.00000000000E+00 0. -1.
         -1   -1    0    0    0  501 -0.00000000000E+00 -0.00000000000E+00 -0.55331515988E+02  0.55331515988E+02  0.00000000000E+00 0.  1.
         23    2    1    2    0    0 -0.33158297581E+02 -0.23185008983E+02  0.48902306553E+02  0.14026927256E+03  0.12508803259E+03 0.  0.
          5    1    3    3  502    0 -0.73158477320E+02 -0.14043487869E+01 -0.27957976541E-01  0.73291255829E+02  0.41800000000E+01 0. -1.
         -5    1    3    3    0  502  0.40000179739E+02 -0.21780660197E+02  0.48930264530E+02  0.66978016727E+02  0.41800000000E+01 0. -1.
        -11    1    1    2    0    0 -0.12428962386E+02  0.47040160954E+02  0.11308069478E+03  0.12310361238E+03  0.00000000000E+00 0. -1.
         11    1    1    2    0    0  0.45587259967E+02 -0.23855151971E+02  0.13810170842E+03  0.14737485680E+03  0.00000000000E+00 0.  1.
</event>
<event>
 7    1  0.6506388E-006  0.4024199E+03  0.7561462E-02  0.1042945E+00
         -1   -1    0    0    0  501 -0.00000000000E+00  0.00000000000E+00  0.13126584665E+03  0.13126584665E+03  0.00000000000E+00 0.  1.
          1   -1    0    0  501    0  0.00000000000E+00 -0.00000000000E+00 -0.13072412097E+04  0.13072412097E+04  0.00000000000E+00 0. -1.
         23    2    1    2    0    0 -0.55634365578E+02  0.39495026629E+03 -0.63612502920E+03  0.76117223436E+03  0.12508885687E+03 0.  0.
          5    1    3    3  502    0 -0.38552878847E+02  0.19207435712E+03 -0.42418136186E+03  0.46725387455E+03  0.41800000000E+01 0.  1.
         -5    1    3    3    0  502 -0.17081486730E+02  0.20287590917E+03 -0.21194366734E+03  0.29391835982E+03  0.41800000000E+01 0.  1.
        -11    1    1    2    0    0  0.53384615432E+02 -0.13328736409E+03 -0.23696211860E+03  0.27706765283E+03  0.00000000000E+00 0.  1.
         11    1    1    2    0    0  0.22497501452E+01 -0.26166290221E+03 -0.30288821524E+03  0.40026716915E+03  0.00000000000E+00 0. -1.
</event>
<event>
 7    1  0.6506388E-006  0.1046753E+03  0.7561462E-02  0.1270761E+00
         -4   -1    0    0    0  501 -0.00000000000E+00  0.00000000000E+00  0.32097776241E+02  0.32097776241E+02  0.00000000000E+00 0.  1.
          4   -1    0    0  501    0  0.00000000000E+00 -0.00000000000E+00 -0.50284028544E+03  0.50284028544E+03  0.00000000000E+00 0. -1.
         23    2    1    2    0    0 -0.39638228568E+02 -0.56625428184E+02 -0.26079074935E+03  0.29737789015E+03  0.12507664181E+03 0.  0.
          5    1    3    3  502    0 -0.65501199217E+02 -0.30139037171E+02 -0.24750167558E+03  0.25782420460E+03  0.41800000000E+01 0. -1.
         -5    1    3    3    0  502  0.25862970649E+02 -0.26486391013E+02 -0.13289073770E+02  0.39553685559E+02  0.41800000000E+01 0. -1.
        -11    1    1    2    0    0  0.53479621421E+01  0.64474110656E+02 -0.79757919575E+02  0.10269779637E+03  0.00000000000E+00 0.  1.
         11    1    1    2    0    0  0.34290266426E+02 -0.78486824725E+01 -0.13019384027E+03  0.13486237516E+03  0.00000000000E+00 0. -1.
</event>
<event>
 7    1  0.6506388E-006  0.1124726E+03  0.7561462E-02  0.1256058E+00
          1   -1    0    0  501    0  0.00000000000E+00  0.00000000000E+00  0.38771722887E+02  0.38771722887E+02  0.00000000000E+00 0. -1.
         -1   -1    0    0    0  501 -0.00000000000E+00 -0.00000000000E+00 -0.50888919523E+03  0.50888919523E+03  0.00000000000E+00 0.  1.
         23    2    1    2    0    0 -0.91776881322E+01  0.79065512966E+02 -0.35394445706E+03  0.37986506835E+03  0.11262862054E+03 0.  0.
          5    1    3    3  502    0  0.37758619616E+02  0.71229589445E+02 -0.28336541762E+03  0.29464011958E+03  0.41800000000E+01 0. -1.
         -5    1    3    3    0  502 -0.46936307748E+02  0.78359235209E+01 -0.70579039447E+02  0.85224948763E+02  0.41800000000E+01 0.  1.
        -11    1    1    2    0    0 -0.23021884569E+02 -0.31857560108E+02 -0.10143226440E+03  0.10878150378E+03  0.00000000000E+00 0.  1.
         11    1    1    2    0    0  0.32199572701E+02 -0.47207952857E+02 -0.14740750881E+02  0.59014345982E+02  0.00000000000E+00 0. -1.
</event>
<event>
 7    1  0.6506388E-006  0.1278661E+03  0.7561462E-02  0.1230657E+00
          2   -1    0    0  501    0  0.00000000000E+00  0.00000000000E+00  0.36639565850E+03  0.36639565850E+03  0.00000000000E+00 0.  1.
         -2   -1    0    0    0  501 -0.00000000000E+00 -0.00000000000E+00 -0.60685840833E+02  0.60685840833E+02  0.00000000000E+00 0. -1.
         23    2    1    2    0    0  0.50398890846E+02 -0.87726718944E+02  0.18187464685E+03  0.24282193241E+03  0.12509227905E+03 0.  0.
          5    1    3    3  502    0 -0.23910567373E+02 -0.34158918700E+02  0.32455023511E+01  0.42030377638E+02  0.41800000000E+01 0.  1.
         -5    1    3    3    0  502  0.74309458219E+02 -0.53567800244E+02  0.17862914450E+03  0.20079155478E+03  0.41800000000E+01 0.  1.
        -11    1    1    2    0    0 -0.66310633217E+02  0.56651128774E+02  0.12110444373E+03  0.14924053324E+03  0.00000000000E+00 0.  1.
         11    1    1    2    0    0  0.15911742371E+02  0.31075590170E+02  0.27307270820E+01  0.35019033683E+02  0.00000000000E+00 0. -1.
</event>
<event>
 7    1  0.6506388E-006  0.1730029E+03  0.7561462E-02  0.1174752E+00
          1   -1    0    0  501    0  0.00000000000E+00  0.00000000000E+00  0.71483203100E+03  0.71483203100E+03  0.00000000000E+00 0. -1.
         -1   -1    0    0    0  501 -0.00000000000E+00 -0.00000000000E+00 -0.49149698574E+02  0.49149698574E+02  0.00000000000E+00 0.  1.
         23    2    1    2    0    0  0.39427586947E+02  0.12881117454E+03  0.20995315999E+03  0.27905568118E+03  0.12507953673E+03 0.  0.
          5    1    3    3  502    0  0.53364642727E+02  0.28475253016E+01  0.88528314686E+02  0.10349216586E+03  0.41800000000E+01 0. -1.
         -5    1    3    3    0  502 -0.13937055780E+02  0.12596364923E+03  0.12142484531E+03  0.17556351532E+03  0.41800000000E+01 0. -1.
        -11    1    1    2    0    0 -0.62202066482E+02 -0.40087418657E+02  0.19441700158E+03  0.20802420223E+03  0.00000000000E+00 0. -1.
         11    1    1    2    0    0  0.22774479535E+02 -0.88723755878E+02  0.26131217086E+03  0.27690184617E+03  0.00000000000E+00 0.  1.
</event>
<event>
 7    1  0.6506388E-006  0.1309894E+03  0.7561462E-02  0.1225995E+00
          1   -1    0    0  501    0  0.00000000000E+00  0.00000000000E+00  0.30194597632E+03  0.30194597632E+03  0.00000000000E+00 0. -1.
         -1   -1    0    0    0  501 -0.00000000000E+00 -0.00000000000E+00 -0.69297986169E+02  0.69297986169E+02  0.00000000000E+00 0.  1.
         23    2    1    2    0    0  0.22186346047E+02  0.87426650491E+02  0.86758317086E+02  0.17694562756E+03  0.12508835422E+03 0.  0.
          5    1    3    3  502    0  0.26832737699E+02 -0.27389749147E+02  0.14874654511E+02  0.41339108814E+02  0.41800000000E+01 0. -1.
         -5    1    3    3    0  502 -0.46463916517E+01  0.11481639964E+03  0.71883662576E+02  0.13560651875E+03  0.41800000000E+01 0. -1.
        -11    1    1    2    0    0  0.17115436246E+02 -0.54583421570E+02  0.12773284825E+03  0.13995702408E+03  0.00000000000E+00 0. -1.
         11    1    1    2    0    0 -0.39301782293E+02 -0.32843228921E+02  0.18156824819E+02  0.54341310849E+02  0.00000000000E+00 0.  1.
</event>
<event>
 6    1  0.6506388E-006  0.9055710E+02  0.7561462E-02  0.1301508E+00
         -1   -1    0    0    0  501 -0.00000000000E+00  0.00000000000E+00  0.40518117812E+03  0.40518117812E+03  0.00000000000E+00 0.  1.
          1   -1    0    0  501    0  0.00000000000E+00 -0.00000000000E+00 -0.51234824385E+02  0.51234824385E+02  0.00000000000E+00 0. -1.
          5    1    1    2  502    0  0.14309141901E+01 -0.38578570753E+02  0.20912682492E+02  0.44104039790E+02  0.41800000000E+01 0. -1.
         -5    1    1    2    0  502 -0.14635749149E+02  0.52726817182E+02  0.31747054185E+03  0.32217904920E+03  0.41800000000E+01 0.  1.
        -11    1    1    2    0    0 -0.36432612749E+02 -0.87888298699E+01  0.14531517761E+02  0.40196315884E+02  0.00000000000E+00 0.  1.
         11    1    1    2    0    0  0.49637447708E+02 -0.53594165593E+01  0.10316116388E+01  0.49936597635E+02  0.00000000000E+00 0. -1.
</event>
<event>
 7    1  0.6506388E-006  0.1034881E+03  0.7561462E-02  0.1273127E+00
          1   -1    0    0  501    0  0.00000000000E+00  0.00000000000E+00  0.12023550017E+03  0.12023550017E+03  0.00000000000E+00 0. -1.
         -1   -1    0    0    0  501 -0.00000000000E+00 -0.00000000000E+00 -0.13974206444E+03  0.13974206444E+03  0.00000000000E+00 0.  1.
         23    2    1    2    0    0 -0.33393667029E+02 -0.42159864614E+02 -0.61046331028E+02  0.14921878509E+03  0.12508796949E+03 0.  0.
          5    1    3    3  502    0 -0.28565376677E+02  0.37719700960E+02  0.15635206340E+01  0.47525504542E+02  0.41800000000E+01 0. -1.
         -5    1    3    3    0  502 -0.48282903521E+01 -0.79879565573E+02 -0.62609851662E+02  0.10169328055E+03  0.41800000000E+01 0. -1.
        -11    1    1    2    0    0  0.29580260916E+02 -0.67032548858E+01  0.52412352899E+02  0.60555595929E+02  0.00000000000E+00 0. -1.
         11    1    1    2    0    0  0.38134061128E+01  0.48863119499E+02 -0.10872586145E+02  0.50203183593E+02  0.00000000000E+00 0.  1.
</event>
<event>
 7    1  0.6506388E-006  0.1036840E+03  0.7561462E-02  0.1272734E+00
          2   -1    0    0  501    0  0.00000000000E+00  0.00000000000E+00  0.41454785975E+03  0.41454785975E+03  0.00000000000E+00 0. -1.
         -2   -1    0    0    0  501 -0.00000000000E+00 -0.00000000000E+00 -0.30292650740E+02  0.30292650740E+02  0.00000000000E+00 0.  1.
         23    2    1    2    0    0  0.28134452590E+02 -0.99589709712E+01  0.21030418201E+03  0.24650803747E+03  0.12509050740E+03 0.  0.
          5    1    3    3  502    0  0.10678434785E+02  0.54147392637E+02  0.13551346760E+03  0.14638080953E+03  0.41800000000E+01 0.  1.
         -5    1    3    3    0  502  0.17456017805E+02 -0.64106363608E+02  0.74790714410E+02  0.10012722794E+03  0.41800000000E+01 0.  1.
        -11    1    1    2    0    0  0.25965326155E+02  0.16786309613E+02  0.25153609222E+02  0.39858279060E+02  0.00000000000E+00 0.  1.
         11    1    1    2    0    0 -0.54099778745E+02 -0.68273386416E+01  0.14879741778E+03  0.15847419396E+03  0.00000000000E+00 0. -1.
</event>
<event>
 7    1  0.6506388E-006  0.1013677E+03  0.7561462E-02  0.1277446E+00
         -2   -1    0    0    0  501 -0.00000000000E+00  0.00000000000E+00  0.25662436071E+03  0.25662436071E+03  0.00000000000E+00 0.  1.
          2   -1    0    0  501    0  0.00000000000E+00 -0.00000000000E+00 -0.71441852266E+02  0.71441852266E+02  0.00000000000E+00 0. -1.
         23    2    1    2    0    0 -0.52211260425E+02 -0.27703952526E+02  0.16920192150E+03  0.21856461267E+03  0.12509066701E+03 0.  0.
          5    1    3    3  502    0 -0.80206323264E+02 -0.35422252093E+02  0.16758355924E+03  0.18918116175E+03  0.41800000000E+01 0. -1.
         -5    1    3    3    0  502  0.27995062839E+02  0.77182995671E+01  0.16183622621E+01  0.29383450920E+02  0.41800000000E+01 0. -1.
        -11    1    1    2    0    0  0.63346617192E+02  0.34933497776E+02 -0.16686217730E+02  0.74239969280E+02  0.00000000000E+00 0. -1.
         11    1    1    2    0    0 -0.11135356768E+02 -0.72295452504E+01  0.32666804671E+02  0.35261631021E+02  0.00000000000E+00 0.  1.
</event>
<event>
 7    1  0.6506388E-006  0.1337179E+03  0.7561462E-02  0.1222041E+00
          2   -1    0    0  501    0  0.00000000000E+00  0.00000000000E+00  0.24654248323E+03  0.24654248323E+03  0.00000000000E+00 0. -1.
         -2   -1    0    0    0  501 -0.00000000000E+00 -0.00000000000E+00 -0.94196745839E+02  0.94196745839E+02  0.00000000000E+00 0.  1.
         23    2    1    2    0    0 -0.84164469709E+02  0.63813115945E+02  0.77832305486E+02  0.18127050955E+03  0.12508140601E+03 0.  0.
          5    1    3    3  502    0 -0.87843740553E+02  0.95393564305E+02  0.72907649691E+02  0.14882692179E+03  0.41800000000E+01 0.  1.
         -5    1    3    3    0  502  0.36792708436E+01 -0.31580448359E+02  0.49246557947E+01  0.32443587767E+02  0.41800000000E+01 0.  1.
        -11    1    1    2    0    0  0.57935192400E+02 -0.43578912360E+02 -0.56647444884E+01  0.72716555549E+02  0.00000000000E+00 0.  1.
         11    1    1    2    0    0  0.26229277310E+02 -0.20234203586E+02  0.80178176397E+02  0.86752163969E+02  0.00000000000E+00 0. -1.
</event>
<event>
 7    1  0.6506388E-006  0.2180059E+03  0.7561462E-02  0.1135379E+00
          4   -1    0    0  501    0  0.00000000000E+00  0.00000000000E+00  0.43952834465E+03  0.43952834465E+03  0.00000000000E+00 0. -1.
         -4   -1    0    0    0  501 -0.00000000000E+00 -0.00000000000E+00 -0.21100813345E+03  0.21100813345E+03  0.00000000000E+00 0.  1.
         23    2    1    2    0    0  0.75588097382E+02 -0.17836415399E+03 -0.10414315634E+03  0.25302359243E+03  0.12509120441E+03 0.  0.
          5    1    3    3  502    0  0.26627942824E+02 -0.17360525635E+03 -0.10297880617E+03  0.20364169340E+03  0.41800000000E+01 0. -1.
         -5    1    3    3    0  502  0.48960154558E+02 -0.47588976458E+01 -0.11643501715E+01  0.49381899037E+02  0.41800000000E+01 0. -1.
        -11    1    1    2    0    0 -0.12010765790E+02 -0.77436499208E+01  0.45938600868E+01  0.15010868045E+02  0.00000000000E+00 0.  1.
         11    1    1    2    0    0 -0.63577331592E+02  0.18610780391E+03  0.32806950744E+03  0.38250201762E+03  0.00000000000E+00 0. -1.
</event>
<event>
 7    1  0.8355799E-006  0.2243850E+03  0.7561462E-02  0.1130655E+00
         -2   -1    0    0    0  501 -0.00000000000E+00  0.00000000000E+00  0.11623375983E+03  0.11623375983E+03  0.00000000000E+00 0.  1.
          2   -1    0    0  501    0  0.00000000000E+00 -0.00000000000E+00 -0.44362768477E+03  0.44362768477E+03  0.00000000000E+00 0. -1.
         23    2    1    2    0    0  0.24218344317E+01  0.19717492489E+03 -0.13364380651E+03  0.26905820154E+03  0.12509129670E+03 0.  0.
          5    1    3    3  502    0 -0.53983590639E+02  0.43740146235E+02 -0.32900638823E+02  0.76989303711E+02  0.41800000000E+01 0. -1.
         -5    1    3    3    0  502  0.56405425071E+02  0.15343477866E+03 -0.10074316769E+03  0.19206889783E+03  0.41800000000E+01 0. -1.
        -11    1    1    2    0    0  0.42243254809E+02 -0.85658797799E+02 -0.70630849327E+02  0.11878821109E+03  0.00000000000E+00 0.  1.
         11    1    1    2    0    0 -0.44665089241E+02 -0.11151612709E+03 -0.12311926911E+03  0.17201503197E+03  0.00000000000E+00 0. -1.
</event>
<event>
 7    1  0.6506388E-006  0.1351280E+03  0.7561462E-02  0.1220039E+00
         -1   -1    0    0    0  501 -0.00000000000E+00  0.00000000000E+00  0.50779617650E+02  0.50779617650E+02  0.00000000000E+00 0.  1.
          1   -1    0    0  501    0  0.00000000000E+00 -0.00000000000E+00 -0.55686363589E+03  0.55686363589E+03  0.00000000000E+00 0. -1.
         23    2    1    2    0    0  0.94355390155E+02  0.83439394467E+02 -0.31442236979E+03  0.36107015919E+03  0.12508061812E+03 0.  0.
          5    1    3    3  502    0  0.84288483959E-01  0.40062263457E+02 -0.20987678667E+03  0.21370711275E+03  0.41800000000E+01 0. -1.
         -5    1    3    3    0  502  0.94271101671E+02  0.43377131010E+02 -0.10454558312E+03  0.14736304644E+03  0.41800000000E+01 0. -1.
        -11    1    1    2    0    0 -0.70005456941E+02 -0.58066160246E+02 -0.56869015458E+02  0.10726848506E+03  0.00000000000E+00 0.  1.
         11    1    1    2    0    0 -0.24349933214E+02 -0.25373234221E+02 -0.13479263299E+03  0.13930460930E+03  0.00000000000E+00 0. -1.
</event>
<event>
 7    1  0.6506388E-006  0.1203733E+03  0.7561462E-02  0.1242482E+00
         -1   -1    0    0    0  501 -0.00000000000E+00  0.00000000000E+00  0.51768682196E+03  0.51768682196E+03  0.00000000000E+00 0.  1.
          1   -1    0    0  501    0  0.00000000000E+00 -0.00000000000E+00 -0.45614750931E+02  0.45614750931E+02  0.00000000000E+00 0. -1.
         23    2    1    2    0    0  0.20221181620E+02  0.77325557118E+02  0.39505767527E+03  0.41936103360E+03  0.11577984166E+03 0.  0.
          5    1    3    3  502    0 -0.42765843983E+02  0.36599861330E+02  0.99391387641E+02  0.11430042694E+03  0.41800000000E+01 0. -1.
         -5    1    3    3    0  502  0.62987025603E+02  0.40725695788E+02  0.29566628763E+03  0.30506060666E+03  0.41800000000E+01 0.  1.
        -11    1    1    2    0    0 -0.32661547317E+02 -0.18800852222E+01 -0.35007612609E+01  0.32902381722E+02  0.00000000000E+00 0. -1.
         11    1    1    2    0    0  0.12440365696E+02 -0.75445471895E+02  0.80515157021E+02  0.11103815758E+03  0.00000000000E+00 0.  1.
</event>
<event>
 7    1  0.6506388E-006  0.6106521E+02  0.7561462E-02  0.1393415E+00
          2   -1    0    0  501    0  0.00000000000E+00  0.00000000000E+00  0.52232671503E+02  0.52232671503E+02  0.00000000000E+00 0. -1.
         -2   -1    0    0    0  501 -0.00000000000E+00 -0.00000000000E+00 -0.22968124724E+03  0.22968124724E+03  0.00000000000E+00 0.  1.
         23    2    1    2    0    0 -0.56181488754E+01  0.21673315802E+02 -0.14768045539E+03  0.19483150174E+03  0.12509396849E+03 0.  0.
          5    1    3    3  502    0  0.36160697615E+02  0.29533738206E+02 -0.14459497702E+03  0.15200334708E+03  0.41800000000E+01 0. -1.
         -5    1    3    3    0  502 -0.41778846491E+02 -0.78604224040E+01 -0.30854783633E+01  0.42828154656E+02  0.41800000000E+01 0. -1.
        -11    1    1    2    0    0 -0.76283493994E+01 -0.16751715848E+02 -0.55090325058E+02  0.58084039231E+02  0.00000000000E+00 0.  1.
         11    1    1    2    0    0  0.13246498275E+02 -0.49215999545E+01  0.25322204702E+02  0.28998377776E+02  0.00000000000E+00 0. -1.
</event>
<event>
 7    1  0.6506388E-006  0.9003383E+02  0.7561462E-02  0.1302770E+00
         -2   -1    0    0    0  501 -0.00000000000E+00  0.00000000000E+00  0.75369680122E+02  0.75369680122E+02  0.00000000000E+00 0.  1.
          2   -1    0    0  501    0  0.00000000000E+00 -0.00000000000E+00 -0.18591885212E+03  0.18591885212E+03  0.00000000000E+00 0. -1.
         23    2    1    2    0    0  0.22041518395E+02 -0.22122291854E+02 -0.29415582468E+02  0.13224224177E+03  0.12509000635E+03 0.  0.
          5    1    3    3  502    0 -0.32266467298E+02 -0.53423276522E+01  0.33737299946E+02  0.47173543266E+02  0.41800000000E+01 0.  1.
         -5    1    3    3    0  502  0.54307985693E+02 -0.16779964202E+02 -0.63152882414E+02  0.85068698508E+02  0.41800000000E+01 0.  1.
        -11    1    1    2    0    0  0.27800911310E+02 -0.11386107986E+02 -0.25644700529E+01  0.30151461514E+02  0.00000000000E+00 0.  1.
         11    1    1    2    0    0 -0.49842429705E+02  0.33508399840E+02 -0.78569119479E+02  0.98894828957E+02  0.00000000000E+00 0. -1.
</event>
<event>
 7    1  0.6506388E-006  0.9217832E+02  0.7561462E-02  0.1297661E+00
         -1   -1    0    0    0  501 -0.00000000000E+00  0.00000000000E+00  0.42585486261E+03  0.42585486261E+03  0.00000000000E+00 0.  1.
          1   -1    0    0  501    0  0.00000000000E+00 -0.00000000000E+00 -0.71179808191E+02  0.71179808191E+02  0.00000000000E+00 0. -1.
         23    2    1    2    0    0  0.76545975017E+01  0.81627539119E+02  0.34050667202E+03  0.37190694496E+03  0.12509330124E+03 0.  0.
          5    1    3    3  502    0 -0.13919904483E+02  0.37912706791E+02  0.15854694944E+02  0.43588769526E+02  0.41800000000E+01 0.  1.
         -5    1    3    3    0  502  0.21574501984E+02  0.43714832328E+02  0.32465197708E+03  0.32831817544E+03  0.41800000000E+01 0.  1.
        -11    1    1    2    0    0 -0.15819063170E+02 -0.34087675684E+01  0.39352729659E+02  0.42549968126E+02  0.00000000000E+00 0.  1.
         11    1    1    2    0    0  0.81644656679E+01 -0.78218771551E+02 -0.25184347259E+02  0.82577757716E+02  0.00000000000E+00 0. -1.
</event>
<event>
 7    1  0.6506388E-006  0.1211859E+03  0.7561462E-02  0.1241153E+00
         -4   -1    0    0    0  501 -0.00000000000E+00  0.00000000000E+00  0.72356681862E+02  0.72356681862E+02  0.00000000000E+00 0.  1.
          4   -1    0    0  501    0  0.00000000000E+00 -0.00000000000E+00 -0.35033959824E+03  0.35033959824E+03  0.00000000000E+00 0. -1.
         23    2    1    2    0    0 -0.63495404262E+01 -0.10490734153E+03 -0.82949424293E+02  0.18323856728E+03  0.12509955466E+03 0.  0.
          5    1    3    3  502    0 -0.20619451328E+02 -0.74313185449E+02 -0.11365481786E+03  0.13741361406E+03  0.41800000000E+01 0. -1.
         -5    1    3    3    0  502  0.14269910902E+02 -0.30594156081E+02  0.30705393570E+02  0.45824953222E+02  0.41800000000E+01 0. -1.
        -11    1    1    2    0    0 -0.20749030748E+02  0.10174493123E+03 -0.18125789088E+03  0.20889465363E+03  0.00000000000E+00 0. -1.
         11    1    1    2    0    0  0.27098571174E+02  0.31624102960E+01 -0.13775601200E+02  0.30563059189E+02  0.00000000000E+00 0.  1.
</event>
<event>
 7    1  0.6506388E-006  0.1490167E+03  0.7561462E-02  0.1201686E+00
         -2   -1    0    0    0  501 -0.00000000000E+00  0.00000000000E+00  0.13511261365E+03  0.13511261365E+03  0.00000000000E+00 0.  1.
          2   -1    0    0  501    0  0.00000000000E+00 -0.00000000000E+00 -0.17359261799E+03  0.17359261799E+03  0.00000000000E+00 0. -1.
         23    2    1    2    0    0  0.59115791399E+02  0.84395309502E+02  0.12338952361E+02  0.16251819590E+03  0.12507065680E+03 0.  0.
          5    1    3    3  502    0  0.81291105684E+02  0.77255334980E+01  0.80273028682E+00  0.81768236542E+02  0.41800000000E+01 0. -1.
         -5    1    3    3    0  502 -0.22175314285E+02  0.76669776004E+02  0.11536222074E+02  0.80749959355E+02  0.41800000000E+01 0. -1.
        -11    1    1    2    0    0 -0.18024281610E+02  0.18330725859E+02 -0.38668569859E+01  0.25996977152E+02  0.00000000000E+00 0. -1.
         11    1    1    2    0    0 -0.41091509789E+02 -0.10272603536E+03 -0.46952099708E+02  0.12019005859E+03  0.00000000000E+00 0.  1.
</event>
<event>
 7    1  0.6506388E-006  0.1309720E+03  0.7561462E-02  0.1226021E+00
         -2   -1    0    0    0  501 -0.00000000000E+00  0.00000000000E+00  0.13299945404E+03  0.13299945404E+03  0.00000000000E+00 0.  1.
          2   -1    0    0  501    0  0.00000000000E+00 -0.00000000000E+00 -0.25565091702E+03  0.25565091702E+03  0.00000000000E+00 0. -1.
         23    2    1    2    0    0 -0.12326973068E+03 -0.41718065081E+02  0.86480620208E+01  0.18071681638E+03  0.12509178746E+03 0.  0.
          5    1    3    3  502    0 -0.85110127226E+02 -0.19374304622E+02 -0.54887468531E+02  0.10319498068E+03  0.41800000000E+01 0. -1.
         -5    1    3    3    0  502 -0.38159603453E+02 -0.22343760459E+02  0.63535530552E+02  0.77521835696E+02  0.41800000000E+01 0. -1.
        -11    1    1    2    0    0  0.47893307414E+02  0.15851713764E+02 -0.11639918553E+03  0.12686140515E+03  0.00000000000E+00 0. -1.
         11    1    1    2    0    0  0.75376423265E+02  0.25866351318E+02 -0.14900339470E+02  0.81072149540E+02  0.00000000000E+00 0.  1.
</event>
<event>
 7    1  0.6506388E-006  0.1377633E+03  0.7561462E-02  0.1216371E+00
         -2   -1    0    0    0  501 -0.00000000000E+00  0.00000000000E+00  0.23836740162E+03  0.23836740162E+03  0.00000000000E+00 0.  1.
          2   -1    0    0  501    0  0.00000000000E+00 -0.00000000000E+00 -0.13877822049E+03  0.13877822049E+03  0.00000000000E+00 0. -1.
         23    2    1    2    0    0  0.13283467490E+03 -0.31058240521E+02  0.10620367792E+03  0.21338488018E+03  0.12507685927E+03 0.  0.
          5    1    3    3  502    0  0.80784273669E+02 -0.23761430380E+02  0.13047248517E+03  0.15534235171E+03  0.41800000000E+01 0. -1.
         -5    1    3    3    0  502  0.52050401226E+02 -0.72968101403E+01 -0.24268807251E+02  0.58042528472E+02  0.41800000000E+01 0. -1.
        -11    1    1    2    0    0 -0.11309019759E+03  0.17251880939E+02  0.31512514457E+02  0.11865942337E+03  0.00000000000E+00 0. -1.
         11    1    1    2    0    0 -0.19744477307E+02  0.13806359582E+02 -0.38127011250E+02  0.45101318560E+02  0.00000000000E+00 0.  1.
</event>
<event>
 7    1  0.6506388E-006  0.1220838E+03  0.7561462E-02  0.1239699E+00
          1   -1    0    0  501    0  0.00000000000E+00  0.00000000000E+00  0.38718509959E+03  0.38718509959E+03  0.00000000000E+00 0. -1.
         -1   -1    0    0    0  501 -0.00000000000E+00 -0.00000000000E+00 -0.42332784290E+02  0.42332784290E+02  0.00000000000E+00 0.  1.
         23    2    1    2    0    0 -0.41719373301E+01  0.60031194539E+02  0.14067619981E+03  0.19763171518E+03  0.12508937713E+03 0.  0.
          5    1    3    3  502    0  0.82062877432E+00  0.99074817579E+02  0.97853393336E+02  0.13931709119E+03  0.41800000000E+01 0.  1.
         -5    1    3    3    0  502 -0.49925661044E+01 -0.39043623041E+02  0.42822806477E+02  0.58314623989E+02  0.41800000000E+01 0.  1.
        -11    1    1    2    0    0 -0.13460187049E+01  0.22581512365E+02  0.75987967805E+02  0.79283716602E+02  0.00000000000E+00 0.  1.
         11    1    1    2    0    0  0.55179560350E+01 -0.82612706903E+02  0.12818814768E+03  0.15260245210E+03  0.00000000000E+00 0. -1.
</event>
<event>
 7    1  0.6506388E-006  0.2151436E+03  0.7561462E-02  0.1137556E+00
          2   -1    0    0  501    0  0.00000000000E+00  0.00000000000E+00  0.10558665399E+04  0.10558665399E+04  0.00000000000E+00 0.  1.
         -2   -1    0    0    0  501 -0.00000000000E+00 -0.00000000000E+00 -0.52728220587E+02  0.52728220587E+02  0.00000000000E+00 0. -1.
         23    2    1    2    0    0  0.20591193019E+03  0.19823731906E+02  0.44498641181E+03  0.50640895413E+03  0.12507765107E+03 0.  0.
          5    1    3    3  502    0  0.12962959571E+03 -0.19935973691E+02  0.36870906847E+03  0.39136316217E+03  0.41800000000E+01 0. -1.
         -5    1    3    3    0  502  0.76282334480E+02  0.39759705596E+02  0.76277343334E+02  0.11504579197E+03  0.41800000000E+01 0. -1.
        -11    1    1    2    0    0 -0.14923604959E+03  0.87095078866E+01  0.28574601656E+03  0.32248727108E+03  0.00000000000E+00 0. -1.
         11    1    1    2    0    0 -0.56675880592E+02 -0.28533239792E+02  0.27240589095E+03  0.27969853528E+03  0.00000000000E+00 0.  1.
</event>
<event>
 7    1  0.6506388E-006  0.8555209E+02  0.7561462E-02  0.1313995E+00
          2   -1    0    0  501    0  0.00000000000E+00  0.00000000000E+00  0.47174123859E+03  0.47174123859E+03  0.00000000000E+00 0. -1.
         -2   -1    0    0    0  501 -0.00000000000E+00 -0.00000000000E+00 -0.41476147333E+02  0.41476147333E+02  0.00000000000E+00 0.  1.
         23    2    1    2    0    0 -0.65744962494E+02 -0.83432029771E+00  0.12740527318E+03  0.19026911743E+03  0.12508851758E+03 0.  0.
          5    1    3    3  502    0 -0.51409739079E+02 -0.70560503338E+00 -0.95851682587E+01  0.52467199288E+02  0.41800000000E+01 0.  1.
         -5    1    3    3    0  502 -0.14335223415E+02 -0.12871526432E+00  0.13699044144E+03  0.13780191814E+03  0.41800000000E+01 0.  1.
        -11    1    1    2    0    0  0.70717480161E+02 -0.27458108207E+02  0.26361623448E+03  0.27431447062E+03  0.00000000000E+00 0. -1.
         11    1    1    2    0    0 -0.49725176674E+01  0.28292428504E+02  0.39243583597E+02  0.48633797879E+02  0.00000000000E+00 0.  1.
</event>
<event>
 7    1  0.9611410E-006  0.3481388E+03  0.7561462E-02  0.1063382E+00
         -2   -1    0    0    0  501 -0.00000000000E+00  0.00000000000E+00  0.23065972006E+03  0.23065972006E+03  0.00000000000E+00 0.  1.
          2   -1    0    0  501    0  0.00000000000E+00 -0.00000000000E+00 -0.54121544391E+03  0.54121544391E+03  0.00000000000E+00 0. -1.
         23    2    1    2    0    0  0.33048784000E+03 -0.24145499991E+02 -0.97940512943E+02  0.36748430523E+03  0.12508858044E+03 0.  0.
          5    1    3    3  502    0  0.28491990159E+03 -0.63793237723E+02 -0.94200401919E+02  0.30682261264E+03  0.41800000000E+01 0. -1.
         -5    1    3    3    0  502  0.45567938406E+02  0.39647737732E+02 -0.37401110244E+01  0.60661692594E+02  0.41800000000E+01 0. -1.
        -11    1    1    2    0    0 -0.13615825751E+03 -0.35021454784E+02 -0.94710267770E+02  0.16951580517E+03  0.00000000000E+00 0.  1.
         11    1    1    2    0    0 -0.19432958249E+03  0.59166954775E+02 -0.11790494313E+03  0.23487505356E+03  0.00000000000E+00 0. -1.
</event>
<event>
 7    1  0.6506388E-006  0.2759123E+03  0.7561462E-02  0.1097943E+00
          1   -1    0    0  501    0  0.00000000000E+00  0.00000000000E+00  0.60265682093E+03  0.60265682093E+03  0.00000000000E+00 0. -1.
         -1   -1    0    0    0  501 -0.00000000000E+00 -0.00000000000E+00 -0.13172582723E+03  0.13172582723E+03  0.00000000000E+00 0.  1.
         23    2    1    2    0    0  0.25001897861E+03  0.70331001889E+02  0.24716413983E+03  0.37972881545E+03  0.12509165350E+03 0.  0.
          5    1    3    3  502    0  0.11506448102E+03  0.84350409679E+02  0.77403466200E+02  0.16236870199E+03  0.41800000000E+01 0. -1.
         -5    1    3    3    0  502  0.13495449758E+03 -0.14019407789E+02  0.16976067363E+03  0.21736011347E+03  0.41800000000E+01 0. -1.
        -11    1    1    2    0    0 -0.25009355924E+03 -0.52534984273E+02  0.19772840539E+03  0.32311489480E+03  0.00000000000E+00 0.  1.
         11    1    1    2    0    0  0.74580629973E-01 -0.17796017616E+02  0.26038448474E+02  0.31538937906E+02  0.00000000000E+00 0. -1.
</event>
<event>
 7    1  0.6506388E-006  0.1207792E+03  0.7561462E-02  0.1241817E+00
         -1   -1    0    0    0  501 -0.00000000000E+00  0.00000000000E+00  0.23755889912E+03  0.23755889912E+03  0.00000000000E+00 0.  1.
          1   -1    0    0  501    0  0.00000000000E+00 -0.00000000000E+00 -0.76393146624E+02  0.76393146624E+02  0.00000000000E+00 0. -1.
         23    2    1    2    0    0 -0.21973223966E+02  0.76860216897E+02  0.91167646898E+02  0.17421008228E+03  0.12508915787E+03 0.  0.
          5    1    3    3  502    0  0.38788555520E+02  0.19994420515E+02  0.78521510215E+02  0.89930133201E+02  0.41800000000E+01 0.  1.
         -5    1    3    3    0  502 -0.60761779486E+02  0.56865796381E+02  0.12646136683E+02  0.84279949083E+02  0.41800000000E+01 0.  1.
        -11    1    1    2    0    0 -0.27073630755E+02 -0.53732805755E+02  0.59283706532E+02  0.84467471589E+02  0.00000000000E+00 0.  1.
         11    1    1    2    0    0  0.49046854720E+02 -0.23127411142E+02  0.10714399065E+02  0.55274491870E+02  0.00000000000E+00 0. -1.
</event>
<event>
 6    1  0.6506388E-006  0.1607395E+03  0.7561462E-02  0.1187864E+00
         -1   -1    0    0    0  501 -0.00000000000E+00  0.00000000000E+00  0.50091755832E+02  0.50091755832E+02  0.00000000000E+00 0.  1.
          1   -1    0    0  501    0  0.00000000000E+00 -0.00000000000E+00 -0.65591472949E+03  0.65591472949E+03  0.00000000000E+00 0. -1.
          5    1    1    2  502    0 -0.64264867603E+02 -0.62510718101E+02 -0.26647260152E+03  0.28118087212E+03  0.41800000000E+01 0. -1.
         -5    1    1    2    0  502  0.58425037683E+02  0.12491665028E+03 -0.14466837848E+03  0.19991014651E+03  0.41800000000E+01 0.  1.
        -11    1    1    2    0    0  0.22801724815E+01 -0.77864669561E+02 -0.19397994227E+03  0.20903665696E+03  0.00000000000E+00 0. -1.
         11    1    1    2    0    0  0.35596574381E+01  0.15458737380E+02 -0.70205140054E+00  0.15878809736E+02  0.00000000000E+00 0.  1.
</event>
<event>
 6    1  0.6506388E-006  0.5557153E+02  0.7561462E-02  0.1417415E+00
          2   -1    0    0  501    0  0.00000000000E+00  0.00000000000E+00  0.90169304147E+03  0.90169304147E+03  0.00000000000E+00 0. -1.
         -2   -1    0    0    0  501 -0.00000000000E+00 -0.00000000000E+00 -0.23731885746E+02  0.23731885746E+02  0.00000000000E+00 0.  1.
          5    1    1    2  502    0  0.10137583345E+02  0.32244465190E+02  0.71317273826E+03  0.71398550624E+03  0.41800000000E+01 0. -1.
         -5    1    1    2    0  502 -0.31090518392E+01  0.53182376277E+01 -0.90705954480E+01  0.11734477261E+02  0.41800000000E+01 0.  1.
        -11    1    1    2    0    0  0.25792211754E+02 -0.17610857328E+02  0.15268405286E+03  0.15584543779E+03  0.00000000000E+00 0. -1.
         11    1    1    2    0    0 -0.32820743260E+02 -0.19951845490E+02  0.21174960062E+02  0.43859505927E+02  0.00000000000E+00 0.  1.
</event>
<event>
 7    1  0.6506388E-006  0.1227434E+03  0.7561462E-02  0.1238639E+00
         -2   -1    0    0    0  501 -0.00000000000E+00  0.00000000000E+00  0.47047461134E+03  0.47047461134E+03  0.00000000000E+00 0.  1.
          2   -1    0    0  501    0  0.00000000000E+00 -0.00000000000E+00 -0.61590132120E+02  0.61590132120E+02  0.00000000000E+00 0. -1.
         23    2    1    2    0    0 -0.53853527238E+02  0.81721368865E+02  0.34465448119E+03  0.37949074302E+03  0.12509167884E+03 0.  0.
          5    1    3    3  502    0 -0.35896568616E+02 -0.47173446298E+01  0.23891014672E+03  0.24167405236E+03  0.41800000000E+01 0. -1.
         -5    1    3    3    0  502 -0.17956958622E+02  0.86438713495E+02  0.10574433446E+03  0.13781669066E+03  0.41800000000E+01 0. -1.
        -11    1    1    2    0    0  0.35406185308E+02  0.14789353157E+01 -0.12821081005E+02  0.37685080946E+02  0.00000000000E+00 0. -1.
         11    1    1    2    0    0  0.18447341930E+02 -0.83200304181E+02  0.77051079037E+02  0.11488891949E+03  0.00000000000E+00 0.  1.
</event>
<event>
 7    1  0.6506388E-006  0.9096522E+02  0.7561462E-02  0.1300531E+00
          4   -1    0    0  501    0  0.00000000000E+00  0.00000000000E+00  0.96550470025E+02  0.96550470025E+02  0.00000000000E+00 0. -1.
         -4   -1    0    0    0  501 -0.00000000000E+00 -0.00000000000E+00 -0.16791074275E+03  0.16791074275E+03  0.00000000000E+00 0.  1.
         23    2    1    2    0    0  0.22862667571E+02  0.14284393520E+02 -0.10087031063E+03  0.16293949814E+03  0.12509082709E+03 0.  0.
          5    1    3    3  502    0  0.27920786318E+02 -0.38991193859E+02  0.60361717573E+00  0.48142707245E+02  0.41800000000E+01 0.  1.
         -5    1    3    3    0  502 -0.50581187467E+01  0.53275587379E+02 -0.10147392781E+03  0.11479679090E+03  0.41800000000E+01 0.  1.
        -11    1    1    2    0    0  0.27272499833E+02  0.21401890509E+01  0.39280291023E+02  0.47867639582E+02  0.00000000000E+00 0. -1.
         11    1    1    2    0    0 -0.50135167405E+02 -0.16424582571E+02 -0.97702531141E+01  0.53654075048E+02  0.00000000000E+00 0.  1.
</event>
<event>
 7    1  0.6506388E-006  0.8567970E+02  0.7561462E-02  0.1313665E+00
          2   -1    0    0  501    0  0.00000000000E+00  0.00000000000E+00  0.16697508814E+03  0.16697508814E+03  0.00000000000E+00 0.  1.
         -2   -1    0    0    0  501 -0.00000000000E+00 -0.00000000000E+00 -0.27210345383E+03  0.27210345383E+03  0.00000000000E+00 0. -1.
         23    2    1    2    0    0  0.44364130373E+02 -0.51201234608E+02 -0.23020143623E+03  0.27061046317E+03  0.12509028357E+03 0.  0.
          5    1    3    3  502    0 -0.16046225991E+02 -0.34494698634E+02 -0.72181480261E+01  0.38947909615E+02  0.41800000000E+01 0.  1.
         -5    1    3    3    0  502  0.60410356364E+02 -0.16706535974E+02 -0.22298328820E+03  0.23166255355E+03  0.41800000000E+01 0.  1.
        -11    1    1    2    0    0 -0.12579413009E+02  0.28670585445E+02  0.12566180964E+03  0.12950341503E+03  0.00000000000E+00 0.  1.
         11    1    1    2    0    0 -0.31784717364E+02  0.22530649163E+02 -0.58873909985E+00  0.38964663778E+02  0.00000000000E+00 0. -1.
</event>
<event>
 7    1  0.6506388E-006  0.1608597E+03  0.7561462E-02  0.1187730E+00
         -2   -1    0    0    0  501 -0.00000000000E+00  0.00000000000E+00  0.12386109781E+03  0.12386109781E+03  0.00000000000E+00 0.  1.
          2   -1    0    0  501    0  0.00000000000E+00 -0.00000000000E+00 -0.36281102845E+03  0.36281102845E+03  0.00000000000E+00 0. -1.
         23    2    1    2    0    0 -0.11448123934E+03 -0.85280529088E+02  0.16329166665E+02  0.18107379137E+03  0.11019234744E+03 0.  0.
          5    1    3    3  502    0  0.21074789311E+02 -0.84092884758E+01 -0.53438031147E+01  0.23683148205E+02  0.41800000000E+01 0. -1.
         -5    1    3    3    0  502 -0.13555602865E+03 -0.76871240612E+02  0.21672969780E+02  0.15739064317E+03  0.41800000000E+01 0.  1.
        -11    1    1    2    0    0  0.59160572009E+02  0.44504833137E+02 -0.50553275779E+02  0.89645340899E+02  0.00000000000E+00 0. -1.
         11    1    1    2    0    0  0.55320667334E+02  0.40775695951E+02 -0.20472582153E+03  0.21595299399E+03  0.00000000000E+00 0.  1.
</event>
<event>
 7    1  0.6506388E-006  0.1034521E+03  0.7561462E-02  0.1273200E+00
          2   -1    0    0  501    0  0.00000000000E+00  0.00000000000E+00  0.83527054498E+03  0.83527054498E+03  0.00000000000E+00 0. -1.
         -2   -1    0    0    0  501 -0.00000000000E+00 -0.00000000000E+00 -0.20179706447E+02  0.20179706447E+02  0.00000000000E+00 0.  1.
         23    2    1    2    0    0  0.58296413833E+02 -0.22290001975E+02  0.33769051708E+03  0.36548152383E+03  0.12508614184E+03 0.  0.
          5    1    3    3  502    0  0.63780808821E+02 -0.42229305480E+02  0.95759087366E+02  0.12263189238E+03  0.41800000000E+01 0. -1.
         -5    1    3    3    0  502 -0.54843949882E+01  0.19939303504E+02  0.24193142971E+03  0.24284963145E+03  0.41800000000E+01 0. -1.
        -11    1    1    2    0    0 -0.15539126835E+02  0.53854895362E+02  0.21095109748E+03  0.21827088616E+03  0.00000000000E+00 0.  1.
         11    1    1    2    0    0 -0.42757286998E+02 -0.31564893387E+02  0.26644922398E+03  0.27169784144E+03  0.00000000000E+00 0. -1.
</event>
<event>
 7    1  0.6506388E-006  0.1316970E+03  0.7561462E-02  0.1224959E+00
         -2   -1    0    0    0  501 -0.00000000000E+00  0.00000000000E+00  0.92646414084E+02  0.92646414084E+02  0.00000000000E+00 0.  1.
          2   -1    0    0  501    0  0.00000000000E+00 -0.00000000000E+00 -0.20771989989E+03  0.20771989989E+03  0.00000000000E+00 0. -1.
         23    2    1    2    0    0  0.80838372531E+02 -0.33365721869E+02 -0.75459886591E+02  0.17026591035E+03  0.12509265316E+03 0.  0.
          5    1    3    3  502    0  0.41137317517E+02  0.41226646014E+02 -0.60990033746E+02  0.84434423373E+02  0.41800000000E+01 0. -1.
         -5    1    3    3    0  502  0.39701055014E+02 -0.74592367882E+02 -0.14469852845E+02  0.85831486978E+02  0.41800000000E+01 0. -1.
        -11    1    1    2    0    0 -0.12875014992E+02 -0.26736266241E+02 -0.23725667695E+02  0.37993436948E+02  0.00000000000E+00 0. -1.
         11    1    1    2    0    0 -0.67963357539E+02  0.60101988110E+02 -0.15887931525E+02  0.92106966679E+02  0.00000000000E+00 0.  1.
</event>
<event>
 7    1  0.6506388E-006  0.9578886E+02  0.7561462E-02  0.1289409E+00
         -3   -1    0    0    0  501 -0.00000000000E+00  0.00000000000E+00  0.80213410640E+03  0.80213410640E+03  0.00000000000E+00 0.  1.
          3   -1    0    0  501    0  0.00000000000E+00 -0.00000000000E+00 -0.17577663970E+02  0.17577663970E+02  0.00000000000E+00 0. -1.
         23    2    1    2    0    0  0.48936618755E+02  0.40593026034E+02  0.46104990577E+03  0.48193108472E+03  0.12509183982E+03 0.  0.
          5    1    3    3  502    0  0.61404076521E+02  0.88677187830E+00  0.41571996098E+03  0.42025207357E+03  0.41800000000E+01 0.  1.
         -5    1    3    3    0  502 -0.12467457766E+02  0.39706254156E+02  0.45329944786E+02  0.61679011151E+02  0.41800000000E+01 0.  1.
        -11    1    1    2    0    0  0.25531917971E+01  0.13369789090E+02  0.14450061613E+02  0.19851305481E+02  0.00000000000E+00 0. -1.
         11    1    1    2    0    0 -0.51489810552E+02 -0.53962815124E+02  0.30905647505E+03  0.31792938017E+03  0.00000000000E+00 0.  1.
</event>
<event>
 7    1  0.6506388E-006  0.1755618E+03  0.7561462E-02  0.1172169E+00
          2   -1    0    0  501    0  0.00000000000E+00  0.00000000000E+00  0.67475555959E+03  0.67475555959E+03  0.00000000000E+00 0.  1.
         -2   -1    0    0    0  501 -0.00000000000E+00 -0.00000000000E+00 -0.53670630776E+02  0.53670630776E+02  0.00000000000E+00 0. -1.
         23    2    1    2    0    0  0.11112507492E+03 -0.88900963172E+02  0.20313235587E+03  0.27778238066E+03  0.12509249968E+03 0.  0.
          5    1    3    3  502    0  0.77778163714E+01  0.27048562812E+02  0.60532742476E+02  0.66886504538E+02  0.41800000000E+01 0. -1.
         -5    1    3    3    0  502  0.10334725855E+03 -0.11594952598E+03  0.14259961339E+03  0.21089587612E+03  0.41800000000E+01 0. -1.
        -11    1    1    2    0    0 -0.39666905130E+02  0.87217254184E+02  0.21218319273E+03  0.23281327297E+03  0.00000000000E+00 0. -1.
         11    1    1    2    0    0 -0.71458169787E+02  0.16837089875E+01  0.20576938021E+03  0.21783053674E+03  0.00000000000E+00 0.  1.
</event>
<event>
 7    1  0.6506388E-006  0.1401423E+03  0.7561462E-02  0.1213138E+00
          3   -1    0    0  501    0  0.00000000000E+00  0.00000000000E+00  0.11712844091E+02  0.11712844091E+02  0.00000000000E+00 0. -1.
         -3   -1    0    0    0  501 -0.00000000000E+00 -0.00000000000E+00 -0.22166542707E+04  0.22166542707E+04  0.00000000000E+00 0.  1.
         23    2    1    2    0    0  0.71261970776E+02  0.72887210184E+02 -0.15991378188E+04  0.16072584118E+04  0.12508806772E+03 0.  0.
          5    1    3    3  502    0  0.46139030295E+02 -0.25112883199E+02 -0.34042553685E+03  0.34448002201E+03  0.41800000000E+01 0. -1.
         -5    1    3    3    0  502  0.25122940481E+02  0.98000093383E+02 -0.12587122820E+04  0.12627783898E+04  0.41800000000E+01 0. -1.
        -11    1    1    2    0    0 -0.88337145338E+01  0.15666666217E+02 -0.28316272278E+02  0.33545345706E+02  0.00000000000E+00 0. -1.
         11    1    1    2    0    0 -0.62428256243E+02 -0.88553876400E+02 -0.57748733547E+03  0.58756335729E+03  0.00000000000E+00 0.  1.
</event>
<event>
 7    1  0.6506388E-006  0.1033389E+03  0.7561462E-02  0.1273427E+00
         -2   -1    0    0    0  501 -0.00000000000E+00  0.00000000000E+00  0.40485648297E+03  0.40485648297E+03  0.00000000000E+00 0.  1.
          2   -1    0    0  501    0  0.00000000000E+00 -0.00000000000E+00 -0.41611332863E+02  0.41611332863E+02  0.00000000000E+00 0. -1.
         23    2    1    2    0    0  0.26401024907E+02 -0.16441239786E+02  0.30987961968E+03  0.33561829298E+03  0.12508769487E+03 0.  0.
          5    1    3    3  502    0  0.10865619056E+02 -0.61308202594E+02  0.25682373728E+03  0.26429654144E+03  0.41800000000E+01 0.  1.
         -5    1    3    3    0  502  0.15535405851E+02  0.44866962808E+02  0.53055882400E+02  0.71321751547E+02  0.41800000000E+01 0.  1.
        -11    1    1    2    0    0  0.24882838897E+02 -0.21445545016E+02  0.23815894099E+02  0.40574177556E+02  0.00000000000E+00 0. -1.
         11    1    1    2    0    0 -0.51283863804E+02  0.37886784802E+02  0.29549636325E+02  0.70275345294E+02  0.00000000000E+00 0.  1.
</event>
<event>
 7    1  0.9223524E-006  0.1547910E+03  0.7561462E-02  0.1194706E+00
         -1   -1    0    0    0  501 -0.00000000000E+00  0.00000000000E+00  0.45226138265E+02  0.45226138265E+02  0.00000000000E+00 0.  1.
          1   -1    0    0  501    0  0.00000000000E+00 -0.00000000000E+00 -0.68632001046E+03  0.68632001046E+03  0.00000000000E+00 0. -1.
         23    2    1    2    0    0  0.26786228911E+02 -0.13313830371E+03 -0.28997574912E+03  0.34376846966E+03  0.12509003030E+03 0.  0.
          5    1    3    3  502    0 -0.15330911165E+02 -0.19351849041E+02 -0.17426712234E+03  0.17605690338E+03  0.41800000000E+01 0.  1.
         -5    1    3    3    0  502  0.42117140077E+02 -0.11378645467E+03 -0.11570862678E+03  0.16771156628E+03  0.41800000000E+01 0.  1.
        -11    1    1    2    0    0  0.33745650710E+02  0.48086005418E+02 -0.15191682794E+03  0.16287957352E+03  0.00000000000E+00 0.  1.
         11    1    1    2    0    0 -0.60531879621E+02  0.85052298289E+02 -0.19920129514E+03  0.22489810555E+03  0.00000000000E+00 0. -1.
</event>
<event>
 7    1  0.6506388E-006  0.1593319E+03  0.7561462E-02  0.1189453E+00
         -1   -1    0    0    0  501 -0.00000000000E+00  0.00000000000E+00  0.64563188001E+02  0.64563188001E+02  0.00000000000E+00 0.  1.
          1   -1    0    0  501    0  0.00000000000E+00 -0.00000000000E+00 -0.51282699738E+03  0.51282699738E+03  0.00000000000E+00 0. -1.
         23    2    1    2    0    0  0.13173580810E+03 -0.61452665516E+02 -0.21621440150E+03  0.28901152516E+03  0.12509292957E+03 0.  0.
          5    1    3    3  502    0  0.10475046194E+03 -0.58620704533E+02 -0.22910625854E+03  0.25868165064E+03  0.41800000000E+01 0.  1.
         -5    1    3    3    0  502  0.26985346164E+02 -0.28319609828E+01  0.12891857043E+02  0.30329874524E+02  0.41800000000E+01 0.  1.
        -11    1    1    2    0    0 -0.74069549961E+02 -0.14763131798E+02 -0.10775282956E+03  0.13158617166E+03  0.00000000000E+00 0.  1.
         11    1    1    2    0    0 -0.57666258141E+02  0.76215797313E+02 -0.12429657832E+03  0.15679248857E+03  0.00000000000E+00 0. -1.
</event>
<event>
 7    1  0.6506388E-006  0.1461297E+03  0.7561462E-02  0.1205311E+00
          2   -1    0    0  501    0  0.00000000000E+00  0.00000000000E+00  0.58453389409E+03  0.58453389409E+03  0.00000000000E+00 0.  1.
         -2   -1    0    0    0  501 -0.00000000000E+00 -0.00000000000E+00 -0.43762771414E+02  0.43762771414E+02  0.00000000000E+00 0. -1.
         23    2    1    2    0    0 -0.10505743804E+03  0.41027986913E+01  0.18529093787E+03  0.24704689828E+03  0.12508213320E+03 0.  0.
          5    1    3    3  502    0  0.26308203929E+02 -0.12114514154E+02  0.48573953758E+02  0.56707886849E+02  0.41800000000E+01 0.  1.
         -5    1    3    3    0  502 -0.13136564197E+03  0.16217312846E+02  0.13671698412E+03  0.19033901143E+03  0.41800000000E+01 0.  1.
        -11    1    1    2    0    0  0.49496080386E+02 -0.40661789335E+02  0.23562770555E+03  0.24417956243E+03  0.00000000000E+00 0.  1.
         11    1    1    2    0    0  0.55561357651E+02  0.36558990644E+02  0.11985247925E+03  0.13707020480E+03  0.00000000000E+00 0. -1.
</event>
<event>
 7    1  0.6506388E-006  0.1381504E+03  0.7561462E-02  0.1215840E+00
          2   -1    0    0  501    0  0.00000000000E+00  0.00000000000E+00  0.20937379695E+03  0.20937379695E+03  0.00000000000E+00 0. -1.
         -2   -1    0    0    0  501 -0.00000000000E+00 -0.00000000000E+00 -0.10142978758E+03  0.10142978758E+03  0.00000000000E+00 0.  1.
         23    2    1    2    0    0  0.43892865991E+02 -0.75246347045E+02  0.12005161231E+02  0.15290599643E+03  0.12509006124E+03 0.  0.
          5    1    3    3  502    0  0.87841325606E+02 -0.43951354342E+02  0.84854278999E+01  0.98677732642E+02  0.41800000000E+01 0. -1.
         -5    1    3    3    0  502 -0.43948459615E+02 -0.31294992703E+02  0.35197333308E+01  0.54228263789E+02  0.41800000000E+01 0. -1.
        -11    1    1    2    0    0 -0.70690278430E+02  0.46710324058E+02  0.53722787830E+02  0.10032501069E+03  0.00000000000E+00 0. -1.
         11    1    1    2    0    0  0.26797412439E+02  0.28536022987E+02  0.42216060312E+02  0.57572577410E+02  0.00000000000E+00 0.  1.
</event>
<event>
 7    1  0.6506388E-006  0.1658085E+03  0.7561462E-02  0.1182291E+00
          2   -1    0    0  501    0  0.00000000000E+00  0.00000000000E+00  0.14358801059E+04  0.14358801059E+04  0.00000000000E+00 0. -1.
         -2   -1    0    0    0  501 -0.00000000000E+00 -0.00000000000E+00 -0.20607231821E+02  0.20607231821E+02  0.00000000000E+00 0.  1.
         23    2    1    2    0    0 -0.13105814930E+03  0.21441508141E+02  0.72226053547E+03  0.74494616601E+03  0.12509409414E+03 0.  0.
          5    1    3    3  502    0 -0.13522976901E+03 -0.18732704552E+02  0.47020939540E+03  0.48964512922E+03  0.41800000000E+01 0. -1.
         -5    1    3    3    0  502  0.41716197119E+01  0.40174212693E+02  0.25205114007E+03  0.25530103679E+03  0.41800000000E+01 0. -1.
        -11    1    1    2    0    0  0.53664337923E+02 -0.48605002269E+02  0.22400711380E+03  0.23541770206E+03  0.00000000000E+00 0. -1.
         11    1    1    2    0    0  0.77393811376E+02  0.27163494128E+02  0.46900522480E+03  0.47612346964E+03  0.00000000000E+00 0.  1.
</event>
<event>
 7    1  0.6506388E-006  0.1672834E+03  0.7561462E-02  0.1180711E+00
         -1   -1    0    0    0  501 -0.00000000000E+00  0.00000000000E+00  0.40583954642E+03  0.40583954642E+03  0.00000000000E+00 0.  1.
          1   -1    0    0  501    0  0.00000000000E+00 -0.00000000000E+00 -0.91932014214E+02  0.91932014214E+02  0.00000000000E+00 0. -1.
         23    2    1    2    0    0  0.11028715506E+03  0.79940121561E+02  0.27142480247E+03  0.32843991988E+03  0.12509067897E+03 0.  0.
          5    1    3    3  502    0 -0.13857455904E+02 -0.10701042618E+02  0.84492109067E+02  0.86388253205E+02  0.41800000000E+01 0. -1.
         -5    1    3    3    0  502  0.12414461096E+03  0.90641164179E+02  0.18693269340E+03  0.24205166667E+03  0.41800000000E+01 0. -1.
        -11    1    1    2    0    0  0.29800855189E+01  0.14820836734E+02  0.99904324972E+01  0.18120343614E+02  0.00000000000E+00 0. -1.
         11    1    1    2    0    0 -0.11326724057E+03 -0.94760958296E+02  0.32492297236E+02  0.15121129714E+03  0.00000000000E+00 0.  1.
</event>
<event>
 7    1  0.6506388E-006  0.1650224E+03  0.7561462E-02  0.1183140E+00
         -2   -1    0    0    0  501 -0.00000000000E+00  0.00000000000E+00  0.21259990642E+03  0.21259990642E+03  0.00000000000E+00 0.  1.
          2   -1    0    0  501    0  0.00000000000E+00 -0.00000000000E+00 -0.18084095964E+03  0.18084095964E+03  0.00000000000E+00 0. -1.
         23    2    1    2    0    0  0.14074588989E+03 -0.46879269737E+02  0.82388029171E+02  0.21081510227E+03  0.12509255991E+03 0.  0.
          5    1    3    3  502    0  0.14415789348E+03 -0.68318948782E+02  0.94644106943E+02  0.18553694078E+03  0.41800000000E+01 0. -1.
         -5    1    3    3    0  502 -0.34120035929E+01  0.21439679044E+02 -0.12256077772E+02  0.25278161492E+02  0.41800000000E+01 0. -1.
        -11    1    1    2    0    0 -0.55479876219E+02  0.17753008581E+02  0.26522132723E+02  0.64004761566E+02  0.00000000000E+00 0.  1.
         11    1    1    2    0    0 -0.85266013666E+02  0.29126261156E+02 -0.77151215114E+02  0.11862100223E+03  0.00000000000E+00 0. -1.
</event>
<event>
 7    1  0.6506388E-006  0.9145009E+02  0.7561462E-02  0.1299378E+00
         -2   -1    0    0    0  501 -0.00000000000E+00  0.00000000000E+00  0.81247669191E+02  0.81247669191E+02  0.00000000000E+00 0.  1.
          2   -1    0    0  501    0  0.00000000000E+00 -0.00000000000E+00 -0.16074637818E+03  0.16074637818E+03  0.00000000000E+00 0. -1.
         23    2    1    2    0    0 -0.25173628601E+02  0.12053520298E+02 -0.45763434649E+02  0.13608542026E+03  0.12508377484E+03 0.  0.
          5    1    3    3  502    0  0.40203182994E+02  0.60945439760E+01 -0.56187926019E+02  0.69483773786E+02  0.41800000000E+01 0. -1.
         -5    1    3    3    0  502 -0.65376811595E+02  0.59589763218E+01  0.10424491370E+02  0.66601646477E+02  0.41800000000E+01 0. -1.
        -11    1    1    2    0    0  0.72316062487E+01  0.29821453753E+02  0.19100205784E+02  0.36144613622E+02  0.00000000000E+00 0.  1.
         11    1    1    2    0    0  0.17942022352E+02 -0.41874974050E+02 -0.52835480128E+02  0.69764013490E+02  0.00000000000E+00 0. -1.
</event>
<event>
 7    1  0.6506388E-006  0.2002355E+03  0.7561462E-02  0.1149540E+00
          1   -1    0    0  501    0  0.00000000000E+00  0.00000000000E+00  0.12642730172E+03  0.12642730172E+03  0.00000000000E+00 0. -1.
         -1   -1    0    0    0  501 -0.00000000000E+00 -0.00000000000E+00 -0.37122029303E+03  0.37122029303E+03  0.00000000000E+00 0.  1.
         23    2    1    2    0    0 -0.11971523709E+03 -0.13998613655E+03 -0.89560978376E+02  0.23999202058E+03  0.12508854736E+03 0.  0.
          5    1    3    3  502    0 -0.70040197827E+02 -0.24542942919E+02  0.15736069538E+02  0.75980797859E+02  0.41800000000E+01 0. -1.
         -5    1    3    3    0  502 -0.49675039264E+02 -0.11544319363E+03 -0.10529704791E+03  0.16401122273E+03  0.41800000000E+01 0. -1.
        -11    1    1    2    0    0  0.11166757825E+03  0.74103511323E+02 -0.12981742668E+03  0.18658387576E+03  0.00000000000E+00 0.  1.
         11    1    1    2    0    0  0.80476588425E+01  0.65882625223E+02 -0.25414586252E+02  0.71071698400E+02  0.00000000000E+00 0. -1.
</event>
<event>
 7    1  0.6506388E-006  0.1047362E+03  0.7561462E-02  0.1270640E+00
          4   -1    0    0  501    0  0.00000000000E+00  0.00000000000E+00  0.18563414951E+03  0.18563414951E+03  0.00000000000E+00 0. -1.
         -4   -1    0    0    0  501 -0.00000000000E+00 -0.00000000000E+00 -0.81190778748E+02  0.81190778748E+02  0.00000000000E+00 0.  1.
         23    2    1    2    0    0  0.31767753396E+02  0.22034289329E+01  0.56922867558E+01  0.12920876057E+03  0.12509379051E+03 0.  0.
          5    1    3    3  502    0 -0.27185043992E+02 -0.35761496651E+02 -0.26082525931E+02  0.52112204123E+02  0.41800000000E+01 0.  1.
         -5    1    3    3    0  502  0.58952797388E+02  0.37964925584E+02  0.31774812687E+02  0.77096556446E+02  0.41800000000E+01 0.  1.
        -11    1    1    2    0    0 -0.62410219767E+02  0.50808228884E+01  0.77436677827E+02  0.99585588142E+02  0.00000000000E+00 0.  1.
         11    1    1    2    0    0  0.30642466371E+02 -0.72842518213E+01  0.21314406176E+02  0.38030579545E+02  0.00000000000E+00 0. -1.
</event>
<event>
 7    1  0.6506388E-006  0.1102592E+03  0.7561462E-02  0.1260091E+00
         -3   -1    0    0    0  501 -0.00000000000E+00  0.00000000000E+00  0.52102107380E+02  0.52102107380E+02  0.00000000000E+00 0.  1.
          3   -1    0    0  501    0  0.00000000000E+00 -0.00000000000E+00 -0.24530910433E+03  0.24530910433E+03  0.00000000000E+00 0. -1.
         23    2    1    2    0    0 -0.11794665580E+02 -0.19741706726E+02 -0.85764146637E+02  0.15340646544E+03  0.12509678521E+03 0.  0.
          5    1    3    3  502    0 -0.60780976567E+02  0.19830981198E+02 -0.44174267566E+02  0.77823089394E+02  0.41800000000E+01 0.  1.
         -5    1    3    3    0  502  0.48986310987E+02 -0.39572687924E+02 -0.41589879070E+02  0.75583376047E+02  0.41800000000E+01 0.  1.
        -11    1    1    2    0    0 -0.25908276635E+02 -0.24188391640E+02 -0.25452592083E+02  0.43636584789E+02  0.00000000000E+00 0. -1.
         11    1    1    2    0    0  0.37702942216E+02  0.43930098366E+02 -0.81990258232E+02  0.10036816148E+03  0.00000000000E+00 0.  1.
</event>
<event>
 7    1  0.6506388E-006  0.1189019E+03  0.7561462E-02  0.1244920E+00
          2   -1    0    0  501    0  0.00000000000E+00  0.00000000000E+00  0.86567649243E+03  0.86567649243E+03  0.00000000000E+00 0. -1.
         -2   -1    0    0    0  501 -0.00000000000E+00 -0.00000000000E+00 -0.18172151518E+02  0.18172151518E+02  0.00000000000E+00 0.  1.
         23    2    1    2    0    0 -0.16288435716E+02  0.53981365667E+02  0.36586840772E+03  0.39074871138E+03  0.12508222375E+03 0.  0.
          5    1    3    3  502    0  0.45489591918E+02  0.59522463078E+02  0.20185773347E+03  0.21535144194E+03  0.41800000000E+01 0. -1.
         -5    1    3    3    0  502 -0.61778027634E+02 -0.55410974108E+01  0.16401067425E+03  0.17539726944E+03  0.41800000000E+01 0. -1.
        -11    1    1    2    0    0 -0.21490308958E+02  0.11970915503E+02  0.63232601784E+02  0.67849083453E+02  0.00000000000E+00 0. -1.
         11    1    1    2    0    0  0.37778744674E+02 -0.65952281170E+02  0.41840333141E+03  0.42525084912E+03  0.00000000000E+00 0.  1.
</event>
<event>
 7    1  0.6506388E-006  0.2711731E+03  0.7561462E-02  0.1100610E+00
         -1   -1    0    0    0  501 -0.00000000000E+00  0.00000000000E+00  0.41807894135E+03  0.41807894135E+03  0.00000000000E+00 0.  1.
          1   -1    0    0  501    0  0.00000000000E+00 -0.00000000000E+00 -0.18528024701E+03  0.18528024701E+03  0.00000000000E+00 0. -1.
         23    2    1    2    0    0 -0.20281680145E+02 -0.24832330109E+03  0.54835118160E+02  0.28411936149E+03  0.12506443530E+03 0.  0.
          5    1    3    3  502    0  0.41398856290E+02 -0.29533918674E+02  0.42363689770E+01  0.51200946051E+02  0.41800000000E+01 0.  1.
         -5    1    3    3    0  502 -0.61680536435E+02 -0.21878938242E+03  0.50598749183E+02  0.23291841544E+03  0.41800000000E+01 0.  1.
        -11    1    1    2    0    0  0.43428367590E+02  0.23101709847E+03  0.16692030982E+03  0.28830073313E+03  0.00000000000E+00 0.  1.
         11    1    1    2    0    0 -0.23146687444E+02  0.17306202625E+02  0.11043266365E+02  0.30939093732E+02  0.00000000000E+00 0. -1.
</event>
<event>
 7    1  0.6506388E-006  0.2756050E+03  0.7561462E-02  0.1098114E+00
          1   -1    0    0  501    0  0.00000000000E+00  0.00000000000E+00  0.73861967973E+02  0.73861967973E+02  0.00000000000E+00 0. -1.
         -1   -1    0    0    0  501 -0.00000000000E+00 -0.00000000000E+00 -0.11413227765E+04  0.11413227765E+04  0.00000000000E+00 0.  1.
         23    2    1    2    0    0 -0.10613639057E+03 -0.24491511186E+03 -0.61148454892E+03  0.67882916683E+03  0.12508932306E+03 0.  0.
          5    1    3    3  502    0 -0.12064861759E+03 -0.17521177419E+03 -0.36768463556E+03  0.42481139152E+03  0.41800000000E+01 0. -1.
         -5    1    3    3    0  502  0.14512227016E+02 -0.69703337672E+02 -0.24379991337E+03  0.25401777531E+03  0.41800000000E+01 0. -1.
        -11    1    1    2    0    0  0.96419537865E+02  0.21421823122E+03 -0.44340389319E+03  0.50178998631E+03  0.00000000000E+00 0. -1.
         11    1    1    2    0    0  0.97168527093E+01  0.30696880640E+02 -0.12572366431E+02  0.34565591349E+02  0.00000000000E+00 0.  1.
</event>
<event>
 7    1  0.6506388E-006  0.1327174E+03  0.7561462E-02  0.1223478E+00
          2   -1    0    0  501    0  0.00000000000E+00  0.00000000000E+00  0.97424222920E+03  0.97424222920E+03  0.00000000000E+00 0.  1.
         -2   -1    0    0    0  501 -0.00000000000E+00 -0.00000000000E+00 -0.28076649430E+02  0.28076649430E+02  0.00000000000E+00 0. -1.
         23    2    1    2    0    0  0.10877740550E+03  0.25623911443E+02  0.34200533870E+03  0.38092599525E+03  0.12509138011E+03 0.  0.
          5    1    3    3  502    0  0.72536649998E+02  0.39439560139E+02  0.32987133436E+03  0.34007295413E+03  0.41800000000E+01 0. -1.
         -5    1    3    3    0  502  0.36240755497E+02 -0.13815648696E+02  0.12134004340E+02  0.40853041126E+02  0.41800000000E+01 0. -1.
        -11    1    1    2    0    0 -0.40310116298E+02  0.34176650251E+02  0.17985200235E+03  0.18745583920E+03  0.00000000000E+00 0. -1.
         11    1    1    2    0    0 -0.68467289197E+02 -0.59800561694E+02  0.42430823872E+03  0.43393704418E+03  0.00000000000E+00 0.  1.
</event>
<event>
 7    1  0.6506388E-006  0.1983878E+03  0.7561462E-02  0.1151106E+00
         -2   -1    0    0    0  501 -0.00000000000E+00  0.00000000000E+00  0.26798910938E+02  0.26798910938E+02  0.00000000000E+00 0.  1.
          2   -1    0    0  501    0  0.00000000000E+00 -0.00000000000E+00 -0.18420624227E+04  0.18420624227E+04  0.00000000000E+00 0. -1.
         23    2    1    2    0    0  0.16466137081E+03  0.80072069284E+02 -0.67964502184E+03  0.71490743771E+03  0.12510150063E+03 0.  0.
          5    1    3    3  502    0 -0.71247566637E-01 -0.51791859973E+01  0.31434162295E+01  0.73608769452E+01  0.41800000000E+01 0.  1.
         -5    1    3    3    0  502  0.16473261838E+03  0.85251255281E+02 -0.68278843807E+03  0.70754656077E+03  0.41800000000E+01 0.  1.
        -11    1    1    2    0    0 -0.61315137396E+01 -0.40810352773E+02 -0.20487436202E+03  0.20898943649E+03  0.00000000000E+00 0.  1.
         11    1    1    2    0    0 -0.15852985707E+03 -0.39261716510E+02 -0.93074412792E+03  0.94496445945E+03  0.00000000000E+00 0. -1.
</event>
<event>
 7    1  0.6506388E-006  0.1657407E+03  0.7561462E-02  0.1182364E+00
          1   -1    0    0  501    0  0.00000000000E+00  0.00000000000E+00  0.23408050453E+03  0.23408050453E+03  0.00000000000E+00 0. -1.
         -1   -1    0    0    0  501 -0.00000000000E+00 -0.00000000000E+00 -0.13650946651E+03  0.13650946651E+03  0.00000000000E+00 0.  1.
         23    2    1    2    0    0 -0.13543945903E+03 -0.44466848670E+02  0.50724492325E+02  0.19631760109E+03  0.12508588523E+03 0.  0.
          5    1    3    3  502    0  0.23478642953E+02 -0.11095078075E+02  0.13934008403E+02  0.29765356080E+02  0.41800000000E+01 0. -1.
         -5    1    3    3    0  502 -0.15891810198E+03 -0.33371770594E+02  0.36790483922E+02  0.16655224501E+03  0.41800000000E+01 0. -1.
        -11    1    1    2    0    0  0.57199821481E+02  0.14975728183E+02 -0.24841847541E+02  0.64134307522E+02  0.00000000000E+00 0.  1.
         11    1    1    2    0    0  0.78239637551E+02  0.29491120487E+02  0.71688393235E+02  0.11013806243E+03  0.00000000000E+00 0. -1.
</event>
<event>
 7    1  0.6506388E-006  0.1552171E+03  0.7561462E-02  0.1194205E+00
          1   -1    0    0  501    0  0.00000000000E+00  0.00000000000E+00  0.50232599734E+03  0.50232599734E+03  0.00000000000E+00 0. -1.
         -1   -1    0    0    0  501 -0.00000000000E+00 -0.00000000000E+00 -0.51189778821E+02  0.51189778821E+02  0.00000000000E+00 0.  1.
         23    2    1    2    0    0  0.11384995818E+03  0.17839939625E+02  0.19402167383E+03  0.25801849645E+03  0.12509619567E+03 0.  0.
          5    1    3    3  502    0  0.10293692081E+03 -0.36465699817E+02  0.15689535814E+03  0.19120508031E+03  0.41800000000E+01 0.  1.
         -5    1    3    3    0  502  0.10913037370E+02  0.54305639442E+02  0.37126315693E+02  0.66813416144E+02  0.41800000000E+01 0.  1.
        -11    1    1    2    0    0 -0.12916578588E+03 -0.15171651781E+02  0.22749869271E+03  0.26204891613E+03  0.00000000000E+00 0.  1.
         11    1    1    2    0    0  0.15315827700E+02 -0.26682878440E+01  0.29615851978E+02  0.33448363585E+02  0.00000000000E+00 0. -1.
</event>
<event>
 7    1  0.6506388E-006  0.1335999E+03  0.7561462E-02  0.1222210E+00
         -2   -1    0    0    0  501 -0.00000000000E+00  0.00000000000E+00  0.24461085187E+02  0.24461085187E+02  0.00000000000E+00 0.  1.
          2   -1    0    0  501    0  0.00000000000E+00 -0.00000000000E+00 -0.87161061266E+03  0.87161061266E+03  0.00000000000E+00 0. -1.
         23    2    1    2    0    0 -0.74630007400E+01  0.92924948218E+02 -0.36898410456E+03  0.40060896975E+03  0.12509010689E+03 0.  0.
          5    1    3    3  502    0  0.29986378019E+02 -0.20067127469E+02 -0.72390329938E+02  0.80992004173E+02  0.41800000000E+01 0.  1.
         -5    1    3    3    0  502 -0.37449378759E+02  0.11299207569E+03 -0.29659377462E+03  0.31961696557E+03  0.41800000000E+01 0.  1.
        -11    1    1    2    0    0 -0.26162824566E+02 -0.26081019307E+02 -0.58564465415E+02  0.69242397176E+02  0.00000000000E+00 0.  1.
         11    1    1    2    0    0  0.33625825306E+02 -0.66843928910E+02 -0.41960095750E+03  0.42622033093E+03  0.00000000000E+00 0. -1.
</event>
<event>
 7    1  0.6506388E-006  0.6483878E+02  0.7561462E-02  0.1378579E+00
         -2   -1    0    0    0  501 -0.00000000000E+00  0.00000000000E+00  0.86595778444E+02  0.86595778444E+02  0.00000000000E+00 0.  1.
          2   -1    0    0  501    0  0.00000000000E+00 -0.00000000000E+00 -0.16150486906E+03  0.16150486906E+03  0.00000000000E+00 0. -1.
         23    2    1    2    0    0  0.10464495092E+02  0.22338235304E+02  0.72539826699E+00  0.12750024009E+03  0.12508909867E+03 0.  0.
          5    1    3    3  502    0  0.17168707754E+02  0.21478342146E+02  0.60822479204E+02  0.66879967732E+02  0.41800000000E+01 0. -1.
         -5    1    3    3    0  502 -0.67042126624E+01  0.85989315830E+00 -0.60097080937E+02  0.60620272359E+02  0.41800000000E+01 0. -1.
        -11    1    1    2    0    0 -0.45844668554E+02 -0.33542903479E+02 -0.44588105334E+02  0.72214674034E+02  0.00000000000E+00 0.  1.
         11    1    1    2    0    0  0.35380173462E+02  0.11204668175E+02 -0.31046383549E+02  0.48385733378E+02  0.00000000000E+00 0. -1.
</event>
<event>
 6    1  0.6506388E-006  0.9409664E+02  0.7561462E-02  0.1293224E+00
          2   -1    0    0  501    0  0.00000000000E+00  0.00000000000E+00  0.20054903428E+03  0.20054903428E+03  0.00000000000E+00 0. -1.
         -2   -1    0    0    0  501 -0.00000000000E+00 -0.00000000000E+00 -0.13126795401E+03  0.13126795401E+03  0.00000000000E+00 0.  1.
          5    1    1    2  502    0 -0.18215742416E+02  0.48268497130E+02  0.13567972966E+03  0.14521750076E+03  0.41800000000E+01 0. -1.
         -5    1    1    2    0  502  0.52542247574E+01 -0.44122575219E+02 -0.81986184448E+02  0.93346748000E+02  0.41800000000E+01 0.  1.
        -11    1    1    2    0    0  0.13745318993E+02  0.42747209470E+02  0.10180736442E+02  0.46042427240E+02  0.00000000000E+00 0.  1.
         11    1    1    2    0    0 -0.78380133483E+00 -0.46893131380E+02  0.54067986164E+01  0.47210312289E+02  0.00000000000E+00 0. -1.
</event>
<event>
 7    1  0.6506388E-006  0.1301709E+03  0.7561462E-02  0.1227202E+00
          2   -1    0    0  501    0  0.00000000000E+00  0.00000000000E+00  0.58210281269E+03  0.58210281269E+03  0.00000000000E+00 0. -1.
         -2   -1    0    0    0  501 -0.00000000000E+00 -0.00000000000E+00 -0.29828884977E+02  0.29828884977E+02  0.00000000000E+00 0.  1.
         23    2    1    2    0    0 -0.19595599237E+02 -0.70252719357E+02  0.28745158485E+03  0.32186184154E+03  0.12508876577E+03 0.  0.
          5    1    3    3  502    0  0.40657323722E+02 -0.72650272326E+02  0.18491164200E+03  0.20283211725E+03  0.41800000000E+01 0. -1.
         -5    1    3    3    0  502 -0.60252922960E+02  0.23975529694E+01  0.10253994285E+03  0.11902972429E+03  0.41800000000E+01 0. -1.
        -11    1    1    2    0    0  0.95322345436E+01  0.92043696830E+02  0.22857684061E+03  0.24659739999E+03  0.00000000000E+00 0. -1.
         11    1    1    2    0    0  0.10063364694E+02 -0.21790977473E+02  0.36245502257E+02  0.43472456131E+02  0.00000000000E+00 0.  1.
</event>
<event>
 7    1  0.6506388E-006  0.2183722E+03  0.7561462E-02  0.1135102E+00
         -1   -1    0    0    0  501 -0.00000000000E+00  0.00000000000E+00  0.74207942499E+03  0.74207942499E+03  0.00000000000E+00 0.  1.
          1   -1    0    0  501    0  0.00000000000E+00 -0.00000000000E+00 -0.95969083234E+02  0.95969083234E+02  0.00000000000E+00 0. -1.
         23    2    1    2    0    0 -0.19520868863E+03 -0.34404908748E+02  0.55225622854E+03  0.59993718560E+03  0.12509018684E+03 0.  0.
          5    1    3    3  502    0  0.17120338365E+02  0.51604031334E+01  0.43548817976E+02  0.47262116894E+02  0.41800000000E+01 0. -1.
         -5    1    3    3    0  502 -0.21232902699E+03 -0.39565311882E+02  0.50870741057E+03  0.55267506871E+03  0.41800000000E+01 0. -1.
        -11    1    1    2    0    0  0.99202705685E+02  0.38131084418E+02  0.94223305701E+02  0.14203234755E+03  0.00000000000E+00 0.  1.
         11    1    1    2    0    0  0.96005982945E+02 -0.37261756700E+01 -0.36919248930E+00  0.96078975064E+02  0.00000000000E+00 0. -1.
</event>
<event>
 7    1  0.6506388E-006  0.9906880E+02  0.7561462E-02  0.1282266E+00
          1   -1    0    0  501    0  0.00000000000E+00  0.00000000000E+00  0.75384247441E+02  0.75384247441E+02  0.00000000000E+00 0. -1.
         -1   -1    0    0    0  501 -0.00000000000E+00 -0.00000000000E+00 -0.35143700916E+03  0.35143700916E+03  0.00000000000E+00 0.  1.
         23    2    1    2    0    0 -0.14876007653E+02  0.14032478006E+02 -0.30300092658E+03  0.32844268562E+03  0.12508729026E+03 0.  0.
          5    1    3    3  502    0  0.36388856774E+02 -0.20193020714E+02 -0.38585145272E+02  0.56905121198E+02  0.41800000000E+01 0.  1.
         -5    1    3    3    0  502 -0.51264864427E+02  0.34225498719E+02 -0.26441578131E+03  0.27153756442E+03  0.41800000000E+01 0.  1.
        -11    1    1    2    0    0  0.48985570168E+02  0.13369806792E+02  0.16554177975E+02  0.53407664495E+02  0.00000000000E+00 0.  1.
         11    1    1    2    0    0 -0.34109562515E+02 -0.27402284798E+02  0.10393986884E+02  0.44970906489E+02  0.00000000000E+00 0. -1.
</event>
<event>
 7    1  0.6506388E-006  0.1567663E+03  0.7561462E-02  0.1192397E+00
         -1   -1    0    0    0  501 -0.00000000000E+00  0.00000000000E+00  0.46517826438E+02  0.46517826438E+02  0.00000000000E+00 0.  1.
          1   -1    0    0  501    0  0.00000000000E+00 -0.00000000000E+00 -0.67008488299E+03  0.67008488299E+03  0.00000000000E+00 0. -1.
         23    2    1    2    0    0  0.97687510739E+02 -0.77304287998E+02 -0.20633458611E+03  0.27155428552E+03  0.12509582671E+03 0.  0.
          5    1    3    3  502    0  0.10945661489E+03 -0.91611700450E+02 -0.20820754587E+03  0.25247041165E+03  0.41800000000E+01 0.  1.
         -5    1    3    3    0  502 -0.11769104149E+02  0.14307412452E+02  0.18729597586E+01  0.19083873868E+02  0.41800000000E+01 0.  1.
        -11    1    1    2    0    0 -0.31661383022E+02  0.79612785742E+02 -0.19036395228E+03  0.20875601346E+03  0.00000000000E+00 0. -1.
         11    1    1    2    0    0 -0.66026127717E+02 -0.23084977440E+01 -0.22686851816E+03  0.23629241045E+03  0.00000000000E+00 0.  1.
</event>
<event>
 7    1  0.6506388E-006  0.8508434E+02  0.7561462E-02  0.1315212E+00
          4   -1    0    0  501    0  0.00000000000E+00  0.00000000000E+00  0.13046168886E+03  0.13046168886E+03  0.00000000000E+00 0.  1.
         -4   -1    0    0    0  501 -0.00000000000E+00 -0.00000000000E+00 -0.18268044232E+03  0.18268044232E+03  0.00000000000E+00 0. -1.
         23    2    1    2    0    0 -0.59743633834E+02  0.13115915324E+02 -0.12002027387E+03  0.18383087591E+03  0.12509035046E+03 0.  0.
          5    1    3    3  502    0 -0.39142673342E+02 -0.23510583176E+02  0.10167297667E+02  0.46965335509E+02  0.41800000000E+01 0.  1.
         -5    1    3    3    0  502 -0.20600960492E+02  0.36626498500E+02 -0.13018757154E+03  0.13686554040E+03  0.41800000000E+01 0.  1.
        -11    1    1    2    0    0  0.17120004343E+02  0.21283126189E+02  0.69330538898E+02  0.74517042567E+02  0.00000000000E+00 0.  1.
         11    1    1    2    0    0  0.42623629491E+02 -0.34399041513E+02 -0.15290184837E+01  0.54794212701E+02  0.00000000000E+00 0. -1.
</event>
<event>
 7    1  0.6506388E-006  0.1323822E+03  0.7561462E-02  0.1223963E+00
          1   -1    0    0  501    0  0.00000000000E+00  0.00000000000E+00  0.28451096586E+03  0.28451096586E+03  0.00000000000E+00 0. -1.
         -1   -1    0    0    0  501 -0.00000000000E+00 -0.00000000000E+00 -0.71670585044E+02  0.71670585044E+02  0.00000000000E+00 0.  1.
         23    2    1    2    0    0  0.85396980401E+02  0.17593548024E+02  0.77611192479E+02  0.17109900764E+03  0.12509674666E+03 0.  0.
          5    1    3    3  502    0  0.53243368240E+02  0.63007163888E+02  0.80349122971E+02  0.11523112828E+03  0.41800000000E+01 0. -1.
         -5    1    3    3    0  502  0.32153612160E+02 -0.45413615863E+02 -0.27379304919E+01  0.55867879359E+02  0.41800000000E+01 0. -1.
        -11    1    1    2    0    0 -0.96959376400E+02  0.89923990724E+01  0.10410718486E+03  0.14254925413E+03  0.00000000000E+00 0.  1.
         11    1    1    2    0    0  0.11562396000E+02 -0.26585947097E+02  0.31122003475E+02  0.42533289134E+02  0.00000000000E+00 0. -1.
</event>
<event>
 7    1  0.6506388E-006  0.8895865E+02  0.7561462E-02  0.1305393E+00
         -2   -1    0    0    0  501 -0.00000000000E+00  0.00000000000E+00  0.87059459845E+02  0.87059459845E+02  0.00000000000E+00 0.  1.
          2   -1    0    0  501    0  0.00000000000E+00 -0.00000000000E+00 -0.17753617809E+03  0.17753617809E+03  0.00000000000E+00 0. -1.
         23    2    1    2    0    0 -0.22110361002E+02 -0.11874883295E+02  0.75603871892E+01  0.12779708233E+03  0.12508018980E+03 0.  0.
          5    1    3    3  502    0 -0.54564182356E+02  0.33019357167E+02 -0.18352969138E+02  0.66496855715E+02  0.41800000000E+01 0.  1.
         -5    1    3    3    0  502  0.32453821354E+02 -0.44894240462E+02  0.25913356327E+02  0.61300226617E+02  0.41800000000E+01 0.  1.
        -11    1    1    2    0    0  0.24149530116E+02  0.30954991404E+02 -0.24856820671E+01  0.39339419327E+02  0.00000000000E+00 0.  1.
         11    1    1    2    0    0 -0.20391691141E+01 -0.19080108109E+02 -0.95551423371E+02  0.97459136280E+02  0.00000000000E+00 0. -1.
</event>
<event>
 7    1  0.6506388E-006  0.9883465E+02  0.7561462E-02  0.1282766E+00
          1   -1    0    0  501    0  0.00000000000E+00  0.00000000000E+00  0.59101368501E+03  0.59101368501E+03  0.00000000000E+00 0. -1.
         -1   -1    0    0    0  501 -0.00000000000E+00 -0.00000000000E+00 -0.29652171400E+02  0.29652171400E+02  0.00000000000E+00 0.  1.
         23    2    1    2    0    0  0.29696610238E+02  0.60625774379E+02  0.22743658629E+03  0.26820281001E+03  0.12509185958E+03 0.  0.
          5    1    3    3  502    0 -0.38046040325E+01  0.55391988540E+02  0.22731856575E+03  0.23403835186E+03  0.41800000000E+01 0. -1.
         -5    1    3    3    0  502  0.33501214270E+02  0.52337858385E+01  0.11802054496E+00  0.34164458149E+02  0.41800000000E+01 0. -1.
        -11    1    1    2    0    0 -0.20971894726E+02  0.18653628800E+02  0.13984276895E+03  0.14263161733E+03  0.00000000000E+00 0.  1.
         11    1    1    2    0    0 -0.87247155120E+01 -0.79279403179E+02  0.19408215837E+03  0.20983142907E+03  0.00000000000E+00 0. -1.
</event>
<event>
 7    1  0.6506388E-006  0.1111500E+03  0.7561462E-02  0.1258455E+00
         -2   -1    0    0    0  501 -0.00000000000E+00  0.00000000000E+00  0.28569488985E+02  0.28569488985E+02  0.00000000000E+00 0.  1.
          2   -1    0    0  501    0  0.00000000000E+00 -0.00000000000E+00 -0.69074392258E+03  0.69074392258E+03  0.00000000000E+00 0. -1.
         23    2    1    2    0    0 -0.73905863984E+02 -0.38659605837E+02 -0.28089972108E+03  0.31861109663E+03  0.12510689725E+03 0.  0.
          5    1    3    3  502    0 -0.34310780726E+02  0.11726771942E+02 -0.23936375672E+03  0.24213059965E+03  0.41800000000E+01 0.  1.
         -5    1    3    3    0  502 -0.39595083258E+02 -0.50386377779E+02 -0.41535964357E+02  0.76480496984E+02  0.41800000000E+01 0.  1.
        -11    1    1    2    0    0  0.47189241528E+02  0.67441398608E+02 -0.22547028743E+03  0.24002503468E+03  0.00000000000E+00 0. -1.
         11    1    1    2    0    0  0.26716622456E+02 -0.28781792772E+02 -0.15580442509E+03  0.16067728025E+03  0.00000000000E+00 0.  1.
</event>
<event>
 7    1  0.6506388E-006  0.9786253E+02  0.7561462E-02  0.1284856E+00
         -1   -1    0    0    0  501 -0.00000000000E+00  0.00000000000E+00  0.52094423195E+03  0.52094423195E+03  0.00000000000E+00 0.  1.
          1   -1    0    0  501    0  0.00000000000E+00 -0.00000000000E+00 -0.44391826408E+02  0.44391826408E+02  0.00000000000E+00 0. -1.
         23    2    1    2    0    0 -0.21308656552E+02 -0.39796916169E+02  0.43164001472E+03  0.45166137699E+03  0.12508814403E+03 0.  0.
          5    1    3    3  502    0 -0.15589620574E+02  0.23033191055E+02  0.18393807083E+02  0.33606081277E+02  0.41800000000E+01 0. -1.
         -5    1    3    3    0  502 -0.57190359781E+01 -0.62830107225E+02  0.41324620764E+03  0.41805529571E+03  0.41800000000E+01 0. -1.
        -11    1    1    2    0    0  0.58775752726E+02  0.27895737554E+02  0.29770851367E+02  0.71547640586E+02  0.00000000000E+00 0.  1.
         11    1    1    2    0    0 -0.37467096174E+02  0.11901178615E+02  0.15141539459E+02  0.42127040786E+02  0.00000000000E+00 0. -1.
</event>
<event>
 7    1  0.6506388E-006  0.7204368E+02  0.7561462E-02  0.1353278E+00
          2   -1    0    0  501    0  0.00000000000E+00  0.00000000000E+00  0.47278970567E+03  0.47278970567E+03  0.00000000000E+00 0. -1.
         -2   -1    0    0    0  501 -0.00000000000E+00 -0.00000000000E+00 -0.28945941512E+02  0.28945941512E+02  0.00000000000E+00 0.  1.
         23    2    1    2    0    0 -0.23923864473E+01 -0.30878097767E+02  0.18447010048E+03  0.22502219535E+03  0.12508633016E+03 0.  0.
          5    1    3    3  502    0  0.20875713890E+02 -0.17648950808E+02 -0.94460140406E+01  0.29222944347E+02  0.41800000000E+01 0.  1.
         -5    1    3    3    0  502 -0.23268100337E+02 -0.13229146958E+02  0.19391611452E+03  0.19579925100E+03  0.41800000000E+01 0.  1.
        -11    1    1    2    0    0 -0.30646636763E+02 -0.13935868075E+02  0.51617049173E+02  0.61625843030E+02  0.00000000000E+00 0.  1.
         11    1    1    2    0    0  0.33039023210E+02  0.44813965842E+02  0.20775661451E+03  0.21508760880E+03  0.00000000000E+00 0. -1.
</event>
<event>
 7    1  0.6506388E-006  0.1176067E+03  0.7561462E-02  0.1247098E+00
         -2   -1    0    0    0  501 -0.00000000000E+00  0.00000000000E+00  0.31216085291E+03  0.31216085291E+03  0.00000000000E+00 0.  1.
          2   -1    0    0  501    0  0.00000000000E+00 -0.00000000000E+00 -0.75055233110E+02  0.75055233110E+02  0.00000000000E+00 0. -1.
         23    2    1    2    0    0 -0.85743843190E+02 -0.35685823266E+02  0.21154258217E+03  0.26272244341E+03  0.12508930241E+03 0.  0.
          5    1    3    3  502    0 -0.98641563978E+02 -0.55138852845E+02  0.21054249635E+03  0.23898967845E+03  0.41800000000E+01 0.  1.
         -5    1    3    3    0  502  0.12897720788E+02  0.19453029578E+02  0.10000858202E+01  0.23732764967E+02  0.41800000000E+01 0.  1.
        -11    1    1    2    0    0  0.95180755292E+01  0.17703407929E+02 -0.24386948230E+02  0.31602652706E+02  0.00000000000E+00 0. -1.
         11    1    1    2    0    0  0.76225767660E+02  0.17982415337E+02  0.49949985867E+02  0.92890989902E+02  0.00000000000E+00 0.  1.
</event>
<event>
 7    1  0.6506388E-006  0.1372689E+03  0.7561462E-02  0.1217052E+00
         -1   -1    0    0    0  501 -0.00000000000E+00  0.00000000000E+00  0.49741995335E+03  0.49741995335E+03  0.00000000000E+00 0.  1.
          1   -1    0    0  501    0  0.00000000000E+00 -0.00000000000E+00 -0.42447328761E+02  0.42447328761E+02  0.00000000000E+00 0. -1.
         23    2    1    2    0    0  0.96467100307E+02 -0.99908591801E+01  0.23419109428E+03  0.28263886114E+03  0.12503414926E+03 0.  0.
          5    1    3    3  502    0 -0.76063848662E+01  0.31706570906E+02  0.14441041331E+02  0.35905150105E+02  0.41800000000E+01 0.  1.
         -5    1    3    3    0  502  0.10407348517E+03 -0.41697430086E+02  0.21975005295E+03  0.24673371104E+03  0.41800000000E+01 0.  1.
        -11    1    1    2    0    0 -0.20974810907E+02  0.42409080735E+02  0.57673576965E+02  0.74597012683E+02  0.00000000000E+00 0. -1.
         11    1    1    2    0    0 -0.75492289400E+02 -0.32418221555E+02  0.16310795335E+03  0.18263140829E+03  0.00000000000E+00 0.  1.
</event>
<event>
 7    1  0.6506388E-006  0.1687247E+03  0.7561462E-02  0.1179184E+00
         -1   -1    0    0    0  501 -0.00000000000E+00  0.00000000000E+00  0.15514770570E+03  0.15514770570E+03  0.00000000000E+00 0.  1.
          1   -1    0    0  501    0  0.00000000000E+00 -0.00000000000E+00 -0.21312503491E+03  0.21312503491E+03  0.00000000000E+00 0. -1.
         23    2    1    2    0    0 -0.76547479705E+02 -0.12308491650E+03 -0.16583462422E+02  0.19217798753E+03  0.12509178369E+03 0.  0.
          5    1    3    3  502    0  0.28345107523E+02 -0.40596769193E+02  0.20289967050E+02  0.53672133853E+02  0.41800000000E+01 0.  1.
         -5    1    3    3    0  502 -0.10489258723E+03 -0.82488147306E+02 -0.36873429473E+02  0.13850585368E+03  0.41800000000E+01 0.  1.
        -11    1    1    2    0    0  0.43402923921E+02  0.11064044349E+03  0.35244263064E+01  0.11890140083E+03  0.00000000000E+00 0.  1.
         11    1    1    2    0    0  0.33144555784E+02  0.12444473014E+02 -0.44918293092E+02  0.57193352245E+02  0.00000000000E+00 0. -1.
</event>
<event>
 7    1  0.6506388E-006  0.1706569E+03  0.7561462E-02  0.1177165E+00
         -4   -1    0    0    0  501 -0.00000000000E+00  0.00000000000E+00  0.73748635676E+02  0.73748635676E+02  0.00000000000E+00 0.  1.
          4   -1    0    0  501    0  0.00000000000E+00 -0.00000000000E+00 -0.49854079120E+03  0.49854079120E+03  0.00000000000E+00 0. -1.
         23    2    1    2    0    0 -0.89251188550E+02 -0.96937668759E+02 -0.94847125541E+02  0.20495421622E+03  0.12509023639E+03 0.  0.
          5    1    3    3  502    0 -0.93816853344E+02 -0.12279792163E+03 -0.75320330032E+02  0.17196382191E+03  0.41800000000E+01 0. -1.
         -5    1    3    3    0  502  0.45656647942E+01  0.25860252875E+02 -0.19526795509E+02  0.32990394309E+02  0.41800000000E+01 0. -1.
        -11    1    1    2    0    0 -0.10020682907E+02  0.48774800605E+02 -0.81778133462E+02  0.95744756371E+02  0.00000000000E+00 0. -1.
         11    1    1    2    0    0  0.99271871457E+02  0.48162868155E+02 -0.24816689652E+03  0.27159045429E+03  0.00000000000E+00 0.  1.
</event>
<event>
 6    1  0.6506388E-006  0.1540634E+03  0.7561462E-02  0.1195567E+00
         -2   -1    0    0    0  501 -0.00000000000E+00  0.00000000000E+00  0.37133312215E+03  0.37133312215E+03  0.00000000000E+00 0.  1.
          2   -1    0    0  501    0  0.00000000000E+00 -0.00000000000E+00 -0.11311823049E+03  0.11311823049E+03  0.00000000000E+00 0. -1.
          5    1    1    2  502    0 -0.66929539683E+02 -0.16223061420E+02 -0.34380877864E+02  0.77086108779E+02  0.41800000000E+01 0. -1.
         -5    1    1    2    0  502  0.13011201004E+03  0.16659119647E+02  0.26034847458E+03  0.29155696191E+03  0.41800000000E+01 0.  1.
        -11    1    1    2    0    0  0.15627576615E+02  0.21039100611E+02  0.20523159403E+02  0.33287609966E+02  0.00000000000E+00 0.  1.
         11    1    1    2    0    0 -0.78810046972E+02 -0.21475158839E+02  0.11724135548E+02  0.82520671987E+02  0.00000000000E+00 0. -1.
</event>
<event>
 7    1  0.6506388E-006  0.1044360E+03  0.7561462E-02  0.1271235E+00
         -1   -1    0    0    0  501 -0.00000000000E+00  0.00000000000E+00  0.85080169215E+03  0.85080169215E+03  0.00000000000E+00 0.  1.
          1   -1    0    0  501    0  0.00000000000E+00 -0.00000000000E+00 -0.16086622649E+02  0.16086622649E+02  0.00000000000E+00 0. -1.
         23    2    1    2    0    0  0.85188561027E+00 -0.46450676346E+02  0.46585921851E+03  0.48459086950E+03  0.12508040733E+03 0.  0.
          5    1    3    3  502    0  0.21266747538E+02 -0.72527327307E+02  0.42566552775E+03  0.43234373092E+03  0.41800000000E+01 0. -1.
         -5    1    3    3    0  502 -0.20414861927E+02  0.26076650962E+02  0.40193690759E+02  0.52247138580E+02  0.41800000000E+01 0. -1.
        -11    1    1    2    0    0 -0.13020425630E+01 -0.26655778942E+02  0.11959837314E+03  0.12253977608E+03  0.00000000000E+00 0.  1.
         11    1    1    2    0    0  0.45015695277E+00  0.73106455287E+02  0.24925747786E+03  0.25975766922E+03  0.00000000000E+00 0. -1.
</event>
<event>
 7    1  0.6506388E-006  0.1741070E+03  0.7561462E-02  0.1173631E+00
         -1   -1    0    0    0  501 -0.00000000000E+00  0.00000000000E+00  0.59710921794E+02  0.59710921794E+02  0.00000000000E+00 0.  1.
          1   -1    0    0  501    0  0.00000000000E+00 -0.00000000000E+00 -0.63760579233E+03  0.63760579233E+03  0.00000000000E+00 0. -1.
         23    2    1    2    0    0  0.10437045370E+03  0.10161530469E+03 -0.17725276216E+03  0.26131236470E+03  0.12508696374E+03 0.  0.
          5    1    3    3  502    0  0.82850194862E+01  0.85625833104E+02 -0.12172054606E+03  0.14910998819E+03  0.41800000000E+01 0.  1.
         -5    1    3    3    0  502  0.96085434215E+02  0.15989471586E+02 -0.55532216096E+02  0.11220237651E+03  0.41800000000E+01 0.  1.
        -11    1    1    2    0    0 -0.69379781671E+02 -0.10863776172E+03 -0.35741308562E+03  0.37994714257E+03  0.00000000000E+00 0. -1.
         11    1    1    2    0    0 -0.34990672030E+02  0.70224570340E+01 -0.43229022758E+02  0.56057206856E+02  0.00000000000E+00 0.  1.
</event>
<event>
 7    1  0.6506388E-006  0.1113508E+03  0.7561462E-02  0.1258089E+00
         -1   -1    0    0    0  501 -0.00000000000E+00  0.00000000000E+00  0.20877089960E+02  0.20877089960E+02  0.00000000000E+00 0.  1.
          1   -1    0    0  501    0  0.00000000000E+00 -0.00000000000E+00 -0.80504184463E+03  0.80504184463E+03  0.00000000000E+00 0. -1.
         23    2    1    2    0    0 -0.59923042150E+02 -0.21547793069E+02 -0.31266445292E+03  0.34272565472E+03  0.12508691344E+03 0.  0.
          5    1    3    3  502    0  0.20969877946E+02  0.19859281574E+02 -0.17881455259E+02  0.34224927873E+02  0.41800000000E+01 0.  1.
         -5    1    3    3    0  502 -0.80892920095E+02 -0.41407074644E+02 -0.29478299766E+03  0.30850072684E+03  0.41800000000E+01 0.  1.
        -11    1    1    2    0    0  0.67661676072E+01 -0.28648669119E+02 -0.88203756865E+02  0.92986181723E+02  0.00000000000E+00 0.  1.
         11    1    1    2    0    0  0.53156874542E+02  0.50196462188E+02 -0.38329654488E+03  0.39020709815E+03  0.00000000000E+00 0. -1.
</event>
<event>
 7    1  0.6506388E-006  0.3007879E+03  0.7561462E-02  0.1084847E+00
         -2   -1    0    0    0  501 -0.00000000000E+00  0.00000000000E+00  0.15063269895E+03  0.15063269895E+03  0.00000000000E+00 0. -1.
          2   -1    0    0  501    0  0.00000000000E+00 -0.00000000000E+00 -0.61633931362E+03  0.61633931362E+03  0.00000000000E+00 0.  1.
         23    2    1    2    0    0  0.21794690643E+03 -0.18124872303E+03 -0.27329923960E+03  0.41314772225E+03  0.12508641978E+03 0.  0.
          5    1    3    3  502    0  0.13554723349E+03 -0.39077819377E+02 -0.92223068373E+02  0.16859031768E+03  0.41800000000E+01 0.  1.
         -5    1    3    3    0  502  0.82399672938E+02 -0.14217090366E+03 -0.18107617123E+03  0.24455740458E+03  0.41800000000E+01 0.  1.
        -11    1    1    2    0    0 -0.37338173011E+02 -0.37512183468E+01 -0.33827287145E+02  0.50522234298E+02  0.00000000000E+00 0. -1.
         11    1    1    2    0    0 -0.18060873342E+03  0.18499994138E+03 -0.15858008793E+03  0.30330205602E+03  0.00000000000E+00 0.  1.
</event>
<event>
 7    1  0.6506388E-006  0.1025934E+03  0.7561462E-02  0.1274935E+00
          1   -1    0    0  501    0  0.00000000000E+00  0.00000000000E+00  0.45275637052E+02  0.45275637052E+02  0.00000000000E+00 0. -1.
         -1   -1    0    0    0  501 -0.00000000000E+00 -0.00000000000E+00 -0.69331700347E+03  0.69331700347E+03  0.00000000000E+00 0.  1.
         23    2    1    2    0    0  0.10594698784E+02 -0.72669528409E+02 -0.58515808027E+03  0.60287343381E+03  0.12511310998E+03 0.  0.
          5    1    3    3  502    0  0.24848542955E+02 -0.86612459259E+02 -0.22888380102E+03  0.24601714362E+03  0.41800000000E+01 0.  1.
         -5    1    3    3    0  502 -0.14253844171E+02  0.13942930851E+02 -0.35627427925E+03  0.35685629019E+03  0.41800000000E+01 0.  1.
        -11    1    1    2    0    0  0.14065677430E+02 -0.35452146592E+01 -0.53068336076E+02  0.55015089952E+02  0.00000000000E+00 0.  1.
         11    1    1    2    0    0 -0.24660376214E+02  0.76214743068E+02 -0.98149500668E+01  0.80704116752E+02  0.00000000000E+00 0. -1.
</event>
<event>
 7    1  0.6506388E-006  0.1266444E+03  0.7561462E-02  0.1232522E+00
         -1   -1    0    0    0  501 -0.00000000000E+00  0.00000000000E+00  0.28861085519E+03  0.28861085519E+03  0.00000000000E+00 0.  1.
          1   -1    0    0  501    0  0.00000000000E+00 -0.00000000000E+00 -0.68682977383E+02  0.68682977383E+02  0.00000000000E+00 0. -1.
         23    2    1    2    0    0  0.72871825124E+02 -0.34758531160E+02  0.16813256555E+03  0.22457658302E+03  0.12509046189E+03 0.  0.
          5    1    3    3  502    0 -0.25668281981E+02 -0.16508392112E+02  0.96564438065E+02  0.10135852608E+03  0.41800000000E+01 0.  1.
         -5    1    3    3    0  502  0.98540107105E+02 -0.18250139047E+02  0.71568127487E+02  0.12321805694E+03  0.41800000000E+01 0.  1.
        -11    1    1    2    0    0 -0.21423426728E+02 -0.31623511906E+02  0.17010369882E+02  0.41813423700E+02  0.00000000000E+00 0. -1.
         11    1    1    2    0    0 -0.51448398396E+02  0.66382043066E+02  0.34784942370E+02  0.90903825853E+02  0.00000000000E+00 0.  1.
</event>
<event>
 7    1  0.6506388E-006  0.1238432E+03  0.7561462E-02  0.1236888E+00
         -1   -1    0    0    0  501 -0.00000000000E+00  0.00000000000E+00  0.68608349748E+02  0.68608349748E+02  0.00000000000E+00 0.  1.
          1   -1    0    0  501    0  0.00000000000E+00 -0.00000000000E+00 -0.34564217500E+03  0.34564217500E+03  0.00000000000E+00 0. -1.
         23    2    1    2    0    0 -0.98119324106E+02  0.18880761017E+02 -0.93325564100E+02  0.18531614812E+03  0.12509408036E+03 0.  0.
          5    1    3    3  502    0 -0.17333111434E+01  0.15696463277E+02  0.26693412788E+02  0.31295271419E+02  0.41800000000E+01 0. -1.
         -5    1    3    3    0  502 -0.96386012963E+02  0.31842977394E+01 -0.12001897689E+03  0.15402087670E+03  0.41800000000E+01 0. -1.
        -11    1    1    2    0    0 -0.14217722908E+02  0.11681804441E+02 -0.39668750964E+02  0.43728914950E+02  0.00000000000E+00 0.  1.
         11    1    1    2    0    0  0.11233704701E+03 -0.30562565457E+02 -0.14403951019E+03  0.18520546168E+03  0.00000000000E+00 0. -1.
</event>
<event>
 7    1  0.6506388E-006  0.8980258E+02  0.7561462E-02  0.1303330E+00
          2   -1    0    0  501    0  0.00000000000E+00  0.00000000000E+00  0.21426799049E+03  0.21426799049E+03  0.00000000000E+00 0. -1.
         -2   -1    0    0    0  501 -0.00000000000E+00 -0.00000000000E+00 -0.65213977256E+02  0.65213977256E+02  0.00000000000E+00 0.  1.
         23    2    1    2    0    0  0.26980019930E+02 -0.14039544259E+02  0.43455847421E+02  0.13586523353E+03  0.12508365492E+03 0.  0.
          5    1    3    3  502    0 -0.16071190557E+02 -0.43463677172E+02  0.64455707632E+02  0.79494559849E+02  0.41800000000E+01 0. -1.
         -5    1    3    3    0  502  0.43051210488E+02  0.29424132913E+02 -0.20999860211E+02  0.56370673679E+02  0.41800000000E+01 0. -1.
        -11    1    1    2    0    0 -0.14698229105E+02  0.45062237930E+02  0.19452234174E+02  0.51235072367E+02  0.00000000000E+00 0.  1.
         11    1    1    2    0    0 -0.12281790826E+02 -0.31022693671E+02  0.86145931643E+02  0.92381661856E+02  0.00000000000E+00 0. -1.
</event>
<event>
 7    1  0.6506388E-006  0.1908963E+03  0.7561462E-02  0.1157655E+00
          1   -1    0    0  501    0  0.00000000000E+00  0.00000000000E+00  0.66271206314E+02  0.66271206314E+02  0.00000000000E+00 0. -1.
         -1   -1    0    0    0  501 -0.00000000000E+00 -0.00000000000E+00 -0.63767416765E+03  0.63767416765E+03  0.00000000000E+00 0.  1.
         23    2    1    2    0    0  0.14370354928E+03 -0.90534486562E+02 -0.36358455880E+03  0.42034279981E+03  0.12508850714E+03 0.  0.
          5    1    3    3  502    0  0.12207191493E+03 -0.17467825345E+02 -0.28616710306E+03  0.31163401709E+03  0.41800000000E+01 0.  1.
         -5    1    3    3    0  502  0.21631634353E+02 -0.73066661217E+02 -0.77417455748E+02  0.10870878272E+03  0.41800000000E+01 0.  1.
        -11    1    1    2    0    0 -0.14939153513E+03  0.78456792830E+02 -0.15500655866E+03  0.22912950996E+03  0.00000000000E+00 0. -1.
         11    1    1    2    0    0  0.56879858438E+01  0.12077693732E+02 -0.52811843876E+02  0.54473064192E+02  0.00000000000E+00 0.  1.
</event>
<event>
 7    1  0.6506388E-006  0.1362219E+03  0.7561462E-02  0.1218505E+00
         -1   -1    0    0    0  501 -0.00000000000E+00  0.00000000000E+00  0.51704556017E+02  0.51704556017E+02  0.00000000000E+00 0.  1.
          1   -1    0    0  501    0  0.00000000000E+00 -0.00000000000E+00 -0.50467716976E+03  0.50467716976E+03  0.00000000000E+00 0. -1.
         23    2    1    2    0    0  0.50673915068E+02  0.64960309418E+02 -0.94597410124E+02  0.17714698530E+03  0.12507876291E+03 0.  0.
          5    1    3    3  502    0  0.25654604408E+02  0.10139347670E+03 -0.58367674961E+02  0.11984595832E+03  0.41800000000E+01 0.  1.
         -5    1    3    3    0  502  0.25019310660E+02 -0.36433167280E+02 -0.36229735162E+02  0.57301026988E+02  0.41800000000E+01 0.  1.
        -11    1    1    2    0    0 -0.57812368217E+02 -0.84608064425E+02 -0.28163610119E+03  0.29969932929E+03  0.00000000000E+00 0.  1.
         11    1    1    2    0    0  0.71384531483E+01  0.19647755007E+02 -0.76739102425E+02  0.79535411178E+02  0.00000000000E+00 0. -1.
</event>
<event>
 7    1  0.6506388E-006  0.9537608E+02  0.7561462E-02  0.1290331E+00
          2   -1    0    0  501    0  0.00000000000E+00  0.00000000000E+00  0.30734860206E+03  0.30734860206E+03  0.00000000000E+00 0. -1.
         -2   -1    0    0    0  501 -0.00000000000E+00 -0.00000000000E+00 -0.66862244124E+02  0.66862244124E+02  0.00000000000E+00 0.  1.
         23    2    1    2    0    0 -0.18848922091E+02  0.68091061732E+02  0.58485308896E+02  0.15511215895E+03  0.12509027119E+03 0.  0.
          5    1    3    3  502    0 -0.21149786226E+02  0.52852371250E+02  0.97486833716E+02  0.11296832190E+03  0.41800000000E+01 0. -1.
         -5    1    3    3    0  502  0.23008641350E+01  0.15238690482E+02 -0.39001524820E+02  0.42143837055E+02  0.41800000000E+01 0. -1.
        -11    1    1    2    0    0  0.62582006498E+01  0.23976183287E+02  0.18091743676E+02  0.30681160826E+02  0.00000000000E+00 0.  1.
         11    1    1    2    0    0  0.12590721442E+02 -0.92067245019E+02  0.16390930536E+03  0.18841752640E+03  0.00000000000E+00 0. -1.
</event>
<event>
 7    1  0.6506388E-006  0.1341636E+03  0.7561462E-02  0.1221405E+00
          2   -1    0    0  501    0  0.00000000000E+00  0.00000000000E+00  0.53302807415E+03  0.53302807415E+03  0.00000000000E+00 0. -1.
         -2   -1    0    0    0  501 -0.00000000000E+00 -0.00000000000E+00 -0.40239936425E+02  0.40239936425E+02  0.00000000000E+00 0.  1.
         23    2    1    2    0    0 -0.89557489382E+02 -0.28842426695E+02  0.20926978018E+03  0.26133047077E+03  0.12508934635E+03 0.  0.
          5    1    3    3  502    0 -0.11733493179E+03 -0.39801585844E+01  0.14187514076E+03  0.18419922868E+03  0.41800000000E+01 0.  1.
         -5    1    3    3    0  502  0.27777442412E+02 -0.24862268111E+02  0.67394639418E+02  0.77131242081E+02  0.41800000000E+01 0.  1.
        -11    1    1    2    0    0 -0.62633469282E+01  0.15341123622E+02  0.53411348884E+01  0.17409977330E+02  0.00000000000E+00 0.  1.
         11    1    1    2    0    0  0.95820836310E+02  0.13501303073E+02  0.27817722266E+03  0.29452756248E+03  0.00000000000E+00 0. -1.
</event>
<event>
 7    1  0.6506388E-006  0.1137119E+03  0.7561462E-02  0.1253846E+00
         -1   -1    0    0    0  501 -0.00000000000E+00  0.00000000000E+00  0.20859061097E+03  0.20859061097E+03  0.00000000000E+00 0.  1.
          1   -1    0    0  501    0  0.00000000000E+00 -0.00000000000E+00 -0.98137815310E+02  0.98137815310E+02  0.00000000000E+00 0. -1.
         23    2    1    2    0    0  0.76367033143E+02  0.12717482357E+01  0.11636517096E+03  0.18714065940E+03  0.12508889756E+03 0.  0.
          5    1    3    3  502    0  0.13137389987E+02  0.47957474007E+02  0.41472461396E+01  0.50071772281E+02  0.41800000000E+01 0. -1.
         -5    1    3    3    0  502  0.63229643157E+02 -0.46685725771E+02  0.11221792482E+03  0.13706888712E+03  0.41800000000E+01 0. -1.
        -11    1    1    2    0    0 -0.59926256842E+02 -0.29004076913E+02 -0.35830001643E+02  0.75605434688E+02  0.00000000000E+00 0. -1.
         11    1    1    2    0    0 -0.16440776302E+02  0.27732328678E+02  0.29917626347E+02  0.43982332198E+02  0.00000000000E+00 0.  1.
</event>
<event>
 7    1  0.6506388E-006  0.2609833E+03  0.7561462E-02  0.1106554E+00
          1   -1    0    0  501    0  0.00000000000E+00  0.00000000000E+00  0.11276861225E+03  0.11276861225E+03  0.00000000000E+00 0. -1.
         -1   -1    0    0    0  501 -0.00000000000E+00 -0.00000000000E+00 -0.10547957870E+04  0.10547957870E+04  0.00000000000E+00 0.  1.
         23    2    1    2    0    0 -0.21843961974E+03  0.91838844687E+02 -0.85972832253E+03  0.90051545018E+03  0.12508016065E+03 0.  0.
          5    1    3    3  502    0 -0.16114339344E+03  0.12281065372E+03 -0.65609570323E+03  0.68667946971E+03  0.41800000000E+01 0.  1.
         -5    1    3    3    0  502 -0.57296226302E+02 -0.30971809035E+02 -0.20363261929E+03  0.21383598047E+03  0.41800000000E+01 0.  1.
        -11    1    1    2    0    0  0.96822191081E+02 -0.90341712792E+02 -0.42650616068E+02  0.13912309947E+03  0.00000000000E+00 0. -1.
         11    1    1    2    0    0  0.12161742866E+03 -0.14971318951E+01 -0.39648236126E+02  0.12792584956E+03  0.00000000000E+00 0.  1.
</event>
<event>
 7    1  0.6506388E-006  0.1061779E+03  0.7561462E-02  0.1267816E+00
         -1   -1    0    0    0  501 -0.00000000000E+00  0.00000000000E+00  0.73674896506E+03  0.73674896506E+03  0.00000000000E+00 0.  1.
          1   -1    0    0  501    0  0.00000000000E+00 -0.00000000000E+00 -0.23178459509E+02  0.23178459509E+02  0.00000000000E+00 0. -1.
         23    2    1    2    0    0 -0.27447500621E+02 -0.39380301669E+02  0.54292699365E+03  0.55921490294E+03  0.12508962304E+03 0.  0.
          5    1    3    3  502    0 -0.26294350078E+02  0.32318386652E+02  0.36411928159E+03  0.36651902350E+03  0.41800000000E+01 0.  1.
         -5    1    3    3    0  502 -0.11531505426E+01 -0.71698688321E+02  0.17880771205E+03  0.19269587944E+03  0.41800000000E+01 0.  1.
        -11    1    1    2    0    0 -0.26584821086E+02  0.35678799696E+02  0.42224988926E+02  0.61340681034E+02  0.00000000000E+00 0. -1.
         11    1    1    2    0    0  0.54032321707E+02  0.37015019729E+01  0.12841852298E+03  0.13937184059E+03  0.00000000000E+00 0.  1.
</event>
<event>
 7    1  0.6506388E-006  0.8649352E+02  0.7561462E-02  0.1311572E+00
          3   -1    0    0  501    0  0.00000000000E+00  0.00000000000E+00  0.86424388221E+02  0.86424388221E+02  0.00000000000E+00 0. -1.
         -3   -1    0    0    0  501 -0.00000000000E+00 -0.00000000000E+00 -0.17587696415E+03  0.17587696415E+03  0.00000000000E+00 0.  1.
         23    2    1    2    0    0 -0.24964694938E+02  0.48816429235E+02 -0.66985253965E+02  0.15211545194E+03  0.12508319917E+03 0.  0.
          5    1    3    3  502    0 -0.29392589716E+02  0.74472288856E+02 -0.87523281521E+02  0.11869222108E+03  0.41800000000E+01 0. -1.
         -5    1    3    3    0  502  0.44278947784E+01 -0.25655859621E+02  0.20538027556E+02  0.33423230858E+02  0.41800000000E+01 0. -1.
        -11    1    1    2    0    0  0.24035794997E+02 -0.75841897943E+01 -0.53122407407E+02  0.58798210387E+02  0.00000000000E+00 0.  1.
         11    1    1    2    0    0  0.92889994078E+00 -0.41232239441E+02  0.30655085442E+02  0.51387690042E+02  0.00000000000E+00 0. -1.
</event>
<event>
 7    1  0.6506388E-006  0.1098222E+03  0.7561462E-02  0.1260899E+00
          1   -1    0    0  501    0  0.00000000000E+00  0.00000000000E+00  0.23984273307E+03  0.23984273307E+03  0.00000000000E+00 0. -1.
         -1   -1    0    0    0  501 -0.00000000000E+00 -0.00000000000E+00 -0.70270652989E+02  0.70270652989E+02  0.00000000000E+00 0.  1.
         23    2    1    2    0    0 -0.20695479553E+02  0.51639112918E+02  0.44137168006E+02  0.14384257925E+03  0.12509075565E+03 0.  0.
          5    1    3    3  502    0 -0.10767460633E+02  0.92065102005E+02  0.42277752511E+02  0.10196470945E+03  0.41800000000E+01 0.  1.
         -5    1    3    3    0  502 -0.99280189206E+01 -0.40425989087E+02  0.18594154950E+01  0.41877869804E+02  0.41800000000E+01 0.  1.
        -11    1    1    2    0    0  0.37031757360E+02 -0.72680421330E+01  0.65159479404E+01  0.38296645639E+02  0.00000000000E+00 0.  1.
         11    1    1    2    0    0 -0.16336277807E+02 -0.44371070785E+02  0.11891896413E+03  0.12797416117E+03  0.00000000000E+00 0. -1.
</event>
<event>
 7    1  0.6506388E-006  0.9933303E+02  0.7561462E-02  0.1281705E+00
          1   -1    0    0  501    0  0.00000000000E+00  0.00000000000E+00  0.16542232539E+03  0.16542232539E+03  0.00000000000E+00 0. -1.
         -1   -1    0    0    0  501 -0.00000000000E+00 -0.00000000000E+00 -0.88166352767E+02  0.88166352767E+02  0.00000000000E+00 0.  1.
         23    2    1    2    0    0  0.13451771397E+02 -0.10748001906E+02 -0.35358474503E+01  0.12631984877E+03  0.12509089606E+03 0.  0.
          5    1    3    3  502    0  0.22245519333E+02 -0.53991899299E+02 -0.38323540995E+02  0.69972526857E+02  0.41800000000E+01 0. -1.
         -5    1    3    3    0  502 -0.87937479362E+01  0.43243897394E+02  0.34787693544E+02  0.56347321912E+02  0.41800000000E+01 0. -1.
        -11    1    1    2    0    0 -0.28130274904E+02 -0.36635814111E+02  0.53393594637E+02  0.70600079249E+02  0.00000000000E+00 0. -1.
         11    1    1    2    0    0  0.14678503507E+02  0.47383816016E+02  0.27398225441E+02  0.56668750143E+02  0.00000000000E+00 0.  1.
</event>
<event>
 7    1  0.6506388E-006  0.8937252E+02  0.7561462E-02  0.1304378E+00
          1   -1    0    0  501    0  0.00000000000E+00  0.00000000000E+00  0.27536718831E+03  0.27536718831E+03  0.00000000000E+00 0. -1.
         -1   -1    0    0    0  501 -0.00000000000E+00 -0.00000000000E+00 -0.49037931430E+02  0.49037931430E+02  0.00000000000E+00 0.  1.
         23    2    1    2    0    0  0.34513355685E+02  0.15601826470E+02  0.98326966598E+02  0.16355732190E+03  0.12509283144E+03 0.  0.
          5    1    3    3  502    0  0.55766594393E+02  0.30882357390E+02  0.11548790783E+03  0.13197940106E+03  0.41800000000E+01 0.  1.
         -5    1    3    3    0  502 -0.21253238708E+02 -0.15280530919E+02 -0.17160941235E+02  0.31577920844E+02  0.41800000000E+01 0.  1.
        -11    1    1    2    0    0 -0.33093308446E+02 -0.46692403839E+02  0.46947245853E+02  0.74022912219E+02  0.00000000000E+00 0.  1.
         11    1    1    2    0    0 -0.14200472399E+01  0.31090577369E+02  0.81055044433E+02  0.86824885622E+02  0.00000000000E+00 0. -1.
</event>
<event>
 7    1  0.6506388E-006  0.1027706E+03  0.7561462E-02  0.1274575E+00
          2   -1    0    0  501    0  0.00000000000E+00  0.00000000000E+00  0.63394872080E+02  0.63394872080E+02  0.00000000000E+00 0. -1.
         -2   -1    0    0    0  501 -0.00000000000E+00 -0.00000000000E+00 -0.31266763800E+03  0.31266763800E+03  0.00000000000E+00 0.  1.
         23    2    1    2    0    0 -0.52274083724E+02 -0.53237133917E+02 -0.19154964658E+03  0.24063692904E+03  0.12509233491E+03 0.  0.
          5    1    3    3  502    0  0.28047211198E+01 -0.17978224595E+02 -0.17091802898E+03  0.17193466216E+03  0.41800000000E+01 0.  1.
         -5    1    3    3    0  502 -0.55078804844E+02 -0.35258909322E+02 -0.20631617599E+02  0.68702266879E+02  0.41800000000E+01 0.  1.
        -11    1    1    2    0    0 -0.12613877023E+02  0.55000553488E+02 -0.36184788016E+02  0.67033645740E+02  0.00000000000E+00 0.  1.
         11    1    1    2    0    0  0.64887960747E+02 -0.17634195706E+01 -0.21538331325E+02  0.68391935305E+02  0.00000000000E+00 0. -1.
</event>
<event>
 7    1  0.6506388E-006  0.1267557E+03  0.7561462E-02  0.1232351E+00
          1   -1    0    0  501    0  0.00000000000E+00  0.00000000000E+00  0.90429913493E+02  0.90429913493E+02  0.00000000000E+00 0. -1.
         -1   -1    0    0    0  501 -0.00000000000E+00 -0.00000000000E+00 -0.22123097824E+03  0.22123097824E+03  0.00000000000E+00 0.  1.
         23    2    1    2    0    0  0.78501534785E+02  0.26046156882E+02 -0.11412390488E+03  0.18839953165E+03  0.12501689729E+03 0.  0.
          5    1    3    3  502    0  0.72645033459E+02 -0.31008986124E+02 -0.26169558876E+02  0.83313722269E+02  0.41800000000E+01 0. -1.
         -5    1    3    3    0  502  0.58565013259E+01  0.57055143006E+02 -0.87954346006E+02  0.10508580938E+03  0.41800000000E+01 0.  1.
        -11    1    1    2    0    0 -0.22293964507E+02 -0.50810459881E+02  0.98549071716E+01  0.56354617221E+02  0.00000000000E+00 0. -1.
         11    1    1    2    0    0 -0.56207570277E+02  0.24764302999E+02 -0.26532067037E+02  0.66906742865E+02  0.00000000000E+00 0.  1.
</event>
<event>
 7    1  0.6506388E-006  0.1270659E+03  0.7561462E-02  0.1231875E+00
         -1   -1    0    0    0  501 -0.00000000000E+00  0.00000000000E+00  0.45978338576E+02  0.45978338576E+02  0.00000000000E+00 0.  1.
          1   -1    0    0  501    0  0.00000000000E+00 -0.00000000000E+00 -0.53638655886E+03  0.53638655886E+03  0.00000000000E+00 0. -1.
         23    2    1    2    0    0 -0.69878701337E+02  0.49050827959E+02 -0.13087172196E+03  0.20023038470E+03  0.12520296611E+03 0.  0.
          5    1    3    3  502    0  0.30047931533E+02  0.20288225844E+02 -0.48864176311E+01  0.36821729652E+02  0.41800000000E+01 0. -1.
         -5    1    3    3    0  502 -0.99926632870E+02  0.28762602115E+02 -0.12598530433E+03  0.16340865505E+03  0.41800000000E+01 0. -1.
        -11    1    1    2    0    0  0.13078616928E+02 -0.54929033063E+02 -0.27071338928E+03  0.27653930648E+03  0.00000000000E+00 0. -1.
         11    1    1    2    0    0  0.56800084408E+02  0.58782051044E+01 -0.88823109039E+02  0.10559520625E+03  0.00000000000E+00 0.  1.
</event>
<event>
 7    1  0.6506388E-006  0.9665960E+02  0.7561462E-02  0.1287481E+00
         -2   -1    0    0    0  501 -0.00000000000E+00  0.00000000000E+00  0.95172012638E+02  0.95172012638E+02  0.00000000000E+00 0.  1.
          2   -1    0    0  501    0  0.00000000000E+00 -0.00000000000E+00 -0.13061414606E+03  0.13061414606E+03  0.00000000000E+00 0. -1.
         23    2    1    2    0    0  0.18132553566E+02  0.15226453725E+02 -0.46341349509E+01  0.12739562002E+03  0.12509010513E+03 0.  0.
          5    1    3    3  502    0  0.18839304071E+01  0.69415544491E+02  0.54475153335E+01  0.69779759487E+02  0.41800000000E+01 0. -1.
         -5    1    3    3    0  502  0.16248623158E+02 -0.54189090766E+02 -0.10081650284E+02  0.57615860534E+02  0.41800000000E+01 0. -1.
        -11    1    1    2    0    0 -0.23754884938E+02 -0.37313863237E+02  0.15424074487E+02  0.46845715085E+02  0.00000000000E+00 0.  1.
         11    1    1    2    0    0  0.56223313727E+01  0.22087409512E+02 -0.46232072956E+02  0.51544823589E+02  0.00000000000E+00 0. -1.
</event>
<event>
 7    1  0.6506388E-006  0.1670900E+03  0.7561462E-02  0.1180917E+00
          2   -1    0    0  501    0  0.00000000000E+00  0.00000000000E+00  0.16431409629E+03  0.16431409629E+03  0.00000000000E+00 0. -1.
         -2   -1    0    0    0  501 -0.00000000000E+00 -0.00000000000E+00 -0.22684858504E+03  0.22684858504E+03  0.00000000000E+00 0.  1.
         23    2    1    2    0    0 -0.36751672651E+02  0.14683379811E+03 -0.86985153643E+02  0.21476490527E+03  0.12508676137E+03 0.  0.
          5    1    3    3  502    0  0.92534958748E+01  0.63363887592E+02 -0.99652798841E+02  0.11852747426E+03  0.41800000000E+01 0. -1.
         -5    1    3    3    0  502 -0.46005168525E+02  0.83469910518E+02  0.12667645198E+02  0.96237431012E+02  0.41800000000E+01 0. -1.
        -11    1    1    2    0    0 -0.28690296021E+02 -0.51924255612E+02  0.56697467821E+01  0.59593686203E+02  0.00000000000E+00 0. -1.
         11    1    1    2    0    0  0.65441968672E+02 -0.94909542498E+02  0.18780918113E+02  0.11680408985E+03  0.00000000000E+00 0.  1.
</event>
<event>
 7    1  0.6506388E-006  0.9578673E+02  0.7561462E-02  0.1289414E+00
         -1   -1    0    0    0  501 -0.00000000000E+00  0.00000000000E+00  0.46328240687E+02  0.46328240687E+02  0.00000000000E+00 0.  1.
          1   -1    0    0  501    0  0.00000000000E+00 -0.00000000000E+00 -0.29649331557E+03  0.29649331557E+03  0.00000000000E+00 0. -1.
         23    2    1    2    0    0  0.30018063281E+02 -0.18601466291E+02 -0.10883686043E+03  0.16953250584E+03  0.12509480276E+03 0.  0.
          5    1    3    3  502    0  0.10441799639E+02 -0.55386035037E+02 -0.11409471535E+03  0.12732525487E+03  0.41800000000E+01 0.  1.
         -5    1    3    3    0  502  0.19576263642E+02  0.36784568747E+02  0.52578549215E+01  0.42207250970E+02  0.41800000000E+01 0.  1.
        -11    1    1    2    0    0  0.10498921616E+01  0.49412138314E+02 -0.10634348399E+03  0.11726720886E+03  0.00000000000E+00 0. -1.
         11    1    1    2    0    0 -0.31067955442E+02 -0.30810672024E+02 -0.34984730462E+02  0.56021841557E+02  0.00000000000E+00 0.  1.
</event>
<event>
 7    1  0.6506388E-006  0.1193151E+03  0.7561462E-02  0.1244231E+00
          1   -1    0    0  501    0  0.00000000000E+00  0.00000000000E+00  0.20967381295E+02  0.20967381295E+02  0.00000000000E+00 0. -1.
         -1   -1    0    0    0  501 -0.00000000000E+00 -0.00000000000E+00 -0.11093498040E+04  0.11093498040E+04  0.00000000000E+00 0.  1.
         23    2    1    2    0    0 -0.67088051765E+02  0.82829842710E+02 -0.60622986651E+03  0.62811432387E+03  0.12510540862E+03 0.  0.
          5    1    3    3  502    0 -0.69124099127E+02  0.71120127420E+02 -0.60740293298E+03  0.61546081028E+03  0.41800000000E+01 0.  1.
         -5    1    3    3    0  502  0.20360473621E+01  0.11709715290E+02  0.11730664708E+01  0.12653513582E+02  0.41800000000E+01 0.  1.
        -11    1    1    2    0    0  0.79130841927E+02 -0.83060741228E+02 -0.47393439453E+03  0.48762135637E+03  0.00000000000E+00 0.  1.
         11    1    1    2    0    0 -0.12042790162E+02  0.23089851758E+00 -0.82181617183E+01  0.14581505102E+02  0.00000000000E+00 0. -1.
</event>
<event>
 7    1  0.6506388E-006  0.4133306E+03  0.7561462E-02  0.1039259E+00
         -3   -1    0    0    0  501 -0.00000000000E+00  0.00000000000E+00  0.12559810938E+03  0.12559810938E+03  0.00000000000E+00 0.  1.
          3   -1    0    0  501    0  0.00000000000E+00 -0.00000000000E+00 -0.18324462537E+04  0.18324462537E+04  0.00000000000E+00 0. -1.
         23    2    1    2    0    0 -0.35889554601E+03  0.17322287792E+03 -0.37053858988E+03  0.55835292672E+03  0.12508783234E+03 0.  0.
          5    1    3    3  502    0 -0.25669270007E+03  0.17053544633E+03 -0.23026442153E+03  0.38472413096E+03  0.41800000000E+01 0. -1.
         -5    1    3    3    0  502 -0.10220284594E+03  0.26874315891E+01 -0.14027416836E+03  0.17362879575E+03  0.41800000000E+01 0. -1.
        -11    1    1    2    0    0  0.31726366408E+03 -0.10132642313E+03 -0.10900845028E+04  0.11398278378E+04  0.00000000000E+00 0. -1.
         11    1    1    2    0    0  0.41631881924E+02 -0.71896454790E+02 -0.24622505161E+03  0.25986359854E+03  0.00000000000E+00 0.  1.
</event>
<event>
 7    1  0.6506388E-006  0.3820264E+03  0.7561462E-02  0.1050187E+00
         -2   -1    0    0    0  501 -0.00000000000E+00  0.00000000000E+00  0.13806056474E+03  0.13806056474E+03  0.00000000000E+00 0.  1.
          2   -1    0    0  501    0  0.00000000000E+00 -0.00000000000E+00 -0.15294377782E+04  0.15294377782E+04  0.00000000000E+00 0. -1.
         23    2    1    2    0    0 -0.37225362023E+03 -0.64252019140E+02 -0.26719819513E+03  0.47926750686E+03  0.12490551594E+03 0.  0.
          5    1    3    3  502    0 -0.15454383484E+02 -0.12004018522E+02  0.11875231738E+02  0.23268604564E+02  0.41800000000E+01 0. -1.
         -5    1    3    3    0  502 -0.35679923674E+03 -0.52248000618E+02 -0.27907342687E+03  0.45599890229E+03  0.41800000000E+01 0. -1.
        -11    1    1    2    0    0  0.13776009379E+03 -0.81399116374E+01 -0.45513825933E+03  0.47559955499E+03  0.00000000000E+00 0.  1.
         11    1    1    2    0    0  0.23449352643E+03  0.72391930777E+02 -0.66904075905E+03  0.71263128113E+03  0.00000000000E+00 0. -1.
</event>
<event>
 7    1  0.6506388E-006  0.1066775E+03  0.7561462E-02  0.1266849E+00
         -1   -1    0    0    0  501 -0.00000000000E+00  0.00000000000E+00  0.77229827177E+02  0.77229827177E+02  0.00000000000E+00 0.  1.
          1   -1    0    0  501    0  0.00000000000E+00 -0.00000000000E+00 -0.25891006859E+03  0.25891006859E+03  0.00000000000E+00 0. -1.
         23    2    1    2    0    0 -0.78566701972E+02 -0.36032927718E+02 -0.86776293183E+02  0.17506692862E+03  0.12508879205E+03 0.  0.
          5    1    3    3  502    0 -0.56258250437E+01 -0.51516876148E+02 -0.85864089908E+02  0.10037804925E+03  0.41800000000E+01 0. -1.
         -5    1    3    3    0  502 -0.72940876928E+02  0.15483948430E+02 -0.91220327429E+00  0.74688879365E+02  0.41800000000E+01 0. -1.
        -11    1    1    2    0    0  0.45572999510E+02  0.24413213218E+02 -0.11108881194E+03  0.12253010814E+03  0.00000000000E+00 0. -1.
         11    1    1    2    0    0  0.32993702462E+02  0.11619714499E+02  0.16184863708E+02  0.38542859007E+02  0.00000000000E+00 0.  1.
</event>
<event>
 7    1  0.6506388E-006  0.1165068E+03  0.7561462E-02  0.1248974E+00
          2   -1    0    0  501    0  0.00000000000E+00  0.00000000000E+00  0.11599467730E+03  0.11599467730E+03  0.00000000000E+00 0. -1.
         -2   -1    0    0    0  501 -0.00000000000E+00 -0.00000000000E+00 -0.14417883014E+03  0.14417883014E+03  0.00000000000E+00 0.  1.
         23    2    1    2    0    0  0.66419447611E+02 -0.21173066330E+02 -0.20266730372E+02  0.14463001059E+03  0.12508899969E+03 0.  0.
          5    1    3    3  502    0  0.90436319248E+02 -0.23230726392E+02 -0.50101464138E+02  0.10604727058E+03  0.41800000000E+01 0. -1.
         -5    1    3    3    0  502 -0.24016871637E+02  0.20576600619E+01  0.29834733765E+02  0.38582740014E+02  0.41800000000E+01 0. -1.
        -11    1    1    2    0    0 -0.18519205906E+02 -0.36007336639E+02 -0.59472830474E+01  0.40925046792E+02  0.00000000000E+00 0.  1.
         11    1    1    2    0    0 -0.47900241705E+02  0.57180402969E+02 -0.19701394147E+01  0.74618450054E+02  0.00000000000E+00 0. -1.
</event>
<event>
 7    1  0.6506388E-006  0.1262228E+03  0.7561462E-02  0.1233170E+00
         -3   -1    0    0    0  501 -0.00000000000E+00  0.00000000000E+00  0.20498048230E+03  0.20498048230E+03  0.00000000000E+00 0.  1.
          3   -1    0    0  501    0  0.00000000000E+00 -0.00000000000E+00 -0.79483764477E+02  0.79483764477E+02  0.00000000000E+00 0. -1.
         23    2    1    2    0    0 -0.58653735859E+02 -0.31484077412E+02  0.64948564499E+02  0.15586770889E+03  0.12507964975E+03 0.  0.
          5    1    3    3  502    0 -0.96512372412E+02 -0.29057682094E+02  0.60023934314E+02  0.11738539947E+03  0.41800000000E+01 0. -1.
         -5    1    3    3    0  502  0.37858636552E+02 -0.24263953186E+01  0.49246301850E+01  0.38482309420E+02  0.41800000000E+01 0. -1.
        -11    1    1    2    0    0  0.15336052873E+02 -0.32613323546E+02  0.21012913734E+02  0.41717693297E+02  0.00000000000E+00 0.  1.
         11    1    1    2    0    0  0.43317682987E+02  0.64097400959E+02  0.39535239594E+02  0.86878844598E+02  0.00000000000E+00 0. -1.
</event>
<event>
 7    1  0.6506388E-006  0.1468667E+03  0.7561462E-02  0.1204377E+00
         -3   -1    0    0    0  501 -0.00000000000E+00  0.00000000000E+00  0.10841405384E+03  0.10841405384E+03  0.00000000000E+00 0.  1.
          3   -1    0    0  501    0  0.00000000000E+00 -0.00000000000E+00 -0.36463267629E+03  0.36463267629E+03  0.00000000000E+00 0. -1.
         23    2    1    2    0    0  0.11576331756E+03 -0.47471818329E+02 -0.55177486822E+01  0.17701238103E+03  0.12509283857E+03 0.  0.
          5    1    3    3  502    0  0.87447351994E+02 -0.83273607333E+02 -0.30765747314E+02  0.12468174147E+03  0.41800000000E+01 0.  1.
         -5    1    3    3    0  502  0.28315965562E+02  0.35801789004E+02  0.25247998632E+02  0.52330639557E+02  0.41800000000E+01 0.  1.
        -11    1    1    2    0    0 -0.45293073185E+02  0.30437664550E+02 -0.20064436814E+03  0.20793286505E+03  0.00000000000E+00 0. -1.
         11    1    1    2    0    0 -0.70470244370E+02  0.17034153778E+02 -0.50056505626E+02  0.88101484051E+02  0.00000000000E+00 0.  1.
</event>
<event>
 7    1  0.6506388E-006  0.1632132E+03  0.7561462E-02  0.1185116E+00
          1   -1    0    0  501    0  0.00000000000E+00  0.00000000000E+00  0.25717820761E+03  0.25717820761E+03  0.00000000000E+00 0. -1.
         -1   -1    0    0    0  501 -0.00000000000E+00 -0.00000000000E+00 -0.13918740602E+03  0.13918740602E+03  0.00000000000E+00 0.  1.
         23    2    1    2    0    0  0.10786977206E+03 -0.93853501599E+02  0.18970633708E+01  0.18999037045E+03  0.12509346316E+03 0.  0.
          5    1    3    3  502    0  0.22874238277E+02 -0.62383190967E+02 -0.51983513152E+02  0.84466865288E+02  0.41800000000E+01 0.  1.
         -5    1    3    3    0  502  0.84995533787E+02 -0.31470310632E+02  0.53880576523E+02  0.10552350516E+03  0.41800000000E+01 0.  1.
        -11    1    1    2    0    0 -0.48088022829E+02 -0.10160366860E+02  0.21721509514E+02  0.53735602443E+02  0.00000000000E+00 0.  1.
         11    1    1    2    0    0 -0.59781749235E+02  0.10401386846E+03  0.94372228701E+02  0.15263964073E+03  0.00000000000E+00 0. -1.
</event>
<event>
 7    1  0.6506388E-006  0.1267289E+03  0.7561462E-02  0.1232392E+00
         -3   -1    0    0    0  501 -0.00000000000E+00  0.00000000000E+00  0.32852381107E+02  0.32852381107E+02  0.00000000000E+00 0.  1.
          3   -1    0    0  501    0  0.00000000000E+00 -0.00000000000E+00 -0.67171152699E+03  0.67171152699E+03  0.00000000000E+00 0. -1.
         23    2    1    2    0    0 -0.22139911849E+02  0.66890612428E+02 -0.17449258434E+03  0.22596210884E+03  0.12508670159E+03 0.  0.
          5    1    3    3  502    0 -0.65137401893E+02  0.68314674504E+02 -0.14696594622E+03  0.17471759393E+03  0.41800000000E+01 0. -1.
         -5    1    3    3    0  502  0.42997490045E+02 -0.14240620764E+01 -0.27526638115E+02  0.51244514915E+02  0.41800000000E+01 0. -1.
        -11    1    1    2    0    0  0.58038967133E+02 -0.35303256659E+02 -0.26222282830E+03  0.27087940734E+03  0.00000000000E+00 0. -1.
         11    1    1    2    0    0 -0.35899055284E+02 -0.31587355769E+02 -0.20214373324E+03  0.20772239191E+03  0.00000000000E+00 0.  1.
</event>
<event>
 7    1  0.6506388E-006  0.9733945E+02  0.7561462E-02  0.1285992E+00
          1   -1    0    0  501    0  0.00000000000E+00  0.00000000000E+00  0.58647553544E+03  0.58647553544E+03  0.00000000000E+00 0. -1.
         -1   -1    0    0    0  501 -0.00000000000E+00 -0.00000000000E+00 -0.79517114529E+02  0.79517114529E+02  0.00000000000E+00 0.  1.
         23    2    1    2    0    0 -0.48220005411E+01 -0.55253671270E+01 -0.33389670865E+02  0.11759799858E+03  0.11251949955E+03 0.  0.
          5    1    3    3  502    0 -0.51532262292E+02 -0.13682278366E+02  0.85454877344E+01  0.54159731894E+02  0.41800000000E+01 0. -1.
         -5    1    3    3    0  502  0.46710261751E+02  0.81569112390E+01 -0.41935158600E+02  0.63438266690E+02  0.41800000000E+01 0.  1.
        -11    1    1    2    0    0 -0.11783530228E+02  0.47245705138E+02  0.27946619248E+03  0.28367650763E+03  0.00000000000E+00 0. -1.
         11    1    1    2    0    0  0.16605530769E+02 -0.41720338011E+02  0.26088189929E+03  0.26471814376E+03  0.00000000000E+00 0.  1.
</event>
<event>
 7    1  0.6506388E-006  0.1252018E+03  0.7561462E-02  0.1234754E+00
          2   -1    0    0  501    0  0.00000000000E+00  0.00000000000E+00  0.79690350380E+03  0.79690350380E+03  0.00000000000E+00 0. -1.
         -2   -1    0    0    0  501 -0.00000000000E+00 -0.00000000000E+00 -0.34614943541E+02  0.34614943541E+02  0.00000000000E+00 0.  1.
         23    2    1    2    0    0  0.94134833571E+02  0.31924052504E+01  0.20134890913E+03  0.25506871192E+03  0.12508839374E+03 0.  0.
          5    1    3    3  502    0  0.10193767937E+03  0.14703249476E+02  0.21288254249E+03  0.23652468226E+03  0.41800000000E+01 0. -1.
         -5    1    3    3    0  502 -0.78028457987E+01 -0.11510844226E+02 -0.11533633363E+02  0.18544029656E+02  0.41800000000E+01 0. -1.
        -11    1    1    2    0    0 -0.99076229988E+02  0.26616883830E+02  0.42975935394E+03  0.44183442617E+03  0.00000000000E+00 0.  1.
         11    1    1    2    0    0  0.49413964174E+01 -0.29809289080E+02  0.13118029719E+03  0.13461530925E+03  0.00000000000E+00 0. -1.
</event>
<event>
 7    1  0.6506388E-006  0.1033557E+03  0.7561462E-02  0.1273393E+00
         -2   -1    0    0    0  501 -0.00000000000E+00  0.00000000000E+00  0.83348949912E+03  0.83348949912E+03  0.00000000000E+00 0.  1.
          2   -1    0    0  501    0  0.00000000000E+00 -0.00000000000E+00 -0.23434892765E+02  0.23434892765E+02  0.00000000000E+00 0. -1.
         23    2    1    2    0    0 -0.18085691945E+02 -0.82233161571E+02  0.53213426666E+03  0.55308538216E+03  0.12508867694E+03 0.  0.
          5    1    3    3  502    0 -0.24814625624E+02 -0.57568374839E+02  0.52118932073E+03  0.52496253568E+03  0.41800000000E+01 0.  1.
         -5    1    3    3    0  502  0.67289336797E+01 -0.24664786731E+02  0.10944945927E+02  0.28122846483E+02  0.41800000000E+01 0.  1.
        -11    1    1    2    0    0  0.26375661109E+02 -0.78461076615E+01  0.10670076257E+03  0.11019205796E+03  0.00000000000E+00 0. -1.
         11    1    1    2    0    0 -0.82899691641E+01  0.90079269232E+02  0.17121957713E+03  0.19364695177E+03  0.00000000000E+00 0.  1.
</event>
<event>
 7    1  0.6506388E-006  0.6635396E+02  0.7561462E-02  0.1372950E+00
          2   -1    0    0  501    0  0.00000000000E+00  0.00000000000E+00  0.45745019652E+03  0.45745019652E+03  0.00000000000E+00 0. -1.
         -2   -1    0    0    0  501 -0.00000000000E+00 -0.00000000000E+00 -0.41206532654E+02  0.41206532654E+02  0.00000000000E+00 0.  1.
         23    2    1    2    0    0  0.38486384649E+01  0.33162773249E+02  0.85236317088E+02  0.15500948739E+03  0.12509248532E+03 0.  0.
          5    1    3    3  502    0  0.13802603466E+02  0.18349086807E+02 -0.30177497617E+02  0.38149110232E+02  0.41800000000E+01 0.  1.
         -5    1    3    3    0  502 -0.99539650008E+01  0.14813686443E+02  0.11541381471E+03  0.11686037716E+03  0.41800000000E+01 0.  1.
        -11    1    1    2    0    0  0.24400769411E+02  0.19528473165E+02  0.14246864039E+03  0.14585634134E+03  0.00000000000E+00 0.  1.
         11    1    1    2    0    0 -0.28249407875E+02 -0.52691246415E+02  0.18853870639E+03  0.19779090045E+03  0.00000000000E+00 0. -1.
</event>
<event>
 7    1  0.6506388E-006  0.1613708E+03  0.7561462E-02  0.1187158E+00
          1   -1    0    0  501    0  0.00000000000E+00  0.00000000000E+00  0.91305206958E+02  0.91305206958E+02  0.00000000000E+00 0. -1.
         -1   -1    0    0    0  501 -0.00000000000E+00 -0.00000000000E+00 -0.37817620597E+03  0.37817620597E+03  0.00000000000E+00 0.  1.
         23    2    1    2    0    0  0.12497383887E+03  0.81032646706E+02 -0.14930201278E+03  0.24519882320E+03  0.12508645669E+03 0.  0.
          5    1    3    3  502    0 -0.11087767858E+02  0.13008189562E+02 -0.72759635664E+02  0.74857121062E+02  0.41800000000E+01 0.  1.
         -5    1    3    3    0  502  0.13606160673E+03  0.68024457144E+02 -0.76542377113E+02  0.17034170214E+03  0.41800000000E+01 0.  1.
        -11    1    1    2    0    0 -0.47801717566E+02 -0.11667533261E+02 -0.10428539203E+03  0.11531079102E+03  0.00000000000E+00 0.  1.
         11    1    1    2    0    0 -0.77172121303E+02 -0.69365113446E+02 -0.33283594209E+02  0.10897179871E+03  0.00000000000E+00 0. -1.
</event>
<event>
 7    1  0.6506388E-006  0.9817938E+02  0.7561462E-02  0.1284172E+00
         -1   -1    0    0    0  501 -0.00000000000E+00  0.00000000000E+00  0.45439764423E+03  0.45439764423E+03  0.00000000000E+00 0.  1.
          1   -1    0    0  501    0  0.00000000000E+00 -0.00000000000E+00 -0.26295022906E+02  0.26295022906E+02  0.00000000000E+00 0. -1.
         23    2    1    2    0    0 -0.13700641036E+02  0.62536783135E+01  0.23749555431E+03  0.26884908365E+03  0.12509546517E+03 0.  0.
          5    1    3    3  502    0  0.18052433979E+02 -0.50916839139E+02  0.66833223217E+02  0.86038171797E+02  0.41800000000E+01 0. -1.
         -5    1    3    3    0  502 -0.31753075015E+02  0.57170517452E+02  0.17066233109E+03  0.18281091185E+03  0.41800000000E+01 0. -1.
        -11    1    1    2    0    0  0.28969535753E+02 -0.34187091411E+02  0.16503525308E+03  0.17101060196E+03  0.00000000000E+00 0.  1.
         11    1    1    2    0    0 -0.15268894717E+02  0.27933413098E+02  0.25571813934E+02  0.40832981535E+02  0.00000000000E+00 0. -1.
</event>
<event>
 7    1  0.6506388E-006  0.4715899E+02  0.7561462E-02  0.1461297E+00
          1   -1    0    0  501    0  0.00000000000E+00  0.00000000000E+00  0.25797621560E+02  0.25797621560E+02  0.00000000000E+00 0. -1.
         -1   -1    0    0    0  501 -0.00000000000E+00 -0.00000000000E+00 -0.52831870679E+03  0.52831870679E+03  0.00000000000E+00 0.  1.
         23    2    1    2    0    0 -0.18034451484E+02  0.10026147701E+02 -0.37839269162E+03  0.39906649177E+03  0.12508905109E+03 0.  0.
          5    1    3    3  502    0 -0.12270013117E+02 -0.26236118102E+01  0.59128339846E+01  0.14486910179E+02  0.41800000000E+01 0.  1.
         -5    1    3    3    0  502 -0.57644383669E+01  0.12649759511E+02 -0.38430552560E+03  0.38457958159E+03  0.41800000000E+01 0.  1.
        -11    1    1    2    0    0  0.22475913661E+02  0.23639670171E+02 -0.11549375799E+03  0.12001170291E+03  0.00000000000E+00 0.  1.
         11    1    1    2    0    0 -0.44414621779E+01 -0.33665817872E+02 -0.86346356266E+01  0.35038133678E+02  0.00000000000E+00 0. -1.
</event>
<event>
 7    1  0.6506388E-006  0.6349015E+02  0.7561462E-02  0.1383743E+00
         -1   -1    0    0    0  501 -0.00000000000E+00  0.00000000000E+00  0.31781678138E+03  0.31781678138E+03  0.00000000000E+00 0.  1.
          1   -1    0    0  501    0  0.00000000000E+00 -0.00000000000E+00 -0.45809040616E+02  0.45809040616E+02  0.00000000000E+00 0. -1.
         23    2    1    2    0    0  0.13032846815E+02 -0.44264822975E+02  0.19291410753E+03  0.23450431158E+03  0.12508872698E+03 0.  0.
          5    1    3    3  502    0  0.22685057386E+01 -0.44512736959E+01 -0.18214617295E+02  0.19344369698E+02  0.41800000000E+01 0.  1.
         -5    1    3    3    0  502  0.10764341077E+02 -0.39813549279E+02  0.21112872483E+03  0.21515994188E+03  0.41800000000E+01 0.  1.
        -11    1    1    2    0    0 -0.14052885289E+02  0.60821505331E+02  0.89809571100E+02  0.10937320584E+03  0.00000000000E+00 0.  1.
         11    1    1    2    0    0  0.10200384739E+01 -0.16556682356E+02 -0.10715937865E+02  0.19748304571E+02  0.00000000000E+00 0. -1.
</event>
<event>
 6    1  0.6506388E-006  0.1237373E+03  0.7561462E-02  0.1237056E+00
          2   -1    0    0  501    0  0.00000000000E+00  0.00000000000E+00  0.52091729772E+03  0.52091729772E+03  0.00000000000E+00 0. -1.
         -2   -1    0    0    0  501 -0.00000000000E+00 -0.00000000000E+00 -0.91650303885E+02  0.91650303885E+02  0.00000000000E+00 0.  1.
          5    1    1    2  502    0  0.15358389795E+02  0.85789853741E+02  0.19789319268E+03  0.21627521183E+03  0.41800000000E+01 0. -1.
         -5    1    1    2    0  502 -0.13299107762E+02 -0.41266808817E+02 -0.64587565217E+02  0.77902771182E+02  0.41800000000E+01 0.  1.
        -11    1    1    2    0    0 -0.46670358177E+02  0.84270754965E+01  0.10334764255E+03  0.11370960010E+03  0.00000000000E+00 0.  1.
         11    1    1    2    0    0  0.44611076144E+02 -0.52950120421E+02  0.19261372382E+03  0.20468001850E+03  0.00000000000E+00 0. -1.
</event>
<event>
 7    1  0.6506388E-006  0.8990100E+02  0.7561462E-02  0.1303092E+00
         -2   -1    0    0    0  501 -0.00000000000E+00  0.00000000000E+00  0.25243157751E+03  0.25243157751E+03  0.00000000000E+00 0.  1.
          2   -1    0    0  501    0  0.00000000000E+00 -0.00000000000E+00 -0.10444016482E+03  0.10444016482E+03  0.00000000000E+00 0. -1.
         23    2    1    2    0    0 -0.25460549523E+02  0.48299413121E+02  0.20529849444E+03  0.24652813435E+03  0.12509027267E+03 0.  0.
          5    1    3    3  502    0 -0.40649064196E+01 -0.31259477806E+02  0.13328466684E+03  0.13702537441E+03  0.41800000000E+01 0.  1.
         -5    1    3    3    0  502 -0.21395643103E+02  0.79558890927E+02  0.72013827600E+02  0.10950275994E+03  0.41800000000E+01 0.  1.
        -11    1    1    2    0    0  0.74475759941E+01 -0.46852593201E+02  0.28544763397E+01  0.47526623203E+02  0.00000000000E+00 0.  1.
         11    1    1    2    0    0  0.18012973529E+02 -0.14468199197E+01 -0.60161558096E+02  0.62816984771E+02  0.00000000000E+00 0. -1.
</event>
<event>
 7    1  0.6506388E-006  0.9986426E+02  0.7561462E-02  0.1280582E+00
         -1   -1    0    0    0  501 -0.00000000000E+00  0.00000000000E+00  0.98926323148E+02  0.98926323148E+02  0.00000000000E+00 0.  1.
          1   -1    0    0  501    0  0.00000000000E+00 -0.00000000000E+00 -0.14333880836E+03  0.14333880836E+03  0.00000000000E+00 0. -1.
         23    2    1    2    0    0 -0.24621988735E+02 -0.29127205496E+02  0.97546097598E+01  0.13115089758E+03  0.12510303392E+03 0.  0.
          5    1    3    3  502    0 -0.22640710865E+02 -0.71861576689E+02  0.32913244052E+02  0.82325221085E+02  0.41800000000E+01 0.  1.
         -5    1    3    3    0  502 -0.19812778696E+01  0.42734371193E+02 -0.23158634292E+02  0.48825676498E+02  0.41800000000E+01 0.  1.
        -11    1    1    2    0    0  0.48254191385E+02  0.67223824132E+01 -0.95630670413E+00  0.48729579662E+02  0.00000000000E+00 0.  1.
         11    1    1    2    0    0 -0.23632202650E+02  0.22404823083E+02 -0.53210788268E+02  0.62384654263E+02  0.00000000000E+00 0. -1.
</event>
<event>
 7    1  0.6506388E-006  0.1394286E+03  0.7561462E-02  0.1214100E+00
         -1   -1    0    0    0  501 -0.00000000000E+00  0.00000000000E+00  0.82028338383E+03  0.82028338383E+03  0.00000000000E+00 0.  1.
          1   -1    0    0  501    0  0.00000000000E+00 -0.00000000000E+00 -0.35421609585E+02  0.35421609585E+02  0.00000000000E+00 0. -1.
         23    2    1    2    0    0 -0.18274439143E+02 -0.10148652740E+03  0.63115444402E+03  0.65164054244E+03  0.12508394773E+03 0.  0.
          5    1    3    3  502    0  0.34021868786E+02 -0.93023773470E+02  0.50682983889E+03  0.51643476643E+03  0.41800000000E+01 0.  1.
         -5    1    3    3    0  502 -0.52296307929E+02 -0.84627539254E+01  0.12432460512E+03  0.13520577601E+03  0.41800000000E+01 0.  1.
        -11    1    1    2    0    0  0.25805994018E+02  0.11127440160E+03  0.15396553944E+03  0.19171157794E+03  0.00000000000E+00 0.  1.
         11    1    1    2    0    0 -0.75315548753E+01 -0.97878742096E+01 -0.25820920974E+00  0.12352873042E+02  0.00000000000E+00 0. -1.
</event>
<event>
 7    1  0.6506388E-006  0.1344995E+03  0.7561462E-02  0.1220928E+00
          2   -1    0    0  501    0  0.00000000000E+00  0.00000000000E+00  0.34014058033E+03  0.34014058033E+03  0.00000000000E+00 0. -1.
         -2   -1    0    0    0  501 -0.00000000000E+00 -0.00000000000E+00 -0.81624876380E+02  0.81624876380E+02  0.00000000000E+00 0.  1.
         23    2    1    2    0    0 -0.98052990884E+02 -0.66365392978E+02  0.84013267546E+02  0.19163639096E+03  0.12509005880E+03 0.  0.
          5    1    3    3  502    0 -0.38933152997E+02 -0.39244021355E+02  0.10863492034E+03  0.12196270714E+03  0.41800000000E+01 0. -1.
         -5    1    3    3    0  502 -0.59119837887E+02 -0.27121371623E+02 -0.24621652798E+02  0.69673683820E+02  0.41800000000E+01 0. -1.
        -11    1    1    2    0    0  0.36795452064E+02 -0.20476849641E+02  0.34986096624E+02  0.54746996455E+02  0.00000000000E+00 0. -1.
         11    1    1    2    0    0  0.61257538820E+02  0.86842242619E+02  0.13951633978E+03  0.17538206930E+03  0.00000000000E+00 0.  1.
</event>
<event>
 6    1  0.6506388E-006  0.6489137E+02  0.7561462E-02  0.1378381E+00
          2   -1    0    0  501    0  0.00000000000E+00  0.00000000000E+00  0.22812935508E+03  0.22812935508E+03  0.00000000000E+00 0. -1.
         -2   -1    0    0    0  501 -0.00000000000E+00 -0.00000000000E+00 -0.63582698070E+02  0.63582698070E+02  0.00000000000E+00 0.  1.
          5    1    1    2  502    0 -0.24608436836E+02 -0.22102671412E+02  0.91037921510E+02  0.96950909227E+02  0.41800000000E+01 0. -1.
         -5    1    1    2    0  502 -0.21840057893E+01  0.23424810166E+01 -0.44110061208E+02  0.44423270910E+02  0.41800000000E+01 0.  1.
        -11    1    1    2    0    0 -0.14205923606E+02  0.42138297085E+02  0.40336676753E+02  0.60037420316E+02  0.00000000000E+00 0. -1.
         11    1    1    2    0    0  0.40998366232E+02 -0.22378106689E+02  0.77282119951E+02  0.90300452694E+02  0.00000000000E+00 0.  1.
</event>
<event>
 6    1  0.6506388E-006  0.1547657E+03  0.7561462E-02  0.1194736E+00
         -1   -1    0    0    0  501 -0.00000000000E+00  0.00000000000E+00  0.11676154290E+04  0.11676154290E+04  0.00000000000E+00 0.  1.
          1   -1    0    0  501    0  0.00000000000E+00 -0.00000000000E+00 -0.11424662509E+03  0.11424662509E+03  0.00000000000E+00 0. -1.
          5    1    1    2  502    0 -0.26089415064E+02 -0.71738614555E+02  0.65716064112E+03  0.66159252341E+03  0.41800000000E+01 0. -1.
         -5    1    1    2    0  502  0.10226849268E+02  0.12322564335E+03  0.47140869210E+03  0.48737334254E+03  0.41800000000E+01 0.  1.
        -11    1    1    2    0    0 -0.34983842741E+02  0.26582948610E+01 -0.20324065665E+02  0.40546312158E+02  0.00000000000E+00 0.  1.
         11    1    1    2    0    0  0.50846408538E+02 -0.54145323660E+02 -0.54876463636E+02  0.92349875997E+02  0.00000000000E+00 0. -1.
</event>
<event>
 7    1  0.6506388E-006  0.1562203E+03  0.7561462E-02  0.1193031E+00
          1   -1    0    0  501    0  0.00000000000E+00  0.00000000000E+00  0.38858854897E+03  0.38858854897E+03  0.00000000000E+00 0. -1.
         -1   -1    0    0    0  501 -0.00000000000E+00 -0.00000000000E+00 -0.70589330288E+02  0.70589330288E+02  0.00000000000E+00 0.  1.
         23    2    1    2    0    0  0.99136017461E+02 -0.74005975749E+02  0.14935150435E+03  0.23077475082E+03  0.12508508847E+03 0.  0.
          5    1    3    3  502    0  0.87961442217E+02 -0.44090667338E+01  0.13084099720E+03  0.15777672241E+03  0.41800000000E+01 0.  1.
         -5    1    3    3    0  502  0.11174575244E+02 -0.69596909015E+02  0.18510507152E+02  0.72998028407E+02  0.41800000000E+01 0.  1.
        -11    1    1    2    0    0 -0.21739919177E+02  0.73091458376E+02  0.75737602787E+02  0.10747636879E+03  0.00000000000E+00 0.  1.
         11    1    1    2    0    0 -0.77396098284E+02  0.91451737256E+00  0.92910111549E+02  0.12092675965E+03  0.00000000000E+00 0. -1.
</event>
<event>
 7    1  0.6506388E-006  0.8720254E+02  0.7561462E-02  0.1309771E+00
         -2   -1    0    0    0  501 -0.00000000000E+00  0.00000000000E+00  0.10578120795E+03  0.10578120795E+03  0.00000000000E+00 0.  1.
          2   -1    0    0  501    0  0.00000000000E+00 -0.00000000000E+00 -0.19102914894E+03  0.19102914894E+03  0.00000000000E+00 0. -1.
         23    2    1    2    0    0  0.16801983137E+02  0.25105865068E+02  0.41490415060E+02  0.13521031700E+03  0.12509102359E+03 0.  0.
          5    1    3    3  502    0 -0.65457556790E+01 -0.29233764482E+02 -0.29817044839E+02  0.42473385386E+02  0.41800000000E+01 0.  1.
         -5    1    3    3    0  502  0.23347738816E+02  0.54339629549E+02  0.71307459899E+02  0.92736931611E+02  0.41800000000E+01 0.  1.
        -11    1    1    2    0    0  0.69981743600E+01  0.26834995172E+02 -0.65094471369E+01  0.28486212670E+02  0.00000000000E+00 0.  1.
         11    1    1    2    0    0 -0.23800157497E+02 -0.51940860240E+02 -0.12022890891E+03  0.13311382722E+03  0.00000000000E+00 0. -1.
</event>
<event>
 7    1  0.6506388E-006  0.1370934E+03  0.7561462E-02  0.1217294E+00
          2   -1    0    0  501    0  0.00000000000E+00  0.00000000000E+00  0.11854970514E+04  0.11854970514E+04  0.00000000000E+00 0. -1.
         -2   -1    0    0    0  501 -0.00000000000E+00 -0.00000000000E+00 -0.16123389768E+02  0.16123389768E+02  0.00000000000E+00 0.  1.
         23    2    1    2    0    0 -0.65177984149E+02  0.56031987261E+02  0.62595744948E+03  0.64409503133E+03  0.12509167683E+03 0.  0.
          5    1    3    3  502    0 -0.88851813114E+02  0.77789537545E+02  0.52154617432E+03  0.53476512712E+03  0.41800000000E+01 0.  1.
         -5    1    3    3    0  502  0.23673828966E+02 -0.21757550284E+02  0.10441127516E+03  0.10932990420E+03  0.41800000000E+01 0.  1.
        -11    1    1    2    0    0  0.16857429934E+02 -0.71028983481E+02  0.35544848584E+03  0.36286762810E+03  0.00000000000E+00 0. -1.
         11    1    1    2    0    0  0.48320554215E+02  0.14996996220E+02  0.18796772631E+03  0.19465778173E+03  0.00000000000E+00 0.  1.
</event>
<event>
 7    1  0.6506388E-006  0.1018680E+03  0.7561462E-02  0.1276416E+00
          1   -1    0    0  501    0  0.00000000000E+00  0.00000000000E+00  0.24632698994E+03  0.24632698994E+03  0.00000000000E+00 0. -1.
         -1   -1    0    0    0  501 -0.00000000000E+00 -0.00000000000E+00 -0.58412243709E+02  0.58412243709E+02  0.00000000000E+00 0.  1.
         23    2    1    2    0    0 -0.37898198099E+02 -0.20307950414E+02  0.83708432777E+02  0.15653748648E+03  0.12509275234E+03 0.  0.
          5    1    3    3  502    0  0.32999868233E+02 -0.36416025083E+02  0.54261996078E+01  0.49618889835E+02  0.41800000000E+01 0. -1.
         -5    1    3    3    0  502 -0.70898066333E+02  0.16108074670E+02  0.78282233169E+02  0.10691859665E+03  0.41800000000E+01 0. -1.
        -11    1    1    2    0    0  0.22927583331E+02 -0.24970904791E+02  0.33046010766E+00  0.33901760535E+02  0.00000000000E+00 0.  1.
         11    1    1    2    0    0  0.14970614768E+02  0.45278855205E+02  0.10387585335E+03  0.11429998663E+03  0.00000000000E+00 0. -1.
</event>
<event>
 7    1  0.6506388E-006  0.1319726E+03  0.7561462E-02  0.1224558E+00
          1   -1    0    0  501    0  0.00000000000E+00  0.00000000000E+00  0.58238049458E+03  0.58238049458E+03  0.00000000000E+00 0. -1.
         -1   -1    0    0    0  501 -0.00000000000E+00 -0.00000000000E+00 -0.61185746468E+02  0.61185746468E+02  0.00000000000E+00 0.  1.
         23    2    1    2    0    0 -0.65805439376E+01  0.11979417683E+03  0.11199252937E+03  0.20635905921E+03  0.12509111208E+03 0.  0.
          5    1    3    3  502    0  0.19513575406E+02 -0.11698459586E+01  0.74284602385E+02  0.76927385996E+02  0.41800000000E+01 0.  1.
         -5    1    3    3    0  502 -0.26094119343E+02  0.12096402279E+03  0.37707926986E+02  0.12943167321E+03  0.41800000000E+01 0.  1.
        -11    1    1    2    0    0  0.33710533651E+01 -0.10203367672E+03  0.40629712029E+03  0.41892670616E+03  0.00000000000E+00 0. -1.
         11    1    1    2    0    0  0.32094905725E+01 -0.17760500112E+02  0.29050984564E+01  0.18280475678E+02  0.00000000000E+00 0.  1.
</event>
<event>
 7    1  0.6506388E-006  0.1766312E+03  0.7561462E-02  0.1171104E+00
         -1   -1    0    0    0  501 -0.00000000000E+00  0.00000000000E+00  0.20999752297E+03  0.20999752297E+03  0.00000000000E+00 0.  1.
          1   -1    0    0  501    0  0.00000000000E+00 -0.00000000000E+00 -0.21811786070E+03  0.21811786070E+03  0.00000000000E+00 0. -1.
         23    2    1    2    0    0  0.15459083079E+03 -0.57723080809E+02  0.78434898841E+02  0.22142493929E+03  0.12508673534E+03 0.  0.
          5    1    3    3  502    0  0.16548868598E+03 -0.55364033623E+02  0.37158840029E+02  0.17846549582E+03  0.41800000000E+01 0.  1.
         -5    1    3    3    0  502 -0.10897855194E+02 -0.23590471868E+01  0.41276058812E+02  0.42959443462E+02  0.41800000000E+01 0.  1.
        -11    1    1    2    0    0 -0.39690055347E+02  0.37881918832E+01 -0.67419316975E+02  0.78326337796E+02  0.00000000000E+00 0.  1.
         11    1    1    2    0    0 -0.11490077544E+03  0.53934888926E+02 -0.19135919590E+02  0.12836410659E+03  0.00000000000E+00 0. -1.
</event>
<event>
 7    1  0.6506388E-006  0.1086378E+03  0.7561462E-02  0.1263113E+00
         -2   -1    0    0    0  501 -0.00000000000E+00  0.00000000000E+00  0.10976948315E+03  0.10976948315E+03  0.00000000000E+00 0.  1.
          2   -1    0    0  501    0  0.00000000000E+00 -0.00000000000E+00 -0.15241126487E+03  0.15241126487E+03  0.00000000000E+00 0. -1.
         23    2    1    2    0    0  0.21452130590E+02 -0.65003970388E+02 -0.15824169094E+02  0.14346859541E+03  0.12508846258E+03 0.  0.
          5    1    3    3  502    0  0.28740822795E+02 -0.10077708752E+03 -0.43366732907E+01  0.10496825901E+03  0.41800000000E+01 0.  1.
         -5    1    3    3    0  502 -0.72886922053E+01  0.35773117133E+02 -0.11487495803E+02  0.38500336405E+02  0.41800000000E+01 0.  1.
        -11    1    1    2    0    0 -0.30014899348E+02  0.47993763719E+02 -0.58717571759E+02  0.81560093011E+02  0.00000000000E+00 0. -1.
         11    1    1    2    0    0  0.85627687580E+01  0.17010206669E+02  0.31899959131E+02  0.37152059597E+02  0.00000000000E+00 0.  1.
</event>
<event>
 7    1  0.6506388E-006  0.1688634E+03  0.7561462E-02  0.1179038E+00
         -3   -1    0    0    0  501 -0.00000000000E+00  0.00000000000E+00  0.54481906238E+02  0.54481906238E+02  0.00000000000E+00 0.  1.
          3   -1    0    0  501    0  0.00000000000E+00 -0.00000000000E+00 -0.63298840777E+03  0.63298840777E+03  0.00000000000E+00 0. -1.
         23    2    1    2    0    0  0.12576148911E+03 -0.80157695969E+02 -0.27516483856E+03  0.33705187038E+03  0.12508823517E+03 0.  0.
          5    1    3    3  502    0  0.13293469784E+03 -0.45567324924E+02 -0.26511664844E+03  0.30008719511E+03  0.41800000000E+01 0. -1.
         -5    1    3    3    0  502 -0.71732087305E+01 -0.34590371046E+02 -0.10048190117E+02  0.36964675261E+02  0.41800000000E+01 0. -1.
        -11    1    1    2    0    0 -0.86346037883E+02  0.18375350124E+02 -0.95581090376E+02  0.13011163125E+03  0.00000000000E+00 0.  1.
         11    1    1    2    0    0 -0.39415451230E+02  0.61782345845E+02 -0.20776057260E+03  0.22030681238E+03  0.00000000000E+00 0. -1.
</event>
<event>
 7    1  0.6506388E-006  0.7241943E+02  0.7561462E-02  0.1352054E+00
          2   -1    0    0  501    0  0.00000000000E+00  0.00000000000E+00  0.34058568156E+03  0.34058568156E+03  0.00000000000E+00 0. -1.
         -2   -1    0    0    0  501 -0.00000000000E+00 -0.00000000000E+00 -0.44028626440E+02  0.44028626440E+02  0.00000000000E+00 0.  1.
         23    2    1    2    0    0  0.39265539598E+02  0.30855884563E+02  0.12241187100E+03  0.18200535115E+03  0.12508962177E+03 0.  0.
          5    1    3    3  502    0 -0.83620451233E+01 -0.59054449375E+01 -0.22485830123E+02  0.25057594355E+02  0.41800000000E+01 0. -1.
         -5    1    3    3    0  502  0.47627584721E+02  0.36761329501E+02  0.14489770112E+03  0.15694775680E+03  0.41800000000E+01 0. -1.
        -11    1    1    2    0    0 -0.24246457147E+02  0.12719724416E+02  0.14612662122E+03  0.14866967244E+03  0.00000000000E+00 0. -1.
         11    1    1    2    0    0 -0.15019082451E+02 -0.43575608980E+02  0.28018562896E+02  0.53939284407E+02  0.00000000000E+00 0.  1.
</event>
<event>
 7    1  0.6506388E-006  0.1124961E+03  0.7561462E-02  0.1256016E+00
          2   -1    0    0  501    0  0.00000000000E+00  0.00000000000E+00  0.15885295357E+03  0.15885295357E+03  0.00000000000E+00 0. -1.
         -2   -1    0    0    0  501 -0.00000000000E+00 -0.00000000000E+00 -0.13893299284E+03  0.13893299284E+03  0.00000000000E+00 0.  1.
         23    2    1    2    0    0  0.58996505802E+02 -0.19357807435E+02 -0.69097660590E+02  0.15581061897E+03  0.12508856814E+03 0.  0.
          5    1    3    3  502    0  0.77378367435E+02  0.25797313484E+02 -0.68938942279E+02  0.10687826389E+03  0.41800000000E+01 0. -1.
         -5    1    3    3    0  502 -0.18381861633E+02 -0.45155120919E+02 -0.15871831076E+00  0.48932355081E+02  0.41800000000E+01 0. -1.
        -11    1    1    2    0    0  0.16766527086E+01  0.32304952546E+02  0.69957163464E+02  0.77074158076E+02  0.00000000000E+00 0. -1.
         11    1    1    2    0    0 -0.60673158511E+02 -0.12947145111E+02  0.19060457855E+02  0.64901169357E+02  0.00000000000E+00 0.  1.
</event>
<event>
 7    1  0.6506388E-006  0.8592093E+02  0.7561462E-02  0.1313042E+00
          3   -1    0    0  501    0  0.00000000000E+00  0.00000000000E+00  0.83582513789E+02  0.83582513789E+02  0.00000000000E+00 0. -1.
         -3   -1    0    0    0  501 -0.00000000000E+00 -0.00000000000E+00 -0.17810427804E+03  0.17810427804E+03  0.00000000000E+00 0.  1.
         23    2    1    2    0    0 -0.51172632634E+02 -0.95187637775E+01 -0.63883583344E+02  0.14979181874E+03  0.12508889458E+03 0.  0.
          5    1    3    3  502    0  0.22560962801E+02 -0.15531208706E+02  0.22709111601E+02  0.35824455838E+02  0.41800000000E+01 0. -1.
         -5    1    3    3    0  502 -0.73733595435E+02  0.60124449285E+01 -0.86592694945E+02  0.11396736290E+03  0.41800000000E+01 0. -1.
        -11    1    1    2    0    0  0.38609648279E+02 -0.15844429718E+02  0.25582722166E+02  0.48951267264E+02  0.00000000000E+00 0. -1.
         11    1    1    2    0    0  0.12562984355E+02  0.25363193495E+02 -0.56220903073E+02  0.62943705822E+02  0.00000000000E+00 0.  1.
</event>
<event>
 7    1  0.6506388E-006  0.1525141E+03  0.7561462E-02  0.1197417E+00
         -2   -1    0    0    0  501 -0.00000000000E+00  0.00000000000E+00  0.34937576102E+02  0.34937576102E+02  0.00000000000E+00 0.  1.
          2   -1    0    0  501    0  0.00000000000E+00 -0.00000000000E+00 -0.75037039849E+03  0.75037039849E+03  0.00000000000E+00 0. -1.
         23    2    1    2    0    0  0.83903363999E+02  0.86107114252E+02 -0.39545244967E+03  0.43183730351E+03  0.12508639868E+03 0.  0.
          5    1    3    3  502    0  0.64133723107E+02 -0.10269641806E+02 -0.91172706300E+02  0.11202024262E+03  0.41800000000E+01 0. -1.
         -5    1    3    3    0  502  0.19769640893E+02  0.96376756058E+02 -0.30427974337E+03  0.31981706089E+03  0.41800000000E+01 0. -1.
        -11    1    1    2    0    0  0.94944369704E+01 -0.32334289446E+02 -0.13725094453E+03  0.14132753582E+03  0.00000000000E+00 0. -1.
         11    1    1    2    0    0 -0.93397800970E+02 -0.53772824806E+02 -0.18272942819E+03  0.21214313526E+03  0.00000000000E+00 0.  1.
</event>
<event>
 7    1  0.6506388E-006  0.1018775E+03  0.7561462E-02  0.1276397E+00
         -2   -1    0    0    0  501 -0.00000000000E+00  0.00000000000E+00  0.68954737821E+02  0.68954737821E+02  0.00000000000E+00 0.  1.
          2   -1    0    0  501    0  0.00000000000E+00 -0.00000000000E+00 -0.36313546084E+03  0.36313546084E+03  0.00000000000E+00 0. -1.
         23    2    1    2    0    0  0.63468112332E+02  0.17545738826E+02 -0.19790954808E+02  0.14274264330E+03  0.12509087133E+03 0.  0.
          5    1    3    3  502    0 -0.14681852184E+02 -0.31721446285E+02 -0.34280180085E+02  0.49136647063E+02  0.41800000000E+01 0. -1.
         -5    1    3    3    0  502  0.78149964516E+02  0.49267185111E+02  0.14489225277E+02  0.93605996238E+02  0.41800000000E+01 0. -1.
        -11    1    1    2    0    0 -0.19937473941E+02  0.12178484093E+02 -0.24091328755E+02  0.33559059330E+02  0.00000000000E+00 0.  1.
         11    1    1    2    0    0 -0.43530638391E+02 -0.29724222919E+02 -0.25029843946E+03  0.25578849603E+03  0.00000000000E+00 0. -1.
</event>
<event>
 7    1  0.6506388E-006  0.2639106E+03  0.7561462E-02  0.1104816E+00
         -2   -1    0    0    0  501 -0.00000000000E+00  0.00000000000E+00  0.10188285251E+04  0.10188285251E+04  0.00000000000E+00 0.  1.
          2   -1    0    0  501    0  0.00000000000E+00 -0.00000000000E+00 -0.80411660917E+02  0.80411660917E+02  0.00000000000E+00 0. -1.
         23    2    1    2    0    0  0.12177177058E+02  0.25838681661E+03  0.57651169487E+03  0.64414717204E+03  0.12509122386E+03 0.  0.
          5    1    3    3  502    0 -0.48108333602E+01  0.21080971347E+03  0.54518219452E+03  0.58455536695E+03  0.41800000000E+01 0. -1.
         -5    1    3    3    0  502  0.16988010418E+02  0.47577103146E+02  0.31329500346E+02  0.59591805088E+02  0.41800000000E+01 0. -1.
        -11    1    1    2    0    0  0.19650563729E+02 -0.31582172243E+02  0.10256036216E+03  0.10909723252E+03  0.00000000000E+00 0.  1.
         11    1    1    2    0    0 -0.31827740787E+02 -0.22680464437E+03  0.25934480720E+03  0.34599578150E+03  0.00000000000E+00 0. -1.
</event>
<event>
 7    1  0.6506388E-006  0.5066295E+02  0.7561462E-02  0.1441798E+00
          1   -1    0    0  501    0  0.00000000000E+00  0.00000000000E+00  0.30694009060E+02  0.30694009060E+02  0.00000000000E+00 0. -1.
         -1   -1    0    0    0  501 -0.00000000000E+00 -0.00000000000E+00 -0.42390760291E+03  0.42390760291E+03  0.00000000000E+00 0.  1.
         23    2    1    2    0    0  0.27976192866E+02 -0.89980847680E+01 -0.26796059868E+03  0.29717646749E+03  0.12508931803E+03 0.  0.
          5    1    3    3  502    0  0.97957724096E+01 -0.20887947477E+02  0.44534833274E+01  0.23865653577E+02  0.41800000000E+01 0. -1.
         -5    1    3    3    0  502  0.18180420456E+02  0.11889862709E+02 -0.27241408201E+03  0.27331081391E+03  0.41800000000E+01 0. -1.
        -11    1    1    2    0    0 -0.26573321625E+02 -0.15802859177E+02 -0.12868652784E+03  0.13234838203E+03  0.00000000000E+00 0.  1.
         11    1    1    2    0    0 -0.14028712408E+01  0.24800943945E+02  0.34335326705E+01  0.25076762448E+02  0.00000000000E+00 0. -1.
</event>
<event>
 7    1  0.6506388E-006  0.1269902E+03  0.7561462E-02  0.1231991E+00
          4   -1    0    0  501    0  0.00000000000E+00  0.00000000000E+00  0.91085422138E+02  0.91085422138E+02  0.00000000000E+00 0. -1.
         -4   -1    0    0    0  501 -0.00000000000E+00 -0.00000000000E+00 -0.37250756369E+03  0.37250756369E+03  0.00000000000E+00 0.  1.
         23    2    1    2    0    0  0.39358033287E+02 -0.57839076459E+02 -0.30758957264E+03  0.33934330502E+03  0.12509244547E+03 0.  0.
          5    1    3    3  502    0 -0.21596738893E+02 -0.74139461795E+02 -0.13566981355E+03  0.15616289455E+03  0.41800000000E+01 0. -1.
         -5    1    3    3    0  502  0.60954772179E+02  0.16300385336E+02 -0.17191975909E+03  0.18318041046E+03  0.41800000000E+01 0. -1.
        -11    1    1    2    0    0 -0.36518711081E+02 -0.15747987220E+02 -0.11683029669E+02  0.41450072892E+02  0.00000000000E+00 0.  1.
         11    1    1    2    0    0 -0.28393222055E+01  0.73587063679E+02  0.37850460758E+02  0.82799607916E+02  0.00000000000E+00 0. -1.
</event>
<event>
 7    1  0.6506388E-006  0.3184565E+03  0.7561462E-02  0.1076362E+00
         -2   -1    0    0    0  501 -0.00000000000E+00  0.00000000000E+00  0.53011691167E+02  0.53011691167E+02  0.00000000000E+00 0. -1.
          2   -1    0    0  501    0  0.00000000000E+00 -0.00000000000E+00 -0.21998561516E+04  0.21998561516E+04  0.00000000000E+00 0.  1.
         23    2    1    2    0    0  0.24602369373E+03  0.18206788654E+03 -0.74339646468E+03  0.81361081298E+03  0.12509147898E+03 0.  0.
          5    1    3    3  502    0  0.26018538859E+03  0.17623162797E+03 -0.71615273641E+03  0.78207815300E+03  0.41800000000E+01 0.  1.
         -5    1    3    3    0  502 -0.14161694858E+02  0.58362585718E+01 -0.27243728274E+02  0.31532659983E+02  0.41800000000E+01 0.  1.
        -11    1    1    2    0    0 -0.79830180581E+02 -0.71271873913E+02 -0.31633108915E+03  0.33394295277E+03  0.00000000000E+00 0. -1.
         11    1    1    2    0    0 -0.16619351315E+03 -0.11079601263E+03 -0.10871169066E+04  0.11053140770E+04  0.00000000000E+00 0.  1.
</event>
<event>
 7    1  0.6506388E-006  0.1764458E+03  0.7561462E-02  0.1171288E+00
         -2   -1    0    0    0  501 -0.00000000000E+00  0.00000000000E+00  0.47149986337E+02  0.47149986337E+02  0.00000000000E+00 0. -1.
          2   -1    0    0  501    0  0.00000000000E+00 -0.00000000000E+00 -0.74455805601E+03  0.74455805601E+03  0.00000000000E+00 0.  1.
         23    2    1    2    0    0  0.40546934123E+02  0.14732312939E+03 -0.37521055854E+03  0.42400060983E+03  0.12508155573E+03 0.  0.
          5    1    3    3  502    0  0.65215652425E+02  0.54784447976E+02 -0.94082218467E+02  0.12697776692E+03  0.41800000000E+01 0. -1.
         -5    1    3    3    0  502 -0.24668718302E+02  0.92538681410E+02 -0.28112834007E+03  0.29702284291E+03  0.41800000000E+01 0. -1.
        -11    1    1    2    0    0  0.23058251573E+02 -0.55045020078E+02 -0.15810445106E+03  0.16899306094E+03  0.00000000000E+00 0.  1.
         11    1    1    2    0    0 -0.63605185696E+02 -0.92278109308E+02 -0.16409306008E+03  0.19871437157E+03  0.00000000000E+00 0. -1.
</event>
<event>
 7    1  0.6506388E-006  0.1010802E+03  0.7561462E-02  0.1278041E+00
          1   -1    0    0  501    0  0.00000000000E+00  0.00000000000E+00  0.35148340086E+03  0.35148340086E+03  0.00000000000E+00 0. -1.
         -1   -1    0    0    0  501 -0.00000000000E+00 -0.00000000000E+00 -0.49061396928E+02  0.49061396928E+02  0.00000000000E+00 0.  1.
         23    2    1    2    0    0 -0.67427795046E+01 -0.20004615373E+02  0.60006666451E+02  0.14033690962E+03  0.12509196006E+03 0.  0.
          5    1    3    3  502    0  0.47734858239E+02  0.26717467687E+02  0.28843027532E+02  0.61982516953E+02  0.41800000000E+01 0. -1.
         -5    1    3    3    0  502 -0.54477637743E+02 -0.46722083060E+02  0.31163638920E+02  0.78354392667E+02  0.41800000000E+01 0. -1.
        -11    1    1    2    0    0  0.62770280520E+01 -0.27344617527E+02  0.24626346714E+02  0.37330766685E+02  0.00000000000E+00 0.  1.
         11    1    1    2    0    0  0.46575145261E+00  0.47349232900E+02  0.21778899076E+03  0.22287712148E+03  0.00000000000E+00 0. -1.
</event>
<event>
 7    1  0.6506388E-006  0.1105695E+03  0.7561462E-02  0.1259519E+00
          1   -1    0    0  501    0  0.00000000000E+00  0.00000000000E+00  0.16762321357E+03  0.16762321357E+03  0.00000000000E+00 0. -1.
         -1   -1    0    0    0  501 -0.00000000000E+00 -0.00000000000E+00 -0.11200363370E+03  0.11200363370E+03  0.00000000000E+00 0.  1.
         23    2    1    2    0    0  0.80701460456E+02  0.14182109947E+01  0.99115975400E+01  0.14919712107E+03  0.12508718611E+03 0.  0.
          5    1    3    3  502    0  0.36462501718E+01  0.42672203206E+02  0.37883987183E+02  0.57331326093E+02  0.41800000000E+01 0.  1.
         -5    1    3    3    0  502  0.77055210284E+02 -0.41253992211E+02 -0.27972389643E+02  0.91865794982E+02  0.41800000000E+01 0.  1.
        -11    1    1    2    0    0 -0.43560912226E+02  0.19778334146E+02 -0.20145813256E+02  0.51909434281E+02  0.00000000000E+00 0.  1.
         11    1    1    2    0    0 -0.37140548230E+02 -0.21196545141E+02  0.65853795584E+02  0.78520291910E+02  0.00000000000E+00 0. -1.
</event>
<event>
 7    1  0.6506388E-006  0.1816359E+03  0.7561462E-02  0.1166229E+00
         -1   -1    0    0    0  501 -0.00000000000E+00  0.00000000000E+00  0.24686925815E+03  0.24686925815E+03  0.00000000000E+00 0.  1.
          1   -1    0    0  501    0  0.00000000000E+00 -0.00000000000E+00 -0.16420552165E+03  0.16420552165E+03  0.00000000000E+00 0. -1.
         23    2    1    2    0    0 -0.20060616853E+02 -0.15919091558E+03 -0.10352517672E+02  0.20371090809E+03  0.12508710366E+03 0.  0.
          5    1    3    3  502    0  0.42424557024E+02 -0.96778384957E+02 -0.35900177717E+02  0.11167897740E+03  0.41800000000E+01 0.  1.
         -5    1    3    3    0  502 -0.62485173876E+02 -0.62412530618E+02  0.25547660045E+02  0.92031930689E+02  0.41800000000E+01 0.  1.
        -11    1    1    2    0    0 -0.15602444999E+02  0.89180994555E+02  0.69108391143E+01  0.90798930484E+02  0.00000000000E+00 0. -1.
         11    1    1    2    0    0  0.35663061852E+02  0.70009921021E+02  0.86105415049E+02  0.11656494123E+03  0.00000000000E+00 0.  1.
</event>
<event>
 6    1  0.6506388E-006  0.2710890E+03  0.7561462E-02  0.1100658E+00
         -1   -1    0    0    0  501 -0.00000000000E+00  0.00000000000E+00  0.41461360698E+03  0.41461360698E+03  0.00000000000E+00 0.  1.
          1   -1    0    0  501    0  0.00000000000E+00 -0.00000000000E+00 -0.29669678066E+03  0.29669678066E+03  0.00000000000E+00 0. -1.
          5    1    1    2  502    0  0.21541887073E+03 -0.14339144371E+03  0.23524893265E+03  0.34975123832E+03  0.41800000000E+01 0. -1.
         -5    1    1    2    0  502 -0.10297905192E+03  0.71491628477E+02  0.44558150794E+02  0.13311137923E+03  0.41800000000E+01 0.  1.
        -11    1    1    2    0    0 -0.43162279418E+02  0.77207030733E+02 -0.11294252410E+03  0.14345703785E+03  0.00000000000E+00 0.  1.
         11    1    1    2    0    0 -0.69277539389E+02 -0.53072154987E+01 -0.48947733010E+02  0.84990732242E+02  0.00000000000E+00 0. -1.
</event>
<event>
 7    1  0.6506388E-006  0.1098455E+03  0.7561462E-02  0.1260856E+00
         -1   -1    0    0    0  501 -0.00000000000E+00  0.00000000000E+00  0.21358499511E+02  0.21358499511E+02  0.00000000000E+00 0.  1.
          1   -1    0    0  501    0  0.00000000000E+00 -0.00000000000E+00 -0.60521820015E+03  0.60521820015E+03  0.00000000000E+00 0. -1.
         23    2    1    2    0    0  0.29681561889E+02 -0.10995210432E+01 -0.28556913441E+03  0.31317393291E+03  0.12508388250E+03 0.  0.
          5    1    3    3  502    0  0.74568870806E+02 -0.15385547802E+02 -0.13149409810E+03  0.15200461114E+03  0.41800000000E+01 0.  1.
         -5    1    3    3    0  502 -0.44887308917E+02  0.14286026759E+02 -0.15407503631E+03  0.16116932176E+03  0.41800000000E+01 0.  1.
        -11    1    1    2    0    0 -0.56937462339E+00 -0.43163504346E+02 -0.13397448887E+03  0.14075715244E+03  0.00000000000E+00 0.  1.
         11    1    1    2    0    0 -0.29112187265E+02  0.44263025390E+02 -0.16431607736E+03  0.17264561431E+03  0.00000000000E+00 0. -1.
</event>
<event>
 7    1  0.6506388E-006  0.1727103E+03  0.7561462E-02  0.1175051E+00
         -1   -1    0    0    0  501 -0.00000000000E+00  0.00000000000E+00  0.15255417490E+03  0.15255417490E+03  0.00000000000E+00 0.  1.
          1   -1    0    0  501    0  0.00000000000E+00 -0.00000000000E+00 -0.26940508325E+03  0.26940508325E+03  0.00000000000E+00 0. -1.
         23    2    1    2    0    0 -0.79431670556E+02  0.12813565798E+03  0.22599255799E+02  0.19719878280E+03  0.12509395046E+03 0.  0.
          5    1    3    3  502    0 -0.10298030391E+03  0.53208963995E+02  0.24852611636E+01  0.11601631681E+03  0.41800000000E+01 0. -1.
         -5    1    3    3    0  502  0.23548633355E+02  0.74926693989E+02  0.20113994635E+02  0.81182465996E+02  0.41800000000E+01 0. -1.
        -11    1    1    2    0    0  0.11305696784E+02 -0.16610041192E+02 -0.77632121452E+02  0.80190139851E+02  0.00000000000E+00 0. -1.
         11    1    1    2    0    0  0.68125973771E+02 -0.11152561679E+03 -0.61818042699E+02  0.14457033550E+03  0.00000000000E+00 0.  1.
</event>
<event>
 7    1  0.6506388E-006  0.2895080E+03  0.7561462E-02  0.1090606E+00
          2   -1    0    0  501    0  0.00000000000E+00  0.00000000000E+00  0.19851248760E+04  0.19851248760E+04  0.00000000000E+00 0. -1.
         -2   -1    0    0    0  501 -0.00000000000E+00 -0.00000000000E+00 -0.44028112910E+02  0.44028112910E+02  0.00000000000E+00 0.  1.
         23    2    1    2    0    0 -0.13511042099E+03 -0.23817414129E+03  0.90336760754E+03  0.95220944163E+03  0.12509212180E+03 0.  0.
          5    1    3    3  502    0 -0.15748878862E+03 -0.21876347526E+03  0.83856624359E+03  0.88083539548E+03  0.41800000000E+01 0. -1.
         -5    1    3    3    0  502  0.22378367628E+02 -0.19410666029E+02  0.64801363953E+02  0.71374046148E+02  0.41800000000E+01 0. -1.
        -11    1    1    2    0    0  0.24495376239E+02  0.97640515453E+02  0.50681464796E+03  0.51671537727E+03  0.00000000000E+00 0.  1.
         11    1    1    2    0    0  0.11061504475E+03  0.14053362583E+03  0.53091450764E+03  0.56022817006E+03  0.00000000000E+00 0. -1.
</event>
<event>
 7    1  0.6506388E-006  0.1044309E+03  0.7561462E-02  0.1271245E+00
         -1   -1    0    0    0  501 -0.00000000000E+00  0.00000000000E+00  0.43793346602E+03  0.43793346602E+03  0.00000000000E+00 0.  1.
          1   -1    0    0  501    0  0.00000000000E+00 -0.00000000000E+00 -0.73888792628E+02  0.73888792628E+02  0.00000000000E+00 0. -1.
         23    2    1    2    0    0  0.17179219845E+02 -0.63690112227E+02  0.37401464096E+03  0.39985751827E+03  0.12509007663E+03 0.  0.
          5    1    3    3  502    0 -0.28481087768E+02 -0.28295096516E+02  0.31350438794E+03  0.31609216774E+03  0.41800000000E+01 0.  1.
         -5    1    3    3    0  502  0.45660307614E+02 -0.35395015711E+02  0.60510253021E+02  0.83765350529E+02  0.41800000000E+01 0.  1.
        -11    1    1    2    0    0  0.26469929797E+02 -0.71027340953E+01  0.37875290113E+01  0.27666792208E+02  0.00000000000E+00 0.  1.
         11    1    1    2    0    0 -0.43649149642E+02  0.70792846322E+02 -0.13757496578E+02  0.84297948177E+02  0.00000000000E+00 0. -1.
</event>
<event>
 7    1  0.6506388E-006  0.1434404E+03  0.7561462E-02  0.1208773E+00
          2   -1    0    0  501    0  0.00000000000E+00  0.00000000000E+00  0.13885332323E+03  0.13885332323E+03  0.00000000000E+00 0.  1.
         -2   -1    0    0    0  501 -0.00000000000E+00 -0.00000000000E+00 -0.20612714008E+03  0.20612714008E+03  0.00000000000E+00 0. -1.
         23    2    1    2    0    0  0.19953688161E+02 -0.11334953485E+03 -0.99471326789E+02  0.19694719612E+03  0.12508951388E+03 0.  0.
          5    1    3    3  502    0 -0.37324352016E+02 -0.66703339581E+02 -0.46710811425E+01  0.76692464843E+02  0.41800000000E+01 0.  1.
         -5    1    3    3    0  502  0.57278040177E+02 -0.46646195272E+02 -0.94800245647E+02  0.12025473128E+03  0.41800000000E+01 0.  1.
        -11    1    1    2    0    0  0.25464097510E+02  0.19469792874E+02  0.29723870040E+02  0.43715003679E+02  0.00000000000E+00 0.  1.
         11    1    1    2    0    0 -0.45417785671E+02  0.93879741979E+02  0.24736398990E+01  0.10431826352E+03  0.00000000000E+00 0. -1.
</event>
<event>
 7    1  0.6506388E-006  0.1481009E+03  0.7561462E-02  0.1202826E+00
         -1   -1    0    0    0  501 -0.00000000000E+00  0.00000000000E+00  0.38947212692E+03  0.38947212692E+03  0.00000000000E+00 0.  1.
          1   -1    0    0  501    0  0.00000000000E+00 -0.00000000000E+00 -0.72901087652E+02  0.72901087652E+02  0.00000000000E+00 0. -1.
         23    2    1    2    0    0 -0.12878409300E+03 -0.11681561228E+02  0.17822974619E+03  0.25325219542E+03  0.12509608537E+03 0.  0.
          5    1    3    3  502    0 -0.60784120509E+02  0.24266010236E+02  0.16166488029E+03  0.17446075341E+03  0.41800000000E+01 0.  1.
         -5    1    3    3    0  502 -0.67999972486E+02 -0.35947571464E+02  0.16564865898E+02  0.78791442013E+02  0.41800000000E+01 0.  1.
        -11    1    1    2    0    0  0.29567880130E+02  0.40617273334E+02  0.26353629471E+02  0.56732144458E+02  0.00000000000E+00 0. -1.
         11    1    1    2    0    0  0.99216212866E+02 -0.28935712106E+02  0.11198766360E+03  0.15238887469E+03  0.00000000000E+00 0.  1.
</event>
<event>
 7    1  0.6506388E-006  0.1450557E+03  0.7561462E-02  0.1206684E+00
         -2   -1    0    0    0  501 -0.00000000000E+00  0.00000000000E+00  0.87936172706E+02  0.87936172706E+02  0.00000000000E+00 0.  1.
          2   -1    0    0  501    0  0.00000000000E+00 -0.00000000000E+00 -0.33952583267E+03  0.33952583267E+03  0.00000000000E+00 0. -1.
         23    2    1    2    0    0  0.11698091040E+03  0.44279519873E+02 -0.72909024674E+02  0.19133362184E+03  0.12509044603E+03 0.  0.
          5    1    3    3  502    0  0.78953003183E+02 -0.39328882103E+01  0.18349536211E+02  0.81260212899E+02  0.41800000000E+01 0.  1.
         -5    1    3    3    0  502  0.38027907217E+02  0.48212408084E+02 -0.91258560885E+02  0.11007340894E+03  0.41800000000E+01 0.  1.
        -11    1    1    2    0    0 -0.12446318472E+03 -0.22638829841E+02 -0.16939475083E+03  0.21141944702E+03  0.00000000000E+00 0. -1.
         11    1    1    2    0    0  0.74822743184E+01 -0.21640690033E+02 -0.92858844621E+01  0.24708936527E+02  0.00000000000E+00 0.  1.
</event>
<event>
 7    1  0.6506388E-006  0.2741697E+03  0.7561462E-02  0.1098917E+00
          2   -1    0    0  501    0  0.00000000000E+00  0.00000000000E+00  0.52182826181E+03  0.52182826181E+03  0.00000000000E+00 0. -1.
         -2   -1    0    0    0  501 -0.00000000000E+00 -0.00000000000E+00 -0.15608088248E+03  0.15608088248E+03  0.00000000000E+00 0.  1.
         23    2    1    2    0    0  0.21170994251E+03  0.15691384868E+03  0.19139517826E+03  0.34888778360E+03  0.12509003006E+03 0.  0.
          5    1    3    3  502    0  0.17139909848E+02 -0.15567256764E+02  0.44198334888E+02  0.50070761923E+02  0.41800000000E+01 0.  1.
         -5    1    3    3    0  502  0.19457003266E+03  0.17248110544E+03  0.14719684337E+03  0.29881702167E+03  0.41800000000E+01 0.  1.
        -11    1    1    2    0    0 -0.14917162159E+03 -0.95563212536E+02  0.16290295632E+03  0.24066963551E+03  0.00000000000E+00 0. -1.
         11    1    1    2    0    0 -0.62538320918E+02 -0.61350636142E+02  0.11449244746E+02  0.88351725187E+02  0.00000000000E+00 0.  1.
</event>
<event>
 7    1  0.6506388E-006  0.1201874E+03  0.7561462E-02  0.1242788E+00
          2   -1    0    0  501    0  0.00000000000E+00  0.00000000000E+00  0.20430083452E+03  0.20430083452E+03  0.00000000000E+00 0. -1.
         -2   -1    0    0    0  501 -0.00000000000E+00 -0.00000000000E+00 -0.13441934862E+03  0.13441934862E+03  0.00000000000E+00 0.  1.
         23    2    1    2    0    0 -0.36357473746E+02 -0.56871878062E+02 -0.69102540343E+02  0.15804431380E+03  0.12508624077E+03 0.  0.
          5    1    3    3  502    0 -0.61388604584E+02 -0.72558621921E+02 -0.15069461120E+02  0.96321728837E+02  0.41800000000E+01 0. -1.
         -5    1    3    3    0  502  0.25031130838E+02  0.15686743859E+02 -0.54033079224E+02  0.61722584962E+02  0.41800000000E+01 0. -1.
        -11    1    1    2    0    0  0.23400511183E+02 -0.23989129843E+02  0.42507804455E+02  0.54129250076E+02  0.00000000000E+00 0. -1.
         11    1    1    2    0    0  0.12956962563E+02  0.80861007905E+02  0.96476221791E+02  0.12654661927E+03  0.00000000000E+00 0.  1.
</event>
<event>
 7    1  0.6506388E-006  0.1622632E+03  0.7561462E-02  0.1186165E+00
         -1   -1    0    0    0  501 -0.00000000000E+00  0.00000000000E+00  0.11725442981E+03  0.11725442981E+03  0.00000000000E+00 0.  1.
          1   -1    0    0  501    0  0.00000000000E+00 -0.00000000000E+00 -0.28425581336E+03  0.28425581336E+03  0.00000000000E+00 0. -1.
         23    2    1    2    0    0  0.13925908125E+03 -0.12036419735E+02 -0.36581981083E+02  0.19110960498E+03  0.12508666061E+03 0.  0.
          5    1    3    3  502    0  0.45557847979E+02  0.32345493382E+02  0.34070988048E+02  0.65574789982E+02  0.41800000000E+01 0. -1.
         -5    1    3    3    0  502  0.93701233276E+02 -0.44381913117E+02 -0.70652969131E+02  0.12553481500E+03  0.41800000000E+01 0. -1.
        -11    1    1    2    0    0 -0.82957658035E+02 -0.36277754709E+02 -0.64641598401E+02  0.11125010003E+03  0.00000000000E+00 0.  1.
         11    1    1    2    0    0 -0.56301423220E+02  0.48314174444E+02 -0.65777804064E+02  0.99150538154E+02  0.00000000000E+00 0. -1.
</event>
<event>
 7    1  0.6506388E-006  0.1063613E+03  0.7561462E-02  0.1267461E+00
         -1   -1    0    0    0  501 -0.00000000000E+00  0.00000000000E+00  0.55675002064E+03  0.55675002064E+03  0.00000000000E+00 0.  1.
          1   -1    0    0  501    0  0.00000000000E+00 -0.00000000000E+00 -0.24297128705E+02  0.24297128705E+02  0.00000000000E+00 0. -1.
         23    2    1    2    0    0  0.69346678272E+01 -0.21596877078E+02  0.39164246274E+03  0.41175930512E+03  0.12508953599E+03 0.  0.
          5    1    3    3  502    0 -0.50397282404E+02  0.12333485206E+02  0.24745315659E+03  0.25286861814E+03  0.41800000000E+01 0.  1.
         -5    1    3    3    0  502  0.57331950232E+02 -0.33930362283E+02  0.14418930615E+03  0.15889068699E+03  0.41800000000E+01 0.  1.
        -11    1    1    2    0    0  0.32890426027E+02 -0.18223093365E+02  0.53594545267E+02  0.65469355720E+02  0.00000000000E+00 0.  1.
         11    1    1    2    0    0 -0.39825093854E+02  0.39819970443E+02  0.87215883926E+02  0.10381848851E+03  0.00000000000E+00 0. -1.
</event>
<event>
 7    1  0.6506388E-006  0.9918277E+02  0.7561462E-02  0.1282024E+00
          1   -1    0    0  501    0  0.00000000000E+00  0.00000000000E+00  0.29697900745E+02  0.29697900745E+02  0.00000000000E+00 0. -1.
         -1   -1    0    0    0  501 -0.00000000000E+00 -0.00000000000E+00 -0.63893993042E+03  0.63893993042E+03  0.00000000000E+00 0.  1.
         23    2    1    2    0    0 -0.69967829678E+01 -0.76014805863E+02 -0.43262582879E+03  0.45677119467E+03  0.12509041077E+03 0.  0.
          5    1    3    3  502    0 -0.12348859380E+02 -0.10903946277E+02 -0.35422671196E+03  0.35463421470E+03  0.41800000000E+01 0.  1.
         -5    1    3    3    0  502  0.53520764127E+01 -0.65110859586E+02 -0.78399116831E+02  0.10213697997E+03  0.41800000000E+01 0.  1.
        -11    1    1    2    0    0 -0.10282458594E+02  0.91876396484E+02 -0.12808441138E+03  0.15796397572E+03  0.00000000000E+00 0.  1.
         11    1    1    2    0    0  0.17279241562E+02 -0.15861590622E+02 -0.48531789501E+02  0.53902660771E+02  0.00000000000E+00 0. -1.
</event>
<event>
 7    1  0.6506388E-006  0.1093057E+03  0.7561462E-02  0.1261861E+00
         -2   -1    0    0    0  501 -0.00000000000E+00  0.00000000000E+00  0.14455515266E+03  0.14455515266E+03  0.00000000000E+00 0.  1.
          2   -1    0    0  501    0  0.00000000000E+00 -0.00000000000E+00 -0.10195681146E+03  0.10195681146E+03  0.00000000000E+00 0. -1.
         23    2    1    2    0    0  0.41627550628E+02 -0.41586816125E+01  0.60877149737E+02  0.14527392899E+03  0.12509332308E+03 0.  0.
          5    1    3    3  502    0 -0.13019720139E+02 -0.53077104156E+02  0.43006264597E+02  0.69668524404E+02  0.41800000000E+01 0.  1.
         -5    1    3    3    0  502  0.54647270766E+02  0.48918422543E+02  0.17870885139E+02  0.75605404582E+02  0.41800000000E+01 0.  1.
        -11    1    1    2    0    0 -0.22996806317E+02 -0.37903645933E+02 -0.30287966277E+02  0.53692647328E+02  0.00000000000E+00 0. -1.
         11    1    1    2    0    0 -0.18630744310E+02  0.42062327546E+02  0.12009157743E+02  0.47545387808E+02  0.00000000000E+00 0.  1.
</event>
<event>
 7    1  0.6506388E-006  0.7674888E+02  0.7561462E-02  0.1338539E+00
          1   -1    0    0  501    0  0.00000000000E+00  0.00000000000E+00  0.11525170587E+03  0.11525170587E+03  0.00000000000E+00 0. -1.
         -1   -1    0    0    0  501 -0.00000000000E+00 -0.00000000000E+00 -0.12907950251E+03  0.12907950251E+03  0.00000000000E+00 0.  1.
         23    2    1    2    0    0 -0.28945657736E+02 -0.44193017841E+02 -0.30584258791E+02  0.13919195993E+03  0.12509248937E+03 0.  0.
          5    1    3    3  502    0  0.14726462769E+02 -0.22358915685E+02 -0.70793585958E+02  0.75802335248E+02  0.41800000000E+01 0. -1.
         -5    1    3    3    0  502 -0.43672120505E+02 -0.21834102157E+02  0.40209327167E+02  0.63389624684E+02  0.41800000000E+01 0. -1.
        -11    1    1    2    0    0  0.33152684709E+02  0.15066824677E+00 -0.27117403351E+02  0.42830792297E+02  0.00000000000E+00 0.  1.
         11    1    1    2    0    0 -0.42070269732E+01  0.44042349595E+02  0.43873865504E+02  0.62308456152E+02  0.00000000000E+00 0. -1.
</event>
<event>
 7    1  0.6506388E-006  0.7069498E+02  0.7561462E-02  0.1357746E+00
          2   -1    0    0  501    0  0.00000000000E+00  0.00000000000E+00  0.45882959760E+03  0.45882959760E+03  0.00000000000E+00 0.  1.
         -2   -1    0    0    0  501 -0.00000000000E+00 -0.00000000000E+00 -0.25017858672E+02  0.25017858672E+02  0.00000000000E+00 0. -1.
         23    2    1    2    0    0  0.37726796158E+01  0.48111527370E+01  0.22907477610E+03  0.26107090929E+03  0.12508151875E+03 0.  0.
          5    1    3    3  502    0 -0.20833705971E+02 -0.12541892839E+02 -0.48777883055E+01  0.25151691777E+02  0.41800000000E+01 0. -1.
         -5    1    3    3    0  502  0.24606385587E+02  0.17353045576E+02  0.23395256440E+03  0.23591921751E+03  0.41800000000E+01 0. -1.
        -11    1    1    2    0    0 -0.14927312021E+02  0.38657867305E+02  0.77934181933E+02  0.88266596526E+02  0.00000000000E+00 0.  1.
         11    1    1    2    0    0  0.11154632405E+02 -0.43469020042E+02  0.12680278090E+03  0.13450995045E+03  0.00000000000E+00 0. -1.
</event>
<event>
 7    1  0.6506388E-006  0.7000752E+02  0.7561462E-02  0.1360067E+00
         -2   -1    0    0    0  501 -0.00000000000E+00  0.00000000000E+00  0.57758302273E+02  0.57758302273E+02  0.00000000000E+00 0.  1.
          2   -1    0    0  501    0  0.00000000000E+00 -0.00000000000E+00 -0.28223589669E+03  0.28223589669E+03  0.00000000000E+00 0. -1.
         23    2    1    2    0    0 -0.30600168377E+02 -0.76571370651E+01 -0.45362267155E+02  0.13674815328E+03  0.12508924850E+03 0.  0.
          5    1    3    3  502    0 -0.38794597558E+02  0.18975182962E+02  0.32327033734E+02  0.54107188785E+02  0.41800000000E+01 0. -1.
         -5    1    3    3    0  502  0.81944291813E+01 -0.26632320028E+02 -0.77689300889E+02  0.82640964493E+02  0.41800000000E+01 0. -1.
        -11    1    1    2    0    0  0.36939021847E+02 -0.18657191515E+02 -0.28571466805E+02  0.50288277418E+02  0.00000000000E+00 0.  1.
         11    1    1    2    0    0 -0.63388534702E+01  0.26314328580E+02 -0.15054386046E+03  0.15295776827E+03  0.00000000000E+00 0. -1.
</event>
<event>
 7    1  0.6506388E-006  0.1161839E+03  0.7561462E-02  0.1249529E+00
          2   -1    0    0  501    0  0.00000000000E+00  0.00000000000E+00  0.27016112967E+03  0.27016112967E+03  0.00000000000E+00 0. -1.
         -2   -1    0    0    0  501 -0.00000000000E+00 -0.00000000000E+00 -0.16894139764E+03  0.16894139764E+03  0.00000000000E+00 0.  1.
         23    2    1    2    0    0 -0.58877159801E+02 -0.71151805003E+02 -0.11226781059E+03  0.19178078853E+03  0.12508681086E+03 0.  0.
          5    1    3    3  502    0  0.72811990554E+01 -0.72909458707E+02 -0.16381218909E+02  0.75197219108E+02  0.41800000000E+01 0.  1.
         -5    1    3    3    0  502 -0.66158358856E+02  0.17576537036E+01 -0.95886591686E+02  0.11658356942E+03  0.41800000000E+01 0.  1.
        -11    1    1    2    0    0  0.29389988692E+02  0.29609133397E+02  0.18230479799E+02  0.45528261657E+02  0.00000000000E+00 0.  1.
         11    1    1    2    0    0  0.29487171109E+02  0.41542671606E+02  0.19525706283E+03  0.20179347712E+03  0.00000000000E+00 0. -1.
</event>
<event>
 7    1  0.6506388E-006  0.3282891E+03  0.7561462E-02  0.1071896E+00
         -1   -1    0    0    0  501 -0.00000000000E+00  0.00000000000E+00  0.82731203562E+02  0.82731203562E+02  0.00000000000E+00 0.  1.
          1   -1    0    0  501    0  0.00000000000E+00 -0.00000000000E+00 -0.14895443173E+04  0.14895443173E+04  0.00000000000E+00 0. -1.
         23    2    1    2    0    0 -0.16217160858E+03  0.27396229385E+03 -0.48991147154E+03  0.59750715523E+03  0.12508629629E+03 0.  0.
          5    1    3    3  502    0 -0.87300846588E+02  0.22846988490E+03 -0.29125894060E+03  0.38035400484E+03  0.41800000000E+01 0. -1.
         -5    1    3    3    0  502 -0.74870761989E+02  0.45492408955E+02 -0.19865253094E+03  0.21715315038E+03  0.41800000000E+01 0. -1.
        -11    1    1    2    0    0  0.11100472805E+03 -0.23514271821E+03 -0.64626349593E+03  0.69661370482E+03  0.00000000000E+00 0.  1.
         11    1    1    2    0    0  0.51166880528E+02 -0.38819575643E+02 -0.27063814630E+03  0.27815466084E+03  0.00000000000E+00 0. -1.
</event>
<event>
 7    1  0.6506388E-006  0.1018126E+03  0.7561462E-02  0.1276530E+00
          2   -1    0    0  501    0  0.00000000000E+00  0.00000000000E+00  0.31190899004E+03  0.31190899004E+03  0.00000000000E+00 0. -1.
         -2   -1    0    0    0  501 -0.00000000000E+00 -0.00000000000E+00 -0.45473701928E+02  0.45473701928E+02  0.00000000000E+00 0.  1.
         23    2    1    2    0    0  0.40106782003E+02 -0.93527483453E+01  0.13106597748E+03  0.18581084582E+03  0.12510536403E+03 0.  0.
          5    1    3    3  502    0  0.45041962479E+02  0.32744461900E+02  0.90457371253E+01  0.56570981335E+02  0.41800000000E+01 0. -1.
         -5    1    3    3    0  502 -0.49351804762E+01 -0.42097210245E+02  0.12202024035E+03  0.12923986449E+03  0.41800000000E+01 0. -1.
        -11    1    1    2    0    0  0.39790967828E+01 -0.39319854088E+02  0.45530362265E+02  0.60290115481E+02  0.00000000000E+00 0.  1.
         11    1    1    2    0    0 -0.44085878786E+02  0.48672602433E+02  0.89838948371E+02  0.11128173067E+03  0.00000000000E+00 0. -1.
</event>
<event>
 7    1  0.6506388E-006  0.1138076E+03  0.7561462E-02  0.1253677E+00
          1   -1    0    0  501    0  0.00000000000E+00  0.00000000000E+00  0.39734341854E+03  0.39734341854E+03  0.00000000000E+00 0. -1.
         -1   -1    0    0    0  501 -0.00000000000E+00 -0.00000000000E+00 -0.34170295988E+02  0.34170295988E+02  0.00000000000E+00 0.  1.
         23    2    1    2    0    0  0.20327036482E+02 -0.24683457072E+02  0.19318599193E+03  0.23236180938E+03  0.12509485008E+03 0.  0.
          5    1    3    3  502    0  0.57736931694E+02 -0.51704738397E+02  0.15061411282E+03  0.16943735312E+03  0.41800000000E+01 0.  1.
         -5    1    3    3    0  502 -0.37409895212E+02  0.27021281325E+02  0.42571879118E+02  0.62924456262E+02  0.41800000000E+01 0.  1.
        -11    1    1    2    0    0 -0.32546619327E+02 -0.32019335619E+02  0.79175005020E+02  0.91395851673E+02  0.00000000000E+00 0. -1.
         11    1    1    2    0    0  0.12219582845E+02  0.56702792690E+02  0.90812125602E+02  0.10775605347E+03  0.00000000000E+00 0.  1.
</event>
<event>
 7    1  0.6506388E-006  0.7917031E+02  0.7561462E-02  0.1331423E+00
         -2   -1    0    0    0  501 -0.00000000000E+00  0.00000000000E+00  0.16162237197E+03  0.16162237197E+03  0.00000000000E+00 0.  1.
          2   -1    0    0  501    0  0.00000000000E+00 -0.00000000000E+00 -0.92850743036E+02  0.92850743036E+02  0.00000000000E+00 0. -1.
         23    2    1    2    0    0 -0.35343392895E+02  0.28518737650E+02  0.74343296707E+02  0.15243552562E+03  0.12508872806E+03 0.  0.
          5    1    3    3  502    0  0.20089475458E+01  0.45812780140E+02 -0.19401065417E+02  0.49967193575E+02  0.41800000000E+01 0.  1.
         -5    1    3    3    0  502 -0.37352340441E+02 -0.17294042491E+02  0.93744362123E+02  0.10246833204E+03  0.41800000000E+01 0.  1.
        -11    1    1    2    0    0  0.42855410649E+02 -0.15052613135E+01 -0.39307207629E+02  0.58171372728E+02  0.00000000000E+00 0. -1.
         11    1    1    2    0    0 -0.75120177539E+01 -0.27013476336E+02  0.33735539852E+02  0.43866216654E+02  0.00000000000E+00 0.  1.
</event>
<event>
 7    1  0.6506388E-006  0.9734872E+02  0.7561462E-02  0.1285972E+00
          1   -1    0    0  501    0  0.00000000000E+00  0.00000000000E+00  0.32726062940E+02  0.32726062940E+02  0.00000000000E+00 0. -1.
         -1   -1    0    0    0  501 -0.00000000000E+00 -0.00000000000E+00 -0.49412726695E+03  0.49412726695E+03  0.00000000000E+00 0.  1.
         23    2    1    2    0    0  0.46994177585E+02  0.34404003655E+02 -0.31225910136E+03  0.34139254038E+03  0.12510408488E+03 0.  0.
          5    1    3    3  502    0  0.47643817639E+02 -0.22835139855E+02 -0.25452191967E+03  0.25998126272E+03  0.41800000000E+01 0. -1.
         -5    1    3    3    0  502 -0.64964005348E+00  0.57239143510E+02 -0.57737181688E+02  0.81411277666E+02  0.41800000000E+01 0. -1.
        -11    1    1    2    0    0  0.13965852949E+02 -0.14608038593E+02 -0.10668018843E+03  0.10857763326E+03  0.00000000000E+00 0.  1.
         11    1    1    2    0    0 -0.60960030534E+02 -0.19795965062E+02 -0.42461914222E+02  0.76883156249E+02  0.00000000000E+00 0. -1.
</event>
<event>
 7    1  0.6506388E-006  0.2058182E+03  0.7561462E-02  0.1144921E+00
         -2   -1    0    0    0  501 -0.00000000000E+00  0.00000000000E+00  0.10752307476E+03  0.10752307476E+03  0.00000000000E+00 0.  1.
          2   -1    0    0  501    0  0.00000000000E+00 -0.00000000000E+00 -0.45485650923E+03  0.45485650923E+03  0.00000000000E+00 0. -1.
         23    2    1    2    0    0  0.17482416072E+03 -0.72860443425E+02 -0.13799249471E+03  0.26563348925E+03  0.12508833130E+03 0.  0.
          5    1    3    3  502    0 -0.36291287590E+01  0.20179959986E+02 -0.31740320120E+02  0.38017386574E+02  0.41800000000E+01 0.  1.
         -5    1    3    3    0  502  0.17845328948E+03 -0.93040403411E+02 -0.10625217459E+03  0.22761610268E+03  0.41800000000E+01 0.  1.
        -11    1    1    2    0    0 -0.63996439470E+02  0.27992419378E+02 -0.14504792102E+03  0.16099074259E+03  0.00000000000E+00 0. -1.
         11    1    1    2    0    0 -0.11082772125E+03  0.44868024047E+02 -0.64293018732E+02  0.13575535215E+03  0.00000000000E+00 0.  1.
</event>
<event>
 7    1  0.6506388E-006  0.1290171E+03  0.7561462E-02  0.1228922E+00
         -3   -1    0    0    0  501 -0.00000000000E+00  0.00000000000E+00  0.25323137661E+03  0.25323137661E+03  0.00000000000E+00 0.  1.
          3   -1    0    0  501    0  0.00000000000E+00 -0.00000000000E+00 -0.72873300300E+02  0.72873300300E+02  0.00000000000E+00 0. -1.
         23    2    1    2    0    0 -0.35639676581E+02  0.73131441080E+02  0.95528627857E+02  0.17717585700E+03  0.12508865393E+03 0.  0.
          5    1    3    3  502    0 -0.58991414177E+02 -0.99382406213E+01  0.22488024422E+02  0.64046383314E+02  0.41800000000E+01 0.  1.
         -5    1    3    3    0  502  0.23351737596E+02  0.83069681702E+02  0.73040603435E+02  0.11312947369E+03  0.41800000000E+01 0.  1.
        -11    1    1    2    0    0  0.58029203866E+02 -0.35919473795E+02  0.20401385478E+02  0.71230707061E+02  0.00000000000E+00 0. -1.
         11    1    1    2    0    0 -0.22389527285E+02 -0.37211967286E+02  0.64428062974E+02  0.77698112847E+02  0.00000000000E+00 0.  1.
</event>
<event>
 7    1  0.6506388E-006  0.1140539E+03  0.7561462E-02  0.1253242E+00
         -2   -1    0    0    0  501 -0.00000000000E+00  0.00000000000E+00  0.15237569688E+03  0.15237569688E+03  0.00000000000E+00 0.  1.
          2   -1    0    0  501    0  0.00000000000E+00 -0.00000000000E+00 -0.11291795093E+03  0.11291795093E+03  0.00000000000E+00 0. -1.
         23    2    1    2    0    0 -0.40971843253E+02  0.10175249789E+02  0.66893368251E+02  0.14793877982E+03  0.12501572786E+03 0.  0.
          5    1    3    3  502    0  0.43411005178E+01  0.55564067810E+02  0.10114449724E+01  0.55899071604E+02  0.41800000000E+01 0.  1.
         -5    1    3    3    0  502 -0.45312943771E+02 -0.45388818021E+02  0.65881923278E+02  0.92039708221E+02  0.41800000000E+01 0.  1.
        -11    1    1    2    0    0 -0.17775434059E+02  0.31326274662E+02  0.84144800268E+01  0.36987903621E+02  0.00000000000E+00 0.  1.
         11    1    1    2    0    0  0.58747277312E+02 -0.41501524450E+02 -0.35850102333E+02  0.80366964361E+02  0.00000000000E+00 0. -1.
</event>
<event>
 6    1  0.6506388E-006  0.1764784E+03  0.7561462E-02  0.1171255E+00
          1   -1    0    0  501    0  0.00000000000E+00  0.00000000000E+00  0.15235763688E+04  0.15235763688E+04  0.00000000000E+00 0. -1.
         -1   -1    0    0    0  501 -0.00000000000E+00 -0.00000000000E+00 -0.27137488272E+02  0.27137488272E+02  0.00000000000E+00 0.  1.
          5    1    1    2  502    0  0.42312622755E+01  0.60441163385E+02  0.45844585559E+03  0.46245120036E+03  0.41800000000E+01 0. -1.
         -5    1    1    2    0  502  0.18991128550E+02 -0.16030355434E+03  0.32460030801E+03  0.36254754841E+03  0.41800000000E+01 0.  1.
        -11    1    1    2    0    0  0.25220252685E+02  0.72719679566E+01  0.95175774861E+02  0.98728773839E+02  0.00000000000E+00 0.  1.
         11    1    1    2    0    0 -0.48442643510E+02  0.92590422996E+02  0.61821694210E+03  0.62698633449E+03  0.00000000000E+00 0. -1.
</event>
<event>
 7    1  0.6506388E-006  0.1250787E+03  0.7561462E-02  0.1234946E+00
          1   -1    0    0  501    0  0.00000000000E+00  0.00000000000E+00  0.20723905972E+03  0.20723905972E+03  0.00000000000E+00 0. -1.
         -1   -1    0    0    0  501 -0.00000000000E+00 -0.00000000000E+00 -0.90648081463E+02  0.90648081463E+02  0.00000000000E+00 0.  1.
         23    2    1    2    0    0  0.33121130473E+02 -0.63958890293E+02  0.22062461301E+02  0.14602171587E+03  0.12509132814E+03 0.  0.
          5    1    3    3  502    0 -0.78341854612E+01  0.31398232755E+02  0.26540997201E+02  0.42060913143E+02  0.41800000000E+01 0.  1.
         -5    1    3    3    0  502  0.40955315934E+02 -0.95357123048E+02 -0.44785359002E+01  0.10396080272E+03  0.41800000000E+01 0.  1.
        -11    1    1    2    0    0 -0.62737953082E+02  0.52850517462E+02  0.86539653184E+02  0.11924067899E+03  0.00000000000E+00 0. -1.
         11    1    1    2    0    0  0.29616822609E+02  0.11108372831E+02  0.79888637716E+01  0.32624746325E+02  0.00000000000E+00 0.  1.
</event>
<event>
 7    1  0.6506388E-006  0.1126885E+03  0.7561462E-02  0.1255671E+00
          1   -1    0    0  501    0  0.00000000000E+00  0.00000000000E+00  0.26442895979E+03  0.26442895979E+03  0.00000000000E+00 0. -1.
         -1   -1    0    0    0  501 -0.00000000000E+00 -0.00000000000E+00 -0.77322885046E+02  0.77322885046E+02  0.00000000000E+00 0.  1.
         23    2    1    2    0    0 -0.38382136635E+02 -0.18164181541E+01  0.48641154184E+00  0.13086316055E+03  0.12509373448E+03 0.  0.
          5    1    3    3  502    0  0.45680513397E+02 -0.21088274489E+01 -0.66293858325E+01  0.46395879277E+02  0.41800000000E+01 0. -1.
         -5    1    3    3    0  502 -0.84062650031E+02  0.29240929472E+00  0.71157973744E+01  0.84467281274E+02  0.41800000000E+01 0. -1.
        -11    1    1    2    0    0  0.17790619375E+02  0.44486227129E+02  0.68240320700E+02  0.83380284907E+02  0.00000000000E+00 0.  1.
         11    1    1    2    0    0  0.20591517260E+02 -0.42669808975E+02  0.11837934251E+03  0.12750839938E+03  0.00000000000E+00 0. -1.
</event>
<event>
 7    1  0.6506388E-006  0.2500199E+03  0.7561462E-02  0.1113292E+00
          2   -1    0    0  501    0  0.00000000000E+00  0.00000000000E+00  0.12052578375E+04  0.12052578375E+04  0.00000000000E+00 0. -1.
         -2   -1    0    0    0  501 -0.00000000000E+00 -0.00000000000E+00 -0.73707161902E+02  0.73707161902E+02  0.00000000000E+00 0.  1.
         23    2    1    2    0    0 -0.19578292924E+03 -0.12926806241E+03  0.26017400778E+03  0.37199308803E+03  0.12508859214E+03 0.  0.
          5    1    3    3  502    0  0.14189004122E+01 -0.26805180419E+02 -0.32091042460E+01  0.27355104199E+02  0.41800000000E+01 0. -1.
         -5    1    3    3    0  502 -0.19720182965E+03 -0.10246288199E+03  0.26338311202E+03  0.34463798383E+03  0.41800000000E+01 0. -1.
        -11    1    1    2    0    0  0.74337317336E+02  0.10186158576E+03  0.47873069508E+03  0.49506049914E+03  0.00000000000E+00 0. -1.
         11    1    1    2    0    0  0.12144561190E+03  0.27406476650E+02  0.39264597277E+03  0.41191141225E+03  0.00000000000E+00 0.  1.
</event>
<event>
 7    1  0.6506388E-006  0.1466769E+03  0.7561462E-02  0.1204617E+00
          1   -1    0    0  501    0  0.00000000000E+00  0.00000000000E+00  0.37678293847E+03  0.37678293847E+03  0.00000000000E+00 0. -1.
         -1   -1    0    0    0  501 -0.00000000000E+00 -0.00000000000E+00 -0.91808935531E+02  0.91808935531E+02  0.00000000000E+00 0.  1.
         23    2    1    2    0    0 -0.67072058057E+02  0.10647848322E+03  0.45292245945E+02  0.18312105726E+03  0.12508239568E+03 0.  0.
          5    1    3    3  502    0  0.20332891472E+02  0.46669344372E+02  0.56938712423E+02  0.76491460648E+02  0.41800000000E+01 0. -1.
         -5    1    3    3    0  502 -0.87404949529E+02  0.59809138848E+02 -0.11646466479E+02  0.10662959661E+03  0.41800000000E+01 0. -1.
        -11    1    1    2    0    0  0.18569341622E+02 -0.77696664755E+02  0.20310153377E+03  0.21824716535E+03  0.00000000000E+00 0.  1.
         11    1    1    2    0    0  0.48502716435E+02 -0.28781818465E+02  0.36580223226E+02  0.67223651396E+02  0.00000000000E+00 0. -1.
</event>
<event>
 7    1  0.6506388E-006  0.1258840E+03  0.7561462E-02  0.1233694E+00
         -1   -1    0    0    0  501 -0.00000000000E+00  0.00000000000E+00  0.81527307125E+02  0.81527307125E+02  0.00000000000E+00 0.  1.
          1   -1    0    0  501    0  0.00000000000E+00 -0.00000000000E+00 -0.28558058436E+03  0.28558058436E+03  0.00000000000E+00 0. -1.
         23    2    1    2    0    0 -0.69327930608E+02  0.77702427949E+02 -0.48049426193E+02  0.15897395042E+03  0.11009060034E+03 0.  0.
          5    1    3    3  502    0  0.17185534392E+02  0.17273707378E+02 -0.47287585938E+02  0.53360207485E+02  0.41800000000E+01 0. -1.
         -5    1    3    3    0  502 -0.86513465000E+02  0.60428720571E+02 -0.76184025422E+00  0.10561374294E+03  0.41800000000E+01 0.  1.
        -11    1    1    2    0    0  0.70251254410E+01 -0.54501075409E+02 -0.12123693635E+03  0.13310940742E+03  0.00000000000E+00 0. -1.
         11    1    1    2    0    0  0.62302805167E+02 -0.23201352541E+02 -0.34766914691E+02  0.75024533644E+02  0.00000000000E+00 0.  1.
</event>
<event>
 7    1  0.6506388E-006  0.1058597E+03  0.7561462E-02  0.1268435E+00
          2   -1    0    0  501    0  0.00000000000E+00  0.00000000000E+00  0.61046240209E+02  0.61046240209E+02  0.00000000000E+00 0. -1.
         -2   -1    0    0    0  501 -0.00000000000E+00 -0.00000000000E+00 -0.22976558265E+03  0.22976558265E+03  0.00000000000E+00 0.  1.
         23    2    1    2    0    0  0.31745766229E+02 -0.10111056043E+02 -0.13733272892E+03  0.18872869430E+03  0.12509282350E+03 0.  0.
          5    1    3    3  502    0  0.37553474858E+02  0.48919459268E+02 -0.10283690130E+03  0.11998448916E+03  0.41800000000E+01 0. -1.
         -5    1    3    3    0  502 -0.58077086289E+01 -0.59030515311E+02 -0.34495827616E+02  0.68744205140E+02  0.41800000000E+01 0. -1.
        -11    1    1    2    0    0 -0.44743502671E+02 -0.26218268554E+02 -0.36135929256E+02  0.63207468075E+02  0.00000000000E+00 0.  1.
         11    1    1    2    0    0  0.12997736441E+02  0.36329324597E+02  0.47493157333E+01  0.38875660486E+02  0.00000000000E+00 0. -1.
</event>
<event>
 7    1  0.6506388E-006  0.1914133E+03  0.7561462E-02  0.1157193E+00
         -1   -1    0    0    0  501 -0.00000000000E+00  0.00000000000E+00  0.47236378385E+02  0.47236378385E+02  0.00000000000E+00 0.  1.
          1   -1    0    0  501    0  0.00000000000E+00 -0.00000000000E+00 -0.80628700957E+03  0.80628700957E+03  0.00000000000E+00 0. -1.
         23    2    1    2    0    0 -0.35449799730E+02 -0.15423614997E+03 -0.32184777447E+03  0.37984097733E+03  0.12509076655E+03 0.  0.
          5    1    3    3  502    0 -0.61033616188E+02 -0.16319235020E+03 -0.27639494936E+03  0.32675447342E+03  0.41800000000E+01 0. -1.
         -5    1    3    3    0  502  0.25583816457E+02  0.89562002385E+01 -0.45452825110E+02  0.53086503913E+02  0.41800000000E+01 0. -1.
        -11    1    1    2    0    0 -0.28820734978E+02  0.65414252456E+02 -0.19933325692E+03  0.21176261829E+03  0.00000000000E+00 0.  1.
         11    1    1    2    0    0  0.64270534709E+02  0.88821897510E+02 -0.23786959980E+03  0.26191979234E+03  0.00000000000E+00 0. -1.
</event>
<event>
 7    1  0.6506388E-006  0.1112771E+03  0.7561462E-02  0.1258223E+00
          1   -1    0    0  501    0  0.00000000000E+00  0.00000000000E+00  0.57332997334E+02  0.57332997334E+02  0.00000000000E+00 0. -1.
         -1   -1    0    0    0  501 -0.00000000000E+00 -0.00000000000E+00 -0.25300118170E+03  0.25300118170E+03  0.00000000000E+00 0.  1.
         23    2    1    2    0    0 -0.26266222446E+02  0.40049860180E+02 -0.82898148813E+02  0.15751637856E+03  0.12508157617E+03 0.  0.
          5    1    3    3  502    0  0.49069604235E+02  0.10422854213E+02 -0.17265013753E+02  0.53216680182E+02  0.41800000000E+01 0. -1.
         -5    1    3    3    0  502 -0.75335826682E+02  0.29627005968E+02 -0.65633135060E+02  0.10429969838E+03  0.41800000000E+01 0. -1.
        -11    1    1    2    0    0  0.45123860840E+02  0.18986937368E+01 -0.91721237769E+02  0.10223772940E+03  0.00000000000E+00 0.  1.
         11    1    1    2    0    0 -0.18857638393E+02 -0.41948553917E+02 -0.21048797784E+02  0.50580071072E+02  0.00000000000E+00 0. -1.
</event>
<event>
 7    1  0.6506388E-006  0.9619341E+02  0.7561462E-02  0.1288511E+00
         -2   -1    0    0    0  501 -0.00000000000E+00  0.00000000000E+00  0.97767361984E+02  0.97767361984E+02  0.00000000000E+00 0.  1.
          2   -1    0    0  501    0  0.00000000000E+00 -0.00000000000E+00 -0.13292643829E+03  0.13292643829E+03  0.00000000000E+00 0. -1.
         23    2    1    2    0    0 -0.55162126746E+01 -0.18546245686E+02  0.13579904546E+02  0.12730392513E+03  0.12508990253E+03 0.  0.
          5    1    3    3  502    0  0.20909154851E+02  0.46315211639E+02  0.24031281519E+02  0.56367246492E+02  0.41800000000E+01 0.  1.
         -5    1    3    3    0  502 -0.26425367525E+02 -0.64861457325E+02 -0.10451376972E+02  0.70936678635E+02  0.41800000000E+01 0.  1.
        -11    1    1    2    0    0 -0.11604185982E+02  0.41221566944E+02 -0.59241071431E+02  0.73098421720E+02  0.00000000000E+00 0. -1.
         11    1    1    2    0    0  0.17120398657E+02 -0.22675321258E+02  0.10502090578E+02  0.30291453429E+02  0.00000000000E+00 0.  1.
</event>
<event>
 7    1  0.6506388E-006  0.8702332E+02  0.7561462E-02  0.1310225E+00
          2   -1    0    0  501    0  0.00000000000E+00  0.00000000000E+00  0.32233250657E+03  0.32233250657E+03  0.00000000000E+00 0. -1.
         -2   -1    0    0    0  501 -0.00000000000E+00 -0.00000000000E+00 -0.84951947710E+02  0.84951947710E+02  0.00000000000E+00 0.  1.
         23    2    1    2    0    0  0.49128084626E+02  0.21070214975E+02 -0.12347920557E+02  0.13657948476E+03  0.12507582444E+03 0.  0.
          5    1    3    3  502    0 -0.12948123954E+01  0.32801796011E+02 -0.58426589209E+02  0.67147398217E+02  0.41800000000E+01 0. -1.
         -5    1    3    3    0  502  0.50422897021E+02 -0.11731581036E+02  0.46078668652E+02  0.69432086548E+02  0.41800000000E+01 0. -1.
        -11    1    1    2    0    0  0.98403355665E+01 -0.27965149891E+02  0.16254372334E+03  0.16522513069E+03  0.00000000000E+00 0.  1.
         11    1    1    2    0    0 -0.58968420192E+02  0.68949349164E+01  0.87184756081E+02  0.10547983883E+03  0.00000000000E+00 0. -1.
</event>
<event>
 6    1  0.6506388E-006  0.1584478E+03  0.7561462E-02  0.1190460E+00
          1   -1    0    0  501    0  0.00000000000E+00  0.00000000000E+00  0.40434306773E+02  0.40434306773E+02  0.00000000000E+00 0. -1.
         -1   -1    0    0    0  501 -0.00000000000E+00 -0.00000000000E+00 -0.10084366789E+04  0.10084366789E+04  0.00000000000E+00 0.  1.
          5    1    1    2  502    0 -0.13144201634E+02  0.10882663529E+03 -0.42038818357E+03  0.43446484768E+03  0.41800000000E+01 0. -1.
         -5    1    1    2    0  502  0.75492978140E+02 -0.42115929003E+02 -0.43553360631E+03  0.44404947455E+03  0.41800000000E+01 0.  1.
        -11    1    1    2    0    0  0.11161729671E+02 -0.41442387159E+02 -0.69612780245E+02  0.81780161629E+02  0.00000000000E+00 0.  1.
         11    1    1    2    0    0 -0.73510506177E+02 -0.25268319129E+02 -0.42467802043E+02  0.88576501852E+02  0.00000000000E+00 0. -1.
</event>
<event>
 7    1  0.6506388E-006  0.1069760E+03  0.7561462E-02  0.1266274E+00
          1   -1    0    0  501    0  0.00000000000E+00  0.00000000000E+00  0.24069047590E+02  0.24069047590E+02  0.00000000000E+00 0. -1.
         -1   -1    0    0    0  501 -0.00000000000E+00 -0.00000000000E+00 -0.72881297185E+03  0.72881297185E+03  0.00000000000E+00 0.  1.
         23    2    1    2    0    0 -0.64908914552E+02 -0.29277532124E+02 -0.35625809858E+03  0.38423693074E+03  0.12509134687E+03 0.  0.
          5    1    3    3  502    0 -0.27725193263E+02 -0.47600137757E+02 -0.48024439135E+02  0.73200263730E+02  0.41800000000E+01 0. -1.
         -5    1    3    3    0  502 -0.37183721289E+02  0.18322605633E+02 -0.30823365945E+03  0.31103666701E+03  0.41800000000E+01 0. -1.
        -11    1    1    2    0    0  0.13265780436E+02  0.56936205116E+02 -0.21625973733E+03  0.22402228991E+03  0.00000000000E+00 0.  1.
         11    1    1    2    0    0  0.51643134117E+02 -0.27658672992E+02 -0.13222608834E+03  0.14462279879E+03  0.00000000000E+00 0. -1.
</event>
<event>
 7    1  0.6506388E-006  0.1257211E+03  0.7561462E-02  0.1233947E+00
         -4   -1    0    0    0  501 -0.00000000000E+00  0.00000000000E+00  0.15552889010E+03  0.15552889010E+03  0.00000000000E+00 0.  1.
          4   -1    0    0  501    0  0.00000000000E+00 -0.00000000000E+00 -0.17027290497E+03  0.17027290497E+03  0.00000000000E+00 0. -1.
         23    2    1    2    0    0 -0.62266267932E+02 -0.70367610952E+02  0.68680773461E+02  0.17086326247E+03  0.12509403273E+03 0.  0.
          5    1    3    3  502    0  0.12433229000E+01  0.33956260267E+02  0.14219958386E+02  0.37070919595E+02  0.41800000000E+01 0. -1.
         -5    1    3    3    0  502 -0.63509590832E+02 -0.10432387122E+03  0.54460815075E+02  0.13379234288E+03  0.41800000000E+01 0. -1.
        -11    1    1    2    0    0  0.13532291954E+02  0.75516064332E+01  0.19484422348E+02  0.24895630128E+02  0.00000000000E+00 0.  1.
         11    1    1    2    0    0  0.48733975978E+02  0.62816004518E+02 -0.10290921068E+03  0.13004290247E+03  0.00000000000E+00 0. -1.
</event>
<event>
 7    1  0.6506388E-006  0.9416160E+02  0.7561462E-02  0.1293076E+00
          1   -1    0    0  501    0  0.00000000000E+00  0.00000000000E+00  0.12897313681E+03  0.12897313681E+03  0.00000000000E+00 0. -1.
         -1   -1    0    0    0  501 -0.00000000000E+00 -0.00000000000E+00 -0.12537691968E+03  0.12537691968E+03  0.00000000000E+00 0.  1.
         23    2    1    2    0    0 -0.34637213979E+02  0.40353593819E+02 -0.37860734974E+02  0.14110183965E+03  0.12509254484E+03 0.  0.
          5    1    3    3  502    0 -0.75258828750E+02  0.25502111094E+02 -0.52406032896E+02  0.95279135486E+02  0.41800000000E+01 0.  1.
         -5    1    3    3    0  502  0.40621614770E+02  0.14851482724E+02  0.14545297922E+02  0.45822704168E+02  0.41800000000E+01 0.  1.
        -11    1    1    2    0    0 -0.65431990678E+01 -0.16401733696E+02 -0.25534003981E+02  0.31045381002E+02  0.00000000000E+00 0.  1.
         11    1    1    2    0    0  0.41180413047E+02 -0.23951860123E+02  0.66990956079E+02  0.82202835830E+02  0.00000000000E+00 0. -1.
</event>
<event>
 7    1  0.6506388E-006  0.9859563E+02  0.7561462E-02  0.1283277E+00
         -1   -1    0    0    0  501 -0.00000000000E+00  0.00000000000E+00  0.40277712998E+02  0.40277712998E+02  0.00000000000E+00 0.  1.
          1   -1    0    0  501    0  0.00000000000E+00 -0.00000000000E+00 -0.39774389656E+03  0.39774389656E+03  0.00000000000E+00 0. -1.
         23    2    1    2    0    0  0.11563483653E+00 -0.29261091914E+02 -0.10352042005E+03  0.16498550899E+03  0.12509003133E+03 0.  0.
          5    1    3    3  502    0  0.17624260554E+02 -0.64649487082E+02 -0.10570217281E+03  0.12522217246E+03  0.41800000000E+01 0.  1.
         -5    1    3    3    0  502 -0.17508625717E+02  0.35388395168E+02  0.21817527548E+01  0.39763336532E+02  0.41800000000E+01 0.  1.
        -11    1    1    2    0    0  0.37016343444E+02  0.37089336250E+02 -0.84784995135E+02  0.99671078782E+02  0.00000000000E+00 0.  1.
         11    1    1    2    0    0 -0.37131978281E+02 -0.78282443355E+01 -0.16916076837E+03  0.17336502178E+03  0.00000000000E+00 0. -1.
</event>
<event>
 7    1  0.6506388E-006  0.1004300E+03  0.7561462E-02  0.1279394E+00
          1   -1    0    0  501    0  0.00000000000E+00  0.00000000000E+00  0.40140348675E+02  0.40140348675E+02  0.00000000000E+00 0. -1.
         -1   -1    0    0    0  501 -0.00000000000E+00 -0.00000000000E+00 -0.38516521944E+03  0.38516521944E+03  0.00000000000E+00 0.  1.
         23    2    1    2    0    0  0.49918745784E+02 -0.13090016285E+02 -0.20987916189E+03  0.24971985198E+03  0.12509001627E+03 0.  0.
          5    1    3    3  502    0 -0.18537351373E+00 -0.41212054995E+02 -0.18023025545E+03  0.18492940604E+03  0.41800000000E+01 0. -1.
         -5    1    3    3    0  502  0.50104119298E+02  0.28122038709E+02 -0.29648906444E+02  0.64790445940E+02  0.41800000000E+01 0. -1.
        -11    1    1    2    0    0  0.48468539349E+01  0.40358644998E+02 -0.20241513199E+02  0.45409592332E+02  0.00000000000E+00 0.  1.
         11    1    1    2    0    0 -0.54765599719E+02 -0.27268628713E+02 -0.11490419567E+03  0.13017612380E+03  0.00000000000E+00 0. -1.
</event>
<event>
 7    1  0.6506388E-006  0.9757823E+02  0.7561462E-02  0.1285473E+00
          2   -1    0    0  501    0  0.00000000000E+00  0.00000000000E+00  0.96337043616E+03  0.96337043616E+03  0.00000000000E+00 0. -1.
         -2   -1    0    0    0  501 -0.00000000000E+00 -0.00000000000E+00 -0.12455928561E+02  0.12455928561E+02  0.00000000000E+00 0.  1.
         23    2    1    2    0    0 -0.28985111382E+02 -0.23339514868E+02  0.43434850957E+03  0.44983988086E+03  0.11096134916E+03 0.  0.
          5    1    3    3  502    0 -0.40987149842E+02 -0.51465138005E+02  0.15033710544E+03  0.16415640272E+03  0.41800000000E+01 0. -1.
         -5    1    3    3    0  502  0.12002038460E+02  0.28125623136E+02  0.28401140413E+03  0.28568347813E+03  0.41800000000E+01 0.  1.
        -11    1    1    2    0    0  0.10394137317E+02  0.58060192197E+02  0.34031842770E+03  0.34539203268E+03  0.00000000000E+00 0.  1.
         11    1    1    2    0    0  0.18590974065E+02 -0.34720677329E+02  0.17624757033E+03  0.18059445118E+03  0.00000000000E+00 0. -1.
</event>
<event>
 7    1  0.6506388E-006  0.1210757E+03  0.7561462E-02  0.1241333E+00
          2   -1    0    0  501    0  0.00000000000E+00  0.00000000000E+00  0.94326305056E+02  0.94326305056E+02  0.00000000000E+00 0.  1.
         -2   -1    0    0    0  501 -0.00000000000E+00 -0.00000000000E+00 -0.16704028975E+03  0.16704028975E+03  0.00000000000E+00 0. -1.
         23    2    1    2    0    0 -0.36427395096E+02 -0.46271426665E+02 -0.57301593039E+02  0.14965970901E+03  0.12508619387E+03 0.  0.
          5    1    3    3  502    0 -0.74679944995E+02 -0.59215954564E+02 -0.52183583929E+02  0.10873923989E+03  0.41800000000E+01 0. -1.
         -5    1    3    3    0  502  0.38252549899E+02  0.12944527899E+02 -0.51180091101E+01  0.40920469126E+02  0.41800000000E+01 0. -1.
        -11    1    1    2    0    0 -0.20246531907E+02  0.45134179031E+02 -0.22933315865E+02  0.54524793880E+02  0.00000000000E+00 0. -1.
         11    1    1    2    0    0  0.56673927003E+02  0.11372476338E+01  0.75209242133E+01  0.57182091910E+02  0.00000000000E+00 0.  1.
</event>
<event>
 7    1  0.6506388E-006  0.3514180E+03  0.7561462E-02  0.1062035E+00
         -2   -1    0    0    0  501 -0.00000000000E+00  0.00000000000E+00  0.44013034609E+03  0.44013034609E+03  0.00000000000E+00 0.  1.
          2   -1    0    0  501    0  0.00000000000E+00 -0.00000000000E+00 -0.34593213975E+03  0.34593213975E+03  0.00000000000E+00 0. -1.
         23    2    1    2    0    0 -0.59586587402E+02  0.34175577799E+03  0.18990004948E+03  0.41479709531E+03  0.12508808216E+03 0.  0.
          5    1    3    3  502    0 -0.65652335165E+02  0.31155536719E+03  0.20653444507E+03  0.37954041332E+03  0.41800000000E+01 0.  1.
         -5    1    3    3    0  502  0.60657477624E+01  0.30200410802E+02 -0.16634395596E+02  0.35256681996E+02  0.41800000000E+01 0.  1.
        -11    1    1    2    0    0  0.45398537143E+02 -0.86626271717E+02 -0.55931266429E+02  0.11266518846E+03  0.00000000000E+00 0.  1.
         11    1    1    2    0    0  0.14188050260E+02 -0.25512950628E+03 -0.39770576707E+02  0.25860020208E+03  0.00000000000E+00 0. -1.
</event>
<event>
 7    1  0.6506388E-006  0.9763973E+02  0.7561462E-02  0.1285339E+00
         -2   -1    0    0    0  501 -0.00000000000E+00  0.00000000000E+00  0.13236559275E+03  0.13236559275E+03  0.00000000000E+00 0.  1.
          2   -1    0    0  501    0  0.00000000000E+00 -0.00000000000E+00 -0.10288407814E+03  0.10288407814E+03  0.00000000000E+00 0. -1.
         23    2    1    2    0    0  0.42359000779E+02 -0.23221865517E+01  0.32698921175E+02  0.13612733341E+03  0.12514692948E+03 0.  0.
          5    1    3    3  502    0 -0.19093680400E+02 -0.29274155427E+02  0.54993526652E+02  0.65293990388E+02  0.41800000000E+01 0. -1.
         -5    1    3    3    0  502  0.61452681180E+02  0.26951968875E+02 -0.22294605476E+02  0.70833343023E+02  0.41800000000E+01 0. -1.
        -11    1    1    2    0    0 -0.20004633349E+02  0.42441422383E+02  0.15664553811E+02  0.49465522694E+02  0.00000000000E+00 0.  1.
         11    1    1    2    0    0 -0.22354367430E+02 -0.40119235831E+02 -0.18881960377E+02  0.49656814785E+02  0.00000000000E+00 0. -1.
</event>
<event>
 7    1  0.6506388E-006  0.1580171E+03  0.7561462E-02  0.1190954E+00
          1   -1    0    0  501    0  0.00000000000E+00  0.00000000000E+00  0.36539851351E+03  0.36539851351E+03  0.00000000000E+00 0. -1.
         -1   -1    0    0    0  501 -0.00000000000E+00 -0.00000000000E+00 -0.14982495057E+03  0.14982495057E+03  0.00000000000E+00 0.  1.
         23    2    1    2    0    0 -0.12576644153E+03  0.12644756143E+02 -0.66931090786E+02  0.19001208273E+03  0.12509089894E+03 0.  0.
          5    1    3    3  502    0  0.32275984924E+01 -0.27165491690E+02 -0.45507310591E+02  0.53261327884E+02  0.41800000000E+01 0.  1.
         -5    1    3    3    0  502 -0.12899404002E+03  0.39810247832E+02 -0.21423780194E+02  0.13675075485E+03  0.41800000000E+01 0.  1.
        -11    1    1    2    0    0  0.75921367248E+02 -0.50088571561E+02  0.11592649802E+03  0.14734948914E+03  0.00000000000E+00 0. -1.
         11    1    1    2    0    0  0.49845074282E+02  0.37443815418E+02  0.16657815570E+03  0.17786189221E+03  0.00000000000E+00 0.  1.
</event>
<event>
 7    1  0.6506388E-006  0.8487400E+02  0.7561462E-02  0.1315762E+00
          4   -1    0    0  501    0  0.00000000000E+00  0.00000000000E+00  0.48209057777E+03  0.48209057777E+03  0.00000000000E+00 0. -1.
         -4   -1    0    0    0  501 -0.00000000000E+00 -0.00000000000E+00 -0.28832920509E+02  0.28832920509E+02  0.00000000000E+00 0.  1.
         23    2    1    2    0    0  0.19749286765E+02  0.36473536109E+02  0.21338709879E+03  0.25079906174E+03  0.12508302155E+03 0.  0.
          5    1    3    3  502    0 -0.14676303339E+02  0.44268980714E+02  0.20992848721E+03  0.21508737452E+03  0.41800000000E+01 0. -1.
         -5    1    3    3    0  502  0.34425590105E+02 -0.77954446056E+01  0.34586115745E+01  0.35711687228E+02  0.41800000000E+01 0. -1.
        -11    1    1    2    0    0  0.17196137411E+02 -0.46097561663E+02  0.19546958908E+03  0.20156649669E+03  0.00000000000E+00 0.  1.
         11    1    1    2    0    0 -0.36945424176E+02  0.96240255542E+01  0.44400969394E+02  0.58557939842E+02  0.00000000000E+00 0. -1.
</event>
<event>
 7    1  0.6506388E-006  0.1358740E+03  0.7561462E-02  0.1218991E+00
         -2   -1    0    0    0  501 -0.00000000000E+00  0.00000000000E+00  0.57474244252E+02  0.57474244252E+02  0.00000000000E+00 0.  1.
          2   -1    0    0  501    0  0.00000000000E+00 -0.00000000000E+00 -0.39787039951E+03  0.39787039951E+03  0.00000000000E+00 0. -1.
         23    2    1    2    0    0  0.10220358106E+03  0.20913374644E+01 -0.22411995988E+03  0.27627225667E+03  0.12508660087E+03 0.  0.
          5    1    3    3  502    0  0.63201711453E+02 -0.42557290683E+02 -0.19638102884E+03  0.21068592789E+03  0.41800000000E+01 0. -1.
         -5    1    3    3    0  502  0.39001869605E+02  0.44648628148E+02 -0.27738931037E+02  0.65586328783E+02  0.41800000000E+01 0. -1.
        -11    1    1    2    0    0 -0.21509759414E+02  0.39685932818E+02 -0.42967291862E+02  0.62320391395E+02  0.00000000000E+00 0.  1.
         11    1    1    2    0    0 -0.80693821645E+02 -0.41777270282E+02 -0.73308903511E+02  0.11675199569E+03  0.00000000000E+00 0. -1.
</event>
<event>
 7    1  0.6506388E-006  0.1326673E+03  0.7561462E-02  0.1223551E+00
         -2   -1    0    0    0  501 -0.00000000000E+00  0.00000000000E+00  0.53751301120E+03  0.53751301120E+03  0.00000000000E+00 0.  1.
          2   -1    0    0  501    0  0.00000000000E+00 -0.00000000000E+00 -0.48635645617E+02  0.48635645617E+02  0.00000000000E+00 0. -1.
         23    2    1    2    0    0  0.79001353699E+02  0.79714755716E+02  0.38575551818E+03  0.42077383387E+03  0.12509054038E+03 0.  0.
          5    1    3    3  502    0  0.42900778766E+02  0.90300657187E+02  0.13977997705E+03  0.17190287924E+03  0.41800000000E+01 0. -1.
         -5    1    3    3    0  502  0.36100574934E+02 -0.10585901470E+02  0.24597554113E+03  0.24887095462E+03  0.41800000000E+01 0. -1.
        -11    1    1    2    0    0 -0.16835043254E+02  0.90030951292E+01  0.63618678431E+01  0.20123313984E+02  0.00000000000E+00 0. -1.
         11    1    1    2    0    0 -0.62166310446E+02 -0.88717850845E+02  0.96759979552E+02  0.14525150896E+03  0.00000000000E+00 0.  1.
</event>
<event>
 7    1  0.6506388E-006  0.1125986E+03  0.7561462E-02  0.1255832E+00
          1   -1    0    0  501    0  0.00000000000E+00  0.00000000000E+00  0.64795099279E+03  0.64795099279E+03  0.00000000000E+00 0. -1.
         -1   -1    0    0    0  501 -0.00000000000E+00 -0.00000000000E+00 -0.34312837149E+02  0.34312837149E+02  0.00000000000E+00 0.  1.
         23    2    1    2    0    0  0.71780721445E+02  0.68391706171E+02  0.26687290324E+03  0.31095548595E+03  0.12506906218E+03 0.  0.
          5    1    3    3  502    0  0.64573965680E+02  0.27907766488E+02  0.25959148080E+03  0.26898670930E+03  0.41800000000E+01 0.  1.
         -5    1    3    3    0  502  0.72067557658E+01  0.40483939683E+02  0.72814224345E+01  0.41968776651E+02  0.41800000000E+01 0.  1.
        -11    1    1    2    0    0 -0.53116963703E+02 -0.12638111554E+02  0.72210902455E+02  0.90529266705E+02  0.00000000000E+00 0.  1.
         11    1    1    2    0    0 -0.18663757742E+02 -0.55753594617E+02  0.27455434995E+03  0.28077907728E+03  0.00000000000E+00 0. -1.
</event>
<event>
 7    1  0.6506388E-006  0.1481914E+03  0.7561462E-02  0.1202713E+00
         -2   -1    0    0    0  501 -0.00000000000E+00  0.00000000000E+00  0.33206573870E+02  0.33206573870E+02  0.00000000000E+00 0.  1.
          2   -1    0    0  501    0  0.00000000000E+00 -0.00000000000E+00 -0.66805890829E+03  0.66805890829E+03  0.00000000000E+00 0. -1.
         23    2    1    2    0    0  0.18095305741E+02  0.10027161226E+03 -0.33083370301E+03  0.36807755037E+03  0.12509319615E+03 0.  0.
          5    1    3    3  502    0  0.51598364358E+02 -0.27590817239E+01 -0.12766549754E+03  0.13778953298E+03  0.41800000000E+01 0. -1.
         -5    1    3    3    0  502 -0.33503058617E+02  0.10303069398E+03 -0.20316820547E+03  0.23028801739E+03  0.41800000000E+01 0. -1.
        -11    1    1    2    0    0 -0.53960996578E+02 -0.45154667164E+02 -0.16644488270E+03  0.18070592712E+03  0.00000000000E+00 0.  1.
         11    1    1    2    0    0  0.35865690837E+02 -0.55116945094E+02 -0.13757374872E+03  0.15248200468E+03  0.00000000000E+00 0. -1.
</event>
<event>
 7    1  0.6506388E-006  0.1159766E+03  0.7561462E-02  0.1249886E+00
         -1   -1    0    0    0  501 -0.00000000000E+00  0.00000000000E+00  0.29859214777E+02  0.29859214777E+02  0.00000000000E+00 0.  1.
          1   -1    0    0  501    0  0.00000000000E+00 -0.00000000000E+00 -0.62974172598E+03  0.62974172598E+03  0.00000000000E+00 0. -1.
         23    2    1    2    0    0  0.36038668007E+02  0.72191157725E+02 -0.28990510175E+03  0.32588955029E+03  0.12509469262E+03 0.  0.
          5    1    3    3  502    0 -0.38292034260E+02  0.61478629061E+02 -0.12265077378E+03  0.14250118044E+03  0.41800000000E+01 0.  1.
         -5    1    3    3    0  502  0.74330702267E+02  0.10712528664E+02 -0.16725432797E+03  0.18338836985E+03  0.41800000000E+01 0.  1.
        -11    1    1    2    0    0 -0.24972348985E+02 -0.23619947711E+02 -0.20591555889E+02  0.40069094295E+02  0.00000000000E+00 0.  1.
         11    1    1    2    0    0 -0.11066319022E+02 -0.48571210013E+02 -0.28938585357E+03  0.29364229618E+03  0.00000000000E+00 0. -1.
</event>
<event>
 7    1  0.6506388E-006  0.9546304E+02  0.7561462E-02  0.1290137E+00
         -2   -1    0    0    0  501 -0.00000000000E+00  0.00000000000E+00  0.16653311824E+03  0.16653311824E+03  0.00000000000E+00 0.  1.
          2   -1    0    0  501    0  0.00000000000E+00 -0.00000000000E+00 -0.13939630601E+03  0.13939630601E+03  0.00000000000E+00 0. -1.
         23    2    1    2    0    0  0.45909005734E+02 -0.23753182585E+02  0.10752130500E+03  0.17285949848E+03  0.12509086575E+03 0.  0.
          5    1    3    3  502    0 -0.18098831077E+02 -0.42114578849E+02 -0.33979075268E+00  0.46030351897E+02  0.41800000000E+01 0. -1.
         -5    1    3    3    0  502  0.64007836811E+02  0.18361396264E+02  0.10786109575E+03  0.12682914658E+03  0.41800000000E+01 0. -1.
        -11    1    1    2    0    0 -0.99811031386E+01  0.38177935738E+02 -0.85356261234E+02  0.94036527631E+02  0.00000000000E+00 0. -1.
         11    1    1    2    0    0 -0.35927902595E+02 -0.14424753153E+02  0.49717684644E+01  0.39033398137E+02  0.00000000000E+00 0.  1.
</event>
<event>
 7    1  0.6506388E-006  0.1985376E+03  0.7561462E-02  0.1150979E+00
          1   -1    0    0  501    0  0.00000000000E+00  0.00000000000E+00  0.32439700021E+03  0.32439700021E+03  0.00000000000E+00 0. -1.
         -1   -1    0    0    0  501 -0.00000000000E+00 -0.00000000000E+00 -0.16782299969E+03  0.16782299969E+03  0.00000000000E+00 0.  1.
         23    2    1    2    0    0  0.11728046012E+03 -0.13129980462E+03 -0.32297290999E+02  0.21836973441E+03  0.12509149004E+03 0.  0.
          5    1    3    3  502    0  0.13835420698E+03 -0.84992793219E+02 -0.10213899432E+02  0.16274967782E+03  0.41800000000E+01 0. -1.
         -5    1    3    3    0  502 -0.21073746861E+02 -0.46307011405E+02 -0.22083391567E+02  0.55620056590E+02  0.41800000000E+01 0. -1.
        -11    1    1    2    0    0 -0.11666626289E+03  0.10399964842E+03  0.11201508205E+03  0.19228708322E+03  0.00000000000E+00 0.  1.
         11    1    1    2    0    0 -0.61419723514E+00  0.27300156204E+02  0.76856209477E+02  0.81563182271E+02  0.00000000000E+00 0. -1.
</event>
<event>
 7    1  0.6506388E-006  0.8144050E+02  0.7561462E-02  0.1325013E+00
         -1   -1    0    0    0  501 -0.00000000000E+00  0.00000000000E+00  0.12555289386E+03  0.12555289386E+03  0.00000000000E+00 0.  1.
          1   -1    0    0  501    0  0.00000000000E+00 -0.00000000000E+00 -0.10634576321E+03  0.10634576321E+03  0.00000000000E+00 0. -1.
         23    2    1    2    0    0  0.24667459982E+02  0.10230593622E+02  0.13334226189E+02  0.12860099670E+03  0.12508903284E+03 0.  0.
          5    1    3    3  502    0  0.53851175647E+02  0.18104517880E+02 -0.38285380189E+02  0.68636472976E+02  0.41800000000E+01 0.  1.
         -5    1    3    3    0  502 -0.29183715665E+02 -0.78739242586E+01  0.51619606378E+02  0.59964523727E+02  0.41800000000E+01 0.  1.
        -11    1    1    2    0    0 -0.49431969913E+02 -0.26594663322E+01 -0.30874560390E+02  0.58342359311E+02  0.00000000000E+00 0. -1.
         11    1    1    2    0    0  0.24764509931E+02 -0.75711272894E+01  0.36747464851E+02  0.44955301061E+02  0.00000000000E+00 0.  1.
</event>
<event>
 7    1  0.6506388E-006  0.1017355E+03  0.7561462E-02  0.1276688E+00
         -2   -1    0    0    0  501 -0.00000000000E+00  0.00000000000E+00  0.26489526576E+03  0.26489526576E+03  0.00000000000E+00 0.  1.
          2   -1    0    0  501    0  0.00000000000E+00 -0.00000000000E+00 -0.59889342294E+02  0.59889342294E+02  0.00000000000E+00 0. -1.
         23    2    1    2    0    0  0.13376441694E+02 -0.60427167995E+02  0.12965949789E+03  0.19051450949E+03  0.12511523133E+03 0.  0.
          5    1    3    3  502    0  0.45064580972E+02  0.43898806038E+01  0.10454561120E+03  0.11400589779E+03  0.41800000000E+01 0.  1.
         -5    1    3    3    0  502 -0.31688139278E+02 -0.64817048598E+02  0.25113886688E+02  0.76508611702E+02  0.41800000000E+01 0.  1.
        -11    1    1    2    0    0 -0.37038256819E+02  0.34284128590E+02  0.83969543468E+02  0.97969986075E+02  0.00000000000E+00 0.  1.
         11    1    1    2    0    0  0.23661815124E+02  0.26143039405E+02 -0.86231178904E+01  0.36300112485E+02  0.00000000000E+00 0. -1.
</event>
<event>
 7    1  0.6506388E-006  0.1111206E+03  0.7561462E-02  0.1258509E+00
         -2   -1    0    0    0  501 -0.00000000000E+00  0.00000000000E+00  0.18086467795E+02  0.18086467795E+02  0.00000000000E+00 0.  1.
          2   -1    0    0  501    0  0.00000000000E+00 -0.00000000000E+00 -0.72424764064E+03  0.72424764064E+03  0.00000000000E+00 0. -1.
         23    2    1    2    0    0 -0.22423463617E+02  0.19682132628E+02 -0.34134646554E+03  0.36476707637E+03  0.12508961749E+03 0.  0.
          5    1    3    3  502    0  0.24486054036E+01  0.69935726494E+02 -0.15486153714E+03  0.16998991027E+03  0.41800000000E+01 0. -1.
         -5    1    3    3    0  502 -0.24872069021E+02 -0.50253593866E+02 -0.18648492840E+03  0.19477716610E+03  0.41800000000E+01 0. -1.
        -11    1    1    2    0    0 -0.35694610522E+02 -0.91096695869E+01 -0.17225850468E+03  0.17615357997E+03  0.00000000000E+00 0. -1.
         11    1    1    2    0    0  0.58118074139E+02 -0.10572463041E+02 -0.19255620262E+03  0.20141345209E+03  0.00000000000E+00 0.  1.
</event>
<event>
 7    1  0.6506388E-006  0.8467697E+02  0.7561462E-02  0.1316279E+00
          2   -1    0    0  501    0  0.00000000000E+00  0.00000000000E+00  0.25372179778E+03  0.25372179778E+03  0.00000000000E+00 0. -1.
         -2   -1    0    0    0  501 -0.00000000000E+00 -0.00000000000E+00 -0.64318459532E+02  0.64318459532E+02  0.00000000000E+00 0.  1.
         23    2    1    2    0    0  0.10243807106E+02 -0.10482115864E+02  0.26820725802E+02  0.12877607078E+03  0.12509642175E+03 0.  0.
          5    1    3    3  502    0 -0.13137128328E+01 -0.50040282595E+02  0.58148270419E+02  0.76840415644E+02  0.41800000000E+01 0. -1.
         -5    1    3    3    0  502  0.11557519938E+02  0.39558166731E+02 -0.31327544617E+02  0.51935655132E+02  0.41800000000E+01 0. -1.
        -11    1    1    2    0    0 -0.43105218379E+02  0.12181745757E+02  0.33180939987E+02  0.55744323116E+02  0.00000000000E+00 0.  1.
         11    1    1    2    0    0  0.32861411274E+02 -0.16996298935E+01  0.12940167246E+03  0.13351986342E+03  0.00000000000E+00 0. -1.
</event>
<event>
 7    1  0.6506388E-006  0.1389520E+03  0.7561462E-02  0.1214746E+00
          2   -1    0    0  501    0  0.00000000000E+00  0.00000000000E+00  0.90260378770E+03  0.90260378770E+03  0.00000000000E+00 0. -1.
         -2   -1    0    0    0  501 -0.00000000000E+00 -0.00000000000E+00 -0.30498034907E+02  0.30498034907E+02  0.00000000000E+00 0.  1.
         23    2    1    2    0    0  0.63719565729E+02  0.10641129135E+03  0.41668342271E+03  0.45238500996E+03  0.12507428390E+03 0.  0.
          5    1    3    3  502    0  0.37488866934E+02  0.87325435799E+02  0.11639716268E+03  0.15032271539E+03  0.41800000000E+01 0.  1.
         -5    1    3    3    0  502  0.26230698795E+02  0.19085855556E+02  0.30028626003E+03  0.30206229457E+03  0.41800000000E+01 0.  1.
        -11    1    1    2    0    0 -0.61088137477E+02 -0.20965291691E+02  0.14489805407E+03  0.15864031666E+03  0.00000000000E+00 0.  1.
         11    1    1    2    0    0 -0.26314282522E+01 -0.85445999663E+02  0.31052427601E+03  0.32207649598E+03  0.00000000000E+00 0. -1.
</event>
<event>
 7    1  0.6506388E-006  0.8928845E+02  0.7561462E-02  0.1304584E+00
          2   -1    0    0  501    0  0.00000000000E+00  0.00000000000E+00  0.13684309399E+03  0.13684309399E+03  0.00000000000E+00 0. -1.
         -2   -1    0    0    0  501 -0.00000000000E+00 -0.00000000000E+00 -0.18365466239E+03  0.18365466239E+03  0.00000000000E+00 0.  1.
         23    2    1    2    0    0 -0.27730079273E+01 -0.55454574612E+02 -0.12353660916E+03  0.18436680456E+03  0.12508767087E+03 0.  0.
          5    1    3    3  502    0  0.15848921439E+02 -0.44376454500E+02  0.10556268622E+02  0.48470251000E+02  0.41800000000E+01 0.  1.
         -5    1    3    3    0  502 -0.18621929366E+02 -0.11078120112E+02 -0.13409287778E+03  0.13589655356E+03  0.41800000000E+01 0.  1.
        -11    1    1    2    0    0  0.33345938747E+02  0.68327408693E+02  0.37548725843E+02  0.84796776012E+02  0.00000000000E+00 0. -1.
         11    1    1    2    0    0 -0.30572930820E+02 -0.12872834081E+02  0.39176314916E+02  0.51334175815E+02  0.00000000000E+00 0.  1.
</event>
<event>
 7    1  0.6506388E-006  0.1112198E+03  0.7561462E-02  0.1258327E+00
         -2   -1    0    0    0  501 -0.00000000000E+00  0.00000000000E+00  0.12534827035E+03  0.12534827035E+03  0.00000000000E+00 0. -1.
          2   -1    0    0  501    0  0.00000000000E+00 -0.00000000000E+00 -0.13450729271E+03  0.13450729271E+03  0.00000000000E+00 0.  1.
         23    2    1    2    0    0 -0.55826412596E+02 -0.20295735126E+02  0.37153631609E+02  0.14337527537E+03  0.12509025557E+03 0.  0.
          5    1    3    3  502    0 -0.88736122990E+01 -0.69581630647E+02  0.19665651591E+02  0.72969545505E+02  0.41800000000E+01 0. -1.
         -5    1    3    3    0  502 -0.46952800297E+02  0.49285895521E+02  0.17487980018E+02  0.70405729867E+02  0.41800000000E+01 0. -1.
        -11    1    1    2    0    0  0.38994966861E+02 -0.17390276924E+02  0.12627983965E+02  0.44525219269E+02  0.00000000000E+00 0. -1.
         11    1    1    2    0    0  0.16831445735E+02  0.37686012050E+02 -0.58940637939E+02  0.71955068414E+02  0.00000000000E+00 0.  1.
</event>
<event>
 6    1  0.6506388E-006  0.1582723E+03  0.7561462E-02  0.1190661E+00
         -1   -1    0    0    0  501 -0.00000000000E+00  0.00000000000E+00  0.41190292400E+02  0.41190292400E+02  0.00000000000E+00 0.  1.
          1   -1    0    0  501    0  0.00000000000E+00 -0.00000000000E+00 -0.10645220559E+04  0.10645220559E+04  0.00000000000E+00 0. -1.
          5    1    1    2  502    0 -0.41947498875E+02 -0.31041661639E+02 -0.14758058466E+03  0.15659080046E+03  0.41800000000E+01 0. -1.
         -5    1    1    2    0  502 -0.61824261651E+02  0.94312043312E+02 -0.78195557426E+02  0.13729172751E+03  0.41800000000E+01 0.  1.
        -11    1    1    2    0    0  0.72492398595E+02 -0.86150171699E+02 -0.57362314720E+03  0.58456865716E+03  0.00000000000E+00 0. -1.
         11    1    1    2    0    0  0.31279361930E+02  0.22879790026E+02 -0.22393247417E+03  0.22726116311E+03  0.00000000000E+00 0.  1.
</event>
<event>
 7    1  0.6506388E-006  0.1868210E+03  0.7561462E-02  0.1161360E+00
          3   -1    0    0  501    0  0.00000000000E+00  0.00000000000E+00  0.13998029736E+03  0.13998029736E+03  0.00000000000E+00 0. -1.
         -3   -1    0    0    0  501 -0.00000000000E+00 -0.00000000000E+00 -0.27911303076E+03  0.27911303076E+03  0.00000000000E+00 0.  1.
         23    2    1    2    0    0 -0.15411911107E+03 -0.37820070549E+02 -0.11822421701E+03  0.23411150204E+03  0.12509265274E+03 0.  0.
          5    1    3    3  502    0  0.99363683066E+01 -0.34392546224E+02 -0.96645318075E+01  0.37315602983E+02  0.41800000000E+01 0. -1.
         -5    1    3    3    0  502 -0.16405547937E+03 -0.34275243245E+01 -0.10855968521E+03  0.19679589906E+03  0.41800000000E+01 0. -1.
        -11    1    1    2    0    0  0.34508217893E+02  0.41267871470E+02 -0.35474010521E+02  0.64438030233E+02  0.00000000000E+00 0.  1.
         11    1    1    2    0    0  0.11961089317E+03 -0.34478009211E+01  0.14565494143E+02  0.12054379584E+03  0.00000000000E+00 0. -1.
</event>
<event>
 7    1  0.6506388E-006  0.1392725E+03  0.7561462E-02  0.1214311E+00
         -2   -1    0    0    0  501 -0.00000000000E+00  0.00000000000E+00  0.48877143576E+03  0.48877143576E+03  0.00000000000E+00 0.  1.
          2   -1    0    0  501    0  0.00000000000E+00 -0.00000000000E+00 -0.53511450030E+02  0.53511450030E+02  0.00000000000E+00 0. -1.
         23    2    1    2    0    0 -0.57035598263E+02  0.10537688756E+03  0.22765399268E+03  0.28605782782E+03  0.12508154369E+03 0.  0.
          5    1    3    3  502    0 -0.73106931188E+02  0.10310683003E+03  0.11118809801E+03  0.16839212371E+03  0.41800000000E+01 0.  1.
         -5    1    3    3    0  502  0.16071332925E+02  0.22700575267E+01  0.11646589467E+03  0.11766570411E+03  0.41800000000E+01 0.  1.
        -11    1    1    2    0    0  0.42054783186E+02 -0.11147667183E+03  0.12750959596E+03  0.17451174807E+03  0.00000000000E+00 0. -1.
         11    1    1    2    0    0  0.14980815077E+02  0.60997842703E+01  0.80096397094E+02  0.81713309907E+02  0.00000000000E+00 0.  1.
</event>
<event>
 7    1  0.6506388E-006  0.1095842E+03  0.7561462E-02  0.1261342E+00
          1   -1    0    0  501    0  0.00000000000E+00  0.00000000000E+00  0.33498971278E+03  0.33498971278E+03  0.00000000000E+00 0. -1.
         -1   -1    0    0    0  501 -0.00000000000E+00 -0.00000000000E+00 -0.67204274751E+02  0.67204274751E+02  0.00000000000E+00 0.  1.
         23    2    1    2    0    0  0.86891969578E+02  0.23582328598E+02  0.72935400460E+02  0.17050705102E+03  0.12508693460E+03 0.  0.
          5    1    3    3  502    0  0.24341287543E+02 -0.59448491302E+01 -0.34389877381E+02  0.42754831034E+02  0.41800000000E+01 0.  1.
         -5    1    3    3    0  502  0.62550682035E+02  0.29527177728E+02  0.10732527784E+03  0.12775221999E+03  0.41800000000E+01 0.  1.
        -11    1    1    2    0    0 -0.64836116898E+02 -0.55721417439E+02  0.12060327516E+03  0.14783013358E+03  0.00000000000E+00 0.  1.
         11    1    1    2    0    0 -0.22055852680E+02  0.32139088842E+02  0.74246762412E+02  0.83856802930E+02  0.00000000000E+00 0. -1.
</event>
<event>
 7    1  0.6506388E-006  0.1230139E+03  0.7561462E-02  0.1238206E+00
         -2   -1    0    0    0  501 -0.00000000000E+00  0.00000000000E+00  0.10320418399E+03  0.10320418399E+03  0.00000000000E+00 0.  1.
          2   -1    0    0  501    0  0.00000000000E+00 -0.00000000000E+00 -0.24986983394E+03  0.24986983394E+03  0.00000000000E+00 0. -1.
         23    2    1    2    0    0  0.26290092379E+02  0.75008667099E+02  0.28074592147E+02  0.15084131654E+03  0.12508977158E+03 0.  0.
          5    1    3    3  502    0 -0.40671263793E+01 -0.32779119197E+02  0.19195200001E+02  0.38430980672E+02  0.41800000000E+01 0. -1.
         -5    1    3    3    0  502  0.30357218758E+02  0.10778778630E+03  0.88793921457E+01  0.11241033587E+03  0.41800000000E+01 0. -1.
        -11    1    1    2    0    0  0.12661162726E+02 -0.55849213805E+02 -0.84256830949E+02  0.10187567563E+03  0.00000000000E+00 0.  1.
         11    1    1    2    0    0 -0.38951255105E+02 -0.19159453294E+02 -0.90483411150E+02  0.10035702575E+03  0.00000000000E+00 0. -1.
</event>
<event>
 7    1  0.6506388E-006  0.1683404E+03  0.7561462E-02  0.1179590E+00
         -2   -1    0    0    0  501 -0.00000000000E+00  0.00000000000E+00  0.27716343226E+02  0.27716343226E+02  0.00000000000E+00 0.  1.
          2   -1    0    0  501    0  0.00000000000E+00 -0.00000000000E+00 -0.12707441179E+04  0.12707441179E+04  0.00000000000E+00 0. -1.
         23    2    1    2    0    0  0.11409620329E+03 -0.64539533443E+02 -0.38265642651E+03  0.42338866275E+03  0.12509486005E+03 0.  0.
          5    1    3    3  502    0  0.91938824828E+01 -0.73674592283E+02 -0.13250190821E+03  0.15194308508E+03  0.41800000000E+01 0.  1.
         -5    1    3    3    0  502  0.10490232081E+03  0.91350588402E+01 -0.25015451830E+03  0.27144557767E+03  0.41800000000E+01 0.  1.
        -11    1    1    2    0    0  0.60341888739E+01 -0.12738362411E+02 -0.41310166397E+02  0.43648678789E+02  0.00000000000E+00 0.  1.
         11    1    1    2    0    0 -0.12013039217E+03  0.77277895855E+02 -0.81906118173E+03  0.83142311955E+03  0.00000000000E+00 0. -1.
</event>
<event>
 7    1  0.6506388E-006  0.1480524E+03  0.7561462E-02  0.1202887E+00
          1   -1    0    0  501    0  0.00000000000E+00  0.00000000000E+00  0.60012960074E+03  0.60012960074E+03  0.00000000000E+00 0.  1.
         -1   -1    0    0    0  501 -0.00000000000E+00 -0.00000000000E+00 -0.38488952113E+02  0.38488952113E+02  0.00000000000E+00 0. -1.
         23    2    1    2    0    0 -0.37043675299E+01  0.10381498083E+03  0.26124809688E+03  0.30771910080E+03  0.12509677969E+03 0.  0.
          5    1    3    3  502    0  0.35509188856E+02  0.11208224164E+03  0.22316678911E+03  0.25227805998E+03  0.41800000000E+01 0.  1.
         -5    1    3    3    0  502 -0.39213556386E+02 -0.82672608138E+01  0.38081307771E+02  0.55441040821E+02  0.41800000000E+01 0.  1.
        -11    1    1    2    0    0  0.42077420158E+02 -0.86242299736E+02  0.19382013507E+03  0.21627410457E+03  0.00000000000E+00 0. -1.
         11    1    1    2    0    0 -0.38373052628E+02 -0.17572681091E+02  0.10657241667E+03  0.11462534748E+03  0.00000000000E+00 0.  1.
</event>
<event>
 7    1  0.6506388E-006  0.1402025E+03  0.7561462E-02  0.1213057E+00
          2   -1    0    0  501    0  0.00000000000E+00  0.00000000000E+00  0.69327400929E+02  0.69327400929E+02  0.00000000000E+00 0. -1.
         -2   -1    0    0    0  501 -0.00000000000E+00 -0.00000000000E+00 -0.42866200094E+03  0.42866200094E+03  0.00000000000E+00 0.  1.
         23    2    1    2    0    0  0.48093025786E+02 -0.11848174012E+03 -0.25063790234E+03  0.30792348661E+03  0.12508658457E+03 0.  0.
          5    1    3    3  502    0  0.23714969300E+01  0.12602849604E+02  0.70264886178E+01  0.15208542275E+02  0.41800000000E+01 0. -1.
         -5    1    3    3    0  502  0.45721528856E+02 -0.13108458973E+03 -0.25766439096E+03  0.29271494433E+03  0.41800000000E+01 0. -1.
        -11    1    1    2    0    0 -0.21991930734E+02  0.46007300935E+02  0.65846930895E+01  0.51416679588E+02  0.00000000000E+00 0. -1.
         11    1    1    2    0    0 -0.26101095053E+02  0.72474439189E+02 -0.11528139076E+03  0.13864923568E+03  0.00000000000E+00 0.  1.
</event>
<event>
 7    1  0.6506388E-006  0.1093340E+03  0.7561462E-02  0.1261808E+00
         -1   -1    0    0    0  501 -0.00000000000E+00  0.00000000000E+00  0.84537022718E+02  0.84537022718E+02  0.00000000000E+00 0.  1.
          1   -1    0    0  501    0  0.00000000000E+00 -0.00000000000E+00 -0.19727226970E+03  0.19727226970E+03  0.00000000000E+00 0. -1.
         23    2    1    2    0    0 -0.15183818169E+02  0.18270970100E+02  0.95174693977E+01  0.12790050825E+03  0.12531393021E+03 0.  0.
          5    1    3    3  502    0  0.24841494346E+02  0.61748164091E+02  0.15156332640E+02  0.68389490633E+02  0.41800000000E+01 0. -1.
         -5    1    3    3    0  502 -0.40025312515E+02 -0.43477193992E+02 -0.56388632421E+01  0.59511017618E+02  0.41800000000E+01 0. -1.
        -11    1    1    2    0    0  0.22036745992E+02  0.33727144030E+02 -0.62974220053E+02  0.74758884486E+02  0.00000000000E+00 0.  1.
         11    1    1    2    0    0 -0.68529278229E+01 -0.51998114130E+02 -0.59278496327E+02  0.79149899682E+02  0.00000000000E+00 0. -1.
</event>
<event>
 7    1  0.6506388E-006  0.9319412E+02  0.7561462E-02  0.1295296E+00
         -1   -1    0    0    0  501 -0.00000000000E+00  0.00000000000E+00  0.24959135773E+03  0.24959135773E+03  0.00000000000E+00 0.  1.
          1   -1    0    0  501    0  0.00000000000E+00 -0.00000000000E+00 -0.53164741374E+02  0.53164741374E+02  0.00000000000E+00 0. -1.
         23    2    1    2    0    0 -0.42844360193E+02  0.12278035776E+01  0.13811992668E+03  0.19120874266E+03  0.12508606005E+03 0.  0.
          5    1    3    3  502    0 -0.84742111541E+02 -0.64587857995E+01  0.67422497490E+02  0.10856429869E+03  0.41800000000E+01 0.  1.
         -5    1    3    3    0  502  0.41897751348E+02  0.76865893771E+01  0.70697429189E+02  0.82644443965E+02  0.41800000000E+01 0.  1.
        -11    1    1    2    0    0  0.35346338831E+02 -0.18334261063E+02 -0.97329216357E+01  0.40990713107E+02  0.00000000000E+00 0. -1.
         11    1    1    2    0    0  0.74980213620E+01  0.17106457485E+02  0.68039611314E+02  0.70556643343E+02  0.00000000000E+00 0.  1.
</event>
<event>
 7    1  0.6506388E-006  0.1021630E+03  0.7561462E-02  0.1275812E+00
         -1   -1    0    0    0  501 -0.00000000000E+00  0.00000000000E+00  0.12023727943E+03  0.12023727943E+03  0.00000000000E+00 0.  1.
          1   -1    0    0  501    0  0.00000000000E+00 -0.00000000000E+00 -0.12500395458E+03  0.12500395458E+03  0.00000000000E+00 0. -1.
         23    2    1    2    0    0 -0.75780448457E+01  0.48083268506E+02  0.28081377347E+02  0.13714491606E+03  0.12510290474E+03 0.  0.
          5    1    3    3  502    0  0.40755631574E+02 -0.59984911740E+01 -0.23902153959E+02  0.47809923292E+02  0.41800000000E+01 0.  1.
         -5    1    3    3    0  502 -0.48333676419E+02  0.54081759680E+02  0.51983531307E+02  0.89334992771E+02  0.41800000000E+01 0.  1.
        -11    1    1    2    0    0 -0.20654692138E+02 -0.57026162895E+02 -0.45570988390E+02  0.75863789417E+02  0.00000000000E+00 0. -1.
         11    1    1    2    0    0  0.28232736983E+02  0.89428943886E+01  0.12722935900E+02  0.32232528532E+02  0.00000000000E+00 0.  1.
</event>
<event>
 7    1  0.6506388E-006  0.1186547E+03  0.7561462E-02  0.1245333E+00
         -1   -1    0    0    0  501 -0.00000000000E+00  0.00000000000E+00  0.21248430064E+02  0.21248430064E+02  0.00000000000E+00 0.  1.
          1   -1    0    0  501    0  0.00000000000E+00 -0.00000000000E+00 -0.85670387918E+03  0.85670387918E+03  0.00000000000E+00 0. -1.
         23    2    1    2    0    0  0.24126801182E+02  0.74592188058E+02 -0.48162709222E+03  0.50374455718E+03  0.12509127018E+03 0.  0.
          5    1    3    3  502    0  0.31004788367E+02 -0.29619550986E+02 -0.13654397961E+03  0.14317941707E+03  0.41800000000E+01 0. -1.
         -5    1    3    3    0  502 -0.68779871848E+01  0.10421173904E+03 -0.34508311261E+03  0.36056514012E+03  0.41800000000E+01 0. -1.
        -11    1    1    2    0    0 -0.35363279871E+02 -0.40285248527E+02 -0.32089775838E+03  0.32534417798E+03  0.00000000000E+00 0. -1.
         11    1    1    2    0    0  0.11236478689E+02 -0.34306939532E+02 -0.32930598515E+02  0.48863574080E+02  0.00000000000E+00 0.  1.
</event>
<event>
 7    1  0.6506388E-006  0.1095595E+03  0.7561462E-02  0.1261388E+00
          1   -1    0    0  501    0  0.00000000000E+00  0.00000000000E+00  0.19550331029E+03  0.19550331029E+03  0.00000000000E+00 0. -1.
         -1   -1    0    0    0  501 -0.00000000000E+00 -0.00000000000E+00 -0.90458303389E+02  0.90458303389E+02  0.00000000000E+00 0.  1.
         23    2    1    2    0    0  0.23381123868E+01  0.69269244629E+02  0.20701100490E+02  0.14449411609E+03  0.12508524694E+03 0.  0.
          5    1    3    3  502    0  0.35833917908E+02  0.91533422568E+02 -0.14306712646E+01  0.98396932573E+02  0.41800000000E+01 0. -1.
         -5    1    3    3    0  502 -0.33495805521E+02 -0.22264177938E+02  0.22131771755E+02  0.46097183513E+02  0.41800000000E+01 0. -1.
        -11    1    1    2    0    0  0.17435623067E+02 -0.16751669855E+02  0.81793880656E+02  0.85292779925E+02  0.00000000000E+00 0. -1.
         11    1    1    2    0    0 -0.19773735454E+02 -0.52517574774E+02  0.25500257573E+01  0.56174717670E+02  0.00000000000E+00 0.  1.
</event>
<event>
 7    1  0.6506388E-006  0.6136134E+02  0.7561462E-02  0.1392206E+00
         -2   -1    0    0    0  501 -0.00000000000E+00  0.00000000000E+00  0.53537029725E+02  0.53537029725E+02  0.00000000000E+00 0. -1.
          2   -1    0    0  501    0  0.00000000000E+00 -0.00000000000E+00 -0.23268002850E+03  0.23268002850E+03  0.00000000000E+00 0.  1.
         23    2    1    2    0    0 -0.34769442273E+01  0.28021610246E+02 -0.10631256550E+03  0.16657716635E+03  0.12509312925E+03 0.  0.
          5    1    3    3  502    0 -0.32692110719E+02  0.14553602974E+02  0.16445943660E+02  0.39604582130E+02  0.41800000000E+01 0. -1.
         -5    1    3    3    0  502  0.29215166492E+02  0.13468007271E+02 -0.12275850916E+03  0.12697258422E+03  0.41800000000E+01 0. -1.
        -11    1    1    2    0    0 -0.20756769088E+02 -0.19738327516E+02 -0.86140130262E+02  0.90777569243E+02  0.00000000000E+00 0.  1.
         11    1    1    2    0    0  0.24233713316E+02 -0.82832827294E+01  0.13309696985E+02  0.28862322631E+02  0.00000000000E+00 0. -1.
</event>
<event>
 7    1  0.6506388E-006  0.9837907E+02  0.7561462E-02  0.1283742E+00
         -2   -1    0    0    0  501 -0.00000000000E+00  0.00000000000E+00  0.84266008774E+03  0.84266008774E+03  0.00000000000E+00 0. -1.
          2   -1    0    0  501    0  0.00000000000E+00 -0.00000000000E+00 -0.24567204429E+02  0.24567204429E+02  0.00000000000E+00 0.  1.
         23    2    1    2    0    0 -0.46463406119E+02  0.29662752135E+02  0.67779942453E+03  0.69144661562E+03  0.12509050876E+03 0.  0.
          5    1    3    3  502    0  0.16251525251E+02  0.46336856289E+02  0.49458477367E+03  0.49703398986E+03  0.41800000000E+01 0. -1.
         -5    1    3    3    0  502 -0.62714931369E+02 -0.16674104154E+02  0.18321465086E+03  0.19441262576E+03  0.41800000000E+01 0. -1.
        -11    1    1    2    0    0  0.31468173284E+02 -0.48842799647E+02  0.13984025515E+03  0.15143038654E+03  0.00000000000E+00 0. -1.
         11    1    1    2    0    0  0.14995232834E+02  0.19180047512E+02  0.45320363468E+00  0.24350290016E+02  0.00000000000E+00 0.  1.
</event>
<event>
 7    1  0.6506388E-006  0.1415779E+03  0.7561462E-02  0.1211221E+00
         -1   -1    0    0    0  501 -0.00000000000E+00  0.00000000000E+00  0.87135723514E+02  0.87135723514E+02  0.00000000000E+00 0.  1.
          1   -1    0    0  501    0  0.00000000000E+00 -0.00000000000E+00 -0.23239270073E+03  0.23239270073E+03  0.00000000000E+00 0. -1.
         23    2    1    2    0    0 -0.33188028627E+02 -0.85329707733E+02 -0.74378038060E+02  0.17193697335E+03  0.12509047123E+03 0.  0.
          5    1    3    3  502    0 -0.60406351139E+02  0.44571102970E+01 -0.35177819478E+02  0.70169398411E+02  0.41800000000E+01 0. -1.
         -5    1    3    3    0  502  0.27218322512E+02 -0.89786818030E+02 -0.39200218582E+02  0.10176757494E+03  0.41800000000E+01 0. -1.
        -11    1    1    2    0    0  0.50408934516E+02  0.95884893842E+02 -0.52917704343E+02  0.12056225354E+03  0.00000000000E+00 0.  1.
         11    1    1    2    0    0 -0.17220905889E+02 -0.10555186109E+02 -0.17961234812E+02  0.27029197350E+02  0.00000000000E+00 0. -1.
</event>
<event>
 7    1  0.6506388E-006  0.1224921E+03  0.7561462E-02  0.1239042E+00
          1   -1    0    0  501    0  0.00000000000E+00  0.00000000000E+00  0.83464208858E+02  0.83464208858E+02  0.00000000000E+00 0. -1.
         -1   -1    0    0    0  501 -0.00000000000E+00 -0.00000000000E+00 -0.19562845476E+03  0.19562845476E+03  0.00000000000E+00 0.  1.
         23    2    1    2    0    0  0.38293322635E+02  0.52728894462E+02 -0.78818209925E+02  0.16157011239E+03  0.12508347666E+03 0.  0.
          5    1    3    3  502    0  0.26502506092E+02  0.89977009234E+02 -0.29302325756E+02  0.98358241721E+02  0.41800000000E+01 0. -1.
         -5    1    3    3    0  502  0.11790816544E+02 -0.37248114772E+02 -0.49515884169E+02  0.63211870672E+02  0.41800000000E+01 0. -1.
        -11    1    1    2    0    0 -0.41338061088E+02 -0.76969794653E+02 -0.32034991893E+02  0.93056033061E+02  0.00000000000E+00 0. -1.
         11    1    1    2    0    0  0.30447384527E+01  0.24240900192E+02 -0.13110440812E+01  0.24466518161E+02  0.00000000000E+00 0.  1.
</event>
<event>
 7    1  0.9921883E-006  0.2289300E+03  0.7561462E-02  0.1127395E+00
         -2   -1    0    0    0  501 -0.00000000000E+00  0.00000000000E+00  0.21547670932E+03  0.21547670932E+03  0.00000000000E+00 0. -1.
          2   -1    0    0  501    0  0.00000000000E+00 -0.00000000000E+00 -0.27197463820E+03  0.27197463820E+03  0.00000000000E+00 0.  1.
         23    2    1    2    0    0 -0.18533215455E+03  0.84877688588E+02  0.43611591056E+02  0.24310864263E+03  0.12509041418E+03 0.  0.
          5    1    3    3  502    0 -0.85240151850E+02  0.10308262608E+03  0.45269196516E+02  0.14127520604E+03  0.41800000000E+01 0.  1.
         -5    1    3    3    0  502 -0.10009200270E+03 -0.18204937493E+02 -0.16576054603E+01  0.10183343660E+03  0.41800000000E+01 0.  1.
        -11    1    1    2    0    0  0.91450537877E+02 -0.89846201365E+02 -0.48291701202E+02  0.13699499693E+03  0.00000000000E+00 0.  1.
         11    1    1    2    0    0  0.93881616670E+02  0.49685127773E+01 -0.51817818734E+02  0.10734770797E+03  0.00000000000E+00 0. -1.
</event>
<event>
 7    1  0.6506388E-006  0.1213322E+03  0.7561462E-02  0.1240915E+00
          2   -1    0    0  501    0  0.00000000000E+00  0.00000000000E+00  0.52227979091E+03  0.52227979091E+03  0.00000000000E+00 0. -1.
         -2   -1    0    0    0  501 -0.00000000000E+00 -0.00000000000E+00 -0.47019724386E+02  0.47019724386E+02  0.00000000000E+00 0.  1.
         23    2    1    2    0    0 -0.48472272475E+02 -0.67237055353E+02  0.11323296062E+03  0.18798573781E+03  0.12508617605E+03 0.  0.
          5    1    3    3  502    0 -0.77253169815E+02 -0.16581442988E+02  0.10100962741E+03  0.12830983489E+03  0.41800000000E+01 0.  1.
         -5    1    3    3    0  502  0.28780897340E+02 -0.50655612364E+02  0.12223333206E+02  0.59675902929E+02  0.41800000000E+01 0.  1.
        -11    1    1    2    0    0 -0.21879012206E+01  0.52256132939E+02  0.27156447123E+03  0.27655515251E+03  0.00000000000E+00 0. -1.
         11    1    1    2    0    0  0.50660173696E+02  0.14980922414E+02  0.90462634670E+02  0.10475862498E+03  0.00000000000E+00 0.  1.
</event>
<event>
 7    1  0.6506388E-006  0.6123045E+02  0.7561462E-02  0.1392739E+00
         -2   -1    0    0    0  501 -0.00000000000E+00  0.00000000000E+00  0.10074055306E+03  0.10074055306E+03  0.00000000000E+00 0.  1.
          2   -1    0    0  501    0  0.00000000000E+00 -0.00000000000E+00 -0.14959690541E+03  0.14959690541E+03  0.00000000000E+00 0. -1.
         23    2    1    2    0    0  0.55520476410E+02  0.83447485223E+01 -0.13753009678E+02  0.13779801214E+03  0.12508792406E+03 0.  0.
          5    1    3    3  502    0  0.54390553119E+02  0.55276317852E+01 -0.65711999566E+02  0.85582862004E+02  0.41800000000E+01 0. -1.
         -5    1    3    3    0  502  0.11299232907E+01  0.28171167372E+01  0.51958989888E+02  0.52215150135E+02  0.41800000000E+01 0. -1.
        -11    1    1    2    0    0 -0.73037991673E+01  0.86679080799E+01 -0.56123903938E+02  0.57257058133E+02  0.00000000000E+00 0. -1.
         11    1    1    2    0    0 -0.48216677243E+02 -0.17012656602E+02  0.21020561268E+02  0.55282388199E+02  0.00000000000E+00 0.  1.
</event>
<event>
 7    1  0.6506388E-006  0.9243297E+02  0.7561462E-02  0.1297065E+00
          2   -1    0    0  501    0  0.00000000000E+00  0.00000000000E+00  0.43322798032E+02  0.43322798032E+02  0.00000000000E+00 0. -1.
         -2   -1    0    0    0  501 -0.00000000000E+00 -0.00000000000E+00 -0.31163396539E+03  0.31163396539E+03  0.00000000000E+00 0.  1.
         23    2    1    2    0    0  0.15255493184E+02  0.20066447813E+02 -0.19534341689E+03  0.23333041602E+03  0.12509452473E+03 0.  0.
          5    1    3    3  502    0 -0.53442393197E+02 -0.21948956161E+01 -0.10189854393E+03  0.11515942260E+03  0.41800000000E+01 0. -1.
         -5    1    3    3    0  502  0.68697886381E+02  0.22261343429E+02 -0.93444872957E+02  0.11817099342E+03  0.41800000000E+01 0. -1.
        -11    1    1    2    0    0 -0.16232540480E+02 -0.37790278118E+02 -0.88786340581E+02  0.97849960473E+02  0.00000000000E+00 0.  1.
         11    1    1    2    0    0  0.97704729569E+00  0.17723830305E+02  0.15818590115E+02  0.23776386927E+02  0.00000000000E+00 0. -1.
</event>
<event>
 7    1  0.6506388E-006  0.9949185E+02  0.7561462E-02  0.1281368E+00
          1   -1    0    0  501    0  0.00000000000E+00  0.00000000000E+00  0.65487793262E+02  0.65487793262E+02  0.00000000000E+00 0. -1.
         -1   -1    0    0    0  501 -0.00000000000E+00 -0.00000000000E+00 -0.28029156505E+03  0.28029156505E+03  0.00000000000E+00 0.  1.
         23    2    1    2    0    0  0.59471649025E+02 -0.11901092869E+02 -0.19128557349E+03  0.23276830868E+03  0.11795084507E+03 0.  0.
          5    1    3    3  502    0 -0.19222546902E+02  0.98723949267E+01  0.27790412518E+01  0.22184813753E+02  0.41800000000E+01 0. -1.
         -5    1    3    3    0  502  0.78694195927E+02 -0.21773487796E+02 -0.19406461474E+03  0.21058349493E+03  0.41800000000E+01 0.  1.
        -11    1    1    2    0    0 -0.20006284465E+02  0.41375718139E+02 -0.40145242323E+02  0.61023290232E+02  0.00000000000E+00 0.  1.
         11    1    1    2    0    0 -0.39465364560E+02 -0.29474625270E+02  0.16627044018E+02  0.51987759400E+02  0.00000000000E+00 0. -1.
</event>
<event>
 6    1  0.6506388E-006  0.2644111E+03  0.7561462E-02  0.1104522E+00
         -2   -1    0    0    0  501 -0.00000000000E+00  0.00000000000E+00  0.35366372528E+02  0.35366372528E+02  0.00000000000E+00 0.  1.
          2   -1    0    0  501    0  0.00000000000E+00 -0.00000000000E+00 -0.20775609744E+04  0.20775609744E+04  0.00000000000E+00 0. -1.
          5    1    1    2  502    0 -0.14145903858E+03 -0.17741738605E+03 -0.78362885761E+03  0.81583040355E+03  0.41800000000E+01 0. -1.
         -5    1    1    2    0  502 -0.37552786464E+02  0.78297946089E+02 -0.28139764852E+03  0.29452145783E+03  0.41800000000E+01 0.  1.
        -11    1    1    2    0    0  0.98350733652E+02  0.16963615990E+02 -0.31375342291E+03  0.32924434918E+03  0.00000000000E+00 0. -1.
         11    1    1    2    0    0  0.80661091392E+02  0.82155823971E+02 -0.66341467279E+03  0.67333113633E+03  0.00000000000E+00 0.  1.
</event>
<event>
 7    1  0.6506388E-006  0.1400894E+03  0.7561462E-02  0.1213209E+00
          1   -1    0    0  501    0  0.00000000000E+00  0.00000000000E+00  0.17604940318E+03  0.17604940318E+03  0.00000000000E+00 0. -1.
         -1   -1    0    0    0  501 -0.00000000000E+00 -0.00000000000E+00 -0.12569868974E+03  0.12569868974E+03  0.00000000000E+00 0.  1.
         23    2    1    2    0    0 -0.98650186117E+02  0.23420846573E+02  0.23592821830E+02  0.16274089955E+03  0.12509030287E+03 0.  0.
          5    1    3    3  502    0 -0.67631932658E+02  0.71118968728E+02  0.35521826259E+02  0.10445696994E+03  0.41800000000E+01 0.  1.
         -5    1    3    3    0  502 -0.31018253459E+02 -0.47698122156E+02 -0.11929004429E+02  0.58283929616E+02  0.41800000000E+01 0.  1.
        -11    1    1    2    0    0  0.28263968648E+01  0.19640176910E+02 -0.16094301210E+02  0.25549003889E+02  0.00000000000E+00 0.  1.
         11    1    1    2    0    0  0.95823789252E+02 -0.43061023482E+02  0.42852192817E+02  0.11345818948E+03  0.00000000000E+00 0. -1.
</event>
<event>
 7    1  0.6506388E-006  0.1505866E+03  0.7561462E-02  0.1199754E+00
          1   -1    0    0  501    0  0.00000000000E+00  0.00000000000E+00  0.52862952561E+02  0.52862952561E+02  0.00000000000E+00 0.  1.
         -1   -1    0    0    0  501 -0.00000000000E+00 -0.00000000000E+00 -0.59366785838E+03  0.59366785838E+03  0.00000000000E+00 0. -1.
         23    2    1    2    0    0  0.31844925859E+02  0.11155300525E+03 -0.43182920426E+03  0.46430447635E+03  0.12507602815E+03 0.  0.
          5    1    3    3  502    0  0.35265179615E+02  0.13059621131E+03 -0.41994976454E+03  0.44121908440E+03  0.41800000000E+01 0.  1.
         -5    1    3    3    0  502 -0.34202537561E+01 -0.19043206067E+02 -0.11879439722E+02  0.23085391943E+02  0.41800000000E+01 0.  1.
        -11    1    1    2    0    0  0.17875261445E+02 -0.90157346706E+02 -0.69605689520E+02  0.11529451049E+03  0.00000000000E+00 0.  1.
         11    1    1    2    0    0 -0.49720187303E+02 -0.21395658541E+02 -0.39370012040E+02  0.66931824104E+02  0.00000000000E+00 0. -1.
</event>
<event>
 7    1  0.6506388E-006  0.1391888E+03  0.7561462E-02  0.1214425E+00
          2   -1    0    0  501    0  0.00000000000E+00  0.00000000000E+00  0.33088698659E+02  0.33088698659E+02  0.00000000000E+00 0. -1.
         -2   -1    0    0    0  501 -0.00000000000E+00 -0.00000000000E+00 -0.12317837274E+04  0.12317837274E+04  0.00000000000E+00 0.  1.
         23    2    1    2    0    0  0.10230948157E+03 -0.31749660237E+02 -0.10424422961E+04  0.10553714356E+04  0.12509058912E+03 0.  0.
          5    1    3    3  502    0  0.12622964898E+03 -0.16114966915E+02 -0.68266957382E+03  0.69444138404E+03  0.41800000000E+01 0.  1.
         -5    1    3    3    0  502 -0.23920167402E+02 -0.15634693322E+02 -0.35977272223E+03  0.36093005154E+03  0.41800000000E+01 0.  1.
        -11    1    1    2    0    0 -0.34369951795E+02  0.41118931329E+02 -0.20445775589E+02  0.57359304733E+02  0.00000000000E+00 0. -1.
         11    1    1    2    0    0 -0.67939529778E+02 -0.93692710917E+01 -0.13580695714E+03  0.15214168579E+03  0.00000000000E+00 0.  1.
</event>
<event>
 7    1  0.6506388E-006  0.1138566E+03  0.7561462E-02  0.1253590E+00
          3   -1    0    0  501    0  0.00000000000E+00  0.00000000000E+00  0.28419423831E+03  0.28419423831E+03  0.00000000000E+00 0. -1.
         -3   -1    0    0    0  501 -0.00000000000E+00 -0.00000000000E+00 -0.71065330583E+02  0.71065330583E+02  0.00000000000E+00 0.  1.
         23    2    1    2    0    0  0.43779045205E+02  0.70137110197E+02  0.67462986973E+02  0.16442305735E+03  0.12509143916E+03 0.  0.
          5    1    3    3  502    0 -0.11488847649E+02 -0.11702805100E+02 -0.24259486380E+02  0.29579458192E+02  0.41800000000E+01 0.  1.
         -5    1    3    3    0  502  0.55267892854E+02  0.81839915297E+02  0.91722473353E+02  0.13484359916E+03  0.41800000000E+01 0.  1.
        -11    1    1    2    0    0  0.18834710074E+02 -0.36006507363E+02  0.95095847215E+02  0.10341390155E+03  0.00000000000E+00 0. -1.
         11    1    1    2    0    0 -0.62613755280E+02 -0.34130602834E+02  0.50570073538E+02  0.87422609991E+02  0.00000000000E+00 0.  1.
</event>
<event>
 7    1  0.6506388E-006  0.1269093E+03  0.7561462E-02  0.1232115E+00
         -1   -1    0    0    0  501 -0.00000000000E+00  0.00000000000E+00  0.20316147380E+03  0.20316147380E+03  0.00000000000E+00 0.  1.
          1   -1    0    0  501    0  0.00000000000E+00 -0.00000000000E+00 -0.42239287093E+03  0.42239287093E+03  0.00000000000E+00 0. -1.
         23    2    1    2    0    0  0.96202453703E+02  0.12738832958E+02  0.15893167243E+03  0.22433127509E+03  0.12509218409E+03 0.  0.
          5    1    3    3  502    0 -0.53557267210E+01 -0.34280758288E+02  0.70952723759E+01  0.35660475146E+02  0.41800000000E+01 0.  1.
         -5    1    3    3    0  502  0.10155818042E+03  0.47019591246E+02  0.15183640005E+03  0.18867079995E+03  0.41800000000E+01 0.  1.
        -11    1    1    2    0    0 -0.53911615821E+02 -0.29419913267E+02 -0.32726492086E+03  0.33297796030E+03  0.00000000000E+00 0. -1.
         11    1    1    2    0    0 -0.42290837882E+02  0.16681080309E+02 -0.50898148686E+02  0.68245109339E+02  0.00000000000E+00 0.  1.
</event>
<event>
 7    1  0.6506388E-006  0.9780535E+02  0.7561462E-02  0.1284980E+00
          2   -1    0    0  501    0  0.00000000000E+00  0.00000000000E+00  0.51765532581E+03  0.51765532581E+03  0.00000000000E+00 0. -1.
         -2   -1    0    0    0  501 -0.00000000000E+00 -0.00000000000E+00 -0.43280899299E+02  0.43280899299E+02  0.00000000000E+00 0.  1.
         23    2    1    2    0    0  0.24789238657E+02 -0.71511476938E+02  0.12589475708E+03  0.19293804097E+03  0.12508876891E+03 0.  0.
          5    1    3    3  502    0  0.17035775984E+02 -0.87814180857E+01 -0.23533788145E+02  0.30637273890E+02  0.41800000000E+01 0.  1.
         -5    1    3    3    0  502  0.77534626736E+01 -0.62730058852E+02  0.14942854523E+03  0.16230076708E+03  0.41800000000E+01 0.  1.
        -11    1    1    2    0    0 -0.46356904074E+02  0.99419448762E+01  0.20456762567E+03  0.20998980521E+03  0.00000000000E+00 0.  1.
         11    1    1    2    0    0  0.21567665416E+02  0.61569532061E+02  0.14391204376E+03  0.15800837892E+03  0.00000000000E+00 0. -1.
</event>
<event>
 7    1  0.6506388E-006  0.1081492E+03  0.7561462E-02  0.1264036E+00
          2   -1    0    0  501    0  0.00000000000E+00  0.00000000000E+00  0.31070928061E+03  0.31070928061E+03  0.00000000000E+00 0. -1.
         -2   -1    0    0    0  501 -0.00000000000E+00 -0.00000000000E+00 -0.47308671424E+02  0.47308671424E+02  0.00000000000E+00 0.  1.
         23    2    1    2    0    0  0.24876591502E+02  0.50881848617E+02  0.13548011055E+03  0.19289821531E+03  0.12508818406E+03 0.  0.
          5    1    3    3  502    0  0.75853201073E+02  0.32268555953E+02  0.74871404005E+02  0.11143683123E+03  0.41800000000E+01 0. -1.
         -5    1    3    3    0  502 -0.50976609571E+02  0.18613292665E+02  0.60608706543E+02  0.81461384079E+02  0.41800000000E+01 0. -1.
        -11    1    1    2    0    0  0.17967486823E+02 -0.16570312321E+02 -0.15533938631E+01  0.24491199759E+02  0.00000000000E+00 0.  1.
         11    1    1    2    0    0 -0.42844078326E+02 -0.34311536296E+02  0.12947389250E+03  0.14062853697E+03  0.00000000000E+00 0. -1.
</event>
<event>
 7    1  0.6506388E-006  0.1144185E+03  0.7561462E-02  0.1252600E+00
         -2   -1    0    0    0  501 -0.00000000000E+00  0.00000000000E+00  0.47913711694E+03  0.47913711694E+03  0.00000000000E+00 0.  1.
          2   -1    0    0  501    0  0.00000000000E+00 -0.00000000000E+00 -0.33462477016E+02  0.33462477016E+02  0.00000000000E+00 0. -1.
         23    2    1    2    0    0  0.14325988445E+02  0.61237051086E+02  0.26203293069E+03  0.29709237630E+03  0.12508961955E+03 0.  0.
          5    1    3    3  502    0  0.21242844676E+02 -0.23986273983E+02  0.14955897855E+02  0.35605492135E+02  0.41800000000E+01 0.  1.
         -5    1    3    3    0  502 -0.69168562309E+01  0.85223325069E+02  0.24707703284E+03  0.26148688417E+03  0.41800000000E+01 0.  1.
        -11    1    1    2    0    0 -0.52585030609E+02 -0.45546629436E+02  0.13328228168E+03  0.15034575986E+03  0.00000000000E+00 0.  1.
         11    1    1    2    0    0  0.38259042164E+02 -0.15690421650E+02  0.50359427547E+02  0.65161457793E+02  0.00000000000E+00 0. -1.
</event>
<event>
 7    1  0.6506388E-006  0.9950917E+02  0.7561462E-02  0.1281331E+00
          1   -1    0    0  501    0  0.00000000000E+00  0.00000000000E+00  0.10314543991E+03  0.10314543991E+03  0.00000000000E+00 0. -1.
         -1   -1    0    0    0  501 -0.00000000000E+00 -0.00000000000E+00 -0.14615225544E+03  0.14615225544E+03  0.00000000000E+00 0.  1.
         23    2    1    2    0    0  0.34387321536E+02  0.44256736579E+02 -0.37521956997E+02  0.14211693021E+03  0.12509267757E+03 0.  0.
          5    1    3    3  502    0 -0.37555761244E+02  0.49476591487E+02 -0.37733722311E+01  0.62370498201E+02  0.41800000000E+01 0.  1.
         -5    1    3    3    0  502  0.71943082780E+02 -0.52198549086E+01 -0.33748584766E+02  0.79746432013E+02  0.41800000000E+01 0.  1.
        -11    1    1    2    0    0 -0.24415017600E+02 -0.62314618478E+01 -0.44916188811E+02  0.51501341909E+02  0.00000000000E+00 0.  1.
         11    1    1    2    0    0 -0.99723039367E+01 -0.38025274731E+02  0.39431330274E+02  0.55679423231E+02  0.00000000000E+00 0. -1.
</event>
<event>
 7    1  0.6506388E-006  0.1430707E+03  0.7561462E-02  0.1209256E+00
          1   -1    0    0  501    0  0.00000000000E+00  0.00000000000E+00  0.69009046704E+03  0.69009046704E+03  0.00000000000E+00 0. -1.
         -1   -1    0    0    0  501 -0.00000000000E+00 -0.00000000000E+00 -0.70705960371E+02  0.70705960371E+02  0.00000000000E+00 0.  1.
         23    2    1    2    0    0 -0.70544636293E+02  0.10738221385E+03  0.76137745681E+02  0.19481231438E+03  0.12508955174E+03 0.  0.
          5    1    3    3  502    0 -0.12399295935E+02  0.10426727764E+02  0.79885552531E+02  0.81618828066E+02  0.41800000000E+01 0. -1.
         -5    1    3    3    0  502 -0.58145340358E+02  0.96955486085E+02 -0.37478068509E+01  0.11319348631E+03  0.41800000000E+01 0. -1.
        -11    1    1    2    0    0 -0.21149843575E+02 -0.27322212250E+02  0.82826161479E+02  0.89744037077E+02  0.00000000000E+00 0. -1.
         11    1    1    2    0    0  0.91694479868E+02 -0.80060001599E+02  0.46042059951E+03  0.47624007596E+03  0.00000000000E+00 0.  1.
</event>
<event>
 7    1  0.6506388E-006  0.9655995E+02  0.7561462E-02  0.1287701E+00
          1   -1    0    0  501    0  0.00000000000E+00  0.00000000000E+00  0.42373552255E+02  0.42373552255E+02  0.00000000000E+00 0. -1.
         -1   -1    0    0    0  501 -0.00000000000E+00 -0.00000000000E+00 -0.33480334675E+03  0.33480334675E+03  0.00000000000E+00 0.  1.
         23    2    1    2    0    0  0.47632126433E+02 -0.80878770609E+01 -0.18970363711E+03  0.23231291150E+03  0.12509031014E+03 0.  0.
          5    1    3    3  502    0 -0.18544320591E+02  0.15857676539E+02 -0.14872015149E+03  0.15076642064E+03  0.41800000000E+01 0.  1.
         -5    1    3    3    0  502  0.66176447025E+02 -0.23945553600E+02 -0.40983485615E+02  0.81546490857E+02  0.41800000000E+01 0.  1.
        -11    1    1    2    0    0  0.18694212384E+02 -0.18599679307E+02 -0.48228528920E+02  0.54967378041E+02  0.00000000000E+00 0.  1.
         11    1    1    2    0    0 -0.66326338817E+02  0.26687556368E+02 -0.54497628470E+02  0.89896609473E+02  0.00000000000E+00 0. -1.
</event>
<event>
 7    1  0.6506388E-006  0.1070630E+03  0.7561462E-02  0.1266107E+00
         -2   -1    0    0    0  501 -0.00000000000E+00  0.00000000000E+00  0.20829237979E+02  0.20829237979E+02  0.00000000000E+00 0.  1.
          2   -1    0    0  501    0  0.00000000000E+00 -0.00000000000E+00 -0.69033384508E+03  0.69033384508E+03  0.00000000000E+00 0. -1.
         23    2    1    2    0    0 -0.57210979365E+01  0.10419049728E+02 -0.23636695801E+03  0.26768892530E+03  0.12508690712E+03 0.  0.
          5    1    3    3  502    0 -0.54056399625E+02 -0.24573723777E+02 -0.76057091762E+02  0.96582171480E+02  0.41800000000E+01 0. -1.
         -5    1    3    3    0  502  0.48335301688E+02  0.34992773505E+02 -0.16030986625E+03  0.17110675382E+03  0.41800000000E+01 0. -1.
        -11    1    1    2    0    0 -0.26217164827E+02 -0.42227908999E+02 -0.24756834268E+03  0.25250865397E+03  0.00000000000E+00 0. -1.
         11    1    1    2    0    0  0.31938262764E+02  0.31808859271E+02 -0.18556930641E+03  0.19096550379E+03  0.00000000000E+00 0.  1.
</event>
<event>
 7    1  0.6506388E-006  0.7765070E+02  0.7561462E-02  0.1335854E+00
          2   -1    0    0  501    0  0.00000000000E+00  0.00000000000E+00  0.50873659436E+03  0.50873659436E+03  0.00000000000E+00 0. -1.
         -2   -1    0    0    0  501 -0.00000000000E+00 -0.00000000000E+00 -0.23756798804E+02  0.23756798804E+02  0.00000000000E+00 0.  1.
         23    2    1    2    0    0 -0.13719723259E+02  0.14747014991E+02  0.25184730363E+03  0.28192234886E+03  0.12508973253E+03 0.  0.
          5    1    3    3  502    0  0.24998284202E+02  0.50204845913E+00  0.23627056045E+03  0.23762663235E+03  0.41800000000E+01 0.  1.
         -5    1    3    3    0  502 -0.38718007461E+02  0.14244966532E+02  0.15576743179E+02  0.44295716512E+02  0.41800000000E+01 0.  1.
        -11    1    1    2    0    0  0.18894760810E+02 -0.49689608518E+02  0.10544706378E+03  0.11808959497E+03  0.00000000000E+00 0. -1.
         11    1    1    2    0    0 -0.51750375511E+01  0.34942593527E+02  0.12768542815E+03  0.13248144933E+03  0.00000000000E+00 0.  1.
</event>
<event>
 7    1  0.6506388E-006  0.7557206E+02  0.7561462E-02  0.1342109E+00
         -1   -1    0    0    0  501 -0.00000000000E+00  0.00000000000E+00  0.11820780433E+04  0.11820780433E+04  0.00000000000E+00 0.  1.
          1   -1    0    0  501    0  0.00000000000E+00 -0.00000000000E+00 -0.15682209909E+02  0.15682209909E+02  0.00000000000E+00 0. -1.
         23    2    1    2    0    0 -0.32848221148E+02  0.54190864872E+01  0.96028473798E+03  0.96897001439E+03  0.12509092155E+03 0.  0.
          5    1    3    3  502    0  0.97529260282E+01  0.10270403159E+02  0.85613408459E+03  0.85626143434E+03  0.41800000000E+01 0.  1.
         -5    1    3    3    0  502 -0.42601147177E+02 -0.48513166719E+01  0.10415065339E+03  0.11270858005E+03  0.41800000000E+01 0.  1.
        -11    1    1    2    0    0  0.58920191749E+02 -0.21435769058E+02  0.17145345553E+03  0.18255785002E+03  0.00000000000E+00 0.  1.
         11    1    1    2    0    0 -0.26071970601E+02  0.16016682570E+02  0.34657639861E+02  0.46232388780E+02  0.00000000000E+00 0. -1.
</event>
<event>
 7    1  0.6506388E-006  0.8612012E+02  0.7561462E-02  0.1312529E+00
          1   -1    0    0  501    0  0.00000000000E+00  0.00000000000E+00  0.13899678924E+03  0.13899678924E+03  0.00000000000E+00 0. -1.
         -1   -1    0    0    0  501 -0.00000000000E+00 -0.00000000000E+00 -0.94566740971E+02  0.94566740971E+02  0.00000000000E+00 0.  1.
         23    2    1    2    0    0 -0.17183270151E+02 -0.30053482743E+02  0.13088282168E+02  0.13045035778E+03  0.12509003205E+03 0.  0.
          5    1    3    3  502    0 -0.19028058074E+02 -0.51149793106E+02  0.58534659589E+02  0.80138299845E+02  0.41800000000E+01 0.  1.
         -5    1    3    3    0  502  0.18447879230E+01  0.21096310363E+02 -0.45446377420E+02  0.50312057939E+02  0.41800000000E+01 0.  1.
        -11    1    1    2    0    0 -0.33421342807E+02 -0.57748095989E+01  0.21955649128E+02  0.40402785913E+02  0.00000000000E+00 0. -1.
         11    1    1    2    0    0  0.50604612958E+02  0.35828292342E+02  0.93861169702E+01  0.62710386512E+02  0.00000000000E+00 0.  1.
</event>
<event>
 7    1  0.6506388E-006  0.1173159E+03  0.7561462E-02  0.1247592E+00
         -1   -1    0    0    0  501 -0.00000000000E+00  0.00000000000E+00  0.88429843608E+02  0.88429843608E+02  0.00000000000E+00 0.  1.
          1   -1    0    0  501    0  0.00000000000E+00 -0.00000000000E+00 -0.16655757518E+03  0.16655757518E+03  0.00000000000E+00 0. -1.
         23    2    1    2    0    0  0.19256615257E+01  0.52014442969E+02 -0.25036910427E+02  0.13777962786E+03  0.12508864265E+03 0.  0.
          5    1    3    3  502    0  0.38100040439E+02  0.79023051644E+02 -0.43235052557E+01  0.87934184879E+02  0.41800000000E+01 0.  1.
         -5    1    3    3    0  502 -0.36174378913E+02 -0.27008608675E+02 -0.20713405171E+02  0.49845442982E+02  0.41800000000E+01 0.  1.
        -11    1    1    2    0    0  0.39719083705E+02 -0.73400719526E+01 -0.35172368329E+02  0.53559105299E+02  0.00000000000E+00 0.  1.
         11    1    1    2    0    0 -0.41644745230E+02 -0.44674371016E+02 -0.17918452819E+02  0.63648685630E+02  0.00000000000E+00 0. -1.
</event>
<event>
 7    1  0.6506388E-006  0.2430614E+03  0.7561462E-02  0.1117770E+00
          2   -1    0    0  501    0  0.00000000000E+00  0.00000000000E+00  0.18192714713E+03  0.18192714713E+03  0.00000000000E+00 0. -1.
         -2   -1    0    0    0  501 -0.00000000000E+00 -0.00000000000E+00 -0.47176691289E+03  0.47176691289E+03  0.00000000000E+00 0.  1.
         23    2    1    2    0    0 -0.22707862720E+03 -0.67253161331E+02 -0.30161542169E+03  0.40337019875E+03  0.12509182227E+03 0.  0.
          5    1    3    3  502    0 -0.97508880899E+02  0.10396071829E+02 -0.50718384512E+02  0.11048025657E+03  0.41800000000E+01 0.  1.
         -5    1    3    3    0  502 -0.12956974630E+03 -0.77649233159E+02 -0.25089703717E+03  0.29288994218E+03  0.41800000000E+01 0.  1.
        -11    1    1    2    0    0  0.98579690993E+02  0.31167625034E+02 -0.34602264463E+02  0.10902611170E+03  0.00000000000E+00 0.  1.
         11    1    1    2    0    0  0.12849893621E+03  0.36085536297E+02  0.46377920385E+02  0.14129774957E+03  0.00000000000E+00 0. -1.
</event>
<event>
 7    1  0.6506388E-006  0.1183234E+03  0.7561462E-02  0.1245889E+00
          2   -1    0    0  501    0  0.00000000000E+00  0.00000000000E+00  0.22393623336E+02  0.22393623336E+02  0.00000000000E+00 0. -1.
         -2   -1    0    0    0  501 -0.00000000000E+00 -0.00000000000E+00 -0.84998559067E+03  0.84998559067E+03  0.00000000000E+00 0.  1.
         23    2    1    2    0    0 -0.68687331867E+02  0.49659197696E+02 -0.47979299639E+03  0.50302349922E+03  0.12508931173E+03 0.  0.
          5    1    3    3  502    0 -0.83672385468E+02  0.48278830363E+02 -0.19358599985E+03  0.21639067745E+03  0.41800000000E+01 0. -1.
         -5    1    3    3    0  502  0.14985053601E+02  0.13803673338E+01 -0.28620699654E+03  0.28663282177E+03  0.41800000000E+01 0. -1.
        -11    1    1    2    0    0  0.49845290180E+02  0.18844542843E+02 -0.14905298767E+03  0.15829233362E+03  0.00000000000E+00 0.  1.
         11    1    1    2    0    0  0.18842041687E+02 -0.68503740539E+02 -0.19874598327E+03  0.21106338116E+03  0.00000000000E+00 0. -1.
</event>
<event>
 7    1  0.6506388E-006  0.1535095E+03  0.7561462E-02  0.1196226E+00
          2   -1    0    0  501    0  0.00000000000E+00  0.00000000000E+00  0.41519016269E+03  0.41519016269E+03  0.00000000000E+00 0.  1.
         -2   -1    0    0    0  501 -0.00000000000E+00 -0.00000000000E+00 -0.60195351940E+02  0.60195351940E+02  0.00000000000E+00 0. -1.
         23    2    1    2    0    0 -0.51458212408E+02  0.84733424364E+02  0.22320883072E+03  0.27440521378E+03  0.12509331880E+03 0.  0.
          5    1    3    3  502    0  0.15358797390E+02  0.88189720589E+02  0.10105936134E+03  0.13506956130E+03  0.41800000000E+01 0. -1.
         -5    1    3    3    0  502 -0.66817009798E+02 -0.34562962250E+01  0.12214946938E+03  0.13933565248E+03  0.41800000000E+01 0. -1.
        -11    1    1    2    0    0 -0.16873628012E+02 -0.80122800857E+02  0.58215465713E+02  0.10046602902E+03  0.00000000000E+00 0. -1.
         11    1    1    2    0    0  0.68331840421E+02 -0.46106235069E+01  0.73570514313E+02  0.10051427183E+03  0.00000000000E+00 0.  1.
</event>
<event>
 7    1  0.6506388E-006  0.1149041E+03  0.7561462E-02  0.1251749E+00
         -2   -1    0    0    0  501 -0.00000000000E+00  0.00000000000E+00  0.74917887270E+02  0.74917887270E+02  0.00000000000E+00 0.  1.
          2   -1    0    0  501    0  0.00000000000E+00 -0.00000000000E+00 -0.28142695839E+03  0.28142695839E+03  0.00000000000E+00 0. -1.
         23    2    1    2    0    0 -0.83763911047E+02 -0.14924814082E+02 -0.55387072023E+02  0.16111449908E+03  0.12510400153E+03 0.  0.
          5    1    3    3  502    0 -0.75595267068E+02  0.24536114232E+02  0.13957965299E+02  0.80801995643E+02  0.41800000000E+01 0.  1.
         -5    1    3    3    0  502 -0.81686439791E+01 -0.39460928313E+02 -0.69345037322E+02  0.80312503441E+02  0.41800000000E+01 0.  1.
        -11    1    1    2    0    0  0.17994290766E+02 -0.26461073429E+02 -0.89829143268E+01  0.33236661339E+02  0.00000000000E+00 0.  1.
         11    1    1    2    0    0  0.65769620281E+02  0.41385887511E+02 -0.14213908477E+03  0.16199368524E+03  0.00000000000E+00 0. -1.
</event>
<event>
 7    1  0.6506388E-006  0.7870070E+02  0.7561462E-02  0.1332780E+00
          2   -1    0    0  501    0  0.00000000000E+00  0.00000000000E+00  0.37080061572E+03  0.37080061572E+03  0.00000000000E+00 0.  1.
         -2   -1    0    0    0  501 -0.00000000000E+00 -0.00000000000E+00 -0.37896799625E+02  0.37896799625E+02  0.00000000000E+00 0. -1.
         23    2    1    2    0    0 -0.25535543537E+02  0.35619734802E+02  0.14871788282E+03  0.19920442948E+03  0.12507824176E+03 0.  0.
          5    1    3    3  502    0 -0.32119994249E+02  0.14991760742E+02 -0.11482265351E+02  0.37493489279E+02  0.41800000000E+01 0.  1.
         -5    1    3    3    0  502  0.65844507125E+01  0.20627974060E+02  0.16020014818E+03  0.16171094020E+03  0.41800000000E+01 0.  1.
        -11    1    1    2    0    0 -0.17336012468E+02  0.21891232099E+02  0.46446986619E+02  0.54194888477E+02  0.00000000000E+00 0.  1.
         11    1    1    2    0    0  0.42871556005E+02 -0.57510966900E+02  0.13773894665E+03  0.15529809739E+03  0.00000000000E+00 0. -1.
</event>
<event>
 7    1  0.6506388E-006  0.1374702E+03  0.7561462E-02  0.1216774E+00
         -3   -1    0    0    0  501 -0.00000000000E+00  0.00000000000E+00  0.11681150068E+03  0.11681150068E+03  0.00000000000E+00 0.  1.
          3   -1    0    0  501    0  0.00000000000E+00 -0.00000000000E+00 -0.23773470491E+03  0.23773470491E+03  0.00000000000E+00 0. -1.
         23    2    1    2    0    0 -0.12164488201E+03  0.41866148041E+01 -0.41879828189E+02  0.17948891226E+03  0.12508934628E+03 0.  0.
          5    1    3    3  502    0 -0.25007453953E+02 -0.34940222531E+02  0.30188145558E+02  0.52678159003E+02  0.41800000000E+01 0.  1.
         -5    1    3    3    0  502 -0.96637428061E+02  0.39126837335E+02 -0.72067973747E+02  0.12681075326E+03  0.41800000000E+01 0.  1.
        -11    1    1    2    0    0  0.66640484562E+02  0.16516815076E+02 -0.92078529907E+02  0.11485736821E+03  0.00000000000E+00 0. -1.
         11    1    1    2    0    0  0.55004397452E+02 -0.20703429881E+02  0.13035153861E+02  0.60199925117E+02  0.00000000000E+00 0.  1.
</event>
<event>
 7    1  0.6506388E-006  0.1016727E+03  0.7561462E-02  0.1276817E+00
          2   -1    0    0  501    0  0.00000000000E+00  0.00000000000E+00  0.91005274543E+03  0.91005274543E+03  0.00000000000E+00 0.  1.
         -2   -1    0    0    0  501 -0.00000000000E+00 -0.00000000000E+00 -0.14781020530E+02  0.14781020530E+02  0.00000000000E+00 0. -1.
         23    2    1    2    0    0  0.27042622921E+02 -0.19201330471E+02  0.41474192422E+03  0.43446324978E+03  0.12508979637E+03 0.  0.
          5    1    3    3  502    0  0.30254261790E+01  0.42076511869E+02  0.29259464586E+03  0.29564959874E+03  0.41800000000E+01 0.  1.
         -5    1    3    3    0  502  0.24017196742E+02 -0.61277842340E+02  0.12214727836E+03  0.13881365103E+03  0.41800000000E+01 0.  1.
        -11    1    1    2    0    0 -0.58493154603E+02  0.23933275759E+02  0.36988089057E+03  0.37524142100E+03  0.00000000000E+00 0. -1.
         11    1    1    2    0    0  0.31450531682E+02 -0.47319452878E+01  0.11064891012E+03  0.11512909519E+03  0.00000000000E+00 0.  1.
</event>
<event>
 7    1  0.6506388E-006  0.1281700E+03  0.7561462E-02  0.1230197E+00
         -1   -1    0    0    0  501 -0.00000000000E+00  0.00000000000E+00  0.11016127060E+04  0.11016127060E+04  0.00000000000E+00 0.  1.
          1   -1    0    0  501    0  0.00000000000E+00 -0.00000000000E+00 -0.21235390444E+02  0.21235390444E+02  0.00000000000E+00 0. -1.
         23    2    1    2    0    0 -0.12461733903E+02  0.68386346189E+02  0.88355347294E+03  0.89506764163E+03  0.12508939361E+03 0.  0.
          5    1    3    3  502    0 -0.35338751622E+02 -0.26992071640E+02  0.30236015115E+03  0.30564118292E+03  0.41800000000E+01 0. -1.
         -5    1    3    3    0  502  0.22877017720E+02  0.95378417829E+02  0.58119332179E+03  0.58942645871E+03  0.41800000000E+01 0. -1.
        -11    1    1    2    0    0 -0.29859768225E+02 -0.64410756788E+02  0.10706588331E+03  0.12846577255E+03  0.00000000000E+00 0.  1.
         11    1    1    2    0    0  0.42321502128E+02 -0.39755894004E+01  0.89757959297E+02  0.99314682251E+02  0.00000000000E+00 0. -1.
</event>
<event>
 7    1  0.6506388E-006  0.1310820E+03  0.7561462E-02  0.1225859E+00
          2   -1    0    0  501    0  0.00000000000E+00  0.00000000000E+00  0.62581071280E+03  0.62581071280E+03  0.00000000000E+00 0. -1.
         -2   -1    0    0    0  501 -0.00000000000E+00 -0.00000000000E+00 -0.34091420505E+02  0.34091420505E+02  0.00000000000E+00 0.  1.
         23    2    1    2    0    0  0.49961302211E+02  0.83749946805E+02  0.30495497823E+03  0.34373814071E+03  0.12509270693E+03 0.  0.
          5    1    3    3  502    0 -0.38502422830E+02  0.50636454750E+02  0.11232027974E+03  0.12915031844E+03  0.41800000000E+01 0. -1.
         -5    1    3    3    0  502  0.88463725041E+02  0.33113492055E+02  0.19263469849E+03  0.21458782227E+03  0.41800000000E+01 0. -1.
        -11    1    1    2    0    0 -0.35694314671E+02 -0.25435019113E+02  0.31602163794E+02  0.54034443215E+02  0.00000000000E+00 0.  1.
         11    1    1    2    0    0 -0.14266987541E+02 -0.58314927692E+02  0.25516215028E+03  0.26212954938E+03  0.00000000000E+00 0. -1.
</event>
<event>
 7    1  0.6506388E-006  0.1342790E+03  0.7561462E-02  0.1221241E+00
         -2   -1    0    0    0  501 -0.00000000000E+00  0.00000000000E+00  0.92812450109E+02  0.92812450109E+02  0.00000000000E+00 0.  1.
          2   -1    0    0  501    0  0.00000000000E+00 -0.00000000000E+00 -0.22434680757E+03  0.22434680757E+03  0.00000000000E+00 0. -1.
         23    2    1    2    0    0  0.41190097947E+01 -0.80766261663E+02 -0.18130502819E+02  0.15006113159E+03  0.12509785296E+03 0.  0.
          5    1    3    3  502    0 -0.22917432901E+01 -0.11397022171E+03 -0.72850765268E+01  0.11430226710E+03  0.41800000000E+01 0.  1.
         -5    1    3    3    0  502  0.64107530848E+01  0.33203960047E+02 -0.10845426292E+02  0.35758864487E+02  0.41800000000E+01 0.  1.
        -11    1    1    2    0    0 -0.45965813832E+02  0.31248342702E+02 -0.68600650769E+02  0.88291359989E+02  0.00000000000E+00 0. -1.
         11    1    1    2    0    0  0.41846804037E+02  0.49517918961E+02 -0.44803203872E+02  0.78806766103E+02  0.00000000000E+00 0.  1.
</event>
<event>
 7    1  0.6506388E-006  0.2064775E+03  0.7561462E-02  0.1144386E+00
         -2   -1    0    0    0  501 -0.00000000000E+00  0.00000000000E+00  0.46756816553E+02  0.46756816553E+02  0.00000000000E+00 0.  1.
          2   -1    0    0  501    0  0.00000000000E+00 -0.00000000000E+00 -0.10541663037E+04  0.10541663037E+04  0.00000000000E+00 0. -1.
         23    2    1    2    0    0  0.15778279165E+03 -0.85906168061E+02 -0.34593607152E+03  0.40938386914E+03  0.12509239659E+03 0.  0.
          5    1    3    3  502    0  0.15890431407E+03 -0.10753549320E+03 -0.27687215789E+03  0.33688295823E+03  0.41800000000E+01 0.  1.
         -5    1    3    3    0  502 -0.11215224158E+01  0.21629325140E+02 -0.69063913626E+02  0.72500910917E+02  0.41800000000E+01 0.  1.
        -11    1    1    2    0    0 -0.11909692574E+03  0.17476385561E+02 -0.45357906372E+03  0.46927973408E+03  0.00000000000E+00 0.  1.
         11    1    1    2    0    0 -0.38685865911E+02  0.68429782501E+02 -0.20789435189E+03  0.22225951701E+03  0.00000000000E+00 0. -1.
</event>
<event>
 7    1  0.6506388E-006  0.1410405E+03  0.7561462E-02  0.1211936E+00
          2   -1    0    0  501    0  0.00000000000E+00  0.00000000000E+00  0.64127748546E+02  0.64127748546E+02  0.00000000000E+00 0. -1.
         -2   -1    0    0    0  501 -0.00000000000E+00 -0.00000000000E+00 -0.40620758753E+03  0.40620758753E+03  0.00000000000E+00 0.  1.
         23    2    1    2    0    0 -0.69671038507E+02 -0.99212146530E+02 -0.21687226484E+03  0.27313802533E+03  0.11346231971E+03 0.  0.
          5    1    3    3  502    0 -0.33661780976E+02 -0.92670262521E+02 -0.68166348372E+02  0.11993755252E+03  0.41800000000E+01 0. -1.
         -5    1    3    3    0  502 -0.36009257531E+02 -0.65418840091E+01 -0.14870591647E+03  0.15320047281E+03  0.41800000000E+01 0.  1.
        -11    1    1    2    0    0  0.70334345306E+02  0.28569323747E+02 -0.37786667349E+02  0.84799520154E+02  0.00000000000E+00 0.  1.
         11    1    1    2    0    0 -0.66330679925E+00  0.70642822783E+02 -0.87420906794E+02  0.11239779060E+03  0.00000000000E+00 0. -1.
</event>
<event>
 7    1  0.6506388E-006  0.1611753E+03  0.7561462E-02  0.1187376E+00
         -2   -1    0    0    0  501 -0.00000000000E+00  0.00000000000E+00  0.13867503512E+03  0.13867503512E+03  0.00000000000E+00 0.  1.
          2   -1    0    0  501    0  0.00000000000E+00 -0.00000000000E+00 -0.22496463112E+03  0.22496463112E+03  0.00000000000E+00 0. -1.
         23    2    1    2    0    0  0.18231030306E+02 -0.13755856261E+03 -0.24400004547E+02  0.18841171523E+03  0.12509550592E+03 0.  0.
          5    1    3    3  502    0  0.59600997296E+02 -0.10754664678E+03  0.14730082674E+02  0.12390725502E+03  0.41800000000E+01 0. -1.
         -5    1    3    3    0  502 -0.41369966990E+02 -0.30011915829E+02 -0.39130087221E+02  0.64504460205E+02  0.41800000000E+01 0. -1.
        -11    1    1    2    0    0 -0.33873398047E+02  0.11921666345E+03 -0.18111879049E+02  0.12525198642E+03  0.00000000000E+00 0.  1.
         11    1    1    2    0    0  0.15642367740E+02  0.18341899155E+02 -0.43777712405E+02  0.49975964589E+02  0.00000000000E+00 0. -1.
</event>
<event>
 7    1  0.6506388E-006  0.1134080E+03  0.7561462E-02  0.1254386E+00
         -1   -1    0    0    0  501 -0.00000000000E+00  0.00000000000E+00  0.31933016119E+02  0.31933016119E+02  0.00000000000E+00 0.  1.
          1   -1    0    0  501    0  0.00000000000E+00 -0.00000000000E+00 -0.43888797571E+03  0.43888797571E+03  0.00000000000E+00 0. -1.
         23    2    1    2    0    0  0.44391732995E+02 -0.27444782578E+02 -0.19341727310E+03  0.23617526504E+03  0.12507866419E+03 0.  0.
          5    1    3    3  502    0  0.39334853505E+02 -0.73519358848E+02 -0.89946263790E+02  0.12271971967E+03  0.41800000000E+01 0. -1.
         -5    1    3    3    0  502  0.50568794895E+01  0.46074576270E+02 -0.10347100931E+03  0.11345554538E+03  0.41800000000E+01 0. -1.
        -11    1    1    2    0    0 -0.58757254497E+02  0.45070888262E+02 -0.17263653143E+03  0.18784880065E+03  0.00000000000E+00 0. -1.
         11    1    1    2    0    0  0.14365521502E+02 -0.17626105684E+02 -0.40901155062E+02  0.46796926127E+02  0.00000000000E+00 0.  1.
</event>
<event>
 7    1  0.6506388E-006  0.1335697E+03  0.7561462E-02  0.1222253E+00
         -3   -1    0    0    0  501 -0.00000000000E+00  0.00000000000E+00  0.13792954563E+03  0.13792954563E+03  0.00000000000E+00 0.  1.
          3   -1    0    0  501    0  0.00000000000E+00 -0.00000000000E+00 -0.18491113924E+03  0.18491113924E+03  0.00000000000E+00 0. -1.
         23    2    1    2    0    0 -0.33097934345E+02 -0.92947588284E+02  0.40008700116E+02  0.16426428015E+03  0.12508928900E+03 0.  0.
          5    1    3    3  502    0 -0.40816891735E+02  0.14224138835E+01  0.54660117729E+02  0.68361120400E+02  0.41800000000E+01 0. -1.
         -5    1    3    3    0  502  0.77189573894E+01 -0.94370002168E+02 -0.14651417613E+02  0.95903159752E+02  0.41800000000E+01 0. -1.
        -11    1    1    2    0    0 -0.21855149920E+02 -0.16381121581E+01 -0.23333594112E+02  0.32012303941E+02  0.00000000000E+00 0. -1.
         11    1    1    2    0    0  0.54953084265E+02  0.94585700442E+02 -0.63656699616E+02  0.12656410077E+03  0.00000000000E+00 0.  1.
</event>
<event>
 7    1  0.6506388E-006  0.9740989E+02  0.7561462E-02  0.1285839E+00
         -1   -1    0    0    0  501 -0.00000000000E+00  0.00000000000E+00  0.49735703706E+03  0.49735703706E+03  0.00000000000E+00 0.  1.
          1   -1    0    0  501    0  0.00000000000E+00 -0.00000000000E+00 -0.22455430944E+02  0.22455430944E+02  0.00000000000E+00 0. -1.
         23    2    1    2    0    0 -0.23447461140E+02  0.10619386432E+02  0.37696385192E+03  0.39801129485E+03  0.12509472560E+03 0.  0.
          5    1    3    3  502    0 -0.26020113273E+02 -0.55433547556E+02  0.17340172635E+03  0.18394443615E+03  0.41800000000E+01 0.  1.
         -5    1    3    3    0  502  0.25726521327E+01  0.66052933988E+02  0.20356212557E+03  0.21406685870E+03  0.41800000000E+01 0.  1.
        -11    1    1    2    0    0  0.33744106952E+02 -0.30069742154E+02  0.85006956555E+02  0.96275837103E+02  0.00000000000E+00 0.  1.
         11    1    1    2    0    0 -0.10296645813E+02  0.19450355722E+02  0.12930797638E+02  0.25525336046E+02  0.00000000000E+00 0. -1.
</event>
<event>
 6    1  0.6506388E-006  0.2065978E+03  0.7561462E-02  0.1144289E+00
          2   -1    0    0  501    0  0.00000000000E+00  0.00000000000E+00  0.69900925139E+02  0.69900925139E+02  0.00000000000E+00 0. -1.
         -2   -1    0    0    0  501 -0.00000000000E+00 -0.00000000000E+00 -0.72132839974E+03  0.72132839974E+03  0.00000000000E+00 0.  1.
          5    1    1    2  502    0 -0.62290429384E+02 -0.18479088099E+03 -0.45851208565E+03  0.49827559882E+03  0.41800000000E+01 0. -1.
         -5    1    1    2    0  502 -0.11695137370E+01  0.24590754438E+02 -0.35515257395E+02  0.43415191742E+02  0.41800000000E+01 0.  1.
        -11    1    1    2    0    0  0.17962688080E+02  0.14363505807E+03 -0.12523658758E+03  0.19141026864E+03  0.00000000000E+00 0.  1.
         11    1    1    2    0    0  0.45497255041E+02  0.16565068475E+02 -0.32163543968E+02  0.58128265676E+02  0.00000000000E+00 0. -1.
</event>
<event>
 7    1  0.6506388E-006  0.8837085E+02  0.7561462E-02  0.1306846E+00
         -1   -1    0    0    0  501 -0.00000000000E+00  0.00000000000E+00  0.62672151641E+02  0.62672151641E+02  0.00000000000E+00 0.  1.
          1   -1    0    0  501    0  0.00000000000E+00 -0.00000000000E+00 -0.23117716635E+03  0.23117716635E+03  0.00000000000E+00 0. -1.
         23    2    1    2    0    0  0.26809473102E+01 -0.40267773969E+02 -0.81778292823E+02  0.15753550080E+03  0.12845646630E+03 0.  0.
          5    1    3    3  502    0  0.32443358008E+01  0.46883071068E+02 -0.24509629962E+02  0.53167117925E+02  0.41800000000E+01 0. -1.
         -5    1    3    3    0  502 -0.56338849068E+00 -0.87150845037E+02 -0.57268662861E+02  0.10436838287E+03  0.41800000000E+01 0.  1.
        -11    1    1    2    0    0  0.48318440172E+01  0.97818175990E+01  0.21237884824E+02  0.23876315125E+02  0.00000000000E+00 0.  1.
         11    1    1    2    0    0 -0.75127913273E+01  0.30485956370E+02 -0.10796460671E+03  0.11243750206E+03  0.00000000000E+00 0. -1.
</event>
<event>
 7    1  0.6506388E-006  0.1681027E+03  0.7561462E-02  0.1179841E+00
          2   -1    0    0  501    0  0.00000000000E+00  0.00000000000E+00  0.18188174228E+03  0.18188174228E+03  0.00000000000E+00 0. -1.
         -2   -1    0    0    0  501 -0.00000000000E+00 -0.00000000000E+00 -0.20832293103E+03  0.20832293103E+03  0.00000000000E+00 0.  1.
         23    2    1    2    0    0 -0.42656417524E+02 -0.15533413871E+03 -0.22399199831E+02  0.20517879183E+03  0.12509335658E+03 0.  0.
          5    1    3    3  502    0  0.14295864817E+02 -0.82602377608E+01 -0.42828159733E+02  0.46090421400E+02  0.41800000000E+01 0. -1.
         -5    1    3    3    0  502 -0.56952282341E+02 -0.14707390095E+03  0.20428959902E+02  0.15908837043E+03  0.41800000000E+01 0. -1.
        -11    1    1    2    0    0  0.24560480423E+02  0.70375914715E+02  0.43193843521E+02  0.86149258202E+02  0.00000000000E+00 0. -1.
         11    1    1    2    0    0  0.18095937101E+02  0.84958223994E+02 -0.47235832434E+02  0.98876623272E+02  0.00000000000E+00 0.  1.
</event>
<event>
 7    1  0.6506388E-006  0.1295224E+03  0.7561462E-02  0.1228166E+00
          1   -1    0    0  501    0  0.00000000000E+00  0.00000000000E+00  0.43238419830E+02  0.43238419830E+02  0.00000000000E+00 0. -1.
         -1   -1    0    0    0  501 -0.00000000000E+00 -0.00000000000E+00 -0.44533582141E+03  0.44533582141E+03  0.00000000000E+00 0.  1.
         23    2    1    2    0    0 -0.47620360253E+02  0.70313997108E+02 -0.28005729629E+03  0.31468170768E+03  0.11567510986E+03 0.  0.
          5    1    3    3  502    0  0.36656223470E+02  0.87675291757E+01 -0.58107860395E+02  0.69386916106E+02  0.41800000000E+01 0. -1.
         -5    1    3    3    0  502 -0.84276583722E+02  0.61546467933E+02 -0.22194943589E+03  0.24529479157E+03  0.41800000000E+01 0.  1.
        -11    1    1    2    0    0  0.69438428466E+02 -0.42806316263E+02 -0.55515624312E+02  0.98671478161E+02  0.00000000000E+00 0. -1.
         11    1    1    2    0    0 -0.21818068213E+02 -0.27507680846E+02 -0.66524480979E+02  0.75221055401E+02  0.00000000000E+00 0.  1.
</event>
<event>
 7    1  0.6506388E-006  0.1103102E+03  0.7561462E-02  0.1259997E+00
          1   -1    0    0  501    0  0.00000000000E+00  0.00000000000E+00  0.23906261573E+03  0.23906261573E+03  0.00000000000E+00 0. -1.
         -1   -1    0    0    0  501 -0.00000000000E+00 -0.00000000000E+00 -0.93600225056E+02  0.93600225056E+02  0.00000000000E+00 0.  1.
         23    2    1    2    0    0 -0.74509828953E+02 -0.10486607573E+02  0.18747635732E+01  0.14598927920E+03  0.12509065255E+03 0.  0.
          5    1    3    3  502    0 -0.63446977002E+02 -0.38103995274E+02 -0.47609024788E+02  0.88099517523E+02  0.41800000000E+01 0. -1.
         -5    1    3    3    0  502 -0.11062851951E+02  0.27617387700E+02  0.49483788361E+02  0.57889761679E+02  0.41800000000E+01 0. -1.
        -11    1    1    2    0    0  0.12595468052E+02  0.44194479089E+02  0.37568913366E+02  0.59356727074E+02  0.00000000000E+00 0. -1.
         11    1    1    2    0    0  0.61914360901E+02 -0.33707871515E+02  0.10601871373E+03  0.12731683451E+03  0.00000000000E+00 0.  1.
</event>
<event>
 7    1  0.6506388E-006  0.1237416E+03  0.7561462E-02  0.1237049E+00
         -2   -1    0    0    0  501 -0.00000000000E+00  0.00000000000E+00  0.99451053194E+02  0.99451053194E+02  0.00000000000E+00 0.  1.
          2   -1    0    0  501    0  0.00000000000E+00 -0.00000000000E+00 -0.18135474544E+03  0.18135474544E+03  0.00000000000E+00 0. -1.
         23    2    1    2    0    0  0.69806164511E+02 -0.19563056769E+02 -0.13489673949E+02  0.14520766008E+03  0.12509068490E+03 0.  0.
          5    1    3    3  502    0  0.11592873357E+00  0.46854616935E+02  0.42299964592E+01  0.47230645112E+02  0.41800000000E+01 0. -1.
         -5    1    3    3    0  502  0.69690235778E+02 -0.66417673704E+02 -0.17719670409E+02  0.97977014970E+02  0.41800000000E+01 0. -1.
        -11    1    1    2    0    0 -0.24454052745E+02  0.45631183221E+02 -0.65110027088E+02  0.83183659485E+02  0.00000000000E+00 0. -1.
         11    1    1    2    0    0 -0.45352111766E+02 -0.26068126452E+02 -0.33039912121E+01  0.52414479071E+02  0.00000000000E+00 0.  1.
</event>
<event>
 7    1  0.6506388E-006  0.2095002E+03  0.7561462E-02  0.1141962E+00
          2   -1    0    0  501    0  0.00000000000E+00  0.00000000000E+00  0.74126701261E+03  0.74126701261E+03  0.00000000000E+00 0. -1.
         -2   -1    0    0    0  501 -0.00000000000E+00 -0.00000000000E+00 -0.65022082010E+02  0.65022082010E+02  0.00000000000E+00 0.  1.
         23    2    1    2    0    0 -0.17886352641E+03  0.63980836899E+02  0.32794100776E+03  0.39909660680E+03  0.12508832248E+03 0.  0.
          5    1    3    3  502    0 -0.10857430410E+03 -0.65166943659E+01  0.24975254727E+03  0.27244201967E+03  0.41800000000E+01 0.  1.
         -5    1    3    3    0  502 -0.70289222308E+02  0.70497531265E+02  0.78188460491E+02  0.12665458713E+03  0.41800000000E+01 0.  1.
        -11    1    1    2    0    0  0.11454413586E+03  0.69573419743E+01  0.17708616788E+03  0.21101723750E+03  0.00000000000E+00 0.  1.
         11    1    1    2    0    0  0.64319390549E+02 -0.70938178873E+02  0.17121775495E+03  0.19617525031E+03  0.00000000000E+00 0. -1.
</event>
<event>
 7    1  0.6506388E-006  0.8782977E+02  0.7561462E-02  0.1308194E+00
         -1   -1    0    0    0  501 -0.00000000000E+00  0.00000000000E+00  0.62817792679E+02  0.62817792679E+02  0.00000000000E+00 0.  1.
          1   -1    0    0  501    0  0.00000000000E+00 -0.00000000000E+00 -0.23995903706E+03  0.23995903706E+03  0.00000000000E+00 0. -1.
         23    2    1    2    0    0  0.13274583908E+02  0.43327854879E+02 -0.56564743356E+02  0.14457107126E+03  0.12509079449E+03 0.  0.
          5    1    3    3  502    0 -0.17298222153E+02 -0.12957507118E+02 -0.74694641415E+02  0.77870965940E+02  0.41800000000E+01 0.  1.
         -5    1    3    3    0  502  0.30572806061E+02  0.56285361996E+02  0.18129898058E+02  0.66700105316E+02  0.41800000000E+01 0.  1.
        -11    1    1    2    0    0 -0.34484861293E+02 -0.55247692785E+02 -0.11659612335E+03  0.13355212165E+03  0.00000000000E+00 0. -1.
         11    1    1    2    0    0  0.21210277386E+02  0.11919837907E+02 -0.39803776692E+01  0.24653636829E+02  0.00000000000E+00 0.  1.
</event>
<event>
 7    1  0.6506388E-006  0.1212409E+03  0.7561462E-02  0.1241064E+00
          1   -1    0    0  501    0  0.00000000000E+00  0.00000000000E+00  0.19156354416E+03  0.19156354416E+03  0.00000000000E+00 0. -1.
         -1   -1    0    0    0  501 -0.00000000000E+00 -0.00000000000E+00 -0.78751038619E+02  0.78751038619E+02  0.00000000000E+00 0.  1.
         23    2    1    2    0    0  0.34748923530E+02  0.44303640034E+02  0.78198000440E+02  0.15789982465E+03  0.12508847726E+03 0.  0.
          5    1    3    3  502    0 -0.33230569279E+01  0.82675170376E+02  0.44110565460E+02  0.93858621816E+02  0.41800000000E+01 0. -1.
         -5    1    3    3    0  502  0.38071980458E+02 -0.38371530341E+02  0.34087434980E+02  0.64041202833E+02  0.41800000000E+01 0. -1.
        -11    1    1    2    0    0 -0.10084026544E+02 -0.69459985552E+02  0.31847687408E+02  0.77075627648E+02  0.00000000000E+00 0. -1.
         11    1    1    2    0    0 -0.24664896986E+02  0.25156345517E+02  0.27668176947E+01  0.35339130483E+02  0.00000000000E+00 0.  1.
</event>
<event>
 7    1  0.6506388E-006  0.1348268E+03  0.7561462E-02  0.1220464E+00
          4   -1    0    0  501    0  0.00000000000E+00  0.00000000000E+00  0.25292894640E+02  0.25292894640E+02  0.00000000000E+00 0. -1.
         -4   -1    0    0    0  501 -0.00000000000E+00 -0.00000000000E+00 -0.85636173033E+03  0.85636173033E+03  0.00000000000E+00 0.  1.
         23    2    1    2    0    0  0.74812825825E+02  0.55187903984E+02 -0.49765743042E+03  0.52149138113E+03  0.12509068264E+03 0.  0.
          5    1    3    3  502    0  0.10409159105E+03  0.17709165651E+02 -0.29719142557E+03  0.31541859442E+03  0.41800000000E+01 0.  1.
         -5    1    3    3    0  502 -0.29278765221E+02  0.37478738332E+02 -0.20046600485E+03  0.20607278671E+03  0.41800000000E+01 0.  1.
        -11    1    1    2    0    0 -0.15174559284E+02 -0.54526682503E+02 -0.69671982076E+02  0.89764199103E+02  0.00000000000E+00 0. -1.
         11    1    1    2    0    0 -0.59638266542E+02 -0.66122148101E+00 -0.26373942320E+03  0.27039904475E+03  0.00000000000E+00 0.  1.
</event>
<event>
 7    1  0.6506388E-006  0.2559366E+03  0.7561462E-02  0.1109609E+00
          4   -1    0    0  501    0  0.00000000000E+00  0.00000000000E+00  0.19041336655E+03  0.19041336655E+03  0.00000000000E+00 0. -1.
         -4   -1    0    0    0  501 -0.00000000000E+00 -0.00000000000E+00 -0.43551510750E+03  0.43551510750E+03  0.00000000000E+00 0.  1.
         23    2    1    2    0    0  0.19471955747E+03  0.15768591019E+03 -0.22337764437E+03  0.35821865757E+03  0.12506990963E+03 0.  0.
          5    1    3    3  502    0  0.10993487875E+03  0.56649325558E+02 -0.18169213800E+03  0.21982795333E+03  0.41800000000E+01 0. -1.
         -5    1    3    3    0  502  0.84784678726E+02  0.10103658463E+03 -0.41685506365E+02  0.13839070425E+03  0.41800000000E+01 0. -1.
        -11    1    1    2    0    0 -0.24706211297E+02 -0.47584851845E+02 -0.36120238877E+02  0.64648175986E+02  0.00000000000E+00 0.  1.
         11    1    1    2    0    0 -0.17001334618E+03 -0.11010105835E+03  0.14396142291E+02  0.20306164049E+03  0.00000000000E+00 0. -1.
</event>
<event>
 7    1  0.6506388E-006  0.1058958E+03  0.7561462E-02  0.1268365E+00
          2   -1    0    0  501    0  0.00000000000E+00  0.00000000000E+00  0.22958452625E+03  0.22958452625E+03  0.00000000000E+00 0. -1.
         -2   -1    0    0    0  501 -0.00000000000E+00 -0.00000000000E+00 -0.59870185927E+02  0.59870185927E+02  0.00000000000E+00 0.  1.
         23    2    1    2    0    0  0.96435488734E+01  0.23522349582E+02  0.73392000716E+02  0.14723012813E+03  0.12507608043E+03 0.  0.
          5    1    3    3  502    0  0.96242958142E+01  0.75128672203E+02  0.43789098784E+02  0.87589394502E+02  0.41800000000E+01 0. -1.
         -5    1    3    3    0  502  0.19253059201E-01 -0.51606322622E+02  0.29602901933E+02  0.59640733631E+02  0.41800000000E+01 0. -1.
        -11    1    1    2    0    0 -0.43487355110E+02 -0.98737569799E+00  0.91457253333E+02  0.10127464714E+03  0.00000000000E+00 0. -1.
         11    1    1    2    0    0  0.33843806237E+02 -0.22534973884E+02  0.48650862764E+01  0.40949936911E+02  0.00000000000E+00 0.  1.
</event>
<event>
 7    1  0.7343437E-006  0.2195378E+03  0.7561462E-02  0.1134228E+00
         -1   -1    0    0    0  501 -0.00000000000E+00  0.00000000000E+00  0.71503357053E+02  0.71503357053E+02  0.00000000000E+00 0.  1.
          1   -1    0    0  501    0  0.00000000000E+00 -0.00000000000E+00 -0.74687642442E+03  0.74687642442E+03  0.00000000000E+00 0. -1.
         23    2    1    2    0    0 -0.99823761377E+02 -0.17748208201E+03 -0.34229888691E+03  0.41746963711E+03  0.12509075570E+03 0.  0.
          5    1    3    3  502    0 -0.10812356447E+03 -0.19057618321E+03 -0.29482813461E+03  0.36735689481E+03  0.41800000000E+01 0.  1.
         -5    1    3    3    0  502  0.82998030963E+01  0.13094101203E+02 -0.47470752294E+02  0.50112742303E+02  0.41800000000E+01 0.  1.
        -11    1    1    2    0    0  0.83114057885E+02  0.13969369064E+03 -0.31761752446E+03  0.35679569177E+03  0.00000000000E+00 0. -1.
         11    1    1    2    0    0  0.16709703492E+02  0.37788391368E+02 -0.15456656005E+02  0.44114452596E+02  0.00000000000E+00 0.  1.
</event>
<event>
 7    1  0.6506388E-006  0.9969635E+02  0.7561462E-02  0.1280936E+00
          2   -1    0    0  501    0  0.00000000000E+00  0.00000000000E+00  0.37867270483E+03  0.37867270483E+03  0.00000000000E+00 0. -1.
         -2   -1    0    0    0  501 -0.00000000000E+00 -0.00000000000E+00 -0.45856472805E+02  0.45856472805E+02  0.00000000000E+00 0.  1.
         23    2    1    2    0    0 -0.51888848808E+02 -0.15026347865E+02  0.10022504813E+03  0.16914993208E+03  0.12509354695E+03 0.  0.
          5    1    3    3  502    0  0.73860144340E+01  0.23337362874E+02  0.95039246192E+02  0.98229916175E+02  0.41800000000E+01 0.  1.
         -5    1    3    3    0  502 -0.59274863242E+02 -0.38363710739E+02  0.51858019385E+01  0.70920015904E+02  0.41800000000E+01 0.  1.
        -11    1    1    2    0    0  0.20456900949E+02 -0.37442618537E+02  0.74252971070E+02  0.85638415399E+02  0.00000000000E+00 0. -1.
         11    1    1    2    0    0  0.31431947859E+02  0.52468966402E+02  0.15833821283E+03  0.16974083016E+03  0.00000000000E+00 0.  1.
</event>
<event>
 7    1  0.6506388E-006  0.1534481E+03  0.7561462E-02  0.1196299E+00
          2   -1    0    0  501    0  0.00000000000E+00  0.00000000000E+00  0.24845309722E+03  0.24845309722E+03  0.00000000000E+00 0.  1.
         -2   -1    0    0    0  501 -0.00000000000E+00 -0.00000000000E+00 -0.10230071625E+03  0.10230071625E+03  0.00000000000E+00 0. -1.
         23    2    1    2    0    0 -0.47243250542E+02 -0.10485901028E+03  0.50305228658E+02  0.17722545441E+03  0.12510359269E+03 0.  0.
          5    1    3    3  502    0  0.16227354687E+02 -0.10476897618E+03  0.35869141828E+02  0.11199970154E+03  0.41800000000E+01 0. -1.
         -5    1    3    3    0  502 -0.63470605229E+02 -0.90034094703E-01  0.14436086830E+02  0.65225752869E+02  0.41800000000E+01 0. -1.
        -11    1    1    2    0    0  0.52965460380E+02  0.11439759861E+03  0.10074503233E+03  0.16137444687E+03  0.00000000000E+00 0.  1.
         11    1    1    2    0    0 -0.57222098381E+01 -0.95385883388E+01 -0.48978800205E+01  0.12153912194E+02  0.00000000000E+00 0. -1.
</event>
<event>
 7    1  0.6506388E-006  0.9831731E+02  0.7561462E-02  0.1283875E+00
          2   -1    0    0  501    0  0.00000000000E+00  0.00000000000E+00  0.15675252401E+03  0.15675252401E+03  0.00000000000E+00 0. -1.
         -2   -1    0    0    0  501 -0.00000000000E+00 -0.00000000000E+00 -0.91831703319E+02  0.91831703319E+02  0.00000000000E+00 0.  1.
         23    2    1    2    0    0  0.35983568860E+02 -0.32295684909E+02  0.17508351728E+02  0.13524764067E+03  0.12509018121E+03 0.  0.
          5    1    3    3  502    0 -0.27315127838E+02  0.74818418475E+01 -0.33938533999E+02  0.44400345227E+02  0.41800000000E+01 0.  1.
         -5    1    3    3    0  502  0.63298696698E+02 -0.39777526756E+02  0.51446885727E+02  0.90847295444E+02  0.41800000000E+01 0.  1.
        -11    1    1    2    0    0  0.17956046112E+02  0.34771324903E+02 -0.32830941469E+01  0.39271406069E+02  0.00000000000E+00 0.  1.
         11    1    1    2    0    0 -0.53939614972E+02 -0.24756399942E+01  0.50695563114E+02  0.74065180592E+02  0.00000000000E+00 0. -1.
</event>
<event>
 7    1  0.6506388E-006  0.9214998E+02  0.7561462E-02  0.1297727E+00
         -2   -1    0    0    0  501 -0.00000000000E+00  0.00000000000E+00  0.17049806384E+03  0.17049806384E+03  0.00000000000E+00 0.  1.
          2   -1    0    0  501    0  0.00000000000E+00 -0.00000000000E+00 -0.85656300824E+02  0.85656300824E+02  0.00000000000E+00 0. -1.
         23    2    1    2    0    0  0.38041271353E+02  0.32721148062E+02  0.66979070377E+02  0.15050417480E+03  0.12508996325E+03 0.  0.
          5    1    3    3  502    0  0.63920808521E+02  0.53657194705E+02  0.78876085794E+02  0.11490810944E+03  0.41800000000E+01 0. -1.
         -5    1    3    3    0  502 -0.25879537167E+02 -0.20936046643E+02 -0.11897015417E+02  0.35596065356E+02  0.41800000000E+01 0. -1.
        -11    1    1    2    0    0 -0.31953782137E+02  0.19262538659E+01 -0.31581861587E+02  0.44968529308E+02  0.00000000000E+00 0. -1.
         11    1    1    2    0    0 -0.60874892163E+01 -0.34647401928E+02  0.49444554229E+02  0.60681660560E+02  0.00000000000E+00 0.  1.
</event>
<event>
 7    1  0.6506388E-006  0.1545000E+03  0.7561462E-02  0.1195050E+00
         -1   -1    0    0    0  501 -0.00000000000E+00  0.00000000000E+00  0.17817980726E+03  0.17817980726E+03  0.00000000000E+00 0.  1.
          1   -1    0    0  501    0  0.00000000000E+00 -0.00000000000E+00 -0.15419604891E+03  0.15419604891E+03  0.00000000000E+00 0. -1.
         23    2    1    2    0    0 -0.81181556663E+02  0.83692425045E+02  0.59920435800E+02  0.18119851471E+03  0.12509027122E+03 0.  0.
          5    1    3    3  502    0 -0.89542825214E+02  0.10627902871E+03  0.68882849718E+02  0.15516271742E+03  0.41800000000E+01 0.  1.
         -5    1    3    3    0  502  0.83612685512E+01 -0.22586603669E+02 -0.89624139179E+01  0.26035797286E+02  0.41800000000E+01 0.  1.
        -11    1    1    2    0    0  0.40816572759E+02  0.11262918354E+02 -0.19806039754E+02  0.46745322251E+02  0.00000000000E+00 0. -1.
         11    1    1    2    0    0  0.40364983904E+02 -0.94955343399E+02 -0.16130637699E+02  0.10443201922E+03  0.00000000000E+00 0.  1.
</event>
<event>
 7    1  0.6506388E-006  0.2483242E+03  0.7561462E-02  0.1114368E+00
         -1   -1    0    0    0  501 -0.00000000000E+00  0.00000000000E+00  0.22510398727E+03  0.22510398727E+03  0.00000000000E+00 0.  1.
          1   -1    0    0  501    0  0.00000000000E+00 -0.00000000000E+00 -0.46257484216E+03  0.46257484216E+03  0.00000000000E+00 0. -1.
         23    2    1    2    0    0 -0.22424148706E+03  0.74037051959E+02  0.82910552602E+02  0.27979764071E+03  0.12508729125E+03 0.  0.
          5    1    3    3  502    0 -0.12832048790E+03  0.88236109802E+02  0.94255470023E+02  0.18208054459E+03  0.41800000000E+01 0. -1.
         -5    1    3    3    0  502 -0.95920999160E+02 -0.14199057843E+02 -0.11344917420E+02  0.97717096123E+02  0.41800000000E+01 0. -1.
        -11    1    1    2    0    0  0.16883380509E+01 -0.12897849971E+02  0.19918026115E-01  0.13007898216E+02  0.00000000000E+00 0.  1.
         11    1    1    2    0    0  0.22255314901E+03 -0.61139201988E+02 -0.32040132552E+03  0.39487329050E+03  0.00000000000E+00 0. -1.
</event>
<event>
 7    1  0.6506388E-006  0.1033462E+03  0.7561462E-02  0.1273413E+00
          4   -1    0    0  501    0  0.00000000000E+00  0.00000000000E+00  0.21293542305E+03  0.21293542305E+03  0.00000000000E+00 0. -1.
         -4   -1    0    0    0  501 -0.00000000000E+00 -0.00000000000E+00 -0.90780683415E+02  0.90780683415E+02  0.00000000000E+00 0.  1.
         23    2    1    2    0    0 -0.86586645309E+02 -0.91005019701E+01  0.54917959866E+02  0.16200027046E+03  0.12509212218E+03 0.  0.
          5    1    3    3  502    0 -0.49792358134E+02 -0.12926231904E+02 -0.36551959959E+02  0.63244640694E+02  0.41800000000E+01 0.  1.
         -5    1    3    3    0  502 -0.36794287175E+02  0.38257299335E+01  0.91469919825E+02  0.98755629769E+02  0.41800000000E+01 0.  1.
        -11    1    1    2    0    0  0.91733624481E+02  0.29854381412E+02  0.34178674764E+02  0.10234512083E+03  0.00000000000E+00 0.  1.
         11    1    1    2    0    0 -0.51469791717E+01 -0.20753879442E+02  0.33058105007E+02  0.39370715172E+02  0.00000000000E+00 0. -1.
</event>
<event>
 7    1  0.6506388E-006  0.1080612E+03  0.7561462E-02  0.1264203E+00
         -4   -1    0    0    0  501 -0.00000000000E+00  0.00000000000E+00  0.27855764379E+02  0.27855764379E+02  0.00000000000E+00 0.  1.
          4   -1    0    0  501    0  0.00000000000E+00 -0.00000000000E+00 -0.46831427238E+03  0.46831427238E+03  0.00000000000E+00 0. -1.
         23    2    1    2    0    0 -0.11010621419E+02  0.14345283739E+01 -0.17661176321E+03  0.21670811048E+03  0.12508956227E+03 0.  0.
          5    1    3    3  502    0  0.56379964707E+02 -0.63536963950E+01 -0.92126540640E+02  0.10827669079E+03  0.41800000000E+01 0.  1.
         -5    1    3    3    0  502 -0.67390586127E+02  0.77882247688E+01 -0.84485222569E+02  0.10843141969E+03  0.41800000000E+01 0.  1.
        -11    1    1    2    0    0 -0.29285203427E+02 -0.29958525555E+02 -0.10250652449E+03  0.11073718417E+03  0.00000000000E+00 0.  1.
         11    1    1    2    0    0  0.40295824846E+02  0.28523997181E+02 -0.16134022030E+03  0.16872474211E+03  0.00000000000E+00 0. -1.
</event>
<event>
 7    1  0.6506388E-006  0.6308555E+02  0.7561462E-02  0.1385321E+00
         -2   -1    0    0    0  501 -0.00000000000E+00  0.00000000000E+00  0.24469242730E+03  0.24469242730E+03  0.00000000000E+00 0.  1.
          2   -1    0    0  501    0  0.00000000000E+00 -0.00000000000E+00 -0.54109291860E+02  0.54109291860E+02  0.00000000000E+00 0. -1.
         23    2    1    2    0    0  0.29780979093E+02  0.69756023626E+01  0.13970087788E+03  0.18999221072E+03  0.12508053050E+03 0.  0.
          5    1    3    3  502    0 -0.28966687056E+02  0.58611929106E+01  0.12603495622E+03  0.12952106057E+03  0.41800000000E+01 0. -1.
         -5    1    3    3    0  502  0.58747666150E+02  0.11144094519E+01  0.13665921664E+02  0.60471150158E+02  0.41800000000E+01 0. -1.
        -11    1    1    2    0    0 -0.75663659555E+01  0.76973703817E+01 -0.25623414438E+02  0.27803934470E+02  0.00000000000E+00 0. -1.
         11    1    1    2    0    0 -0.22214613138E+02 -0.14672972744E+02  0.76505671994E+02  0.81005573964E+02  0.00000000000E+00 0.  1.
</event>
<event>
 7    1  0.6506388E-006  0.1082276E+03  0.7561462E-02  0.1263888E+00
         -1   -1    0    0    0  501 -0.00000000000E+00  0.00000000000E+00  0.47183754550E+03  0.47183754550E+03  0.00000000000E+00 0.  1.
          1   -1    0    0  501    0  0.00000000000E+00 -0.00000000000E+00 -0.40951227539E+02  0.40951227539E+02  0.00000000000E+00 0. -1.
         23    2    1    2    0    0  0.29198263284E+02 -0.73582607898E+02  0.29848433390E+03  0.33317648899E+03  0.12508691564E+03 0.  0.
          5    1    3    3  502    0  0.24277377265E+02 -0.10340191578E+03  0.16518771713E+03  0.19643268955E+03  0.41800000000E+01 0.  1.
         -5    1    3    3    0  502  0.49208860191E+01  0.29819307880E+02  0.13329661677E+03  0.13674379944E+03  0.41800000000E+01 0.  1.
        -11    1    1    2    0    0 -0.21857020271E+02  0.43486007593E+02  0.13957193639E+03  0.14781436878E+03  0.00000000000E+00 0.  1.
         11    1    1    2    0    0 -0.73412430130E+01  0.30096600306E+02 -0.71699523307E+01  0.31797915268E+02  0.00000000000E+00 0. -1.
</event>
<event>
 7    1  0.6506388E-006  0.1298130E+03  0.7561462E-02  0.1227733E+00
          2   -1    0    0  501    0  0.00000000000E+00  0.00000000000E+00  0.74515605385E+03  0.74515605385E+03  0.00000000000E+00 0. -1.
         -2   -1    0    0    0  501 -0.00000000000E+00 -0.00000000000E+00 -0.24546489178E+02  0.24546489178E+02  0.00000000000E+00 0.  1.
         23    2    1    2    0    0 -0.65478391130E+02 -0.31039938688E+02  0.30063806774E+03  0.33359065492E+03  0.12509428355E+03 0.  0.
          5    1    3    3  502    0 -0.79658837307E+02 -0.66388267254E+02  0.18984965111E+03  0.21636380200E+03  0.41800000000E+01 0.  1.
         -5    1    3    3    0  502  0.14180446176E+02  0.35348328566E+02  0.11078841663E+03  0.11722685292E+03  0.41800000000E+01 0.  1.
        -11    1    1    2    0    0  0.29732365314E+02 -0.32858026227E+02  0.15469110844E+03  0.16091302764E+03  0.00000000000E+00 0.  1.
         11    1    1    2    0    0  0.35746025816E+02  0.63897964915E+02  0.26528038850E+03  0.27519886047E+03  0.00000000000E+00 0. -1.
</event>
<event>
 7    1  0.6506388E-006  0.1454133E+03  0.7561462E-02  0.1206225E+00
         -1   -1    0    0    0  501 -0.00000000000E+00  0.00000000000E+00  0.30448009211E+03  0.30448009211E+03  0.00000000000E+00 0.  1.
          1   -1    0    0  501    0  0.00000000000E+00 -0.00000000000E+00 -0.10715309715E+03  0.10715309715E+03  0.00000000000E+00 0. -1.
         23    2    1    2    0    0 -0.72192009073E+02 -0.80826794366E+02  0.21232114756E+03  0.26920239427E+03  0.12507998448E+03 0.  0.
          5    1    3    3  502    0  0.18709238137E+02  0.20288020776E+02  0.51387880291E+02  0.58479278548E+02  0.41800000000E+01 0.  1.
         -5    1    3    3    0  502 -0.90901247210E+02 -0.10111481514E+03  0.16093326726E+03  0.21072311572E+03  0.41800000000E+01 0.  1.
        -11    1    1    2    0    0  0.83825965197E+02  0.60208616758E+02  0.14921564116E+02  0.10428098124E+03  0.00000000000E+00 0.  1.
         11    1    1    2    0    0 -0.11633956124E+02  0.20618177608E+02 -0.29915716711E+02  0.38149813752E+02  0.00000000000E+00 0. -1.
</event>
<event>
 7    1  0.6506388E-006  0.9661711E+02  0.7561462E-02  0.1287575E+00
          1   -1    0    0  501    0  0.00000000000E+00  0.00000000000E+00  0.47816818818E+02  0.47816818818E+02  0.00000000000E+00 0. -1.
         -1   -1    0    0    0  501 -0.00000000000E+00 -0.00000000000E+00 -0.27012970138E+03  0.27012970138E+03  0.00000000000E+00 0.  1.
         23    2    1    2    0    0  0.30065896162E+02  0.12720167642E+02 -0.13376360628E+03  0.18602055514E+03  0.12508070911E+03 0.  0.
          5    1    3    3  502    0 -0.32888012956E+02 -0.11389531389E+02 -0.10830994546E+03  0.11384137871E+03  0.41800000000E+01 0. -1.
         -5    1    3    3    0  502  0.62953909118E+02  0.24109699031E+02 -0.25453660821E+02  0.72179176428E+02  0.41800000000E+01 0. -1.
        -11    1    1    2    0    0  0.14056882861E+02  0.27531901846E+02 -0.85163354012E+01  0.32064459199E+02  0.00000000000E+00 0. -1.
         11    1    1    2    0    0 -0.44122779024E+02 -0.40252069488E+02 -0.80032940881E+02  0.99861505862E+02  0.00000000000E+00 0.  1.
</event>
<event>
 7    1  0.6506388E-006  0.2337560E+03  0.7561462E-02  0.1124024E+00
         -2   -1    0    0    0  501 -0.00000000000E+00  0.00000000000E+00  0.54510945671E+02  0.54510945671E+02  0.00000000000E+00 0.  1.
          2   -1    0    0  501    0  0.00000000000E+00 -0.00000000000E+00 -0.11472205969E+04  0.11472205969E+04  0.00000000000E+00 0. -1.
         23    2    1    2    0    0  0.14228554655E+02  0.21730519065E+03 -0.70098755454E+03  0.74461693659E+03  0.12508730145E+03 0.  0.
          5    1    3    3  502    0 -0.15447377513E+02 -0.17535563784E+01 -0.15093211098E+03  0.15178824381E+03  0.41800000000E+01 0.  1.
         -5    1    3    3    0  502  0.29675932169E+02  0.21905874703E+03 -0.55005544355E+03  0.59282869278E+03  0.41800000000E+01 0.  1.
        -11    1    1    2    0    0  0.25617853655E+02 -0.33137558162E+02 -0.11446681025E+03  0.12188938771E+03  0.00000000000E+00 0. -1.
         11    1    1    2    0    0 -0.39846408310E+02 -0.18416763249E+03 -0.27725528648E+03  0.33522521832E+03  0.00000000000E+00 0.  1.
</event>
<event>
 7    1  0.6506388E-006  0.1021396E+03  0.7561462E-02  0.1275860E+00
         -4   -1    0    0    0  501 -0.00000000000E+00  0.00000000000E+00  0.93386370269E+02  0.93386370269E+02  0.00000000000E+00 0.  1.
          4   -1    0    0  501    0  0.00000000000E+00 -0.00000000000E+00 -0.23096137898E+03  0.23096137898E+03  0.00000000000E+00 0. -1.
         23    2    1    2    0    0 -0.57884768908E+02 -0.95402329121E+00  0.14452462011E+02  0.13860065960E+03  0.12509881115E+03 0.  0.
          5    1    3    3  502    0 -0.57290607272E+02 -0.41911588727E+02  0.47745597227E+02  0.85649923560E+02  0.41800000000E+01 0.  1.
         -5    1    3    3    0  502 -0.59416163575E+00  0.40957565436E+02 -0.33293135216E+02  0.52950736038E+02  0.41800000000E+01 0.  1.
        -11    1    1    2    0    0  0.11769552450E+02 -0.32800691477E+02 -0.16286364495E+02  0.38466263072E+02  0.00000000000E+00 0.  1.
         11    1    1    2    0    0  0.46115216458E+02  0.33754714768E+02 -0.13574110622E+03  0.14728082658E+03  0.00000000000E+00 0. -1.
</event>
<event>
 6    1  0.6506388E-006  0.9782832E+02  0.7561462E-02  0.1284930E+00
          3   -1    0    0  501    0  0.00000000000E+00  0.00000000000E+00  0.58738701578E+03  0.58738701578E+03  0.00000000000E+00 0. -1.
         -3   -1    0    0    0  501 -0.00000000000E+00 -0.00000000000E+00 -0.45359833029E+02  0.45359833029E+02  0.00000000000E+00 0.  1.
          5    1    1    2  502    0 -0.17337954530E+02 -0.38325579845E+02  0.12516515070E+03  0.13211071905E+03  0.41800000000E+01 0. -1.
         -5    1    1    2    0  502  0.27404522449E+02 -0.29951102481E+02 -0.22717196233E+02  0.46707812999E+02  0.41800000000E+01 0.  1.
        -11    1    1    2    0    0 -0.20456980415E+02 -0.17041316340E+02  0.84517967339E+02  0.88612534742E+02  0.00000000000E+00 0.  1.
         11    1    1    2    0    0  0.10390412496E+02  0.85317998666E+02  0.35506126094E+03  0.36531578202E+03  0.00000000000E+00 0. -1.
</event>
<event>
 7    1  0.6506388E-006  0.3067198E+03  0.7561462E-02  0.1081929E+00
          2   -1    0    0  501    0  0.00000000000E+00  0.00000000000E+00  0.19765591267E+03  0.19765591267E+03  0.00000000000E+00 0.  1.
         -2   -1    0    0    0  501 -0.00000000000E+00 -0.00000000000E+00 -0.73516215420E+03  0.73516215420E+03  0.00000000000E+00 0. -1.
         23    2    1    2    0    0 -0.66725453669E+02 -0.29404452589E+03 -0.52287714774E+03  0.61641126789E+03  0.12509144727E+03 0.  0.
          5    1    3    3  502    0 -0.82465681978E+02 -0.26231746764E+03 -0.50821848332E+03  0.57785339119E+03  0.41800000000E+01 0. -1.
         -5    1    3    3    0  502  0.15740228309E+02 -0.31727058250E+02 -0.14658664421E+02  0.38557876693E+02  0.41800000000E+01 0. -1.
        -11    1    1    2    0    0  0.17820326864E+02  0.14050292828E+03 -0.52201606370E+02  0.15094252089E+03  0.00000000000E+00 0. -1.
         11    1    1    2    0    0  0.48905126806E+02  0.15354159761E+03  0.37572512571E+02  0.16546427809E+03  0.00000000000E+00 0.  1.
</event>
<event>
 7    1  0.6506388E-006  0.8888785E+02  0.7561462E-02  0.1305567E+00
          2   -1    0    0  501    0  0.00000000000E+00  0.00000000000E+00  0.15856661560E+03  0.15856661560E+03  0.00000000000E+00 0.  1.
         -2   -1    0    0    0  501 -0.00000000000E+00 -0.00000000000E+00 -0.11526078158E+03  0.11526078158E+03  0.00000000000E+00 0. -1.
         23    2    1    2    0    0 -0.14229566950E+02 -0.70659342617E+02 -0.95372769102E+01  0.14468691790E+03  0.12509245096E+03 0.  0.
          5    1    3    3  502    0 -0.43720377613E+02 -0.59355919037E+02  0.41366299789E+02  0.84635924415E+02  0.41800000000E+01 0. -1.
         -5    1    3    3    0  502  0.29490810662E+02 -0.11303423580E+02 -0.50903576699E+02  0.60050993488E+02  0.41800000000E+01 0. -1.
        -11    1    1    2    0    0  0.10821701730E+02  0.54699055961E+02  0.79965681618E+02  0.97486441047E+02  0.00000000000E+00 0.  1.
         11    1    1    2    0    0  0.34078652201E+01  0.15960286656E+02 -0.27122570689E+02  0.31654038230E+02  0.00000000000E+00 0. -1.
</event>
<event>
 7    1  0.6506388E-006  0.1200309E+03  0.7561462E-02  0.1243046E+00
         -2   -1    0    0    0  501 -0.00000000000E+00  0.00000000000E+00  0.84142252835E+02  0.84142252835E+02  0.00000000000E+00 0.  1.
          2   -1    0    0  501    0  0.00000000000E+00 -0.00000000000E+00 -0.31206671134E+03  0.31206671134E+03  0.00000000000E+00 0. -1.
         23    2    1    2    0    0 -0.30569996607E+02  0.93042563234E+02 -0.36203074630E+02  0.16294095340E+03  0.12509056086E+03 0.  0.
          5    1    3    3  502    0  0.15006792530E+02  0.24907456264E+02  0.40879421562E+02  0.50340686396E+02  0.41800000000E+01 0.  1.
         -5    1    3    3    0  502 -0.45576789137E+02  0.68135106971E+02 -0.77082496191E+02  0.11260026700E+03  0.41800000000E+01 0.  1.
        -11    1    1    2    0    0 -0.28482272803E+02 -0.40809121493E+02 -0.46926304786E+02  0.68401040503E+02  0.00000000000E+00 0.  1.
         11    1    1    2    0    0  0.59052269410E+02 -0.52233441741E+02 -0.14479507909E+03  0.16486697027E+03  0.00000000000E+00 0. -1.
</event>
<event>
 7    1  0.6506388E-006  0.1326109E+03  0.7561462E-02  0.1223632E+00
          1   -1    0    0  501    0  0.00000000000E+00  0.00000000000E+00  0.12337669291E+04  0.12337669291E+04  0.00000000000E+00 0. -1.
         -1   -1    0    0    0  501 -0.00000000000E+00 -0.00000000000E+00 -0.17676433275E+02  0.17676433275E+02  0.00000000000E+00 0.  1.
         23    2    1    2    0    0  0.93668818915E+02  0.70843670681E+01  0.80697320086E+03  0.82199558002E+03  0.12508777233E+03 0.  0.
          5    1    3    3  502    0  0.52861675575E+02 -0.50578403743E+02  0.24919457376E+03  0.25974591365E+03  0.41800000000E+01 0. -1.
         -5    1    3    3    0  502  0.40807143340E+02  0.57662770811E+02  0.55777862710E+03  0.56224966637E+03  0.41800000000E+01 0. -1.
        -11    1    1    2    0    0 -0.27802935127E+02 -0.39071685634E+02  0.24627808617E+03  0.25090335898E+03  0.00000000000E+00 0. -1.
         11    1    1    2    0    0 -0.65865883788E+02  0.31987318566E+02  0.16283920884E+03  0.17854442341E+03  0.00000000000E+00 0.  1.
</event>
<event>
 7    1  0.6506388E-006  0.1090631E+03  0.7561462E-02  0.1262315E+00
         -3   -1    0    0    0  501 -0.00000000000E+00  0.00000000000E+00  0.32199566322E+03  0.32199566322E+03  0.00000000000E+00 0.  1.
          3   -1    0    0  501    0  0.00000000000E+00 -0.00000000000E+00 -0.74236160068E+02  0.74236160068E+02  0.00000000000E+00 0. -1.
         23    2    1    2    0    0 -0.13294552476E+02  0.67084983103E+02  0.24262556311E+03  0.28141072049E+03  0.12509072567E+03 0.  0.
          5    1    3    3  502    0 -0.42635913717E+02  0.28469272448E+01  0.18572180687E+03  0.19062000965E+03  0.41800000000E+01 0.  1.
         -5    1    3    3    0  502  0.29341361242E+02  0.64238055858E+02  0.56903756240E+02  0.90790710836E+02  0.41800000000E+01 0.  1.
        -11    1    1    2    0    0  0.33518520618E+02  0.88592806307E+00  0.24242417171E+02  0.41375969877E+02  0.00000000000E+00 0.  1.
         11    1    1    2    0    0 -0.20223968143E+02 -0.67970911166E+02 -0.19108477127E+02  0.73445132924E+02  0.00000000000E+00 0. -1.
</event>
<event>
 7    1  0.6506388E-006  0.1291039E+03  0.7561462E-02  0.1228791E+00
         -1   -1    0    0    0  501 -0.00000000000E+00  0.00000000000E+00  0.61638499823E+02  0.61638499823E+02  0.00000000000E+00 0.  1.
          1   -1    0    0  501    0  0.00000000000E+00 -0.00000000000E+00 -0.35600034740E+03  0.35600034740E+03  0.00000000000E+00 0. -1.
         23    2    1    2    0    0  0.71194906572E+02  0.65314370015E+02 -0.12091650506E+03  0.19902595731E+03  0.12512333450E+03 0.  0.
          5    1    3    3  502    0 -0.73860677228E-01  0.83231390973E+02 -0.52233747654E+02  0.98352969923E+02  0.41800000000E+01 0. -1.
         -5    1    3    3    0  502  0.71268767249E+02 -0.17917020959E+02 -0.68682757407E+02  0.10067298739E+03  0.41800000000E+01 0. -1.
        -11    1    1    2    0    0 -0.10151336244E+02 -0.27851259883E+02  0.13896985249E+01  0.29676144739E+02  0.00000000000E+00 0.  1.
         11    1    1    2    0    0 -0.61043570328E+02 -0.37463110132E+02 -0.17483504104E+03  0.18893674517E+03  0.00000000000E+00 0. -1.
</event>
<event>
 7    1  0.6506388E-006  0.1216969E+03  0.7561462E-02  0.1240324E+00
          2   -1    0    0  501    0  0.00000000000E+00  0.00000000000E+00  0.11034454946E+03  0.11034454946E+03  0.00000000000E+00 0. -1.
         -2   -1    0    0    0  501 -0.00000000000E+00 -0.00000000000E+00 -0.24770832238E+03  0.24770832238E+03  0.00000000000E+00 0.  1.
         23    2    1    2    0    0  0.77113844511E+02 -0.33987933413E+02 -0.17506574955E+03  0.23107663993E+03  0.12508665885E+03 0.  0.
          5    1    3    3  502    0 -0.16128206583E+02 -0.25376641957E+02 -0.11686877579E+03  0.12074715798E+03  0.41800000000E+01 0. -1.
         -5    1    3    3    0  502  0.93242051095E+02 -0.86112914557E+01 -0.58196973759E+02  0.11032948195E+03  0.41800000000E+01 0. -1.
        -11    1    1    2    0    0 -0.89678756318E+02  0.75055409399E+01  0.18326717328E+02  0.91839430789E+02  0.00000000000E+00 0.  1.
         11    1    1    2    0    0  0.12564911807E+02  0.26482392473E+02  0.19375259302E+02  0.35136801118E+02  0.00000000000E+00 0. -1.
</event>
<event>
 7    1  0.6506388E-006  0.1297868E+03  0.7561462E-02  0.1227772E+00
          2   -1    0    0  501    0  0.00000000000E+00  0.00000000000E+00  0.46853125684E+02  0.46853125684E+02  0.00000000000E+00 0. -1.
         -2   -1    0    0    0  501 -0.00000000000E+00 -0.00000000000E+00 -0.50891589883E+03  0.50891589883E+03  0.00000000000E+00 0.  1.
         23    2    1    2    0    0  0.60131942504E+01 -0.10988695942E+03 -0.23742159304E+03  0.29004704726E+03  0.12508786683E+03 0.  0.
          5    1    3    3  502    0  0.49430810738E+02 -0.33737489477E+02 -0.35083762939E+02  0.69497957297E+02  0.41800000000E+01 0.  1.
         -5    1    3    3    0  502 -0.43417616488E+02 -0.76149469938E+02 -0.20233783010E+03  0.22054908997E+03  0.41800000000E+01 0.  1.
        -11    1    1    2    0    0  0.69766371286E+01  0.53921286733E+02 -0.28597357089E+02  0.61432788159E+02  0.00000000000E+00 0. -1.
         11    1    1    2    0    0 -0.12989831379E+02  0.55965672682E+02 -0.19604382301E+03  0.20428918909E+03  0.00000000000E+00 0.  1.
</event>
<event>
 7    1  0.6506388E-006  0.3353500E+03  0.7561462E-02  0.1068794E+00
         -1   -1    0    0    0  501 -0.00000000000E+00  0.00000000000E+00  0.64469487568E+02  0.64469487568E+02  0.00000000000E+00 0.  1.
          1   -1    0    0  501    0  0.00000000000E+00 -0.00000000000E+00 -0.18483804426E+04  0.18483804426E+04  0.00000000000E+00 0. -1.
         23    2    1    2    0    0 -0.21823161299E+03 -0.24363397983E+03 -0.94596195943E+03  0.10086989211E+04  0.12508769625E+03 0.  0.
          5    1    3    3  502    0 -0.19941959509E+03 -0.23969755623E+03 -0.93614617920E+03  0.98671689689E+03  0.41800000000E+01 0. -1.
         -5    1    3    3    0  502 -0.18812017895E+02 -0.39364236056E+01 -0.98157802284E+01  0.21982024238E+02  0.41800000000E+01 0. -1.
        -11    1    1    2    0    0  0.11236989356E+03  0.60382481033E+02 -0.29396504478E+03  0.32045044008E+03  0.00000000000E+00 0.  1.
         11    1    1    2    0    0  0.10586171943E+03  0.18325149880E+03 -0.54398395079E+03  0.58370056893E+03  0.00000000000E+00 0. -1.
</event>
<event>
 7    1  0.6506388E-006  0.1869417E+03  0.7561462E-02  0.1161249E+00
         -2   -1    0    0    0  501 -0.00000000000E+00  0.00000000000E+00  0.15298896311E+03  0.15298896311E+03  0.00000000000E+00 0.  1.
          2   -1    0    0  501    0  0.00000000000E+00 -0.00000000000E+00 -0.24496466883E+03  0.24496466883E+03  0.00000000000E+00 0. -1.
         23    2    1    2    0    0  0.15159075903E+03  0.13088996385E+02  0.29656899661E+01  0.19699612820E+03  0.12509036397E+03 0.  0.
          5    1    3    3  502    0  0.10213254904E+03 -0.52267052723E+02  0.48383132612E+01  0.11490771971E+03  0.41800000000E+01 0. -1.
         -5    1    3    3    0  502  0.49458209993E+02  0.65356049108E+02 -0.18726232952E+01  0.82088408492E+02  0.41800000000E+01 0. -1.
        -11    1    1    2    0    0 -0.10986528391E+03 -0.50549471387E+02 -0.61620107761E+02  0.13573012689E+03  0.00000000000E+00 0.  1.
         11    1    1    2    0    0 -0.41725475121E+02  0.37460475002E+02 -0.33321287923E+02  0.65227376847E+02  0.00000000000E+00 0. -1.
</event>
<event>
 7    1  0.7974276E-006  0.2335431E+03  0.7561462E-02  0.1124171E+00
          2   -1    0    0  501    0  0.00000000000E+00  0.00000000000E+00  0.10328420016E+04  0.10328420016E+04  0.00000000000E+00 0. -1.
         -2   -1    0    0    0  501 -0.00000000000E+00 -0.00000000000E+00 -0.62868943100E+02  0.62868943100E+02  0.00000000000E+00 0.  1.
         23    2    1    2    0    0 -0.17580862752E+03 -0.13296219800E+03  0.38599306363E+03  0.46176392753E+03  0.12509060712E+03 0.  0.
          5    1    3    3  502    0 -0.14471530104E+03 -0.43141269108E+02  0.18093422709E+03  0.23570819754E+03  0.41800000000E+01 0.  1.
         -5    1    3    3    0  502 -0.31093326484E+02 -0.89820928894E+02  0.20505883654E+03  0.22605572999E+03  0.41800000000E+01 0.  1.
        -11    1    1    2    0    0  0.62049229218E+02  0.55499642764E+02  0.37204769193E+03  0.38124769149E+03  0.00000000000E+00 0. -1.
         11    1    1    2    0    0  0.11375939830E+03  0.77462555238E+02  0.21193230289E+03  0.25269932563E+03  0.00000000000E+00 0.  1.
</event>
<event>
 7    1  0.6506388E-006  0.1437242E+03  0.7561462E-02  0.1208404E+00
         -2   -1    0    0    0  501 -0.00000000000E+00  0.00000000000E+00  0.78724326185E+02  0.78724326185E+02  0.00000000000E+00 0.  1.
          2   -1    0    0  501    0  0.00000000000E+00 -0.00000000000E+00 -0.41343492785E+03  0.41343492785E+03  0.00000000000E+00 0. -1.
         23    2    1    2    0    0  0.54479343337E+02  0.26396117567E+02 -0.15230922827E+02  0.13980174660E+03  0.12509114065E+03 0.  0.
          5    1    3    3  502    0 -0.24773139620E+02 -0.31821091481E+02 -0.45702388081E+01  0.40800120006E+02  0.41800000000E+01 0.  1.
         -5    1    3    3    0  502  0.79252482957E+02  0.58217209049E+02 -0.10660684018E+02  0.99001626593E+02  0.41800000000E+01 0.  1.
        -11    1    1    2    0    0  0.39597747398E+02 -0.36509081002E+02 -0.12340760795E+03  0.13464892236E+03  0.00000000000E+00 0. -1.
         11    1    1    2    0    0 -0.94077090735E+02  0.10112963435E+02 -0.19607207089E+03  0.21770858507E+03  0.00000000000E+00 0.  1.
</event>
<event>
 7    1  0.6506388E-006  0.7663343E+02  0.7561462E-02  0.1338886E+00
          3   -1    0    0  501    0  0.00000000000E+00  0.00000000000E+00  0.17130096649E+03  0.17130096649E+03  0.00000000000E+00 0. -1.
         -3   -1    0    0    0  501 -0.00000000000E+00 -0.00000000000E+00 -0.86063682848E+02  0.86063682848E+02  0.00000000000E+00 0.  1.
         23    2    1    2    0    0  0.38406013346E+02 -0.29221789836E+02  0.39504666860E+02  0.13977542291E+03  0.12509042843E+03 0.  0.
          5    1    3    3  502    0  0.13724816997E+02 -0.10847670249E+02  0.83784090080E+02  0.85692990973E+02  0.41800000000E+01 0. -1.
         -5    1    3    3    0  502  0.24681196349E+02 -0.18374119588E+02 -0.44279423220E+02  0.54082431940E+02  0.41800000000E+01 0. -1.
        -11    1    1    2    0    0  0.20735202075E+02  0.39109268885E+02  0.38189423442E+01  0.44430483212E+02  0.00000000000E+00 0.  1.
         11    1    1    2    0    0 -0.59141215421E+02 -0.98874790485E+01  0.41913674434E+02  0.73158743209E+02  0.00000000000E+00 0. -1.
</event>
<event>
 7    1  0.6506388E-006  0.1017908E+03  0.7561462E-02  0.1276575E+00
          2   -1    0    0  501    0  0.00000000000E+00  0.00000000000E+00  0.99660881076E+02  0.99660881076E+02  0.00000000000E+00 0. -1.
         -2   -1    0    0    0  501 -0.00000000000E+00 -0.00000000000E+00 -0.15591452980E+03  0.15591452980E+03  0.00000000000E+00 0.  1.
         23    2    1    2    0    0  0.11143336080E+02  0.25560745332E+02 -0.89202518545E+02  0.15613979823E+03  0.12508006090E+03 0.  0.
          5    1    3    3  502    0 -0.54572342135E+02  0.26788690162E+02 -0.31594847855E+02  0.68640230606E+02  0.41800000000E+01 0.  1.
         -5    1    3    3    0  502  0.65715678215E+02 -0.12279448300E+01 -0.57607670689E+02  0.87499567622E+02  0.41800000000E+01 0.  1.
        -11    1    1    2    0    0 -0.40078934714E+02 -0.31811955556E+01 -0.11550114112E+02  0.41831162415E+02  0.00000000000E+00 0.  1.
         11    1    1    2    0    0  0.28935598634E+02 -0.22379549776E+02  0.44498983929E+02  0.57604450238E+02  0.00000000000E+00 0. -1.
</event>
<event>
 7    1  0.6506388E-006  0.1021377E+03  0.7561462E-02  0.1275864E+00
         -1   -1    0    0    0  501 -0.00000000000E+00  0.00000000000E+00  0.41161572187E+02  0.41161572187E+02  0.00000000000E+00 0.  1.
          1   -1    0    0  501    0  0.00000000000E+00 -0.00000000000E+00 -0.39149202873E+03  0.39149202873E+03  0.00000000000E+00 0. -1.
         23    2    1    2    0    0  0.17968097953E+02 -0.10473767025E+02 -0.90228911009E+02  0.15563269882E+03  0.12509087985E+03 0.  0.
          5    1    3    3  502    0  0.63795227995E+02 -0.31361789221E+02 -0.73651255106E+02  0.10244692634E+03  0.41800000000E+01 0. -1.
         -5    1    3    3    0  502 -0.45827130043E+02  0.20888022195E+02 -0.16577655903E+02  0.53185772481E+02  0.41800000000E+01 0. -1.
        -11    1    1    2    0    0 -0.28439746529E+02  0.41202816882E+02 -0.21897362262E+03  0.22462399405E+03  0.00000000000E+00 0. -1.
         11    1    1    2    0    0  0.10471648576E+02 -0.30729049856E+02 -0.41127922917E+02  0.52396908043E+02  0.00000000000E+00 0.  1.
</event>
<event>
 7    1  0.6506388E-006  0.2167981E+03  0.7561462E-02  0.1136293E+00
          2   -1    0    0  501    0  0.00000000000E+00  0.00000000000E+00  0.67791306698E+03  0.67791306698E+03  0.00000000000E+00 0. -1.
         -2   -1    0    0    0  501 -0.00000000000E+00 -0.00000000000E+00 -0.70057070485E+02  0.70057070485E+02  0.00000000000E+00 0.  1.
         23    2    1    2    0    0 -0.18804723748E+03 -0.24211530473E+01  0.29642884197E+03  0.37267310458E+03  0.12509020352E+03 0.  0.
          5    1    3    3  502    0 -0.17491006455E+03 -0.43965010140E+02  0.21905663750E+03  0.28377761651E+03  0.41800000000E+01 0. -1.
         -5    1    3    3    0  502 -0.13137172931E+02  0.41543857093E+02  0.77372204473E+02  0.88895488073E+02  0.41800000000E+01 0. -1.
        -11    1    1    2    0    0  0.14034753509E+03 -0.39630861331E+02  0.21804814625E+03  0.26232237773E+03  0.00000000000E+00 0.  1.
         11    1    1    2    0    0  0.47699702388E+02  0.42052014379E+02  0.93379008280E+02  0.11297465516E+03  0.00000000000E+00 0. -1.
</event>
<event>
 7    1  0.6506388E-006  0.1338503E+03  0.7561462E-02  0.1221852E+00
          2   -1    0    0  501    0  0.00000000000E+00  0.00000000000E+00  0.47195479689E+03  0.47195479689E+03  0.00000000000E+00 0. -1.
         -2   -1    0    0    0  501 -0.00000000000E+00 -0.00000000000E+00 -0.51582241473E+02  0.51582241473E+02  0.00000000000E+00 0.  1.
         23    2    1    2    0    0 -0.36129542212E+02  0.93369425638E+02  0.13983725269E+03  0.21266296376E+03  0.12509150830E+03 0.  0.
          5    1    3    3  502    0 -0.34552003937E+02  0.11322439693E+03  0.14899725902E+03  0.19034510929E+03  0.41800000000E+01 0.  1.
         -5    1    3    3    0  502 -0.15775382748E+01 -0.19854971295E+02 -0.91600063239E+01  0.22317854466E+02  0.41800000000E+01 0.  1.
        -11    1    1    2    0    0 -0.21535416539E+02 -0.56467147711E+02  0.17439638342E+03  0.18457088472E+03  0.00000000000E+00 0.  1.
         11    1    1    2    0    0  0.57664958750E+02 -0.36902277927E+02  0.10613891930E+03  0.12630318988E+03  0.00000000000E+00 0. -1.
</event>
<event>
 6    1  0.6506388E-006  0.1298040E+03  0.7561462E-02  0.1227747E+00
          2   -1    0    0  501    0  0.00000000000E+00  0.00000000000E+00  0.92913840835E+03  0.92913840835E+03  0.00000000000E+00 0. -1.
         -2   -1    0    0    0  501 -0.00000000000E+00 -0.00000000000E+00 -0.24784322962E+02  0.24784322962E+02  0.00000000000E+00 0.  1.
          5    1    1    2  502    0 -0.86462778552E+02 -0.39834394594E+02  0.15273718375E+03  0.18002419495E+03  0.41800000000E+01 0. -1.
         -5    1    1    2    0  502  0.73239507056E+02 -0.45950161834E+01  0.39132707433E+03  0.39817017853E+03  0.41800000000E+01 0.  1.
        -11    1    1    2    0    0 -0.24936740224E+02  0.46323747397E+02  0.29834751380E+03  0.30295044080E+03  0.00000000000E+00 0. -1.
         11    1    1    2    0    0  0.38160011720E+02 -0.18943366191E+01  0.61942313500E+02  0.72777917032E+02  0.00000000000E+00 0.  1.
</event>
<event>
 7    1  0.6506388E-006  0.6391770E+02  0.7561462E-02  0.1382090E+00
         -2   -1    0    0    0  501 -0.00000000000E+00  0.00000000000E+00  0.26764915791E+02  0.26764915791E+02  0.00000000000E+00 0.  1.
          2   -1    0    0  501    0  0.00000000000E+00 -0.00000000000E+00 -0.51658643159E+03  0.51658643159E+03  0.00000000000E+00 0. -1.
         23    2    1    2    0    0  0.28734534225E+02 -0.27929222183E+01 -0.19415936115E+03  0.23276220764E+03  0.12508762493E+03 0.  0.
          5    1    3    3  502    0  0.16683125904E+02 -0.10622190793E+02  0.13664721064E+02  0.24399889937E+02  0.41800000000E+01 0.  1.
         -5    1    3    3    0  502  0.12051408320E+02  0.78292685745E+01 -0.20782408221E+03  0.20836231770E+03  0.41800000000E+01 0.  1.
        -11    1    1    2    0    0 -0.43614720421E+02 -0.32473889422E+02 -0.13751294223E+03  0.14787361703E+03  0.00000000000E+00 0.  1.
         11    1    1    2    0    0  0.14880186196E+02  0.35266811640E+02 -0.15814921242E+03  0.16271552272E+03  0.00000000000E+00 0. -1.
</event>
<event>
 7    1  0.6506388E-006  0.1433524E+03  0.7561462E-02  0.1208888E+00
          2   -1    0    0  501    0  0.00000000000E+00  0.00000000000E+00  0.97145652105E+03  0.97145652105E+03  0.00000000000E+00 0. -1.
         -2   -1    0    0    0  501 -0.00000000000E+00 -0.00000000000E+00 -0.38184387128E+02  0.38184387128E+02  0.00000000000E+00 0.  1.
         23    2    1    2    0    0 -0.10269361278E+03  0.57864657648E+02  0.20925138655E+03  0.27078969389E+03  0.12508644543E+03 0.  0.
          5    1    3    3  502    0 -0.81638077877E+02  0.77157853495E+02  0.79033017023E+02  0.13741106322E+03  0.41800000000E+01 0. -1.
         -5    1    3    3    0  502 -0.21055534905E+02 -0.19293195847E+02  0.13021836953E+03  0.13337863067E+03  0.41800000000E+01 0. -1.
        -11    1    1    2    0    0  0.43170668390E+02 -0.72279835056E+02  0.47547807461E+03  0.48287418714E+03  0.00000000000E+00 0. -1.
         11    1    1    2    0    0  0.59522944392E+02  0.14415177408E+02  0.24854267275E+03  0.25597702715E+03  0.00000000000E+00 0.  1.
</event>
<event>
 7    1  0.6506388E-006  0.7981704E+02  0.7561462E-02  0.1329571E+00
          1   -1    0    0  501    0  0.00000000000E+00  0.00000000000E+00  0.41398288357E+03  0.41398288357E+03  0.00000000000E+00 0. -1.
         -1   -1    0    0    0  501 -0.00000000000E+00 -0.00000000000E+00 -0.61504200924E+02  0.61504200924E+02  0.00000000000E+00 0.  1.
         23    2    1    2    0    0  0.44534592439E+02  0.49097320444E+01  0.31040810186E+02  0.13645410642E+03  0.12509498739E+03 0.  0.
          5    1    3    3  502    0  0.24534471341E+02  0.16946370083E+02 -0.46483850413E+02  0.55383576015E+02  0.41800000000E+01 0. -1.
         -5    1    3    3    0  502  0.20000121098E+02 -0.12036638039E+02  0.77524660598E+02  0.81070530405E+02  0.41800000000E+01 0. -1.
        -11    1    1    2    0    0  0.94109422878E+01 -0.40239498110E+02  0.95158683917E+02  0.10374467778E+03  0.00000000000E+00 0. -1.
         11    1    1    2    0    0 -0.53945534727E+02  0.35329766066E+02  0.22627918855E+03  0.23528830030E+03  0.00000000000E+00 0.  1.
</event>
<event>
 7    1  0.6506388E-006  0.9609565E+02  0.7561462E-02  0.1288727E+00
          1   -1    0    0  501    0  0.00000000000E+00  0.00000000000E+00  0.24265284795E+03  0.24265284795E+03  0.00000000000E+00 0. -1.
         -1   -1    0    0    0  501 -0.00000000000E+00 -0.00000000000E+00 -0.99657192004E+02  0.99657192004E+02  0.00000000000E+00 0.  1.
         23    2    1    2    0    0  0.38629995981E+02 -0.52164281100E+02 -0.33919804045E+02  0.13611092031E+03  0.11472680902E+03 0.  0.
          5    1    3    3  502    0 -0.15653717119E+02 -0.34790153998E+02  0.31207152554E+02  0.49464658549E+02  0.41800000000E+01 0. -1.
         -5    1    3    3    0  502  0.54283713099E+02 -0.17374127102E+02 -0.65126956599E+02  0.86646261756E+02  0.41800000000E+01 0.  1.
        -11    1    1    2    0    0  0.18599104017E+02  0.29989920838E+02  0.27725282602E+02  0.44877759720E+02  0.00000000000E+00 0.  1.
         11    1    1    2    0    0 -0.57229099998E+02  0.22174360262E+02  0.14919017739E+03  0.16132135992E+03  0.00000000000E+00 0. -1.
</event>
<event>
 7    1  0.6506388E-006  0.9656375E+02  0.7561462E-02  0.1287692E+00
          1   -1    0    0  501    0  0.00000000000E+00  0.00000000000E+00  0.59933361314E+03  0.59933361314E+03  0.00000000000E+00 0. -1.
         -1   -1    0    0    0  501 -0.00000000000E+00 -0.00000000000E+00 -0.20278265502E+02  0.20278265502E+02  0.00000000000E+00 0.  1.
         23    2    1    2    0    0 -0.15776697382E+02  0.72744825387E+00  0.27643262196E+03  0.30382832560E+03  0.12508886279E+03 0.  0.
          5    1    3    3  502    0  0.15339317131E+02  0.47999025653E+02  0.52792296995E+02  0.73100616521E+02  0.41800000000E+01 0. -1.
         -5    1    3    3    0  502 -0.31116014513E+02 -0.47271577399E+02  0.22364032496E+03  0.23072770908E+03  0.41800000000E+01 0. -1.
        -11    1    1    2    0    0  0.45527346362E+02  0.19825490466E+02  0.22099725123E+03  0.22650733849E+03  0.00000000000E+00 0. -1.
         11    1    1    2    0    0 -0.29750648980E+02 -0.20552938719E+02  0.81625474449E+02  0.89276214546E+02  0.00000000000E+00 0.  1.
</event>
<event>
 7    1  0.6506388E-006  0.9186458E+02  0.7561462E-02  0.1298398E+00
          2   -1    0    0  501    0  0.00000000000E+00  0.00000000000E+00  0.29814027440E+03  0.29814027440E+03  0.00000000000E+00 0.  1.
         -2   -1    0    0    0  501 -0.00000000000E+00 -0.00000000000E+00 -0.43074212855E+02  0.43074212855E+02  0.00000000000E+00 0. -1.
         23    2    1    2    0    0 -0.64209410361E+01  0.28062044990E+02  0.11599577733E+03  0.17300147380E+03  0.12508310329E+03 0.  0.
          5    1    3    3  502    0  0.42397660148E+02 -0.43403813829E+01  0.10478656345E+03  0.11319936738E+03  0.41800000000E+01 0.  1.
         -5    1    3    3    0  502 -0.48818601184E+02  0.32402426373E+02  0.11209213877E+02  0.59802106419E+02  0.41800000000E+01 0.  1.
        -11    1    1    2    0    0  0.32595198718E+02  0.11638647116E+02  0.10261448627E+03  0.10829421904E+03  0.00000000000E+00 0.  1.
         11    1    1    2    0    0 -0.26174257682E+02 -0.39700692106E+02  0.36455797947E+02  0.59918794404E+02  0.00000000000E+00 0. -1.
</event>
<event>
 7    1  0.6506388E-006  0.1428083E+03  0.7561462E-02  0.1209599E+00
          2   -1    0    0  501    0  0.00000000000E+00  0.00000000000E+00  0.82919437305E+03  0.82919437305E+03  0.00000000000E+00 0. -1.
         -2   -1    0    0    0  501 -0.00000000000E+00 -0.00000000000E+00 -0.26424426566E+02  0.26424426566E+02  0.00000000000E+00 0.  1.
         23    2    1    2    0    0  0.74552950920E+02  0.66954120028E+02  0.41310430258E+03  0.44310724764E+03  0.12509145225E+03 0.  0.
          5    1    3    3  502    0 -0.26129218598E+02  0.38200043264E+02  0.67380790664E+02  0.81851223084E+02  0.41800000000E+01 0. -1.
         -5    1    3    3    0  502  0.10068216952E+03  0.28754076764E+02  0.34572351191E+03  0.36125602456E+03  0.41800000000E+01 0. -1.
        -11    1    1    2    0    0  0.98738601508E+01 -0.46432276013E+02  0.11436227196E+03  0.12382317480E+03  0.00000000000E+00 0. -1.
         11    1    1    2    0    0 -0.84426811070E+02 -0.20521844015E+02  0.27530337194E+03  0.28868837717E+03  0.00000000000E+00 0.  1.
</event>
<event>
 7    1  0.6506388E-006  0.1077521E+03  0.7561462E-02  0.1264790E+00
         -1   -1    0    0    0  501 -0.00000000000E+00  0.00000000000E+00  0.82843860988E+02  0.82843860988E+02  0.00000000000E+00 0.  1.
          1   -1    0    0  501    0  0.00000000000E+00 -0.00000000000E+00 -0.57683115254E+03  0.57683115254E+03  0.00000000000E+00 0. -1.
         23    2    1    2    0    0  0.59540727247E+02  0.89312214041E+00  0.17631041110E+02  0.13622282131E+03  0.12124317534E+03 0.  0.
          5    1    3    3  502    0 -0.95523744199E+01 -0.27973314952E+02 -0.33943166754E+02  0.45203596934E+02  0.41800000000E+01 0. -1.
         -5    1    3    3    0  502  0.69093101667E+02  0.28866437092E+02  0.51574207864E+02  0.91019224372E+02  0.41800000000E+01 0.  1.
        -11    1    1    2    0    0  0.63216951850E+01 -0.35633767924E+02 -0.17217581391E+03  0.17593817136E+03  0.00000000000E+00 0.  1.
         11    1    1    2    0    0 -0.65862422432E+02  0.34740645783E+02 -0.33944251876E+03  0.34751402086E+03  0.00000000000E+00 0. -1.
</event>
<event>
 7    1  0.6506388E-006  0.1609278E+03  0.7561462E-02  0.1187653E+00
         -2   -1    0    0    0  501 -0.00000000000E+00  0.00000000000E+00  0.12223704929E+03  0.12223704929E+03  0.00000000000E+00 0. -1.
          2   -1    0    0  501    0  0.00000000000E+00 -0.00000000000E+00 -0.28929995825E+03  0.28929995825E+03  0.00000000000E+00 0.  1.
         23    2    1    2    0    0 -0.96956504846E+02  0.82331223449E+02  0.61435431041E+01  0.17850558958E+03  0.12509000041E+03 0.  0.
          5    1    3    3  502    0  0.15063723478E+02  0.60836298401E+02  0.13058831245E+02  0.64155876127E+02  0.41800000000E+01 0. -1.
         -5    1    3    3    0  502 -0.11202022832E+03  0.21494925048E+02 -0.69152881411E+01  0.11434971345E+03  0.41800000000E+01 0. -1.
        -11    1    1    2    0    0  0.56045748704E+02 -0.87246998240E+02 -0.15824397778E+03  0.18919387187E+03  0.00000000000E+00 0. -1.
         11    1    1    2    0    0  0.40910756142E+02  0.49157747915E+01 -0.14962474282E+02  0.43837546083E+02  0.00000000000E+00 0.  1.
</event>
<event>
 7    1  0.6506388E-006  0.1373431E+03  0.7561462E-02  0.1216949E+00
          3   -1    0    0  501    0  0.00000000000E+00  0.00000000000E+00  0.19577461485E+03  0.19577461485E+03  0.00000000000E+00 0. -1.
         -3   -1    0    0    0  501 -0.00000000000E+00 -0.00000000000E+00 -0.12296004926E+03  0.12296004926E+03  0.00000000000E+00 0.  1.
         23    2    1    2    0    0  0.36007666764E+02  0.99366815834E+02  0.93488457143E+01  0.16403104544E+03  0.12509383197E+03 0.  0.
          5    1    3    3  502    0 -0.25048879136E+02  0.90981544102E+01 -0.36784840661E+02  0.45616002259E+02  0.41800000000E+01 0. -1.
         -5    1    3    3    0  502  0.61056545900E+02  0.90268661424E+02  0.46133686376E+02  0.11841504318E+03  0.41800000000E+01 0. -1.
        -11    1    1    2    0    0  0.29104096380E+02 -0.17172850715E+02  0.36647559213E+01  0.33990964443E+02  0.00000000000E+00 0.  1.
         11    1    1    2    0    0 -0.65111763144E+02 -0.82193965119E+02  0.59800963957E+02  0.12071265423E+03  0.00000000000E+00 0. -1.
</event>
<event>
 7    1  0.6506388E-006  0.1022203E+03  0.7561462E-02  0.1275695E+00
          1   -1    0    0  501    0  0.00000000000E+00  0.00000000000E+00  0.23031795399E+03  0.23031795399E+03  0.00000000000E+00 0. -1.
         -1   -1    0    0    0  501 -0.00000000000E+00 -0.00000000000E+00 -0.54154202028E+02  0.54154202028E+02  0.00000000000E+00 0.  1.
         23    2    1    2    0    0  0.13307905522E+02  0.21523299647E+02  0.90583345254E+02  0.15655186628E+03  0.12515107519E+03 0.  0.
          5    1    3    3  502    0  0.39262263261E+02  0.65386064292E+02  0.50353883526E+02  0.91486877235E+02  0.41800000000E+01 0. -1.
         -5    1    3    3    0  502 -0.25954357740E+02 -0.43862764646E+02  0.40229461728E+02  0.65064989042E+02  0.41800000000E+01 0. -1.
        -11    1    1    2    0    0 -0.43128042544E+02 -0.18563705490E+02  0.85963926601E+02  0.97951191375E+02  0.00000000000E+00 0. -1.
         11    1    1    2    0    0  0.29820137022E+02 -0.29595941568E+01 -0.38351989026E+00  0.29969098369E+02  0.00000000000E+00 0.  1.
</event>
<event>
 6    1  0.6506388E-006  0.1353459E+03  0.7561462E-02  0.1219732E+00
         -2   -1    0    0    0  501 -0.00000000000E+00  0.00000000000E+00  0.58390989696E+02  0.58390989696E+02  0.00000000000E+00 0.  1.
          2   -1    0    0  501    0  0.00000000000E+00 -0.00000000000E+00 -0.60703220864E+03  0.60703220864E+03  0.00000000000E+00 0. -1.
          5    1    1    2  502    0 -0.46880106347E+02  0.34993927965E+02 -0.25646176054E+03  0.26308254671E+03  0.41800000000E+01 0. -1.
         -5    1    1    2    0  502  0.89311615177E+02  0.49559691919E+02 -0.24100262720E+02  0.10502867576E+03  0.41800000000E+01 0.  1.
        -11    1    1    2    0    0 -0.26381627165E+02 -0.28321172572E+01 -0.15285561300E+03  0.15514138573E+03  0.00000000000E+00 0.  1.
         11    1    1    2    0    0 -0.16049881665E+02 -0.81721502627E+02 -0.11522358269E+03  0.14217059014E+03  0.00000000000E+00 0. -1.
</event>
<event>
 7    1  0.6506388E-006  0.2613859E+03  0.7561462E-02  0.1106313E+00
         -2   -1    0    0    0  501 -0.00000000000E+00  0.00000000000E+00  0.72619694141E+02  0.72619694141E+02  0.00000000000E+00 0.  1.
          2   -1    0    0  501    0  0.00000000000E+00 -0.00000000000E+00 -0.13285162495E+04  0.13285162495E+04  0.00000000000E+00 0. -1.
         23    2    1    2    0    0  0.19078471834E+03 -0.15636378980E+03 -0.28630181276E+03  0.39807660685E+03  0.12509122039E+03 0.  0.
          5    1    3    3  502    0  0.20299153467E+03 -0.14687293991E+03 -0.28824453126E+03  0.38194188802E+03  0.41800000000E+01 0.  1.
         -5    1    3    3    0  502 -0.12206816332E+02 -0.94908498857E+01  0.19427184953E+01  0.16134718828E+02  0.41800000000E+01 0.  1.
        -11    1    1    2    0    0 -0.14102477606E+03  0.72298425099E+02 -0.56154946894E+03  0.58348338091E+03  0.00000000000E+00 0.  1.
         11    1    1    2    0    0 -0.49759942281E+02  0.84065364697E+02 -0.40804527363E+03  0.41957595586E+03  0.00000000000E+00 0. -1.
</event>
<event>
 7    1  0.6506388E-006  0.1318070E+03  0.7561462E-02  0.1224799E+00
         -1   -1    0    0    0  501 -0.00000000000E+00  0.00000000000E+00  0.13374997708E+03  0.13374997708E+03  0.00000000000E+00 0.  1.
          1   -1    0    0  501    0  0.00000000000E+00 -0.00000000000E+00 -0.19376678767E+03  0.19376678767E+03  0.00000000000E+00 0. -1.
         23    2    1    2    0    0  0.12475707975E+02  0.11628177152E+03 -0.19556838536E+02  0.17235864803E+03  0.12509172611E+03 0.  0.
          5    1    3    3  502    0 -0.10202646157E+02  0.10558250954E+03 -0.61962381203E+02  0.12291692070E+03  0.41800000000E+01 0. -1.
         -5    1    3    3    0  502  0.22678354133E+02  0.10699261981E+02  0.42405542667E+02  0.49441727336E+02  0.41800000000E+01 0. -1.
        -11    1    1    2    0    0 -0.97108449990E+01  0.48624028728E+01 -0.31879972787E+02  0.33679016274E+02  0.00000000000E+00 0. -1.
         11    1    1    2    0    0 -0.27648629764E+01 -0.12114417439E+03 -0.85799992699E+01  0.12147910044E+03  0.00000000000E+00 0.  1.
</event>
<event>
 7    1  0.6506388E-006  0.2986939E+03  0.7561462E-02  0.1085895E+00
         -2   -1    0    0    0  501 -0.00000000000E+00  0.00000000000E+00  0.72945845150E+02  0.72945845150E+02  0.00000000000E+00 0.  1.
          2   -1    0    0  501    0  0.00000000000E+00 -0.00000000000E+00 -0.15347818767E+04  0.15347818767E+04  0.00000000000E+00 0. -1.
         23    2    1    2    0    0  0.27622245123E+03  0.86161302192E+02 -0.43401324044E+03  0.53641136521E+03  0.12508815808E+03 0.  0.
          5    1    3    3  502    0  0.70431175151E+02  0.67441565374E+02 -0.21024875997E+03  0.23179932839E+03  0.41800000000E+01 0.  1.
         -5    1    3    3    0  502  0.20579127608E+03  0.18719736817E+02 -0.22376448047E+03  0.30461203682E+03  0.41800000000E+01 0.  1.
        -11    1    1    2    0    0 -0.15748221798E+03 -0.24732957943E+02 -0.42666455359E+03  0.45547229277E+03  0.00000000000E+00 0. -1.
         11    1    1    2    0    0 -0.11874023325E+03 -0.61428344249E+02 -0.60115823752E+03  0.61584406388E+03  0.00000000000E+00 0.  1.
</event>
<event>
 7    1  0.6506388E-006  0.1033985E+03  0.7561462E-02  0.1273307E+00
         -2   -1    0    0    0  501 -0.00000000000E+00  0.00000000000E+00  0.45160145340E+03  0.45160145340E+03  0.00000000000E+00 0.  1.
          2   -1    0    0  501    0  0.00000000000E+00 -0.00000000000E+00 -0.44339988832E+02  0.44339988832E+02  0.00000000000E+00 0. -1.
         23    2    1    2    0    0 -0.68891866719E+02  0.30190927840E+02  0.31087388546E+03  0.34343947431E+03  0.12510203209E+03 0.  0.
          5    1    3    3  502    0 -0.38011807446E+02 -0.17073855266E+02  0.27094451499E+03  0.27416202626E+03  0.41800000000E+01 0. -1.
         -5    1    3    3    0  502 -0.30880059273E+02  0.47264783106E+02  0.39929370466E+02  0.69277448052E+02  0.41800000000E+01 0. -1.
        -11    1    1    2    0    0  0.85004516465E+02 -0.34320235291E+02  0.52665359215E+02  0.10572268645E+03  0.00000000000E+00 0. -1.
         11    1    1    2    0    0 -0.16112649746E+02  0.41293074514E+01  0.43722219899E+02  0.46779281469E+02  0.00000000000E+00 0.  1.
</event>
<event>
 7    1  0.6506388E-006  0.1469934E+03  0.7561462E-02  0.1204217E+00
         -1   -1    0    0    0  501 -0.00000000000E+00  0.00000000000E+00  0.24333651658E+03  0.24333651658E+03  0.00000000000E+00 0.  1.
          1   -1    0    0  501    0  0.00000000000E+00 -0.00000000000E+00 -0.11003373439E+03  0.11003373439E+03  0.00000000000E+00 0. -1.
         23    2    1    2    0    0 -0.74455617096E+02  0.93277162809E+02  0.48572958038E+02  0.17958814688E+03  0.12509317419E+03 0.  0.
          5    1    3    3  502    0 -0.99274955230E+02  0.39162737003E+02  0.53968978189E+02  0.11966352708E+03  0.41800000000E+01 0.  1.
         -5    1    3    3    0  502  0.24819338134E+02  0.54114425806E+02 -0.53960201508E+01  0.59924619808E+02  0.41800000000E+01 0.  1.
        -11    1    1    2    0    0  0.15284151430E+02 -0.54872507700E+02 -0.77317177145E+01  0.57483709389E+02  0.00000000000E+00 0.  1.
         11    1    1    2    0    0  0.59171465666E+02 -0.38404655108E+02  0.92461541871E+02  0.11629839469E+03  0.00000000000E+00 0. -1.
</event>
<event>
 7    1  0.6506388E-006  0.9393793E+02  0.7561462E-02  0.1293586E+00
         -2   -1    0    0    0  501 -0.00000000000E+00  0.00000000000E+00  0.35462912659E+02  0.35462912659E+02  0.00000000000E+00 0.  1.
          2   -1    0    0  501    0  0.00000000000E+00 -0.00000000000E+00 -0.50989350647E+03  0.50989350647E+03  0.00000000000E+00 0. -1.
         23    2    1    2    0    0  0.59800224409E+02  0.16035999028E+02 -0.16327700199E+03  0.21479910323E+03  0.12508419271E+03 0.  0.
          5    1    3    3  502    0  0.20604914719E+02 -0.23916375136E+02 -0.15479624580E+03  0.15803767153E+03  0.41800000000E+01 0. -1.
         -5    1    3    3    0  502  0.39195309690E+02  0.39952374164E+02 -0.84807561935E+01  0.56761431700E+02  0.41800000000E+01 0. -1.
        -11    1    1    2    0    0 -0.40861967800E+02 -0.47825582738E+02 -0.11630708708E+03  0.13222830741E+03  0.00000000000E+00 0.  1.
         11    1    1    2    0    0 -0.18938256609E+02  0.31789583710E+02 -0.19484650474E+03  0.19832900849E+03  0.00000000000E+00 0. -1.
</event>
<event>
 7    1  0.6506388E-006  0.1127862E+03  0.7561462E-02  0.1255496E+00
         -2   -1    0    0    0  501 -0.00000000000E+00  0.00000000000E+00  0.36909890577E+02  0.36909890577E+02  0.00000000000E+00 0.  1.
          2   -1    0    0  501    0  0.00000000000E+00 -0.00000000000E+00 -0.69949499073E+03  0.69949499073E+03  0.00000000000E+00 0. -1.
         23    2    1    2    0    0 -0.77445050239E+02 -0.79650358413E+02 -0.23206167194E+03  0.28608031600E+03  0.12508961674E+03 0.  0.
          5    1    3    3  502    0 -0.27612129601E+02 -0.13993575859E+02  0.79856353757E+01  0.32241163731E+02  0.41800000000E+01 0. -1.
         -5    1    3    3    0  502 -0.49832920638E+02 -0.65656782554E+02 -0.24004730732E+03  0.25383915227E+03  0.41800000000E+01 0. -1.
        -11    1    1    2    0    0  0.47381313228E+02  0.39764052235E+02 -0.35105654205E+03  0.35646439431E+03  0.00000000000E+00 0.  1.
         11    1    1    2    0    0  0.30063737011E+02  0.39886306178E+02 -0.79466886164E+02  0.93860171000E+02  0.00000000000E+00 0. -1.
</event>
<event>
 6    1  0.6506388E-006  0.1894168E+03  0.7561462E-02  0.1158988E+00
         -2   -1    0    0    0  501 -0.00000000000E+00  0.00000000000E+00  0.37363925211E+02  0.37363925211E+02  0.00000000000E+00 0.  1.
          2   -1    0    0  501    0  0.00000000000E+00 -0.00000000000E+00 -0.15043974253E+04  0.15043974253E+04  0.00000000000E+00 0. -1.
          5    1    1    2  502    0  0.17248798406E+02  0.48509209361E+02 -0.46957738737E+03  0.47240984280E+03  0.41800000000E+01 0. -1.
         -5    1    1    2    0  502  0.38875183943E+02  0.12245175925E+03 -0.14954984268E+03  0.19720127057E+03  0.41800000000E+01 0.  1.
        -11    1    1    2    0    0 -0.52348770962E+02 -0.35791106905E+02 -0.18423680059E+03  0.19484505599E+03  0.00000000000E+00 0.  1.
         11    1    1    2    0    0 -0.37752113867E+01 -0.13516986170E+03 -0.66366946946E+03  0.67730518116E+03  0.00000000000E+00 0. -1.
</event>
<event>
 7    1  0.6506388E-006  0.9986816E+02  0.7561462E-02  0.1280573E+00
          2   -1    0    0  501    0  0.00000000000E+00  0.00000000000E+00  0.74761375622E+03  0.74761375622E+03  0.00000000000E+00 0. -1.
         -2   -1    0    0    0  501 -0.00000000000E+00 -0.00000000000E+00 -0.25721111914E+02  0.25721111914E+02  0.00000000000E+00 0.  1.
         23    2    1    2    0    0  0.41589590783E+02  0.38352728945E+02  0.21430625983E+03  0.25450885221E+03  0.12508779705E+03 0.  0.
          5    1    3    3  502    0  0.39715904330E+02 -0.14842258514E+02  0.19195704083E+03  0.19662813537E+03  0.41800000000E+01 0. -1.
         -5    1    3    3    0  502  0.18736864532E+01  0.53194987459E+02  0.22349219000E+02  0.57880716838E+02  0.41800000000E+01 0. -1.
        -11    1    1    2    0    0 -0.43522649052E+02 -0.64341807177E+02  0.43053918856E+03  0.43749066506E+03  0.00000000000E+00 0.  1.
         11    1    1    2    0    0  0.19330582685E+01  0.25989078232E+02  0.77047195915E+02  0.81335350863E+02  0.00000000000E+00 0. -1.
</event>
<event>
 7    1  0.6506388E-006  0.1019923E+03  0.7561462E-02  0.1276161E+00
         -1   -1    0    0    0  501 -0.00000000000E+00  0.00000000000E+00  0.21990252710E+03  0.21990252710E+03  0.00000000000E+00 0.  1.
          1   -1    0    0  501    0  0.00000000000E+00 -0.00000000000E+00 -0.19988369077E+03  0.19988369077E+03  0.00000000000E+00 0. -1.
         23    2    1    2    0    0 -0.15958158934E+01  0.18559485600E+02  0.18875297917E+03  0.22730453565E+03  0.12527036221E+03 0.  0.
          5    1    3    3  502    0  0.13683764004E+02 -0.44305418753E+02  0.28882925341E+02  0.54789700715E+02  0.41800000000E+01 0. -1.
         -5    1    3    3    0  502 -0.15279579898E+02  0.62864904352E+02  0.15987005383E+03  0.17251483494E+03  0.41800000000E+01 0.  1.
        -11    1    1    2    0    0 -0.31499609199E+02 -0.41665653053E+02 -0.97227046327E+02  0.11036915584E+03  0.00000000000E+00 0. -1.
         11    1    1    2    0    0  0.33095425093E+02  0.23106167453E+02 -0.71507096512E+02  0.82112526377E+02  0.00000000000E+00 0.  1.
</event>
<event>
 7    1  0.6506388E-006  0.8271501E+02  0.7561462E-02  0.1321519E+00
          2   -1    0    0  501    0  0.00000000000E+00  0.00000000000E+00  0.14871906286E+02  0.14871906286E+02  0.00000000000E+00 0. -1.
         -2   -1    0    0    0  501 -0.00000000000E+00 -0.00000000000E+00 -0.10568830149E+04  0.10568830149E+04  0.00000000000E+00 0.  1.
         23    2    1    2    0    0  0.18706199382E+02 -0.52005375622E+02 -0.70562867859E+03  0.71875863663E+03  0.12509062589E+03 0.  0.
          5    1    3    3  502    0 -0.53436882704E+01 -0.21292797094E+01  0.31720501167E+01  0.77860862026E+01  0.41800000000E+01 0.  1.
         -5    1    3    3    0  502  0.24049887652E+02 -0.49876095913E+02 -0.70880072871E+03  0.71097255042E+03  0.41800000000E+01 0.  1.
        -11    1    1    2    0    0 -0.51902602961E+02  0.17166179599E+02 -0.12903376889E+03  0.14013661702E+03  0.00000000000E+00 0. -1.
         11    1    1    2    0    0  0.33196403579E+02  0.34839196024E+02 -0.20734866111E+03  0.21285966751E+03  0.00000000000E+00 0.  1.
</event>
<event>
 7    1  0.6506388E-006  0.1081671E+03  0.7561462E-02  0.1264002E+00
         -1   -1    0    0    0  501 -0.00000000000E+00  0.00000000000E+00  0.63440562201E+02  0.63440562201E+02  0.00000000000E+00 0.  1.
          1   -1    0    0  501    0  0.00000000000E+00 -0.00000000000E+00 -0.33961886114E+03  0.33961886114E+03  0.00000000000E+00 0. -1.
         23    2    1    2    0    0  0.35493505943E+02  0.18427348724E+02 -0.25688439650E+02  0.13381836435E+03  0.12509237611E+03 0.  0.
          5    1    3    3  502    0 -0.21286993058E+02 -0.34424232501E+02  0.18221807675E+02  0.44583298797E+02  0.41800000000E+01 0. -1.
         -5    1    3    3    0  502  0.56780499002E+02  0.52851581225E+02 -0.43910247325E+02  0.89235065557E+02  0.41800000000E+01 0. -1.
        -11    1    1    2    0    0 -0.51408658091E+02  0.20931069337E+02 -0.12516275509E+03  0.13691849784E+03  0.00000000000E+00 0.  1.
         11    1    1    2    0    0  0.15915152148E+02 -0.39358418062E+02 -0.12532710420E+03  0.13232256114E+03  0.00000000000E+00 0. -1.
</event>
<event>
 7    1  0.6506388E-006  0.1020431E+03  0.7561462E-02  0.1276057E+00
          4   -1    0    0  501    0  0.00000000000E+00  0.00000000000E+00  0.20011907778E+03  0.20011907778E+03  0.00000000000E+00 0.  1.
         -4   -1    0    0    0  501 -0.00000000000E+00 -0.00000000000E+00 -0.81424436968E+02  0.81424436968E+02  0.00000000000E+00 0. -1.
         23    2    1    2    0    0 -0.56420382973E+02 -0.22843900495E+02  0.30142919695E+02  0.14234208117E+03  0.12509024366E+03 0.  0.
          5    1    3    3  502    0 -0.34468292771E+02 -0.55870848043E+02 -0.28284494446E+02  0.71603770108E+02  0.41800000000E+01 0. -1.
         -5    1    3    3    0  502 -0.21952090202E+02  0.33026947548E+02  0.58427414141E+02  0.70738311061E+02  0.41800000000E+01 0. -1.
        -11    1    1    2    0    0  0.64890873008E+02 -0.89690221519E+01  0.30046834825E+02  0.72069973228E+02  0.00000000000E+00 0. -1.
         11    1    1    2    0    0 -0.84704900347E+01  0.31812922647E+02  0.58504886290E+02  0.67131460349E+02  0.00000000000E+00 0.  1.
</event>
<event>
 6    1  0.6506388E-006  0.1126166E+03  0.7561462E-02  0.1255800E+00
         -2   -1    0    0    0  501 -0.00000000000E+00  0.00000000000E+00  0.77017836514E+02  0.77017836514E+02  0.00000000000E+00 0.  1.
          2   -1    0    0  501    0  0.00000000000E+00 -0.00000000000E+00 -0.18766428523E+03  0.18766428523E+03  0.00000000000E+00 0. -1.
          5    1    1    2  502    0 -0.56726970701E+02  0.11438375358E+02 -0.62362121455E+02  0.85178003194E+02  0.41800000000E+01 0. -1.
         -5    1    1    2    0  502  0.67491752846E+02 -0.27928952918E+02  0.12599962748E+01  0.73172557041E+02  0.41800000000E+01 0.  1.
        -11    1    1    2    0    0  0.38530659421E+02  0.22132327301E+02 -0.24787351964E+02  0.50880884864E+02  0.00000000000E+00 0.  1.
         11    1    1    2    0    0 -0.49295441566E+02 -0.56417497412E+01 -0.24756971577E+02  0.55450676650E+02  0.00000000000E+00 0. -1.
</event>
<event>
 7    1  0.6506388E-006  0.9839757E+02  0.7561462E-02  0.1283702E+00
         -4   -1    0    0    0  501 -0.00000000000E+00  0.00000000000E+00  0.19390676575E+03  0.19390676575E+03  0.00000000000E+00 0.  1.
          4   -1    0    0  501    0  0.00000000000E+00 -0.00000000000E+00 -0.61841290099E+02  0.61841290099E+02  0.00000000000E+00 0. -1.
         23    2    1    2    0    0 -0.87863771890E+01 -0.79064731166E+01  0.89736178320E+02  0.15439979911E+03  0.12508798314E+03 0.  0.
          5    1    3    3  502    0 -0.64734798123E+02  0.10107632827E+02  0.37222680051E+02  0.75470250030E+02  0.41800000000E+01 0. -1.
         -5    1    3    3    0  502  0.55948420934E+02 -0.18014105944E+02  0.52513498269E+02  0.78929549083E+02  0.41800000000E+01 0. -1.
        -11    1    1    2    0    0 -0.29051948985E+02  0.16506849999E+02 -0.11193769461E+02  0.35239073646E+02  0.00000000000E+00 0. -1.
         11    1    1    2    0    0  0.37838326174E+02 -0.86003768823E+01  0.53523066792E+02  0.66109183091E+02  0.00000000000E+00 0.  1.
</event>
<event>
 7    1  0.6506388E-006  0.8723528E+02  0.7561462E-02  0.1309688E+00
         -2   -1    0    0    0  501 -0.00000000000E+00  0.00000000000E+00  0.31064896543E+02  0.31064896543E+02  0.00000000000E+00 0.  1.
          2   -1    0    0  501    0  0.00000000000E+00 -0.00000000000E+00 -0.48061899016E+03  0.48061899016E+03  0.00000000000E+00 0. -1.
         23    2    1    2    0    0 -0.98620169830E+01 -0.45585251564E+02 -0.13289485378E+03  0.17877930955E+03  0.11011686893E+03 0.  0.
          5    1    3    3  502    0  0.25427892679E+02 -0.39332181566E+02 -0.13467998847E+03  0.14265261977E+03  0.41800000000E+01 0. -1.
         -5    1    3    3    0  502 -0.35289909662E+02 -0.62530699981E+01  0.17851346957E+01  0.36126689777E+02  0.41800000000E+01 0.  1.
        -11    1    1    2    0    0 -0.20541944773E+02 -0.13733052388E+02 -0.31376095232E+02  0.39937796321E+02  0.00000000000E+00 0.  1.
         11    1    1    2    0    0  0.30403961756E+02  0.59318303952E+02 -0.28528314461E+03  0.29296678083E+03  0.00000000000E+00 0. -1.
</event>
<event>
 7    1  0.6506388E-006  0.9819839E+02  0.7561462E-02  0.1284131E+00
         -2   -1    0    0    0  501 -0.00000000000E+00  0.00000000000E+00  0.25894988797E+02  0.25894988797E+02  0.00000000000E+00 0.  1.
          2   -1    0    0  501    0  0.00000000000E+00 -0.00000000000E+00 -0.72569350926E+03  0.72569350926E+03  0.00000000000E+00 0. -1.
         23    2    1    2    0    0 -0.48813132064E+02  0.32640397153E+02 -0.21126818602E+03  0.25245146373E+03  0.12509747291E+03 0.  0.
          5    1    3    3  502    0 -0.13194346168E+02  0.55802831482E+02 -0.27394557656E+02  0.63686583842E+02  0.41800000000E+01 0. -1.
         -5    1    3    3    0  502 -0.35618785896E+02 -0.23162434330E+02 -0.18387362837E+03  0.18876487989E+03  0.41800000000E+01 0. -1.
        -11    1    1    2    0    0  0.67879615963E+02 -0.13529319828E+02 -0.41654341381E+03  0.42225478132E+03  0.00000000000E+00 0. -1.
         11    1    1    2    0    0 -0.19066483900E+02 -0.19111077325E+02 -0.71986920630E+02  0.76882253001E+02  0.00000000000E+00 0.  1.
</event>
<event>
 7    1  0.6989023E-006  0.7985794E+02  0.7561462E-02  0.1329455E+00
          1   -1    0    0  501    0  0.00000000000E+00  0.00000000000E+00  0.48345873454E+02  0.48345873454E+02  0.00000000000E+00 0. -1.
         -1   -1    0    0    0  501 -0.00000000000E+00 -0.00000000000E+00 -0.27259562323E+03  0.27259562323E+03  0.00000000000E+00 0.  1.
         23    2    1    2    0    0  0.13565176240E+02 -0.35922334924E+02 -0.14098110452E+03  0.19234733493E+03  0.12508955700E+03 0.  0.
          5    1    3    3  502    0 -0.28239357724E+02 -0.15576567494E+02 -0.14197970863E+03  0.14565644800E+03  0.41800000000E+01 0. -1.
         -5    1    3    3    0  502  0.41804533964E+02 -0.20345767430E+02  0.99860411934E+00  0.46690886932E+02  0.41800000000E+01 0. -1.
        -11    1    1    2    0    0  0.16055738115E+02  0.46397417671E+02 -0.11756986010E+02  0.50484986015E+02  0.00000000000E+00 0. -1.
         11    1    1    2    0    0 -0.29620914355E+02 -0.10475082747E+02 -0.71511659247E+02  0.78109175735E+02  0.00000000000E+00 0.  1.
</event>
<event>
 7    1  0.6506388E-006  0.3243218E+03  0.7561462E-02  0.1073677E+00
         -2   -1    0    0    0  501 -0.00000000000E+00  0.00000000000E+00  0.13475260428E+03  0.13475260428E+03  0.00000000000E+00 0. -1.
          2   -1    0    0  501    0  0.00000000000E+00 -0.00000000000E+00 -0.86529427102E+03  0.86529427102E+03  0.00000000000E+00 0.  1.
         23    2    1    2    0    0 -0.21229790397E+03 -0.22709529177E+03 -0.23593775423E+03  0.40982621948E+03  0.12509290441E+03 0.  0.
          5    1    3    3  502    0 -0.91729570224E+02 -0.29187746120E+02 -0.33262092076E+02  0.10193173081E+03  0.41800000000E+01 0. -1.
         -5    1    3    3    0  502 -0.12056833374E+03 -0.19790754565E+03 -0.20267566215E+03  0.30789448867E+03  0.41800000000E+01 0. -1.
        -11    1    1    2    0    0  0.57194752875E+02  0.11723672771E+03 -0.17327604596E+03  0.21688770870E+03  0.00000000000E+00 0.  1.
         11    1    1    2    0    0  0.15510315109E+03  0.10985856405E+03 -0.32132786655E+03  0.37333294711E+03  0.00000000000E+00 0. -1.
</event>
<event>
 7    1  0.6506388E-006  0.1013763E+03  0.7561462E-02  0.1277428E+00
          1   -1    0    0  501    0  0.00000000000E+00  0.00000000000E+00  0.14474246849E+03  0.14474246849E+03  0.00000000000E+00 0. -1.
         -1   -1    0    0    0  501 -0.00000000000E+00 -0.00000000000E+00 -0.14505062543E+03  0.14505062543E+03  0.00000000000E+00 0.  1.
         23    2    1    2    0    0  0.74470752190E+02  0.11632990929E+02 -0.56798569399E+02  0.15669881287E+03  0.12508885266E+03 0.  0.
          5    1    3    3  502    0  0.78188930167E+02  0.96748816856E+01 -0.91888476120E+02  0.12111183501E+03  0.41800000000E+01 0.  1.
         -5    1    3    3    0  502 -0.37181779766E+01  0.19581092437E+01  0.35089906721E+02  0.35586977857E+02  0.41800000000E+01 0.  1.
        -11    1    1    2    0    0 -0.75856108649E+01  0.35373942594E+02  0.30475884298E+02  0.47303666143E+02  0.00000000000E+00 0. -1.
         11    1    1    2    0    0 -0.66885141325E+02 -0.47006933523E+02  0.26014528162E+02  0.85790614899E+02  0.00000000000E+00 0.  1.
</event>
<event>
 7    1  0.8062214E-006  0.1672164E+03  0.7561462E-02  0.1180782E+00
          2   -1    0    0  501    0  0.00000000000E+00  0.00000000000E+00  0.92145020643E+03  0.92145020643E+03  0.00000000000E+00 0. -1.
         -2   -1    0    0    0  501 -0.00000000000E+00 -0.00000000000E+00 -0.37886175658E+02  0.37886175658E+02  0.00000000000E+00 0.  1.
         23    2    1    2    0    0 -0.68227876682E+00 -0.14441279327E+03  0.34474529058E+03  0.39414769115E+03  0.12509023421E+03 0.  0.
          5    1    3    3  502    0  0.43079312249E+02 -0.13036529276E+03  0.29959676448E+03  0.32958554335E+03  0.41800000000E+01 0. -1.
         -5    1    3    3    0  502 -0.43761591016E+02 -0.14047500515E+02  0.45148526102E+02  0.64562147797E+02  0.41800000000E+01 0. -1.
        -11    1    1    2    0    0 -0.21576890434E+02  0.70413678893E+02  0.39614417266E+03  0.40293157472E+03  0.00000000000E+00 0. -1.
         11    1    1    2    0    0  0.22259169201E+02  0.73999114381E+02  0.14267456752E+03  0.16225711621E+03  0.00000000000E+00 0.  1.
</event>
<event>
 7    1  0.6506388E-006  0.1033931E+03  0.7561462E-02  0.1273318E+00
          1   -1    0    0  501    0  0.00000000000E+00  0.00000000000E+00  0.45131147043E+02  0.45131147043E+02  0.00000000000E+00 0. -1.
         -1   -1    0    0    0  501 -0.00000000000E+00 -0.00000000000E+00 -0.43721022028E+03  0.43721022028E+03  0.00000000000E+00 0.  1.
         23    2    1    2    0    0  0.78337724800E+02 -0.41593839855E+02 -0.23609696718E+03  0.28152540559E+03  0.12509168413E+03 0.  0.
          5    1    3    3  502    0  0.39032439551E+02 -0.54632346243E+02 -0.22978178681E+03  0.23942716334E+03  0.41800000000E+01 0.  1.
         -5    1    3    3    0  502  0.39305285249E+02  0.13038506388E+02 -0.63151803667E+01  0.42098242249E+02  0.41800000000E+01 0.  1.
        -11    1    1    2    0    0 -0.15941540114E+02 -0.83244458238E+01 -0.10387569322E+03  0.10542100712E+03  0.00000000000E+00 0.  1.
         11    1    1    2    0    0 -0.62396184686E+02  0.49918285679E+02 -0.52106412842E+02  0.95394954624E+02  0.00000000000E+00 0. -1.
</event>
<event>
 7    1  0.6506388E-006  0.1278887E+03  0.7561462E-02  0.1230623E+00
          1   -1    0    0  501    0  0.00000000000E+00  0.00000000000E+00  0.52174336384E+03  0.52174336384E+03  0.00000000000E+00 0. -1.
         -1   -1    0    0    0  501 -0.00000000000E+00 -0.00000000000E+00 -0.32382929196E+02  0.32382929196E+02  0.00000000000E+00 0.  1.
         23    2    1    2    0    0  0.23950552450E+02 -0.62539365360E+02  0.22313066050E+03  0.26442384981E+03  0.12509148456E+03 0.  0.
          5    1    3    3  502    0  0.49409813655E+02 -0.90727150513E+02  0.17013523986E+03  0.19908846719E+03  0.41800000000E+01 0. -1.
         -5    1    3    3    0  502 -0.25459261205E+02  0.28187785153E+02  0.52995420647E+02  0.65335382623E+02  0.41800000000E+01 0. -1.
        -11    1    1    2    0    0 -0.24424197328E+02 -0.20038305237E+02  0.77995727501E+02  0.84151105758E+02  0.00000000000E+00 0.  1.
         11    1    1    2    0    0  0.47364487869E+00  0.82577670597E+02  0.18823404664E+03  0.20555133747E+03  0.00000000000E+00 0. -1.
</event>
<event>
 7    1  0.6506388E-006  0.1198554E+03  0.7561462E-02  0.1243336E+00
          2   -1    0    0  501    0  0.00000000000E+00  0.00000000000E+00  0.25841774061E+03  0.25841774061E+03  0.00000000000E+00 0. -1.
         -2   -1    0    0    0  501 -0.00000000000E+00 -0.00000000000E+00 -0.68339627804E+02  0.68339627804E+02  0.00000000000E+00 0.  1.
         23    2    1    2    0    0  0.45397173755E+01  0.76707422155E+02  0.10961654948E+03  0.18320785800E+03  0.12507874985E+03 0.  0.
          5    1    3    3  502    0 -0.51519009916E+02  0.86019019129E-01  0.41478257089E+02  0.66273177026E+02  0.41800000000E+01 0.  1.
         -5    1    3    3    0  502  0.56058727291E+02  0.76621403136E+02  0.68138292392E+02  0.11693468097E+03  0.41800000000E+01 0.  1.
        -11    1    1    2    0    0 -0.28137664974E+02 -0.33404171546E+02  0.83402328336E+02  0.94146243891E+02  0.00000000000E+00 0. -1.
         11    1    1    2    0    0  0.23597947598E+02 -0.43303250609E+02 -0.29407650145E+01  0.49403266521E+02  0.00000000000E+00 0.  1.
</event>
<event>
 7    1  0.6506388E-006  0.7065097E+02  0.7561462E-02  0.1357893E+00
          1   -1    0    0  501    0  0.00000000000E+00  0.00000000000E+00  0.24132922410E+02  0.24132922410E+02  0.00000000000E+00 0. -1.
         -1   -1    0    0    0  501 -0.00000000000E+00 -0.00000000000E+00 -0.64037601547E+03  0.64037601547E+03  0.00000000000E+00 0.  1.
         23    2    1    2    0    0  0.23380003449E+02 -0.11294254318E+01 -0.45333544798E+03  0.47085929638E+03  0.12509016119E+03 0.  0.
          5    1    3    3  502    0  0.25407333344E+02 -0.21549021817E+02 -0.44798991866E+03  0.44924640516E+03  0.41800000000E+01 0.  1.
         -5    1    3    3    0  502 -0.20273298954E+01  0.20419596385E+02 -0.53455293205E+01  0.21612891217E+02  0.41800000000E+01 0.  1.
        -11    1    1    2    0    0  0.12360505603E+02 -0.34299915045E+02 -0.12619577168E+03  0.13135691478E+03  0.00000000000E+00 0.  1.
         11    1    1    2    0    0 -0.35740509052E+02  0.35429340477E+02 -0.36711873400E+02  0.62292726722E+02  0.00000000000E+00 0. -1.
</event>
<event>
 7    1  0.6506388E-006  0.9748631E+02  0.7561462E-02  0.1285672E+00
          4   -1    0    0  501    0  0.00000000000E+00  0.00000000000E+00  0.35876392208E+02  0.35876392208E+02  0.00000000000E+00 0. -1.
         -4   -1    0    0    0  501 -0.00000000000E+00 -0.00000000000E+00 -0.40779757626E+03  0.40779757626E+03  0.00000000000E+00 0.  1.
         23    2    1    2    0    0  0.22537713797E+02  0.13275501118E+02 -0.28807023659E+03  0.31514554301E+03  0.12509222435E+03 0.  0.
          5    1    3    3  502    0 -0.33018694730E+02 -0.23255222760E+02 -0.35488723287E+02  0.53925517780E+02  0.41800000000E+01 0.  1.
         -5    1    3    3    0  502  0.55556408526E+02  0.36530723877E+02 -0.25258151331E+03  0.26122002523E+03  0.41800000000E+01 0.  1.
        -11    1    1    2    0    0 -0.27156250575E+02 -0.46691896203E+02 -0.77079550972E+02  0.94121476266E+02  0.00000000000E+00 0.  1.
         11    1    1    2    0    0  0.46185367779E+01  0.33416395085E+02 -0.67713964835E+01  0.34406949193E+02  0.00000000000E+00 0. -1.
</event>
<event>
 7    1  0.6506388E-006  0.1906494E+03  0.7561462E-02  0.1157877E+00
         -4   -1    0    0    0  501 -0.00000000000E+00  0.00000000000E+00  0.38139424058E+02  0.38139424058E+02  0.00000000000E+00 0.  1.
          4   -1    0    0  501    0  0.00000000000E+00 -0.00000000000E+00 -0.99317259261E+03  0.99317259261E+03  0.00000000000E+00 0. -1.
         23    2    1    2    0    0  0.15297564139E+03 -0.42620329103E+02 -0.41936792829E+03  0.46550080125E+03  0.12491395990E+03 0.  0.
          5    1    3    3  502    0  0.70689246582E+00 -0.46508544760E+02 -0.67755287503E+02  0.82290921840E+02  0.41800000000E+01 0. -1.
         -5    1    3    3    0  502  0.15226874892E+03  0.38882156565E+01 -0.35161264078E+03  0.38320987941E+03  0.41800000000E+01 0. -1.
        -11    1    1    2    0    0 -0.31015427555E+02  0.51306430140E+02 -0.17709464102E+03  0.18696742603E+03  0.00000000000E+00 0. -1.
         11    1    1    2    0    0 -0.12196021383E+03 -0.86861010361E+01 -0.35857059925E+03  0.37884378939E+03  0.00000000000E+00 0.  1.
</event>
<event>
 7    1  0.6506388E-006  0.1163643E+03  0.7561462E-02  0.1249218E+00
          1   -1    0    0  501    0  0.00000000000E+00  0.00000000000E+00  0.36308007385E+02  0.36308007385E+02  0.00000000000E+00 0. -1.
         -1   -1    0    0    0  501 -0.00000000000E+00 -0.00000000000E+00 -0.58808525245E+03  0.58808525245E+03  0.00000000000E+00 0.  1.
         23    2    1    2    0    0  0.60192055973E+02  0.44847965039E+02 -0.43361700011E+03  0.45749729221E+03  0.12508255684E+03 0.  0.
          5    1    3    3  502    0  0.88553530552E+02  0.37828218960E+01 -0.20367286861E+03  0.22216243455E+03  0.41800000000E+01 0.  1.
         -5    1    3    3    0  502 -0.28361474580E+02  0.41065143143E+02 -0.22994413149E+03  0.23533485766E+03  0.41800000000E+01 0.  1.
        -11    1    1    2    0    0 -0.52178801416E+02 -0.58309962437E+02 -0.41344356669E+02  0.88498784539E+02  0.00000000000E+00 0. -1.
         11    1    1    2    0    0 -0.80132545569E+01  0.13461997398E+02 -0.76815888287E+02  0.78397183087E+02  0.00000000000E+00 0.  1.
</event>
<event>
 7    1  0.6506388E-006  0.1083839E+03  0.7561462E-02  0.1263592E+00
          1   -1    0    0  501    0  0.00000000000E+00  0.00000000000E+00  0.40306878056E+02  0.40306878056E+02  0.00000000000E+00 0. -1.
         -1   -1    0    0    0  501 -0.00000000000E+00 -0.00000000000E+00 -0.39065712760E+03  0.39065712760E+03  0.00000000000E+00 0.  1.
         23    2    1    2    0    0  0.21757502257E+02  0.43757871737E+02 -0.26756098093E+03  0.29937293457E+03  0.12508850944E+03 0.  0.
          5    1    3    3  502    0  0.55932046207E+02 -0.49115137644E+01 -0.20648912003E+03  0.21402744182E+03  0.41800000000E+01 0. -1.
         -5    1    3    3    0  502 -0.34174543950E+02  0.48669385501E+02 -0.61071860900E+02  0.85345492752E+02  0.41800000000E+01 0. -1.
        -11    1    1    2    0    0 -0.24432903855E+02 -0.70169840547E+02 -0.70163890698E+02  0.10219464209E+03  0.00000000000E+00 0.  1.
         11    1    1    2    0    0  0.26754015981E+01  0.26411968810E+02 -0.12625377907E+02  0.29396428991E+02  0.00000000000E+00 0. -1.
</event>
<event>
 7    1  0.6506388E-006  0.8929549E+02  0.7561462E-02  0.1304567E+00
         -2   -1    0    0    0  501 -0.00000000000E+00  0.00000000000E+00  0.45883898225E+02  0.45883898225E+02  0.00000000000E+00 0. -1.
          2   -1    0    0  501    0  0.00000000000E+00 -0.00000000000E+00 -0.27471519343E+03  0.27471519343E+03  0.00000000000E+00 0.  1.
         23    2    1    2    0    0  0.21576256336E+02  0.29756745993E+02 -0.11909104571E+03  0.17658107869E+03  0.12508877412E+03 0.  0.
          5    1    3    3  502    0  0.43036580301E+02 -0.17577290478E+02 -0.11520008584E+03  0.12429658307E+03  0.41800000000E+01 0. -1.
         -5    1    3    3    0  502 -0.21460323964E+02  0.47334036471E+02 -0.38909598717E+01  0.52284495618E+02  0.41800000000E+01 0. -1.
        -11    1    1    2    0    0 -0.29772200040E+02  0.15650550664E+02 -0.85541000246E+02  0.91916192014E+02  0.00000000000E+00 0.  1.
         11    1    1    2    0    0  0.81959437034E+01 -0.45407296658E+02 -0.24199249250E+02  0.52101820959E+02  0.00000000000E+00 0. -1.
</event>
<event>
 7    1  0.6506388E-006  0.1098058E+03  0.7561462E-02  0.1260930E+00
          1   -1    0    0  501    0  0.00000000000E+00  0.00000000000E+00  0.66354676024E+03  0.66354676024E+03  0.00000000000E+00 0. -1.
         -1   -1    0    0    0  501 -0.00000000000E+00 -0.00000000000E+00 -0.19844432714E+02  0.19844432714E+02  0.00000000000E+00 0.  1.
         23    2    1    2    0    0  0.34013061692E+02 -0.94878674870E+01  0.31724725127E+03  0.34282611160E+03  0.12504805620E+03 0.  0.
          5    1    3    3  502    0 -0.43548742547E+02  0.95503235606E+01  0.71225105713E+02  0.84131978114E+02  0.41800000000E+01 0. -1.
         -5    1    3    3    0  502  0.77561804239E+02 -0.19038191048E+02  0.24602214556E+03  0.25869413348E+03  0.41800000000E+01 0. -1.
        -11    1    1    2    0    0 -0.54980405799E+02 -0.20147954961E+02  0.16509807102E+03  0.17517465047E+03  0.00000000000E+00 0. -1.
         11    1    1    2    0    0  0.20967344107E+02  0.29635822448E+02  0.16135700523E+03  0.16539043088E+03  0.00000000000E+00 0.  1.
</event>
<event>
 7    1  0.6506388E-006  0.1030374E+03  0.7561462E-02  0.1274035E+00
         -1   -1    0    0    0  501 -0.00000000000E+00  0.00000000000E+00  0.67136587247E+02  0.67136587247E+02  0.00000000000E+00 0.  1.
          1   -1    0    0  501    0  0.00000000000E+00 -0.00000000000E+00 -0.21719441232E+03  0.21719441232E+03  0.00000000000E+00 0. -1.
         23    2    1    2    0    0 -0.49145403361E+02  0.17730150358E+01 -0.56176792075E+02  0.14567963496E+03  0.12509320453E+03 0.  0.
          5    1    3    3  502    0 -0.20495675987E+01 -0.41615805970E+02  0.19722624799E+02  0.46287475226E+02  0.41800000000E+01 0.  1.
         -5    1    3    3    0  502 -0.47095835762E+02  0.43388821006E+02 -0.75899416875E+02  0.99392159733E+02  0.41800000000E+01 0.  1.
        -11    1    1    2    0    0  0.70704107309E+02  0.15522624953E+02 -0.54832401892E+02  0.90810874751E+02  0.00000000000E+00 0.  1.
         11    1    1    2    0    0 -0.21558703948E+02 -0.17295639989E+02 -0.39048631109E+02  0.47840489860E+02  0.00000000000E+00 0. -1.
</event>
<event>
 7    1  0.6506388E-006  0.1137416E+03  0.7561462E-02  0.1253794E+00
          1   -1    0    0  501    0  0.00000000000E+00  0.00000000000E+00  0.14120158864E+03  0.14120158864E+03  0.00000000000E+00 0. -1.
         -1   -1    0    0    0  501 -0.00000000000E+00 -0.00000000000E+00 -0.11287270874E+03  0.11287270874E+03  0.00000000000E+00 0.  1.
         23    2    1    2    0    0 -0.16592513549E+02 -0.60539638752E+02 -0.55239175592E+01  0.14005799533E+03  0.12508144957E+03 0.  0.
          5    1    3    3  502    0  0.98017020807E+01 -0.95026582679E+02 -0.10268485943E+02  0.96171924089E+02  0.41800000000E+01 0. -1.
         -5    1    3    3    0  502 -0.26394215630E+02  0.34486943927E+02  0.47445683837E+01  0.43886071244E+02  0.41800000000E+01 0. -1.
        -11    1    1    2    0    0 -0.15321857346E+02 -0.43429078136E+01  0.38395220317E+02  0.41566971312E+02  0.00000000000E+00 0. -1.
         11    1    1    2    0    0  0.31914370896E+02  0.64882546566E+02 -0.45424228642E+01  0.72449330736E+02  0.00000000000E+00 0.  1.
</event>
<event>
 7    1  0.6506388E-006  0.1022709E+03  0.7561462E-02  0.1275592E+00
         -1   -1    0    0    0  501 -0.00000000000E+00  0.00000000000E+00  0.75683186949E+02  0.75683186949E+02  0.00000000000E+00 0.  1.
          1   -1    0    0  501    0  0.00000000000E+00 -0.00000000000E+00 -0.20044861721E+03  0.20044861721E+03  0.00000000000E+00 0. -1.
         23    2    1    2    0    0 -0.17292352221E+02 -0.16031686556E+02 -0.97508246881E+01  0.12766510329E+03  0.12508900670E+03 0.  0.
          5    1    3    3  502    0 -0.87811793136E+01 -0.66879820370E+02  0.16633178493E+02  0.69599960558E+02  0.41800000000E+01 0. -1.
         -5    1    3    3    0  502 -0.85111729074E+01  0.50848133814E+02 -0.26384003181E+02  0.58065142732E+02  0.41800000000E+01 0. -1.
        -11    1    1    2    0    0  0.49584514723E+02  0.95028612633E+00 -0.34490868362E+02  0.60408171172E+02  0.00000000000E+00 0.  1.
         11    1    1    2    0    0 -0.32292162502E+02  0.15081400430E+02 -0.80523737211E+02  0.88058529697E+02  0.00000000000E+00 0. -1.
</event>
<event>
 7    1  0.6506388E-006  0.2226256E+03  0.7561462E-02  0.1131941E+00
          2   -1    0    0  501    0  0.00000000000E+00  0.00000000000E+00  0.59027656356E+03  0.59027656356E+03  0.00000000000E+00 0. -1.
         -2   -1    0    0    0  501 -0.00000000000E+00 -0.00000000000E+00 -0.11230850453E+03  0.11230850453E+03  0.00000000000E+00 0.  1.
         23    2    1    2    0    0 -0.16108352993E+02 -0.20577111865E+03  0.95854688422E+02  0.25969167344E+03  0.12510160533E+03 0.  0.
          5    1    3    3  502    0  0.41814299560E+02 -0.13747958063E+03  0.90529448953E+02  0.16988856426E+03  0.41800000000E+01 0. -1.
         -5    1    3    3    0  502 -0.57922652553E+02 -0.68291538012E+02  0.53252394693E+01  0.89803109179E+02  0.41800000000E+01 0. -1.
        -11    1    1    2    0    0  0.33212609337E+02  0.14055755310E+03  0.18583955925E+03  0.23536321916E+03  0.00000000000E+00 0.  1.
         11    1    1    2    0    0 -0.17104256344E+02  0.65213565550E+02  0.19627381135E+03  0.20753017549E+03  0.00000000000E+00 0. -1.
</event>
<event>
 6    1  0.6506388E-006  0.8752920E+02  0.7561462E-02  0.1308948E+00
          2   -1    0    0  501    0  0.00000000000E+00  0.00000000000E+00  0.38989651118E+03  0.38989651118E+03  0.00000000000E+00 0. -1.
         -2   -1    0    0    0  501 -0.00000000000E+00 -0.00000000000E+00 -0.43047553195E+02  0.43047553195E+02  0.00000000000E+00 0.  1.
          5    1    1    2  502    0  0.96947734021E+01 -0.14869774902E+02  0.19483828009E+03  0.19568987359E+03  0.41800000000E+01 0. -1.
         -5    1    1    2    0  502 -0.60822045565E+02  0.17488415169E+02  0.12307914374E+02  0.64607453503E+02  0.41800000000E+01 0.  1.
        -11    1    1    2    0    0  0.89880678228E+00  0.32243624440E+02  0.83828922535E+02  0.89820640300E+02  0.00000000000E+00 0.  1.
         11    1    1    2    0    0  0.50228465381E+02 -0.34862264706E+02  0.55873840988E+02  0.82826096984E+02  0.00000000000E+00 0. -1.
</event>
<event>
 7    1  0.6506388E-006  0.1564479E+03  0.7561462E-02  0.1192766E+00
         -1   -1    0    0    0  501 -0.00000000000E+00  0.00000000000E+00  0.12653963833E+03  0.12653963833E+03  0.00000000000E+00 0.  1.
          1   -1    0    0  501    0  0.00000000000E+00 -0.00000000000E+00 -0.30561336518E+03  0.30561336518E+03  0.00000000000E+00 0. -1.
         23    2    1    2    0    0 -0.10251998017E+03 -0.11419555179E+03 -0.33586121163E+02  0.20081124318E+03  0.12508460125E+03 0.  0.
          5    1    3    3  502    0 -0.21895781245E+02 -0.30708651189E+02 -0.69554268973E+02  0.79232034094E+02  0.41800000000E+01 0.  1.
         -5    1    3    3    0  502 -0.80624198928E+02 -0.83486900601E+02  0.35968147810E+02  0.12157920908E+03  0.41800000000E+01 0.  1.
        -11    1    1    2    0    0  0.38816571835E+02  0.73786756584E+02 -0.21324751972E+02  0.86057868570E+02  0.00000000000E+00 0.  1.
         11    1    1    2    0    0  0.63703408339E+02  0.40408795206E+02 -0.12416285371E+03  0.14528389176E+03  0.00000000000E+00 0. -1.
</event>
<event>
 6    1  0.6506388E-006  0.1579340E+03  0.7561462E-02  0.1191049E+00
          2   -1    0    0  501    0  0.00000000000E+00  0.00000000000E+00  0.51420779567E+02  0.51420779567E+02  0.00000000000E+00 0. -1.
         -2   -1    0    0    0  501 -0.00000000000E+00 -0.00000000000E+00 -0.91859012378E+03  0.91859012378E+03  0.00000000000E+00 0.  1.
          5    1    1    2  502    0  0.83928026653E+01 -0.83216008517E+02 -0.49150615297E+03  0.49858912344E+03  0.41800000000E+01 0. -1.
         -5    1    1    2    0  502  0.69848652892E+02  0.10993871143E+03 -0.29654526506E+03  0.32391653433E+03  0.41800000000E+01 0.  1.
        -11    1    1    2    0    0 -0.75790605407E+02 -0.82622924919E+00 -0.13590853224E+02  0.77003959730E+02  0.00000000000E+00 0. -1.
         11    1    1    2    0    0 -0.24508501503E+01 -0.25896473667E+02 -0.65527072962E+02  0.70501285845E+02  0.00000000000E+00 0.  1.
</event>
<event>
 7    1  0.6506388E-006  0.1369781E+03  0.7561462E-02  0.1217454E+00
         -1   -1    0    0    0  501 -0.00000000000E+00  0.00000000000E+00  0.15787355494E+03  0.15787355494E+03  0.00000000000E+00 0.  1.
          1   -1    0    0  501    0  0.00000000000E+00 -0.00000000000E+00 -0.15130430601E+03  0.15130430601E+03  0.00000000000E+00 0. -1.
         23    2    1    2    0    0 -0.75918512363E+02 -0.57738018138E+02  0.60089499936E+02  0.16838194193E+03  0.12507770028E+03 0.  0.
          5    1    3    3  502    0  0.19797195574E+02  0.13896445964E+02  0.40217246141E+02  0.47116233404E+02  0.41800000000E+01 0.  1.
         -5    1    3    3    0  502 -0.95715707937E+02 -0.71634464102E+02  0.19872253795E+02  0.12126570852E+03  0.41800000000E+01 0.  1.
        -11    1    1    2    0    0  0.32912366317E+02 -0.21720406383E+02 -0.10991494495E+02  0.40936693336E+02  0.00000000000E+00 0.  1.
         11    1    1    2    0    0  0.43006146047E+02  0.79458424521E+02 -0.42528756501E+02  0.99859225686E+02  0.00000000000E+00 0. -1.
</event>
<event>
 7    1  0.6506388E-006  0.1649012E+03  0.7561462E-02  0.1183272E+00
         -2   -1    0    0    0  501 -0.00000000000E+00  0.00000000000E+00  0.14747812944E+03  0.14747812944E+03  0.00000000000E+00 0.  1.
          2   -1    0    0  501    0  0.00000000000E+00 -0.00000000000E+00 -0.20802010785E+03  0.20802010785E+03  0.00000000000E+00 0. -1.
         23    2    1    2    0    0 -0.11917778963E+03 -0.51122280396E+02  0.12895717140E+02  0.18064000839E+03  0.12509068716E+03 0.  0.
          5    1    3    3  502    0 -0.10825556641E+03  0.10138672886E+02  0.35266385923E+02  0.11438203846E+03  0.41800000000E+01 0. -1.
         -5    1    3    3    0  502 -0.10922223224E+02 -0.61260953282E+02 -0.22370668783E+02  0.66257969928E+02  0.41800000000E+01 0. -1.
        -11    1    1    2    0    0  0.13213542009E+03  0.57593809153E+02 -0.68138088163E+02  0.15943530084E+03  0.00000000000E+00 0.  1.
         11    1    1    2    0    0 -0.12957630459E+02 -0.64715287577E+01 -0.52996073913E+01  0.15422928064E+02  0.00000000000E+00 0. -1.
</event>
<event>
 7    1  0.6506388E-006  0.1128612E+03  0.7561462E-02  0.1255361E+00
         -2   -1    0    0    0  501 -0.00000000000E+00  0.00000000000E+00  0.30533657262E+03  0.30533657262E+03  0.00000000000E+00 0.  1.
          2   -1    0    0  501    0  0.00000000000E+00 -0.00000000000E+00 -0.46005249999E+02  0.46005249999E+02  0.00000000000E+00 0. -1.
         23    2    1    2    0    0  0.39314375282E+02  0.23299459501E+02  0.16960951870E+03  0.21564678868E+03  0.12509062202E+03 0.  0.
          5    1    3    3  502    0  0.54221933095E+02 -0.37437584503E+02  0.11456863604E+03  0.13223099306E+03  0.41800000000E+01 0.  1.
         -5    1    3    3    0  502 -0.14907557814E+02  0.60737044004E+02  0.55040882661E+02  0.83415795617E+02  0.41800000000E+01 0.  1.
        -11    1    1    2    0    0 -0.32099442103E+02  0.29580084890E+02  0.61230590556E+02  0.75196680946E+02  0.00000000000E+00 0.  1.
         11    1    1    2    0    0 -0.72149331788E+01 -0.52879544391E+02  0.28491213356E+02  0.60498352988E+02  0.00000000000E+00 0. -1.
</event>
<event>
 6    1  0.6506388E-006  0.1316229E+03  0.7561462E-02  0.1225067E+00
          1   -1    0    0  501    0  0.00000000000E+00  0.00000000000E+00  0.69660604112E+02  0.69660604112E+02  0.00000000000E+00 0. -1.
         -1   -1    0    0    0  501 -0.00000000000E+00 -0.00000000000E+00 -0.27956535069E+03  0.27956535069E+03  0.00000000000E+00 0.  1.
          5    1    1    2  502    0 -0.58310030051E+02  0.98117910644E+01 -0.75914194235E+02  0.96315980682E+02  0.41800000000E+01 0. -1.
         -5    1    1    2    0  502  0.49643071497E+02 -0.81158559204E+02 -0.61944625746E+02  0.11360350056E+03  0.41800000000E+01 0.  1.
        -11    1    1    2    0    0 -0.11454214123E+02  0.84126429297E+02 -0.77386751984E+02  0.11487891238E+03  0.00000000000E+00 0.  1.
         11    1    1    2    0    0  0.20121172677E+02 -0.12779661157E+02  0.53408253912E+01  0.24427561177E+02  0.00000000000E+00 0. -1.
</event>
<event>
 7    1  0.6506388E-006  0.1025614E+03  0.7561462E-02  0.1275000E+00
         -1   -1    0    0    0  501 -0.00000000000E+00  0.00000000000E+00  0.62284288506E+02  0.62284288506E+02  0.00000000000E+00 0.  1.
          1   -1    0    0  501    0  0.00000000000E+00 -0.00000000000E+00 -0.45988338017E+03  0.45988338017E+03  0.00000000000E+00 0. -1.
         23    2    1    2    0    0  0.58522074714E+02  0.37435267188E+01 -0.34002537986E+02  0.14227628288E+03  0.12509005100E+03 0.  0.
          5    1    3    3  502    0 -0.19019466519E+02 -0.12418513922E+02  0.31740601509E+02  0.39254270836E+02  0.41800000000E+01 0.  1.
         -5    1    3    3    0  502  0.77541541233E+02  0.16162040641E+02 -0.65743139495E+02  0.10302201204E+03  0.41800000000E+01 0.  1.
        -11    1    1    2    0    0 -0.64059632236E+02  0.28413386125E+02 -0.30373160861E+03  0.31171115967E+03  0.00000000000E+00 0. -1.
         11    1    1    2    0    0  0.55375575215E+01 -0.32156912844E+02 -0.59864945064E+02  0.68180226125E+02  0.00000000000E+00 0.  1.
</event>
<event>
 7    1  0.6506388E-006  0.1110634E+03  0.7561462E-02  0.1258613E+00
         -1   -1    0    0    0  501 -0.00000000000E+00  0.00000000000E+00  0.64293155476E+02  0.64293155476E+02  0.00000000000E+00 0.  1.
          1   -1    0    0  501    0  0.00000000000E+00 -0.00000000000E+00 -0.24539687886E+03  0.24539687886E+03  0.00000000000E+00 0. -1.
         23    2    1    2    0    0 -0.58996659782E+02  0.23890486846E+02 -0.10165128826E+03  0.17329760385E+03  0.12509082248E+03 0.  0.
          5    1    3    3  502    0 -0.95862633160E+02  0.15152656925E+02 -0.92410678424E+02  0.13407629669E+03  0.41800000000E+01 0. -1.
         -5    1    3    3    0  502  0.36865973378E+02  0.87378299217E+01 -0.92406098384E+01  0.39221307156E+02  0.41800000000E+01 0. -1.
        -11    1    1    2    0    0 -0.12180982869E+02 -0.54147906295E+01  0.12757017394E+02  0.18450956452E+02  0.00000000000E+00 0.  1.
         11    1    1    2    0    0  0.71177642651E+02 -0.18475696217E+02 -0.92209452511E+02  0.11794147403E+03  0.00000000000E+00 0. -1.
</event>
<event>
 7    1  0.6506388E-006  0.1215394E+03  0.7561462E-02  0.1240579E+00
         -1   -1    0    0    0  501 -0.00000000000E+00  0.00000000000E+00  0.61837193882E+02  0.61837193882E+02  0.00000000000E+00 0. -1.
          1   -1    0    0  501    0  0.00000000000E+00 -0.00000000000E+00 -0.46762041688E+03  0.46762041688E+03  0.00000000000E+00 0.  1.
         23    2    1    2    0    0 -0.80944702964E+02  0.56421859814E+02 -0.80877664293E+02  0.17867331116E+03  0.12508990501E+03 0.  0.
          5    1    3    3  502    0 -0.86849295054E+02  0.46612898474E+02 -0.10960566819E+03  0.14746673271E+03  0.41800000000E+01 0. -1.
         -5    1    3    3    0  502  0.59045920901E+01  0.98089613404E+01  0.28728003902E+02  0.31206578449E+02  0.41800000000E+01 0. -1.
        -11    1    1    2    0    0  0.39031850868E+02  0.20906106415E+02 -0.10914412124E+03  0.11778365705E+03  0.00000000000E+00 0. -1.
         11    1    1    2    0    0  0.41912852095E+02 -0.77327966230E+02 -0.21576143747E+03  0.23300064255E+03  0.00000000000E+00 0.  1.
</event>
<event>
 7    1  0.6506388E-006  0.1822241E+03  0.7561462E-02  0.1165668E+00
         -1   -1    0    0    0  501 -0.00000000000E+00  0.00000000000E+00  0.55660808867E+02  0.55660808867E+02  0.00000000000E+00 0.  1.
          1   -1    0    0  501    0  0.00000000000E+00 -0.00000000000E+00 -0.76369295876E+03  0.76369295876E+03  0.00000000000E+00 0. -1.
         23    2    1    2    0    0  0.14140883264E+03 -0.63273066230E+02 -0.20742169575E+03  0.28752592986E+03  0.12508981419E+03 0.  0.
          5    1    3    3  502    0  0.55262074625E+02 -0.83970252706E+02 -0.15409834985E+03  0.18403443715E+03  0.41800000000E+01 0. -1.
         -5    1    3    3    0  502  0.86146758016E+02  0.20697186476E+02 -0.53323345899E+02  0.10349149271E+03  0.41800000000E+01 0. -1.
        -11    1    1    2    0    0 -0.96704819420E+02  0.81886552050E+02 -0.40936819986E+03  0.42853185712E+03  0.00000000000E+00 0. -1.
         11    1    1    2    0    0 -0.44704013222E+02 -0.18613485820E+02 -0.91242254283E+02  0.10329598065E+03  0.00000000000E+00 0.  1.
</event>
<event>
 7    1  0.6506388E-006  0.1272797E+03  0.7561462E-02  0.1231549E+00
          2   -1    0    0  501    0  0.00000000000E+00  0.00000000000E+00  0.42091910277E+03  0.42091910277E+03  0.00000000000E+00 0. -1.
         -2   -1    0    0    0  501 -0.00000000000E+00 -0.00000000000E+00 -0.70250540112E+02  0.70250540112E+02  0.00000000000E+00 0.  1.
         23    2    1    2    0    0  0.82933973254E+01 -0.77609043243E+02  0.32399720975E+02  0.15096035313E+03  0.12508933714E+03 0.  0.
          5    1    3    3  502    0  0.46625146755E+02  0.11467380467E+02  0.23117290618E+02  0.53453593426E+02  0.41800000000E+01 0. -1.
         -5    1    3    3    0  502 -0.38331749429E+02 -0.89076423710E+02  0.92824303568E+01  0.97506759707E+02  0.41800000000E+01 0. -1.
        -11    1    1    2    0    0  0.30652800772E+02  0.58213533529E+02  0.11641197148E+03  0.13371670347E+03  0.00000000000E+00 0.  1.
         11    1    1    2    0    0 -0.38946198097E+02  0.19395509713E+02  0.20185687020E+03  0.20649258628E+03  0.00000000000E+00 0. -1.
</event>
<event>
 7    1  0.6506388E-006  0.1740958E+03  0.7561462E-02  0.1173643E+00
          2   -1    0    0  501    0  0.00000000000E+00  0.00000000000E+00  0.46540970975E+03  0.46540970975E+03  0.00000000000E+00 0. -1.
         -2   -1    0    0    0  501 -0.00000000000E+00 -0.00000000000E+00 -0.79137597610E+02  0.79137597610E+02  0.00000000000E+00 0.  1.
         23    2    1    2    0    0  0.13597837718E+01 -0.15161086933E+03  0.14074078323E+03  0.24174292404E+03  0.12507585117E+03 0.  0.
          5    1    3    3  502    0 -0.60604375578E+02 -0.70091828622E+02  0.80850713582E+02  0.12304497172E+03  0.41800000000E+01 0. -1.
         -5    1    3    3    0  502  0.61964159350E+02 -0.81519040711E+02  0.59890069651E+02  0.11869795232E+03  0.41800000000E+01 0. -1.
        -11    1    1    2    0    0 -0.92225481821E+01  0.39158945732E+02  0.96503044193E+01  0.41371569963E+02  0.00000000000E+00 0.  1.
         11    1    1    2    0    0  0.78627644103E+01  0.11245192360E+03  0.23588102449E+03  0.26143281336E+03  0.00000000000E+00 0. -1.
</event>
<event>
 7    1  0.6506388E-006  0.1342211E+03  0.7561462E-02  0.1221323E+00
         -4   -1    0    0    0  501 -0.00000000000E+00  0.00000000000E+00  0.99908034777E+02  0.99908034777E+02  0.00000000000E+00 0.  1.
          4   -1    0    0  501    0  0.00000000000E+00 -0.00000000000E+00 -0.20290514809E+03  0.20290514809E+03  0.00000000000E+00 0. -1.
         23    2    1    2    0    0  0.29829375676E+02  0.86521994278E+02 -0.44141467865E+02  0.16116016383E+03  0.12509309363E+03 0.  0.
          5    1    3    3  502    0  0.49336132009E+01  0.10997979022E+03 -0.57413119315E+02  0.12423217564E+03  0.41800000000E+01 0.  1.
         -5    1    3    3    0  502  0.24895762475E+02 -0.23457795939E+02  0.13271651449E+02  0.36927988190E+02  0.41800000000E+01 0.  1.
        -11    1    1    2    0    0 -0.11707261757E+02 -0.10034115486E+03 -0.62176216791E+02  0.11862246529E+03  0.00000000000E+00 0.  1.
         11    1    1    2    0    0 -0.18122113919E+02  0.13819160583E+02  0.33205713386E+01  0.23030553752E+02  0.00000000000E+00 0. -1.
</event>
<event>
 7    1  0.6506389E-006  0.9382822E+02  0.7561462E-02  0.1293837E+00
          1   -1    0    0  501    0  0.00000000000E+00  0.00000000000E+00  0.16147211916E+03  0.16147211916E+03  0.00000000000E+00 0. -1.
         -1   -1    0    0    0  501 -0.00000000000E+00 -0.00000000000E+00 -0.89241656625E+02  0.89241656625E+02  0.00000000000E+00 0.  1.
         23    2    1    2    0    0 -0.37837515249E+02  0.33782710859E+02  0.45862314568E+02  0.14256021618E+03  0.12508842563E+03 0.  0.
          5    1    3    3  502    0  0.16412701333E+02 -0.12037183381E+02 -0.31327642493E+02  0.37592075401E+02  0.41800000000E+01 0. -1.
         -5    1    3    3    0  502 -0.54250216582E+02  0.45819894240E+02  0.77189957061E+02  0.10496814078E+03  0.41800000000E+01 0. -1.
        -11    1    1    2    0    0 -0.16726913211E+02 -0.37491709105E+02 -0.10277721680E+02  0.42320792054E+02  0.00000000000E+00 0.  1.
         11    1    1    2    0    0  0.54564428460E+02  0.37089982458E+01  0.36645869648E+02  0.65832767551E+02  0.00000000000E+00 0. -1.
</event>
<event>
 7    1  0.6506388E-006  0.1150120E+03  0.7561462E-02  0.1251560E+00
         -1   -1    0    0    0  501 -0.00000000000E+00  0.00000000000E+00  0.63911070661E+03  0.63911070661E+03  0.00000000000E+00 0.  1.
          1   -1    0    0  501    0  0.00000000000E+00 -0.00000000000E+00 -0.28070158245E+02  0.28070158245E+02  0.00000000000E+00 0. -1.
         23    2    1    2    0    0 -0.22427284737E+02  0.54438654995E+02  0.46114068958E+03  0.48141985407E+03  0.12509112697E+03 0.  0.
          5    1    3    3  502    0  0.42452440173E+02  0.16230177052E+02  0.73543230235E+02  0.86554650003E+02  0.41800000000E+01 0. -1.
         -5    1    3    3    0  502 -0.64879724911E+02  0.38208477942E+02  0.38759745934E+03  0.39486520406E+03  0.41800000000E+01 0. -1.
        -11    1    1    2    0    0 -0.33908444329E+02 -0.55056067001E+01  0.37599464732E+02  0.50929500783E+02  0.00000000000E+00 0.  1.
         11    1    1    2    0    0  0.56335729066E+02 -0.48933048294E+02  0.11230039405E+03  0.13483151000E+03  0.00000000000E+00 0. -1.
</event>
<event>
 7    1  0.6506388E-006  0.2110315E+03  0.7561462E-02  0.1140752E+00
          2   -1    0    0  501    0  0.00000000000E+00  0.00000000000E+00  0.45528231986E+02  0.45528231986E+02  0.00000000000E+00 0. -1.
         -2   -1    0    0    0  501 -0.00000000000E+00 -0.00000000000E+00 -0.11956533378E+04  0.11956533378E+04  0.00000000000E+00 0.  1.
         23    2    1    2    0    0  0.66409595666E+02  0.19529888937E+03 -0.61118922912E+03  0.65707767030E+03  0.12508757109E+03 0.  0.
          5    1    3    3  502    0 -0.10976802261E+02  0.46922443922E+02 -0.29856002513E+03  0.30245291689E+03  0.41800000000E+01 0. -1.
         -5    1    3    3    0  502  0.77386397928E+02  0.14837644544E+03 -0.31262920399E+03  0.35462475341E+03  0.41800000000E+01 0. -1.
        -11    1    1    2    0    0 -0.36918623020E+02 -0.11237171522E+03 -0.41876363379E+03  0.43514752452E+03  0.00000000000E+00 0.  1.
         11    1    1    2    0    0 -0.29490972647E+02 -0.82927174152E+02 -0.12017224295E+03  0.14895637501E+03  0.00000000000E+00 0. -1.
</event>
<event>
 7    1  0.6506388E-006  0.1209787E+03  0.7561462E-02  0.1241491E+00
          2   -1    0    0  501    0  0.00000000000E+00  0.00000000000E+00  0.30180549759E+03  0.30180549759E+03  0.00000000000E+00 0. -1.
         -2   -1    0    0    0  501 -0.00000000000E+00 -0.00000000000E+00 -0.63467523559E+02  0.63467523559E+02  0.00000000000E+00 0.  1.
         23    2    1    2    0    0  0.43777043735E+02 -0.64222035347E+02  0.83123112570E+02  0.16910797290E+03  0.12508858970E+03 0.  0.
          5    1    3    3  502    0 -0.43723357552E+02 -0.15323114177E+02  0.32402114790E+02  0.56691262701E+02  0.41800000000E+01 0.  1.
         -5    1    3    3    0  502  0.87500401287E+02 -0.48898921170E+02  0.50720997779E+02  0.11241671020E+03  0.41800000000E+01 0.  1.
        -11    1    1    2    0    0 -0.20879024145E+02 -0.56138410251E+01 -0.28904652366E+01  0.21812923912E+02  0.00000000000E+00 0.  1.
         11    1    1    2    0    0 -0.22898019591E+02  0.69835876372E+02  0.15810532670E+03  0.17435212434E+03  0.00000000000E+00 0. -1.
</event>
<event>
 7    1  0.6506388E-006  0.1100398E+03  0.7561462E-02  0.1260496E+00
         -1   -1    0    0    0  501 -0.00000000000E+00  0.00000000000E+00  0.49918052444E+02  0.49918052444E+02  0.00000000000E+00 0.  1.
          1   -1    0    0  501    0  0.00000000000E+00 -0.00000000000E+00 -0.64502621263E+03  0.64502621263E+03  0.00000000000E+00 0. -1.
         23    2    1    2    0    0  0.80988949414E+02 -0.63774796935E+02 -0.12425431010E+03  0.20423725054E+03  0.12508911335E+03 0.  0.
          5    1    3    3  502    0  0.82917142115E+02 -0.59571972048E+02 -0.14790971136E+03  0.17977437922E+03  0.41800000000E+01 0. -1.
         -5    1    3    3    0  502 -0.19281927010E+01 -0.42028248876E+01  0.23655401261E+02  0.24462871315E+02  0.41800000000E+01 0. -1.
        -11    1    1    2    0    0 -0.36533681259E+02  0.34070589219E+01 -0.43871309265E+02  0.57192741615E+02  0.00000000000E+00 0.  1.
         11    1    1    2    0    0 -0.44455268155E+02  0.60367738013E+02 -0.42698254083E+03  0.43351427293E+03  0.00000000000E+00 0. -1.
</event>
<event>
 7    1  0.6506388E-006  0.9524840E+02  0.7561462E-02  0.1290618E+00
          2   -1    0    0  501    0  0.00000000000E+00  0.00000000000E+00  0.21307412095E+03  0.21307412095E+03  0.00000000000E+00 0. -1.
         -2   -1    0    0    0  501 -0.00000000000E+00 -0.00000000000E+00 -0.11123510166E+03  0.11123510166E+03  0.00000000000E+00 0.  1.
         23    2    1    2    0    0  0.31020052077E+02 -0.74526793099E+02 -0.23782812954E+02  0.15076346103E+03  0.12509001746E+03 0.  0.
          5    1    3    3  502    0  0.16290672576E+02 -0.57361199850E+02 -0.74238074202E+02  0.95312419560E+02  0.41800000000E+01 0. -1.
         -5    1    3    3    0  502  0.14729379501E+02 -0.17165593249E+02  0.50455261247E+02  0.55451041465E+02  0.41800000000E+01 0. -1.
        -11    1    1    2    0    0 -0.30521215341E+02 -0.25620293197E+01  0.59623860161E+01  0.31203503443E+02  0.00000000000E+00 0.  1.
         11    1    1    2    0    0 -0.49883673655E+00  0.77088822419E+02  0.11965944623E+03  0.14234225814E+03  0.00000000000E+00 0. -1.
</event>
<event>
 7    1  0.6506388E-006  0.1122769E+03  0.7561462E-02  0.1256411E+00
         -2   -1    0    0    0  501 -0.00000000000E+00  0.00000000000E+00  0.14641155186E+02  0.14641155186E+02  0.00000000000E+00 0.  1.
          2   -1    0    0  501    0  0.00000000000E+00 -0.00000000000E+00 -0.87002826468E+03  0.87002826468E+03  0.00000000000E+00 0. -1.
         23    2    1    2    0    0  0.40311043980E+02  0.36744890096E+02 -0.49581092939E+03  0.51424766248E+03  0.12508802279E+03 0.  0.
          5    1    3    3  502    0  0.74519331849E+02 -0.12357036235E+02 -0.30417605395E+03  0.31344277207E+03  0.41800000000E+01 0. -1.
         -5    1    3    3    0  502 -0.34208287870E+02  0.49101926331E+02 -0.19163487544E+03  0.20080489041E+03  0.41800000000E+01 0. -1.
        -11    1    1    2    0    0 -0.33006712542E+02  0.15283732133E+02 -0.14010829612E+03  0.14475278989E+03  0.00000000000E+00 0.  1.
         11    1    1    2    0    0 -0.73043314378E+01 -0.52028622229E+02 -0.21946788398E+03  0.22566896749E+03  0.00000000000E+00 0. -1.
</event>
<event>
 7    1  0.6506388E-006  0.1384844E+03  0.7561462E-02  0.1215383E+00
          1   -1    0    0  501    0  0.00000000000E+00  0.00000000000E+00  0.49095175663E+03  0.49095175663E+03  0.00000000000E+00 0. -1.
         -1   -1    0    0    0  501 -0.00000000000E+00 -0.00000000000E+00 -0.99034325583E+02  0.99034325583E+02  0.00000000000E+00 0.  1.
         23    2    1    2    0    0 -0.15556921594E+02  0.12213662456E+03  0.48970291309E+01  0.17558391752E+03  0.12508540415E+03 0.  0.
          5    1    3    3  502    0  0.89428449035E+01  0.74597828739E+02  0.61806260063E+02  0.97377085141E+02  0.41800000000E+01 0. -1.
         -5    1    3    3    0  502 -0.24499766498E+02  0.47538795818E+02 -0.56909230932E+02  0.78206832384E+02  0.41800000000E+01 0. -1.
        -11    1    1    2    0    0  0.16727670489E+02  0.75729309802E+01  0.44238266801E+02  0.47897687764E+02  0.00000000000E+00 0. -1.
         11    1    1    2    0    0 -0.11707488946E+01 -0.12970955554E+03  0.34278213512E+03  0.36650447692E+03  0.00000000000E+00 0.  1.
</event>
<event>
 7    1  0.6506388E-006  0.4526941E+02  0.7561462E-02  0.1472667E+00
         -2   -1    0    0    0  501 -0.00000000000E+00  0.00000000000E+00  0.55880981050E+02  0.55880981050E+02  0.00000000000E+00 0.  1.
          2   -1    0    0  501    0  0.00000000000E+00 -0.00000000000E+00 -0.15906459223E+03  0.15906459223E+03  0.00000000000E+00 0. -1.
         23    2    1    2    0    0  0.27449356278E+02 -0.12298414026E+02 -0.65272082733E+02  0.14426572456E+03  0.12508971321E+03 0.  0.
          5    1    3    3  502    0  0.41884963417E+02 -0.15912780415E+02  0.25813128388E+02  0.51878287734E+02  0.41800000000E+01 0.  1.
         -5    1    3    3    0  502 -0.14435607139E+02  0.36143663890E+01 -0.91085211121E+02  0.92387436824E+02  0.41800000000E+01 0.  1.
        -11    1    1    2    0    0 -0.11878940888E+02  0.55420014925E+01  0.12116921938E+02  0.17850569022E+02  0.00000000000E+00 0.  1.
         11    1    1    2    0    0 -0.15570415391E+02  0.67564125335E+01 -0.50028450382E+02  0.52829279698E+02  0.00000000000E+00 0. -1.
</event>
<event>
 7    1  0.6506388E-006  0.1105724E+03  0.7561462E-02  0.1259514E+00
          2   -1    0    0  501    0  0.00000000000E+00  0.00000000000E+00  0.27463730626E+03  0.27463730626E+03  0.00000000000E+00 0. -1.
         -2   -1    0    0    0  501 -0.00000000000E+00 -0.00000000000E+00 -0.94463524621E+02  0.94463524621E+02  0.00000000000E+00 0.  1.
         23    2    1    2    0    0  0.51009253033E+02 -0.66441918533E+02  0.72493643376E+01  0.15071825921E+03  0.12508784091E+03 0.  0.
          5    1    3    3  502    0 -0.43883812678E+01 -0.57054206842E+02 -0.45737177033E+02  0.73374397248E+02  0.41800000000E+01 0. -1.
         -5    1    3    3    0  502  0.55397634301E+02 -0.93877116920E+01  0.52986541371E+02  0.77343861963E+02  0.41800000000E+01 0. -1.
        -11    1    1    2    0    0 -0.56576413706E+02  0.19032701628E+02  0.28255405315E+02  0.66041670547E+02  0.00000000000E+00 0.  1.
         11    1    1    2    0    0  0.55671606733E+01  0.47409216905E+02  0.14466901198E+03  0.15234090112E+03  0.00000000000E+00 0. -1.
</event>
<event>
 7    1  0.6506388E-006  0.1250729E+03  0.7561462E-02  0.1234955E+00
          1   -1    0    0  501    0  0.00000000000E+00  0.00000000000E+00  0.15957588318E+03  0.15957588318E+03  0.00000000000E+00 0. -1.
         -1   -1    0    0    0  501 -0.00000000000E+00 -0.00000000000E+00 -0.11478931799E+03  0.11478931799E+03  0.00000000000E+00 0.  1.
         23    2    1    2    0    0 -0.67109091508E+02  0.44368207004E+02  0.24075103458E+02  0.15066370760E+03  0.12509106373E+03 0.  0.
          5    1    3    3  502    0 -0.38408961860E+02 -0.29854657753E+02  0.46970821827E+02  0.67751601042E+02  0.41800000000E+01 0.  1.
         -5    1    3    3    0  502 -0.28700129648E+02  0.74222864756E+02 -0.22895718369E+02  0.82912106559E+02  0.41800000000E+01 0.  1.
        -11    1    1    2    0    0  0.65158125578E+02 -0.70169303641E+02  0.12581338464E+02  0.96579514287E+02  0.00000000000E+00 0.  1.
         11    1    1    2    0    0  0.19509659292E+01  0.25801096637E+02  0.81301232650E+01  0.27121979279E+02  0.00000000000E+00 0. -1.
</event>
<event>
 7    1  0.6506388E-006  0.1347563E+03  0.7561462E-02  0.1220564E+00
         -3   -1    0    0    0  501 -0.00000000000E+00  0.00000000000E+00  0.18835770615E+03  0.18835770615E+03  0.00000000000E+00 0.  1.
          3   -1    0    0  501    0  0.00000000000E+00 -0.00000000000E+00 -0.18991441704E+03  0.18991441704E+03  0.00000000000E+00 0. -1.
         23    2    1    2    0    0 -0.83007902301E+02  0.58475589595E+02  0.11434819972E+03  0.19756656040E+03  0.12508928246E+03 0.  0.
          5    1    3    3  502    0 -0.82160108001E+02 -0.85655316220E+00  0.11076163399E+03  0.13797329088E+03  0.41800000000E+01 0. -1.
         -5    1    3    3    0  502 -0.84779429981E+00  0.59332142757E+02  0.35865657300E+01  0.59593269528E+02  0.41800000000E+01 0. -1.
        -11    1    1    2    0    0 -0.67219799078E+01  0.11935883871E+02  0.49144157955E+01  0.14553412668E+02  0.00000000000E+00 0.  1.
         11    1    1    2    0    0  0.89729882209E+02 -0.70411473466E+02 -0.12081932641E+03  0.16615215012E+03  0.00000000000E+00 0. -1.
</event>
<event>
 7    1  0.6506388E-006  0.1245017E+03  0.7561462E-02  0.1235850E+00
          2   -1    0    0  501    0  0.00000000000E+00  0.00000000000E+00  0.15266638923E+03  0.15266638923E+03  0.00000000000E+00 0. -1.
         -2   -1    0    0    0  501 -0.00000000000E+00 -0.00000000000E+00 -0.13108002549E+03  0.13108002549E+03  0.00000000000E+00 0.  1.
         23    2    1    2    0    0  0.47453338007E+02 -0.61602777811E+02 -0.32314496471E+02  0.15079674123E+03  0.12509479990E+03 0.  0.
          5    1    3    3  502    0 -0.29026064519E+02  0.19516451354E+02 -0.13130517969E+02  0.37593712201E+02  0.41800000000E+01 0. -1.
         -5    1    3    3    0  502  0.76479402526E+02 -0.81119229165E+02 -0.19183978502E+02  0.11320302903E+03  0.41800000000E+01 0. -1.
        -11    1    1    2    0    0 -0.50276785625E+02  0.10918463021E+02  0.63041118884E+02  0.81370453346E+02  0.00000000000E+00 0. -1.
         11    1    1    2    0    0  0.28234476186E+01  0.50684314791E+02 -0.91402586730E+01  0.51579220146E+02  0.00000000000E+00 0.  1.
</event>
<event>
 7    1  0.6506388E-006  0.1597318E+03  0.7561462E-02  0.1189000E+00
          3   -1    0    0  501    0  0.00000000000E+00  0.00000000000E+00  0.63432603296E+03  0.63432603296E+03  0.00000000000E+00 0. -1.
         -3   -1    0    0    0  501 -0.00000000000E+00 -0.00000000000E+00 -0.68095545049E+02  0.68095545049E+02  0.00000000000E+00 0.  1.
         23    2    1    2    0    0 -0.97104562094E+02  0.10120419364E+03  0.11195085538E+03  0.21875268829E+03  0.12509260500E+03 0.  0.
          5    1    3    3  502    0 -0.43603548289E+02  0.11320730100E+03  0.39203205525E+02  0.12755989239E+03  0.41800000000E+01 0. -1.
         -5    1    3    3    0  502 -0.53501013805E+02 -0.12003107363E+02  0.72747649858E+02  0.91192795902E+02  0.41800000000E+01 0. -1.
        -11    1    1    2    0    0  0.10394031604E+02 -0.80204162964E+00  0.10403603586E-01  0.10424935107E+02  0.00000000000E+00 0.  1.
         11    1    1    2    0    0  0.86710530490E+02 -0.10040215201E+03  0.45426922893E+03  0.47324395461E+03  0.00000000000E+00 0. -1.
</event>
<event>
 7    1  0.6506388E-006  0.1694721E+03  0.7561462E-02  0.1178399E+00
         -2   -1    0    0    0  501 -0.00000000000E+00  0.00000000000E+00  0.64516151910E+03  0.64516151910E+03  0.00000000000E+00 0.  1.
          2   -1    0    0  501    0  0.00000000000E+00 -0.00000000000E+00 -0.47829688457E+02  0.47829688457E+02  0.00000000000E+00 0. -1.
         23    2    1    2    0    0 -0.69934353397E+02  0.11778097063E+03  0.34576424582E+03  0.39237968149E+03  0.12508289224E+03 0.  0.
          5    1    3    3  502    0 -0.95270067720E+02  0.12272083260E+03  0.31961925346E+03  0.35540220616E+03  0.41800000000E+01 0.  1.
         -5    1    3    3    0  502  0.25335714323E+02 -0.49398619706E+01  0.26144992359E+02  0.36977475333E+02  0.41800000000E+01 0.  1.
        -11    1    1    2    0    0  0.86611316881E+02 -0.89495361976E+02  0.15634652003E+03  0.19988790447E+03  0.00000000000E+00 0. -1.
         11    1    1    2    0    0 -0.16676963484E+02 -0.28285608655E+02  0.95221064791E+02  0.10072362160E+03  0.00000000000E+00 0.  1.
</event>
<event>
 7    1  0.6506388E-006  0.1020854E+03  0.7561462E-02  0.1275971E+00
          2   -1    0    0  501    0  0.00000000000E+00  0.00000000000E+00  0.62229946504E+03  0.62229946504E+03  0.00000000000E+00 0. -1.
         -2   -1    0    0    0  501 -0.00000000000E+00 -0.00000000000E+00 -0.18745681650E+02  0.18745681650E+02  0.00000000000E+00 0.  1.
         23    2    1    2    0    0  0.24690924157E+01  0.29320781700E+01  0.31689641601E+03  0.34071365549E+03  0.12509101910E+03 0.  0.
          5    1    3    3  502    0 -0.64870520391E+01  0.59444561119E+02  0.22082330766E+03  0.22881464834E+03  0.41800000000E+01 0. -1.
         -5    1    3    3    0  502  0.89561444548E+01 -0.56512482949E+02  0.96073108351E+02  0.11189900715E+03  0.41800000000E+01 0. -1.
        -11    1    1    2    0    0  0.12686309542E+02 -0.42570304827E+02  0.10960081022E+03  0.11826035221E+03  0.00000000000E+00 0.  1.
         11    1    1    2    0    0 -0.15155401957E+02  0.39638226657E+02  0.17705655716E+03  0.18207113900E+03  0.00000000000E+00 0. -1.
</event>
<event>
 6    1  0.6506388E-006  0.1522736E+03  0.7561462E-02  0.1197707E+00
          1   -1    0    0  501    0  0.00000000000E+00  0.00000000000E+00  0.33646415026E+03  0.33646415026E+03  0.00000000000E+00 0. -1.
         -1   -1    0    0    0  501 -0.00000000000E+00 -0.00000000000E+00 -0.89685467634E+02  0.89685467634E+02  0.00000000000E+00 0.  1.
          5    1    1    2  502    0 -0.84323231095E+01  0.40251912124E+02  0.15353404017E+01  0.41366050970E+02  0.41800000000E+01 0. -1.
         -5    1    1    2    0  502 -0.10744044028E+03 -0.78934138627E+02  0.62788777494E+02  0.14742438546E+03  0.41800000000E+01 0.  1.
        -11    1    1    2    0    0  0.54763139439E+01  0.16282442302E+02  0.90015096922E+02  0.91639650892E+02  0.00000000000E+00 0. -1.
         11    1    1    2    0    0  0.11039644945E+03  0.22399784201E+02  0.92439467811E+02  0.14571953058E+03  0.00000000000E+00 0.  1.
</event>
<event>
 7    1  0.6506388E-006  0.1563607E+03  0.7561462E-02  0.1192868E+00
          3   -1    0    0  501    0  0.00000000000E+00  0.00000000000E+00  0.13445196232E+03  0.13445196232E+03  0.00000000000E+00 0. -1.
         -3   -1    0    0    0  501 -0.00000000000E+00 -0.00000000000E+00 -0.22476950127E+03  0.22476950127E+03  0.00000000000E+00 0.  1.
         23    2    1    2    0    0 -0.73135911359E+02 -0.12704583147E+03 -0.56749589785E+02  0.20089105156E+03  0.12508874383E+03 0.  0.
          5    1    3    3  502    0 -0.36937157265E+02 -0.42250029446E+01 -0.62286950211E+02  0.72659072409E+02  0.41800000000E+01 0.  1.
         -5    1    3    3    0  502 -0.36198754094E+02 -0.12282082852E+03  0.55373604263E+01  0.12823197915E+03  0.41800000000E+01 0.  1.
        -11    1    1    2    0    0  0.20643523017E+02  0.48662120821E+02 -0.36013245082E+02  0.63961792241E+02  0.00000000000E+00 0.  1.
         11    1    1    2    0    0  0.52492388341E+02  0.78383710645E+02  0.24452959225E+01  0.94368619786E+02  0.00000000000E+00 0. -1.
</event>
<event>
 7    1  0.6506388E-006  0.1087673E+03  0.7561462E-02  0.1262870E+00
          1   -1    0    0  501    0  0.00000000000E+00  0.00000000000E+00  0.97885722191E+02  0.97885722191E+02  0.00000000000E+00 0. -1.
         -1   -1    0    0    0  501 -0.00000000000E+00 -0.00000000000E+00 -0.14676502605E+03  0.14676502605E+03  0.00000000000E+00 0.  1.
         23    2    1    2    0    0 -0.46502595116E+02  0.53307273686E+01 -0.42636287595E+02  0.14019873075E+03  0.12508766157E+03 0.  0.
          5    1    3    3  502    0 -0.75909405690E+02  0.28832422390E+02 -0.57420880661E+02  0.99539823131E+02  0.41800000000E+01 0.  1.
         -5    1    3    3    0  502  0.29406810573E+02 -0.23501695021E+02  0.14784593066E+02  0.40658907623E+02  0.41800000000E+01 0.  1.
        -11    1    1    2    0    0 -0.21120714663E+02 -0.20074578902E+02 -0.17997751851E+02  0.34248976300E+02  0.00000000000E+00 0. -1.
         11    1    1    2    0    0  0.67623309779E+02  0.14743851533E+02  0.11754735585E+02  0.70203041189E+02  0.00000000000E+00 0.  1.
</event>
<event>
 7    1  0.6506388E-006  0.9739149E+02  0.7561462E-02  0.1285879E+00
          3   -1    0    0  501    0  0.00000000000E+00  0.00000000000E+00  0.81170389192E+02  0.81170389192E+02  0.00000000000E+00 0. -1.
         -3   -1    0    0    0  501 -0.00000000000E+00 -0.00000000000E+00 -0.21191866768E+03  0.21191866768E+03  0.00000000000E+00 0.  1.
         23    2    1    2    0    0 -0.35576402098E+02  0.24433169395E+01 -0.11553324510E+03  0.17397558332E+03  0.12509165713E+03 0.  0.
          5    1    3    3  502    0 -0.26764124682E+02 -0.47346163677E+02 -0.11019862555E+03  0.12296010353E+03  0.41800000000E+01 0.  1.
         -5    1    3    3    0  502 -0.88122774157E+01  0.49789480616E+02 -0.53346195492E+01  0.51015479798E+02  0.41800000000E+01 0.  1.
        -11    1    1    2    0    0  0.88685141311E+01  0.39110191718E+02 -0.45908454589E+02  0.60957721757E+02  0.00000000000E+00 0.  1.
         11    1    1    2    0    0  0.26707887967E+02 -0.41553508658E+02  0.30693421203E+02  0.58155751792E+02  0.00000000000E+00 0. -1.
</event>
<event>
 7    1  0.6506388E-006  0.1372364E+03  0.7561462E-02  0.1217097E+00
         -3   -1    0    0    0  501 -0.00000000000E+00  0.00000000000E+00  0.73898757149E+03  0.73898757149E+03  0.00000000000E+00 0.  1.
          3   -1    0    0  501    0  0.00000000000E+00 -0.00000000000E+00 -0.36285249482E+02  0.36285249482E+02  0.00000000000E+00 0. -1.
         23    2    1    2    0    0 -0.99658932157E+02 -0.65405325891E+02  0.44216509492E+03  0.47472881667E+03  0.12509084221E+03 0.  0.
          5    1    3    3  502    0 -0.50219870252E+02 -0.59453413765E+02  0.40505564692E+03  0.41248550675E+03  0.41800000000E+01 0. -1.
         -5    1    3    3    0  502 -0.49439061905E+02 -0.59519121267E+01  0.37109447999E+02  0.62243309927E+02  0.41800000000E+01 0. -1.
        -11    1    1    2    0    0  0.77227089788E+02 -0.20287876987E+00  0.16810911105E+03  0.18499929128E+03  0.00000000000E+00 0. -1.
         11    1    1    2    0    0  0.22431842369E+02  0.65608204661E+02  0.92428116051E+02  0.11554471302E+03  0.00000000000E+00 0.  1.
</event>
<event>
 7    1  0.6506388E-006  0.1022203E+03  0.7561462E-02  0.1275695E+00
          2   -1    0    0  501    0  0.00000000000E+00  0.00000000000E+00  0.37899302001E+03  0.37899302001E+03  0.00000000000E+00 0. -1.
         -2   -1    0    0    0  501 -0.00000000000E+00 -0.00000000000E+00 -0.53209645119E+02  0.53209645119E+02  0.00000000000E+00 0.  1.
         23    2    1    2    0    0 -0.18512973071E+02 -0.18259757771E+02  0.44383634339E+02  0.13523499150E+03  0.12506976854E+03 0.  0.
          5    1    3    3  502    0 -0.60660881155E+02  0.23928687974E+02  0.95283320264E+01  0.66034734207E+02  0.41800000000E+01 0.  1.
         -5    1    3    3    0  502  0.42147908084E+02 -0.42188445745E+02  0.34855302313E+02  0.69200257294E+02  0.41800000000E+01 0.  1.
        -11    1    1    2    0    0  0.47786903450E+02  0.91300175388E+01  0.24302053238E+03  0.24784253977E+03  0.00000000000E+00 0. -1.
         11    1    1    2    0    0 -0.29273930379E+02  0.91297402326E+01  0.38379208167E+02  0.49125133853E+02  0.00000000000E+00 0.  1.
</event>
<event>
 6    1  0.6506388E-006  0.1797962E+03  0.7561462E-02  0.1168000E+00
          1   -1    0    0  501    0  0.00000000000E+00  0.00000000000E+00  0.34652640264E+03  0.34652640264E+03  0.00000000000E+00 0. -1.
         -1   -1    0    0    0  501 -0.00000000000E+00 -0.00000000000E+00 -0.13349796157E+03  0.13349796157E+03  0.00000000000E+00 0.  1.
          5    1    1    2  502    0 -0.16553333531E+02 -0.77322543866E+02  0.59178814101E+02  0.98855415022E+02  0.41800000000E+01 0. -1.
         -5    1    1    2    0  502  0.48177959985E+02  0.15198995893E+03 -0.28662519710E+02  0.16205269477E+03  0.41800000000E+01 0.  1.
        -11    1    1    2    0    0 -0.49592653271E+02 -0.86279005609E+02  0.15615027734E+03  0.18516589098E+03  0.00000000000E+00 0. -1.
         11    1    1    2    0    0  0.17968026817E+02  0.11611590542E+02  0.26361869342E+02  0.33950363441E+02  0.00000000000E+00 0.  1.
</event>
<event>
 7    1  0.6506388E-006  0.1519378E+03  0.7561462E-02  0.1198112E+00
         -2   -1    0    0    0  501 -0.00000000000E+00  0.00000000000E+00  0.21045223377E+03  0.21045223377E+03  0.00000000000E+00 0. -1.
          2   -1    0    0  501    0  0.00000000000E+00 -0.00000000000E+00 -0.13868723024E+03  0.13868723024E+03  0.00000000000E+00 0.  1.
         23    2    1    2    0    0 -0.78519046994E+02  0.10532658891E+03  0.39401107196E+02  0.18563197571E+03  0.12509137495E+03 0.  0.
          5    1    3    3  502    0  0.27087400625E+02  0.28995517400E+02 -0.17269921370E+02  0.43476314080E+02  0.41800000000E+01 0. -1.
         -5    1    3    3    0  502 -0.10560644762E+03  0.76331071506E+02  0.56671028566E+02  0.14215566163E+03  0.41800000000E+01 0. -1.
        -11    1    1    2    0    0  0.17365116020E+02 -0.91378237072E+01 -0.28260671934E+02  0.34405125413E+02  0.00000000000E+00 0.  1.
         11    1    1    2    0    0  0.61153930975E+02 -0.96188765199E+02  0.60624568263E+02  0.12910236288E+03  0.00000000000E+00 0. -1.
</event>
<event>
 6    1  0.6506388E-006  0.1223230E+03  0.7561462E-02  0.1239313E+00
          1   -1    0    0  501    0  0.00000000000E+00  0.00000000000E+00  0.30426762177E+02  0.30426762177E+02  0.00000000000E+00 0. -1.
         -1   -1    0    0    0  501 -0.00000000000E+00 -0.00000000000E+00 -0.51791873481E+03  0.51791873481E+03  0.00000000000E+00 0.  1.
          5    1    1    2  502    0 -0.49347707910E+02 -0.61282935076E+02 -0.13323817153E+03  0.15479236790E+03  0.41800000000E+01 0. -1.
         -5    1    1    2    0  502  0.64813146742E+02  0.27321173860E+02 -0.17876418917E+03  0.19214915629E+03  0.41800000000E+01 0.  1.
        -11    1    1    2    0    0  0.52321124539E+01  0.61066076731E+02 -0.13634659396E+03  0.14948857619E+03  0.00000000000E+00 0.  1.
         11    1    1    2    0    0 -0.20697551286E+02 -0.27104315515E+02 -0.39143017968E+02  0.51915396602E+02  0.00000000000E+00 0. -1.
</event>
<event>
 6    1  0.6506388E-006  0.6750370E+02  0.7561462E-02  0.1368794E+00
          2   -1    0    0  501    0  0.00000000000E+00  0.00000000000E+00  0.71949663963E+03  0.71949663963E+03  0.00000000000E+00 0. -1.
         -2   -1    0    0    0  501 -0.00000000000E+00 -0.00000000000E+00 -0.30789703629E+02  0.30789703629E+02  0.00000000000E+00 0.  1.
          5    1    1    2  502    0  0.25880954874E+02  0.97972141219E+01  0.50763847757E+03  0.50840938773E+03  0.41800000000E+01 0. -1.
         -5    1    1    2    0  502 -0.58312858320E+01  0.13746097390E+02 -0.16182374116E+02  0.22412066391E+02  0.41800000000E+01 0.  1.
        -11    1    1    2    0    0 -0.46530508670E+02  0.11171270449E+02  0.13655253483E+03  0.14469443765E+03  0.00000000000E+00 0.  1.
         11    1    1    2    0    0  0.26480839628E+02 -0.34714581960E+02  0.60698297728E+02  0.74770451484E+02  0.00000000000E+00 0. -1.
</event>
<event>
 7    1  0.6506388E-006  0.1308408E+03  0.7561462E-02  0.1226213E+00
          3   -1    0    0  501    0  0.00000000000E+00  0.00000000000E+00  0.12020422575E+03  0.12020422575E+03  0.00000000000E+00 0. -1.
         -3   -1    0    0    0  501 -0.00000000000E+00 -0.00000000000E+00 -0.24200808551E+03  0.24200808551E+03  0.00000000000E+00 0.  1.
         23    2    1    2    0    0 -0.96766602337E+02 -0.23995726409E+02 -0.16133486389E+03  0.21963079686E+03  0.11076632344E+03 0.  0.
          5    1    3    3  502    0 -0.97620935390E+02  0.31869922180E+01 -0.60179737798E+02  0.11480016197E+03  0.41800000000E+01 0. -1.
         -5    1    3    3    0  502  0.85433305353E+00 -0.27182718627E+02 -0.10115512609E+03  0.10483063489E+03  0.41800000000E+01 0.  1.
        -11    1    1    2    0    0  0.63783322682E+02 -0.32042299744E+02  0.14086164630E+02  0.72756039332E+02  0.00000000000E+00 0.  1.
         11    1    1    2    0    0  0.32983279655E+02  0.56038026153E+02  0.25444839502E+02  0.69825475073E+02  0.00000000000E+00 0. -1.
</event>
<event>
 7    1  0.6506388E-006  0.7127216E+02  0.7561462E-02  0.1355820E+00
         -2   -1    0    0    0  501 -0.00000000000E+00  0.00000000000E+00  0.56316191144E+03  0.56316191144E+03  0.00000000000E+00 0.  1.
          2   -1    0    0  501    0  0.00000000000E+00 -0.00000000000E+00 -0.20489219530E+02  0.20489219530E+02  0.00000000000E+00 0. -1.
         23    2    1    2    0    0  0.66366115070E+01 -0.16826689090E+02  0.53262247281E+03  0.54693024327E+03  0.12295857181E+03 0.  0.
          5    1    3    3  502    0  0.46753885938E+02 -0.39284735827E+02  0.15747381541E+03  0.16895174239E+03  0.41800000000E+01 0. -1.
         -5    1    3    3    0  502 -0.40117274431E+02  0.22458046737E+02  0.37514865741E+03  0.37797850088E+03  0.41800000000E+01 0.  1.
        -11    1    1    2    0    0  0.10984372358E+02  0.26668341274E+00  0.15882947452E+01  0.11101812300E+02  0.00000000000E+00 0.  1.
         11    1    1    2    0    0 -0.17620983865E+02  0.16560005677E+02  0.84619243463E+01  0.25619075394E+02  0.00000000000E+00 0. -1.
</event>
<event>
 7    1  0.6506388E-006  0.1102222E+03  0.7561462E-02  0.1260159E+00
          1   -1    0    0  501    0  0.00000000000E+00  0.00000000000E+00  0.40335276382E+03  0.40335276382E+03  0.00000000000E+00 0. -1.
         -1   -1    0    0    0  501 -0.00000000000E+00 -0.00000000000E+00 -0.49605034151E+02  0.49605034151E+02  0.00000000000E+00 0.  1.
         23    2    1    2    0    0  0.28046871165E+02 -0.39680703286E+02  0.64293704554E+02  0.14878466121E+03  0.12506802058E+03 0.  0.
          5    1    3    3  502    0  0.53769205107E+02  0.28487563923E+02  0.25200929128E+02  0.65994150840E+02  0.41800000000E+01 0.  1.
         -5    1    3    3    0  502 -0.25722333942E+02 -0.68168267209E+02  0.39092775425E+02  0.82790510375E+02  0.41800000000E+01 0.  1.
        -11    1    1    2    0    0  0.19452432926E+02 -0.62157619515E+01  0.28962334793E+02  0.35437969468E+02  0.00000000000E+00 0.  1.
         11    1    1    2    0    0 -0.47499304091E+02  0.45896465238E+02  0.26049169032E+03  0.26873516729E+03  0.00000000000E+00 0. -1.
</event>
<event>
 7    1  0.6506388E-006  0.5470166E+02  0.7561462E-02  0.1421515E+00
         -4   -1    0    0    0  501 -0.00000000000E+00  0.00000000000E+00  0.12404279557E+03  0.12404279557E+03  0.00000000000E+00 0.  1.
          4   -1    0    0  501    0  0.00000000000E+00 -0.00000000000E+00 -0.11604275519E+03  0.11604275519E+03  0.00000000000E+00 0. -1.
         23    2    1    2    0    0 -0.31794502641E+02 -0.22341742031E+02  0.40356313076E+02  0.13706363670E+03  0.12509102552E+03 0.  0.
          5    1    3    3  502    0 -0.30422343812E+02 -0.27569176346E+02 -0.39375693968E+02  0.57039426390E+02  0.41800000000E+01 0.  1.
         -5    1    3    3    0  502 -0.13721588284E+01  0.52274343146E+01  0.79732007043E+02  0.80024210315E+02  0.41800000000E+01 0.  1.
        -11    1    1    2    0    0  0.79811892519E+01  0.33904208364E+02  0.22946338585E+02  0.41710060910E+02  0.00000000000E+00 0.  1.
         11    1    1    2    0    0  0.23813313389E+02 -0.11562466333E+02 -0.55302611282E+02  0.61311853151E+02  0.00000000000E+00 0. -1.
</event>
<event>
 7    1  0.6506388E-006  0.3143095E+03  0.7561462E-02  0.1078298E+00
          2   -1    0    0  501    0  0.00000000000E+00  0.00000000000E+00  0.56056734900E+03  0.56056734900E+03  0.00000000000E+00 0. -1.
         -2   -1    0    0    0  501 -0.00000000000E+00 -0.00000000000E+00 -0.20023491928E+03  0.20023491928E+03  0.00000000000E+00 0.  1.
         23    2    1    2    0    0 -0.11931119898E+03  0.27130292658E+03  0.56529461084E+02  0.32662334656E+03  0.12508713113E+03 0.  0.
          5    1    3    3  502    0 -0.11070901137E+03  0.28307700898E+03  0.44418262758E+02  0.30721252038E+03  0.41800000000E+01 0.  1.
         -5    1    3    3    0  502 -0.86021876092E+01 -0.11774082401E+02  0.12111198326E+02  0.19410826179E+02  0.41800000000E+01 0.  1.
        -11    1    1    2    0    0  0.80836609112E+02 -0.25530581364E+03  0.27250243750E+03  0.38206438502E+03  0.00000000000E+00 0.  1.
         11    1    1    2    0    0  0.38474589866E+02 -0.15997112933E+02  0.31300531134E+02  0.52114536713E+02  0.00000000000E+00 0. -1.
</event>
<event>
 7    1  0.6506388E-006  0.1146528E+03  0.7561462E-02  0.1252188E+00
          1   -1    0    0  501    0  0.00000000000E+00  0.00000000000E+00  0.46045512118E+03  0.46045512118E+03  0.00000000000E+00 0. -1.
         -1   -1    0    0    0  501 -0.00000000000E+00 -0.00000000000E+00 -0.33617649034E+02  0.33617649034E+02  0.00000000000E+00 0.  1.
         23    2    1    2    0    0 -0.35593227634E-01 -0.51232629348E+02  0.16920202964E+03  0.21656335291E+03  0.12508227458E+03 0.  0.
          5    1    3    3  502    0  0.41108629249E+02  0.20914550131E+02  0.92434826636E+02  0.10338765585E+03  0.41800000000E+01 0. -1.
         -5    1    3    3    0  502 -0.41144222476E+02 -0.72147179478E+02  0.76767203004E+02  0.11317569707E+03  0.41800000000E+01 0. -1.
        -11    1    1    2    0    0 -0.13851121505E+02 -0.21616241590E+02  0.10089288273E+03  0.10410806526E+03  0.00000000000E+00 0. -1.
         11    1    1    2    0    0  0.13886714732E+02  0.72848870938E+02  0.15674255978E+03  0.17340135204E+03  0.00000000000E+00 0.  1.
</event>
<event>
 7    1  0.6506388E-006  0.1563728E+03  0.7561462E-02  0.1192854E+00
          1   -1    0    0  501    0  0.00000000000E+00  0.00000000000E+00  0.59373506357E+02  0.59373506357E+02  0.00000000000E+00 0. -1.
         -1   -1    0    0    0  501 -0.00000000000E+00 -0.00000000000E+00 -0.51626035110E+03  0.51626035110E+03  0.00000000000E+00 0.  1.
         23    2    1    2    0    0 -0.39910629362E+02  0.11477110875E+03 -0.36029557044E+03  0.40029064580E+03  0.12511769377E+03 0.  0.
          5    1    3    3  502    0  0.22476008320E+02 -0.11729183779E+02 -0.10997438201E+03  0.11293618463E+03  0.41800000000E+01 0. -1.
         -5    1    3    3    0  502 -0.62386637682E+02  0.12650029253E+03 -0.25032118844E+03  0.28735446117E+03  0.41800000000E+01 0. -1.
        -11    1    1    2    0    0 -0.16884889859E+02 -0.74318175272E+02 -0.56888544726E+02  0.95103087238E+02  0.00000000000E+00 0.  1.
         11    1    1    2    0    0  0.56795519221E+02 -0.40452933482E+02 -0.39702729573E+02  0.80240124416E+02  0.00000000000E+00 0. -1.
</event>
<event>
 7    1  0.6506388E-006  0.1018216E+03  0.7561462E-02  0.1276511E+00
         -2   -1    0    0    0  501 -0.00000000000E+00  0.00000000000E+00  0.36862744069E+03  0.36862744069E+03  0.00000000000E+00 0.  1.
          2   -1    0    0  501    0  0.00000000000E+00 -0.00000000000E+00 -0.42062684526E+02  0.42062684526E+02  0.00000000000E+00 0. -1.
         23    2    1    2    0    0 -0.35684193019E+02  0.47262989195E+02  0.17403936085E+03  0.22236996327E+03  0.12510615357E+03 0.  0.
          5    1    3    3  502    0 -0.10050168486E+02  0.78410438768E+02  0.16160306421E+03  0.17995061977E+03  0.41800000000E+01 0. -1.
         -5    1    3    3    0  502 -0.25634024533E+02 -0.31147449573E+02  0.12436296639E+02  0.42419343497E+02  0.41800000000E+01 0. -1.
        -11    1    1    2    0    0  0.60966229687E+01 -0.53367666842E+02  0.28777333261E+02  0.60937768136E+02  0.00000000000E+00 0. -1.
         11    1    1    2    0    0  0.29587570050E+02  0.61046776470E+01  0.12374806205E+03  0.12738239381E+03  0.00000000000E+00 0.  1.
</event>
<event>
 7    1  0.6506388E-006  0.1467243E+03  0.7561462E-02  0.1204557E+00
          1   -1    0    0  501    0  0.00000000000E+00  0.00000000000E+00  0.34290741873E+03  0.34290741873E+03  0.00000000000E+00 0. -1.
         -1   -1    0    0    0  501 -0.00000000000E+00 -0.00000000000E+00 -0.84262726476E+02  0.84262726476E+02  0.00000000000E+00 0.  1.
         23    2    1    2    0    0  0.33683880574E+02 -0.12277669884E+03  0.10789788703E+03  0.20856351296E+03  0.12509221927E+03 0.  0.
          5    1    3    3  502    0 -0.34683686845E+02 -0.32849448642E+02  0.78122252199E+02  0.91665713862E+02  0.41800000000E+01 0.  1.
         -5    1    3    3    0  502  0.68367567419E+02 -0.89927250201E+02  0.29775634831E+02  0.11689779909E+03  0.41800000000E+01 0.  1.
        -11    1    1    2    0    0 -0.26790326039E+02  0.33426122337E+02 -0.45828306477E+00  0.42839669083E+02  0.00000000000E+00 0.  1.
         11    1    1    2    0    0 -0.68935545348E+01  0.89350576506E+02  0.15120508829E+03  0.17576696316E+03  0.00000000000E+00 0. -1.
</event>
<event>
 7    1  0.6506388E-006  0.8866070E+02  0.7561462E-02  0.1306128E+00
          2   -1    0    0  501    0  0.00000000000E+00  0.00000000000E+00  0.82948052673E+02  0.82948052673E+02  0.00000000000E+00 0.  1.
         -2   -1    0    0    0  501 -0.00000000000E+00 -0.00000000000E+00 -0.36823858909E+03  0.36823858909E+03  0.00000000000E+00 0. -1.
         23    2    1    2    0    0  0.35313693540E+02  0.22012291396E+02 -0.31888149290E+03  0.34505771182E+03  0.12509124688E+03 0.  0.
          5    1    3    3  502    0  0.56212295705E+02 -0.34680724197E+02 -0.11856976345E+03  0.13578967569E+03  0.41800000000E+01 0. -1.
         -5    1    3    3    0  502 -0.20898602165E+02  0.56693015593E+02 -0.20031172945E+03  0.20926803613E+03  0.41800000000E+01 0. -1.
        -11    1    1    2    0    0 -0.23081087842E+02 -0.28541848757E+02  0.63396204810E+02  0.73256075043E+02  0.00000000000E+00 0.  1.
         11    1    1    2    0    0 -0.12232605698E+02  0.65295573609E+01 -0.29805248323E+02  0.32872854897E+02  0.00000000000E+00 0. -1.
</event>
<event>
 7    1  0.6506388E-006  0.1376225E+03  0.7561462E-02  0.1216564E+00
         -3   -1    0    0    0  501 -0.00000000000E+00  0.00000000000E+00  0.70923293480E+02  0.70923293480E+02  0.00000000000E+00 0.  1.
          3   -1    0    0  501    0  0.00000000000E+00 -0.00000000000E+00 -0.37854852382E+03  0.37854852382E+03  0.00000000000E+00 0. -1.
         23    2    1    2    0    0 -0.12098370329E+03  0.28181143419E+02 -0.14379129412E+03  0.22749322234E+03  0.12508395836E+03 0.  0.
          5    1    3    3  502    0 -0.13818169088E+02 -0.21394166537E+01  0.22792851135E+02  0.27064836291E+02  0.41800000000E+01 0. -1.
         -5    1    3    3    0  502 -0.10716553421E+03  0.30320560073E+02 -0.16658414525E+03  0.20042838605E+03  0.41800000000E+01 0. -1.
        -11    1    1    2    0    0  0.10307394230E+03  0.13385352458E+02 -0.10493837426E+03  0.14770060133E+03  0.00000000000E+00 0.  1.
         11    1    1    2    0    0  0.17909760995E+02 -0.41566495877E+02 -0.58895561962E+02  0.74277993626E+02  0.00000000000E+00 0. -1.
</event>
<event>
 7    1  0.6506388E-006  0.1101121E+03  0.7561462E-02  0.1260362E+00
          2   -1    0    0  501    0  0.00000000000E+00  0.00000000000E+00  0.33081151534E+03  0.33081151534E+03  0.00000000000E+00 0. -1.
         -2   -1    0    0    0  501 -0.00000000000E+00 -0.00000000000E+00 -0.40660727093E+02  0.40660727093E+02  0.00000000000E+00 0.  1.
         23    2    1    2    0    0 -0.22540276209E+02  0.24816467801E+02  0.13083063966E+03  0.18407884787E+03  0.12507775515E+03 0.  0.
          5    1    3    3  502    0  0.31235784300E+02 -0.35224096102E+02  0.35141994068E+02  0.58896887135E+02  0.41800000000E+01 0.  1.
         -5    1    3    3    0  502 -0.53776060509E+02  0.60040563903E+02  0.95688645595E+02  0.12518196074E+03  0.41800000000E+01 0.  1.
        -11    1    1    2    0    0  0.55534341220E+02 -0.11758411493E+02  0.12816336079E+03  0.14017193137E+03  0.00000000000E+00 0. -1.
         11    1    1    2    0    0 -0.32994065010E+02 -0.13058056308E+02  0.31156787795E+02  0.47221463194E+02  0.00000000000E+00 0.  1.
</event>
<event>
 7    1  0.6506388E-006  0.8811456E+02  0.7561462E-02  0.1307483E+00
          1   -1    0    0  501    0  0.00000000000E+00  0.00000000000E+00  0.18142051335E+03  0.18142051335E+03  0.00000000000E+00 0. -1.
         -1   -1    0    0    0  501 -0.00000000000E+00 -0.00000000000E+00 -0.75597965585E+02  0.75597965585E+02  0.00000000000E+00 0.  1.
         23    2    1    2    0    0  0.33942235204E+02 -0.11804543813E+02  0.29244337054E+02  0.13342998820E+03  0.12512756657E+03 0.  0.
          5    1    3    3  502    0  0.36481630476E+02  0.24612675759E+02 -0.37020143036E+02  0.57659834899E+02  0.41800000000E+01 0. -1.
         -5    1    3    3    0  502 -0.25393952717E+01 -0.36417219572E+02  0.66264480090E+02  0.75770153302E+02  0.41800000000E+01 0. -1.
        -11    1    1    2    0    0  0.90406663019E+01  0.41863353778E+02  0.23012154708E+02  0.48619268824E+02  0.00000000000E+00 0.  1.
         11    1    1    2    0    0 -0.42982901506E+02 -0.30058809964E+02  0.53566056005E+02  0.74969221913E+02  0.00000000000E+00 0. -1.
</event>
<event>
 7    1  0.6506388E-006  0.1167160E+03  0.7561462E-02  0.1248615E+00
          1   -1    0    0  501    0  0.00000000000E+00  0.00000000000E+00  0.20588277896E+03  0.20588277896E+03  0.00000000000E+00 0. -1.
         -1   -1    0    0    0  501 -0.00000000000E+00 -0.00000000000E+00 -0.97943725517E+02  0.97943725517E+02  0.00000000000E+00 0.  1.
         23    2    1    2    0    0  0.53184593317E+02  0.71672277618E+01 -0.23898858907E+02  0.13819818254E+03  0.12509041562E+03 0.  0.
          5    1    3    3  502    0  0.67843789702E+02  0.52239008899E+02 -0.18232659772E+01  0.85746664954E+02  0.41800000000E+01 0.  1.
         -5    1    3    3    0  502 -0.14659196385E+02 -0.45071781138E+02 -0.22075592930E+02  0.52451517583E+02  0.41800000000E+01 0.  1.
        -11    1    1    2    0    0 -0.18887076987E+02 -0.45154502755E+02  0.68702273745E+02  0.84354331329E+02  0.00000000000E+00 0. -1.
         11    1    1    2    0    0 -0.34297516330E+02  0.37987274994E+02  0.63135638605E+02  0.81273990611E+02  0.00000000000E+00 0.  1.
</event>
<event>
 7    1  0.6506388E-006  0.1062110E+03  0.7561462E-02  0.1267752E+00
          1   -1    0    0  501    0  0.00000000000E+00  0.00000000000E+00  0.46780063320E+03  0.46780063320E+03  0.00000000000E+00 0. -1.
         -1   -1    0    0    0  501 -0.00000000000E+00 -0.00000000000E+00 -0.31055642407E+02  0.31055642407E+02  0.00000000000E+00 0.  1.
         23    2    1    2    0    0  0.43866055183E+01 -0.38524997781E+02  0.12299050898E+03  0.16994546996E+03  0.11068595077E+03 0.  0.
          5    1    3    3  502    0  0.29300315539E+02  0.31165451081E+02  0.40735945938E+02  0.59217256972E+02  0.41800000000E+01 0. -1.
         -5    1    3    3    0  502 -0.24913710021E+02 -0.69690448863E+02  0.82254563042E+02  0.11072821299E+03  0.41800000000E+01 0.  1.
        -11    1    1    2    0    0 -0.17325511971E+02 -0.25038028452E+02  0.14402737856E+03  0.14721060427E+03  0.00000000000E+00 0.  1.
         11    1    1    2    0    0  0.12938906453E+02  0.63563026233E+02  0.16972710325E+03  0.18170020138E+03  0.00000000000E+00 0. -1.
</event>
<event>
 7    1  0.6506388E-006  0.1283397E+03  0.7561462E-02  0.1229940E+00
         -2   -1    0    0    0  501 -0.00000000000E+00  0.00000000000E+00  0.21518736216E+03  0.21518736216E+03  0.00000000000E+00 0.  1.
          2   -1    0    0  501    0  0.00000000000E+00 -0.00000000000E+00 -0.12530003706E+03  0.12530003706E+03  0.00000000000E+00 0. -1.
         23    2    1    2    0    0  0.10045629739E+03 -0.21284129739E+02  0.11724988079E+03  0.19984987258E+03  0.12509178694E+03 0.  0.
          5    1    3    3  502    0 -0.85400950050E+01 -0.75629229770E+00  0.83211557749E+02  0.83756438223E+02  0.41800000000E+01 0. -1.
         -5    1    3    3    0  502  0.10899639240E+03 -0.20527837441E+02  0.34038323040E+02  0.11609343436E+03  0.41800000000E+01 0. -1.
        -11    1    1    2    0    0 -0.30606551042E+02  0.51608431496E+02 -0.85557968725E+00  0.60007692713E+02  0.00000000000E+00 0.  1.
         11    1    1    2    0    0 -0.69849746351E+02 -0.30324301757E+02 -0.26506975996E+02  0.80629833925E+02  0.00000000000E+00 0. -1.
</event>
<event>
 7    1  0.6506388E-006  0.7526391E+02  0.7561462E-02  0.1343056E+00
         -2   -1    0    0    0  501 -0.00000000000E+00  0.00000000000E+00  0.31775032083E+03  0.31775032083E+03  0.00000000000E+00 0.  1.
          2   -1    0    0  501    0  0.00000000000E+00 -0.00000000000E+00 -0.63471826725E+02  0.63471826725E+02  0.00000000000E+00 0. -1.
         23    2    1    2    0    0 -0.52408637102E+02 -0.34797607844E+02  0.22559034807E+03  0.26551063892E+03  0.12508938998E+03 0.  0.
          5    1    3    3  502    0 -0.64695471461E+01  0.11950320733E+01  0.20243654298E+03  0.20258654811E+03  0.41800000000E+01 0. -1.
         -5    1    3    3    0  502 -0.45939089956E+02 -0.35992639917E+02  0.23153805083E+02  0.62924090808E+02  0.41800000000E+01 0. -1.
        -11    1    1    2    0    0  0.27099129417E+02 -0.13062969661E+02  0.49321748986E+02  0.57772302313E+02  0.00000000000E+00 0.  1.
         11    1    1    2    0    0  0.25309507685E+02  0.47860577505E+02 -0.20633602947E+02  0.57939206319E+02  0.00000000000E+00 0. -1.
</event>
<event>
 6    1  0.6506388E-006  0.1238665E+03  0.7561462E-02  0.1236851E+00
         -2   -1    0    0    0  501 -0.00000000000E+00  0.00000000000E+00  0.36109158407E+02  0.36109158407E+02  0.00000000000E+00 0.  1.
          2   -1    0    0  501    0  0.00000000000E+00 -0.00000000000E+00 -0.49462647216E+03  0.49462647216E+03  0.00000000000E+00 0. -1.
          5    1    1    2  502    0 -0.89025882915E+02  0.42745903706E+02 -0.23385248416E+03  0.25388437695E+03  0.41800000000E+01 0. -1.
         -5    1    1    2    0  502  0.43549574229E+02  0.39650455773E+01 -0.38844091919E+02  0.58639772160E+02  0.41800000000E+01 0.  1.
        -11    1    1    2    0    0  0.28775979625E+02  0.20740203040E+02 -0.10899730424E+03  0.11462384288E+03  0.00000000000E+00 0.  1.
         11    1    1    2    0    0  0.16700329061E+02 -0.67451152324E+02 -0.76823433434E+02  0.10358763857E+03  0.00000000000E+00 0. -1.
</event>
<event>
 7    1  0.6506388E-006  0.1059362E+03  0.7561462E-02  0.1268286E+00
          2   -1    0    0  501    0  0.00000000000E+00  0.00000000000E+00  0.44214031142E+03  0.44214031142E+03  0.00000000000E+00 0. -1.
         -2   -1    0    0    0  501 -0.00000000000E+00 -0.00000000000E+00 -0.27825669477E+02  0.27825669477E+02  0.00000000000E+00 0.  1.
         23    2    1    2    0    0 -0.10089744491E+02  0.23884996353E+02  0.20419827381E+03  0.24086705435E+03  0.12509079443E+03 0.  0.
          5    1    3    3  502    0 -0.89808019077E-01 -0.50093386296E+02  0.58699333733E+02  0.77281560523E+02  0.41800000000E+01 0. -1.
         -5    1    3    3    0  502 -0.99999364715E+01  0.73978382650E+02  0.14549894007E+03  0.16358549383E+03  0.41800000000E+01 0. -1.
        -11    1    1    2    0    0 -0.18611564521E+02  0.24386430209E+02  0.43169637100E+02  0.52959473937E+02  0.00000000000E+00 0.  1.
         11    1    1    2    0    0  0.28701309011E+02 -0.48271426563E+02  0.16694673103E+03  0.17613945261E+03  0.00000000000E+00 0. -1.
</event>
<event>
 7    1  0.6506388E-006  0.1012340E+03  0.7561462E-02  0.1277722E+00
         -2   -1    0    0    0  501 -0.00000000000E+00  0.00000000000E+00  0.35238262487E+03  0.35238262487E+03  0.00000000000E+00 0.  1.
          2   -1    0    0  501    0  0.00000000000E+00 -0.00000000000E+00 -0.38305213654E+02  0.38305213654E+02  0.00000000000E+00 0. -1.
         23    2    1    2    0    0  0.34394165241E+02  0.25667177496E+02  0.18484933036E+03  0.22728484269E+03  0.12508941674E+03 0.  0.
          5    1    3    3  502    0  0.22926343446E+02  0.74493102460E+02  0.84568242081E+02  0.11508301137E+03  0.41800000000E+01 0.  1.
         -5    1    3    3    0  502  0.11467821795E+02 -0.48825924964E+02  0.10028108828E+03  0.11220183132E+03  0.41800000000E+01 0.  1.
        -11    1    1    2    0    0 -0.18234990885E+02 -0.45197645969E+02  0.22454002844E+02  0.53661199552E+02  0.00000000000E+00 0. -1.
         11    1    1    2    0    0 -0.16159174357E+02  0.19530468473E+02  0.10677407802E+03  0.10974179628E+03  0.00000000000E+00 0.  1.
</event>
<event>
 7    1  0.6506388E-006  0.1143750E+03  0.7561462E-02  0.1252676E+00
         -3   -1    0    0    0  501 -0.00000000000E+00  0.00000000000E+00  0.36642497178E+03  0.36642497178E+03  0.00000000000E+00 0.  1.
          3   -1    0    0  501    0  0.00000000000E+00 -0.00000000000E+00 -0.45909732797E+02  0.45909732797E+02  0.00000000000E+00 0. -1.
         23    2    1    2    0    0 -0.23614767089E+02 -0.75291231744E+01  0.26463753736E+03  0.29376167026E+03  0.12509415577E+03 0.  0.
          5    1    3    3  502    0 -0.24109524384E+02  0.56530526104E+02  0.15376009261E+03  0.16563999525E+03  0.41800000000E+01 0. -1.
         -5    1    3    3    0  502  0.49475729436E+00 -0.64059649279E+02  0.11087744476E+03  0.12812167500E+03  0.41800000000E+01 0. -1.
        -11    1    1    2    0    0  0.54988764910E+02  0.31588598070E+02  0.44363791713E+02  0.77393473946E+02  0.00000000000E+00 0.  1.
         11    1    1    2    0    0 -0.31373997821E+02 -0.24059474896E+02  0.11513909908E+02  0.41179560377E+02  0.00000000000E+00 0. -1.
</event>
<event>
 7    1  0.6506388E-006  0.1702577E+03  0.7561462E-02  0.1177579E+00
         -2   -1    0    0    0  501 -0.00000000000E+00  0.00000000000E+00  0.81378732264E+02  0.81378732264E+02  0.00000000000E+00 0. -1.
          2   -1    0    0  501    0  0.00000000000E+00 -0.00000000000E+00 -0.41018186719E+03  0.41018186719E+03  0.00000000000E+00 0.  1.
         23    2    1    2    0    0  0.14391747168E+03 -0.30055253721E+02 -0.17371512907E+03  0.25969547855E+03  0.12509691675E+03 0.  0.
          5    1    3    3  502    0  0.15540552905E+03 -0.43642873137E+02 -0.11509637909E+03  0.19829328711E+03  0.41800000000E+01 0.  1.
         -5    1    3    3    0  502 -0.11488057373E+02  0.13587619416E+02 -0.58618749981E+02  0.61402191434E+02  0.41800000000E+01 0.  1.
        -11    1    1    2    0    0 -0.35563760909E+02  0.38094263922E+02 -0.93313550033E+02  0.10688017896E+03  0.00000000000E+00 0.  1.
         11    1    1    2    0    0 -0.10835371077E+03 -0.80390102007E+01 -0.61774455818E+02  0.12498494195E+03  0.00000000000E+00 0. -1.
</event>
<event>
 7    1  0.6506388E-006  0.6016658E+02  0.7561462E-02  0.1397134E+00
          1   -1    0    0  501    0  0.00000000000E+00  0.00000000000E+00  0.20874085276E+03  0.20874085276E+03  0.00000000000E+00 0. -1.
         -1   -1    0    0    0  501 -0.00000000000E+00 -0.00000000000E+00 -0.56543636709E+02  0.56543636709E+02  0.00000000000E+00 0.  1.
         23    2    1    2    0    0  0.35606486492E+01 -0.14109413844E+01  0.72410525457E+02  0.14459073783E+03  0.12509407778E+03 0.  0.
          5    1    3    3  502    0 -0.18317284581E+02  0.77204645466E+01  0.10338507982E+03  0.10536164206E+03  0.41800000000E+01 0.  1.
         -5    1    3    3    0  502  0.21877933230E+02 -0.91314059310E+01 -0.30974554367E+02  0.39229095770E+02  0.41800000000E+01 0.  1.
        -11    1    1    2    0    0  0.36062332855E+02  0.37441620309E+01  0.57785104259E+01  0.36713781922E+02  0.00000000000E+00 0.  1.
         11    1    1    2    0    0 -0.39622981505E+02 -0.23332206465E+01  0.74008180166E+02  0.83979969715E+02  0.00000000000E+00 0. -1.
</event>
<event>
 7    1  0.6506388E-006  0.9842004E+02  0.7561462E-02  0.1283654E+00
         -1   -1    0    0    0  501 -0.00000000000E+00  0.00000000000E+00  0.18133401041E+03  0.18133401041E+03  0.00000000000E+00 0.  1.
          1   -1    0    0  501    0  0.00000000000E+00 -0.00000000000E+00 -0.10792762607E+03  0.10792762607E+03  0.00000000000E+00 0. -1.
         23    2    1    2    0    0 -0.57765803369E+02 -0.85144568193E+01  0.10576268547E+03  0.17390580931E+03  0.12509236932E+03 0.  0.
          5    1    3    3  502    0 -0.25485731316E+02  0.29039337986E+02 -0.16278545267E+02  0.42133942225E+02  0.41800000000E+01 0. -1.
         -5    1    3    3    0  502 -0.32280072053E+02 -0.37553794806E+02  0.12204123074E+03  0.13177186709E+03  0.41800000000E+01 0. -1.
        -11    1    1    2    0    0  0.68175050912E+02 -0.25439943772E+02 -0.10152153446E+02  0.73471726028E+02  0.00000000000E+00 0.  1.
         11    1    1    2    0    0 -0.10409247543E+02  0.33954400591E+02 -0.22204147688E+02  0.41884101142E+02  0.00000000000E+00 0. -1.
</event>
<event>
 7    1  0.6506388E-006  0.1065860E+03  0.7561462E-02  0.1267026E+00
          1   -1    0    0  501    0  0.00000000000E+00  0.00000000000E+00  0.60164167233E+03  0.60164167233E+03  0.00000000000E+00 0. -1.
         -1   -1    0    0    0  501 -0.00000000000E+00 -0.00000000000E+00 -0.24132487160E+02  0.24132487160E+02  0.00000000000E+00 0.  1.
         23    2    1    2    0    0 -0.27267191083E+02  0.47584247674E+02  0.32873781434E+03  0.35598259245E+03  0.12508914906E+03 0.  0.
          5    1    3    3  502    0  0.44442020519E+00 -0.34078333090E+02  0.31987295214E+02  0.46927494612E+02  0.41800000000E+01 0. -1.
         -5    1    3    3    0  502 -0.27711611288E+02  0.81662580764E+02  0.29675051913E+03  0.30905509784E+03  0.41800000000E+01 0. -1.
        -11    1    1    2    0    0 -0.19327982694E+02 -0.41146469094E+02  0.18527372294E+03  0.19076937712E+03  0.00000000000E+00 0.  1.
         11    1    1    2    0    0  0.46595173776E+02 -0.64377785798E+01  0.63497647880E+02  0.79022189912E+02  0.00000000000E+00 0. -1.
</event>
<event>
 7    1  0.6506388E-006  0.1299699E+03  0.7561462E-02  0.1227500E+00
         -4   -1    0    0    0  501 -0.00000000000E+00  0.00000000000E+00  0.52098696681E+02  0.52098696681E+02  0.00000000000E+00 0.  1.
          4   -1    0    0  501    0  0.00000000000E+00 -0.00000000000E+00 -0.36153107791E+03  0.36153107791E+03  0.00000000000E+00 0. -1.
         23    2    1    2    0    0  0.56854428905E+02  0.61454387579E+02 -0.20652007566E+03  0.25555279587E+03  0.12509045522E+03 0.  0.
          5    1    3    3  502    0 -0.33816021448E+02  0.27418550802E+02 -0.26625714937E+02  0.51202551993E+02  0.41800000000E+01 0. -1.
         -5    1    3    3    0  502  0.90670450353E+02  0.34035836776E+02 -0.17989436073E+03  0.20435024388E+03  0.41800000000E+01 0. -1.
        -11    1    1    2    0    0  0.19521189544E+02 -0.31844510199E+02 -0.40504628887E+02  0.55097864135E+02  0.00000000000E+00 0. -1.
         11    1    1    2    0    0 -0.76375618448E+02 -0.29609877380E+02 -0.62407676678E+02  0.10297911458E+03  0.00000000000E+00 0.  1.
</event>
<event>
 7    1  0.6506388E-006  0.9106322E+02  0.7561462E-02  0.1300297E+00
          2   -1    0    0  501    0  0.00000000000E+00  0.00000000000E+00  0.13978997330E+03  0.13978997330E+03  0.00000000000E+00 0. -1.
         -2   -1    0    0    0  501 -0.00000000000E+00 -0.00000000000E+00 -0.95434370201E+02  0.95434370201E+02  0.00000000000E+00 0.  1.
         23    2    1    2    0    0  0.12591534052E+02 -0.90420941310E+01 -0.13883092143E+02  0.12680836277E+03  0.12508922586E+03 0.  0.
          5    1    3    3  502    0  0.86908252995E+01 -0.49238468501E+02  0.36541232415E+02  0.62070051484E+02  0.41800000000E+01 0.  1.
         -5    1    3    3    0  502  0.39007087522E+01  0.40196374370E+02 -0.50424324558E+02  0.64738311288E+02  0.41800000000E+01 0.  1.
        -11    1    1    2    0    0 -0.15712451094E+02  0.48904740915E+02  0.30301933539E+02  0.59638594715E+02  0.00000000000E+00 0.  1.
         11    1    1    2    0    0  0.31209170427E+01 -0.39862646784E+02  0.27936761699E+02  0.48777386011E+02  0.00000000000E+00 0. -1.
</event>
<event>
 7    1  0.6506388E-006  0.8923603E+02  0.7561462E-02  0.1304712E+00
          1   -1    0    0  501    0  0.00000000000E+00  0.00000000000E+00  0.33337684000E+03  0.33337684000E+03  0.00000000000E+00 0. -1.
         -1   -1    0    0    0  501 -0.00000000000E+00 -0.00000000000E+00 -0.42618148174E+02  0.42618148174E+02  0.00000000000E+00 0.  1.
         23    2    1    2    0    0  0.32853746821E+02 -0.31894176096E+02  0.13736417083E+03  0.19134208917E+03  0.12508506110E+03 0.  0.
          5    1    3    3  502    0  0.46546880319E+02 -0.49857704659E+02  0.19223387832E+02  0.70988828847E+02  0.41800000000E+01 0.  1.
         -5    1    3    3    0  502 -0.13693133498E+02  0.17963528564E+02  0.11814078299E+03  0.12035326032E+03  0.41800000000E+01 0.  1.
        -11    1    1    2    0    0  0.85871942470E+00 -0.22853552717E+02  0.56981257655E+01  0.23568854620E+02  0.00000000000E+00 0.  1.
         11    1    1    2    0    0 -0.33712466246E+02  0.54747728813E+02  0.14769639524E+03  0.16108404439E+03  0.00000000000E+00 0. -1.
</event>
<event>
 7    1  0.6506388E-006  0.2762083E+03  0.7561462E-02  0.1097778E+00
          1   -1    0    0  501    0  0.00000000000E+00  0.00000000000E+00  0.38894138816E+03  0.38894138816E+03  0.00000000000E+00 0. -1.
         -1   -1    0    0    0  501 -0.00000000000E+00 -0.00000000000E+00 -0.21468221908E+03  0.21468221908E+03  0.00000000000E+00 0.  1.
         23    2    1    2    0    0  0.13764390338E+03  0.22878441666E+03  0.74133135378E+02  0.30402630648E+03  0.12509244512E+03 0.  0.
          5    1    3    3  502    0  0.45852138099E+02  0.39720319957E+02 -0.31812600657E+02  0.68626790296E+02  0.41800000000E+01 0.  1.
         -5    1    3    3    0  502  0.91791765277E+02  0.18906409670E+03  0.10594573604E+03  0.23539951618E+03  0.41800000000E+01 0.  1.
        -11    1    1    2    0    0 -0.75229914895E+02 -0.19799028684E+03  0.85919915530E+02  0.22856492658E+03  0.00000000000E+00 0. -1.
         11    1    1    2    0    0 -0.62413988481E+02 -0.30794129821E+02  0.14206118171E+02  0.71032374190E+02  0.00000000000E+00 0.  1.
</event>
<event>
 7    1  0.6506388E-006  0.9471502E+02  0.7561462E-02  0.1291819E+00
          2   -1    0    0  501    0  0.00000000000E+00  0.00000000000E+00  0.11221040288E+03  0.11221040288E+03  0.00000000000E+00 0. -1.
         -2   -1    0    0    0  501 -0.00000000000E+00 -0.00000000000E+00 -0.12176464385E+03  0.12176464385E+03  0.00000000000E+00 0.  1.
         23    2    1    2    0    0 -0.81793276782E+01 -0.37766414116E+02  0.12216807937E+02  0.13149024085E+03  0.12508888682E+03 0.  0.
          5    1    3    3  502    0 -0.64457385959E+02 -0.18186441454E+02  0.22708733971E+02  0.70842503175E+02  0.41800000000E+01 0.  1.
         -5    1    3    3    0  502  0.56278058281E+02 -0.19579972661E+02 -0.10491926034E+02  0.60647737676E+02  0.41800000000E+01 0.  1.
        -11    1    1    2    0    0  0.27213840993E+02  0.33364657712E+02  0.26398431479E+02  0.50504165278E+02  0.00000000000E+00 0. -1.
         11    1    1    2    0    0 -0.19034513315E+02  0.44017564035E+01 -0.48169480391E+02  0.51980640605E+02  0.00000000000E+00 0.  1.
</event>
<event>
 7    1  0.6506388E-006  0.6075145E+02  0.7561462E-02  0.1394705E+00
         -2   -1    0    0    0  501 -0.00000000000E+00  0.00000000000E+00  0.50514084776E+02  0.50514084776E+02  0.00000000000E+00 0.  1.
          2   -1    0    0  501    0  0.00000000000E+00 -0.00000000000E+00 -0.26641932374E+03  0.26641932374E+03  0.00000000000E+00 0. -1.
         23    2    1    2    0    0  0.45664292251E+02  0.11800670643E+02 -0.88128927627E+02  0.16012838430E+03  0.12509959296E+03 0.  0.
          5    1    3    3  502    0  0.24872087620E+02 -0.68086112598E+01 -0.11692825176E+03  0.11981096106E+03  0.41800000000E+01 0.  1.
         -5    1    3    3    0  502  0.20792204632E+02  0.18609281903E+02  0.28799324131E+02  0.40317423241E+02  0.41800000000E+01 0.  1.
        -11    1    1    2    0    0 -0.15112889019E+02 -0.28564116844E+02 -0.11537603503E+03  0.11981626619E+03  0.00000000000E+00 0. -1.
         11    1    1    2    0    0 -0.30551403232E+02  0.16763446201E+02 -0.12400276313E+02  0.36988758030E+02  0.00000000000E+00 0.  1.
</event>
<event>
 7    1  0.6506388E-006  0.9872867E+02  0.7561462E-02  0.1282992E+00
         -4   -1    0    0    0  501 -0.00000000000E+00  0.00000000000E+00  0.11704790863E+03  0.11704790863E+03  0.00000000000E+00 0.  1.
          4   -1    0    0  501    0  0.00000000000E+00 -0.00000000000E+00 -0.96950785807E+02  0.96950785807E+02  0.00000000000E+00 0. -1.
         23    2    1    2    0    0  0.21374349936E+02 -0.99920355319E+01  0.30115986330E+02  0.11843692893E+03  0.11208759919E+03 0.  0.
          5    1    3    3  502    0 -0.40633423385E+02 -0.95509713229E+01  0.36962878092E+02  0.55910847839E+02  0.41800000000E+01 0. -1.
         -5    1    3    3    0  502  0.62007773322E+02 -0.44106420909E+00 -0.68468917621E+01  0.62526081092E+02  0.41800000000E+01 0.  1.
        -11    1    1    2    0    0 -0.34350198899E+02  0.44659211905E+02  0.27408383155E+01  0.56408275696E+02  0.00000000000E+00 0.  1.
         11    1    1    2    0    0  0.12975848962E+02 -0.34667176373E+02 -0.12759701819E+02  0.39153489813E+02  0.00000000000E+00 0. -1.
</event>
<event>
 7    1  0.6506388E-006  0.1661782E+03  0.7561462E-02  0.1181893E+00
         -2   -1    0    0    0  501 -0.00000000000E+00  0.00000000000E+00  0.10039080284E+03  0.10039080284E+03  0.00000000000E+00 0.  1.
          2   -1    0    0  501    0  0.00000000000E+00 -0.00000000000E+00 -0.55242919056E+03  0.55242919056E+03  0.00000000000E+00 0. -1.
         23    2    1    2    0    0  0.13881687665E+03 -0.63400835994E+02 -0.36374889468E+02  0.20065009619E+03  0.12509011659E+03 0.  0.
          5    1    3    3  502    0  0.10788762383E+02  0.34416857312E+01 -0.53780109751E+02  0.55118192997E+02  0.41800000000E+01 0.  1.
         -5    1    3    3    0  502  0.12802811426E+03 -0.66842521725E+02  0.17405220283E+02  0.14553190319E+03  0.41800000000E+01 0.  1.
        -11    1    1    2    0    0 -0.13197926767E+03  0.21956528355E+02 -0.34401396920E+03  0.36911546599E+03  0.00000000000E+00 0. -1.
         11    1    1    2    0    0 -0.68376089785E+01  0.41444307639E+02 -0.71649529057E+02  0.83054431226E+02  0.00000000000E+00 0.  1.
</event>
<event>
 7    1  0.6506388E-006  0.9369092E+02  0.7561462E-02  0.1294152E+00
         -1   -1    0    0    0  501 -0.00000000000E+00  0.00000000000E+00  0.25995818482E+03  0.25995818482E+03  0.00000000000E+00 0.  1.
          1   -1    0    0  501    0  0.00000000000E+00 -0.00000000000E+00 -0.52764028415E+02  0.52764028415E+02  0.00000000000E+00 0. -1.
         23    2    1    2    0    0  0.30493090246E+02  0.22503283783E+02  0.14146091787E+03  0.19260055292E+03  0.12509018893E+03 0.  0.
          5    1    3    3  502    0  0.23058821609E+01 -0.29757277856E+02 -0.84537219532E+01  0.31300966324E+02  0.41800000000E+01 0. -1.
         -5    1    3    3    0  502  0.28187208085E+02  0.52260561639E+02  0.14991463982E+03  0.16129958659E+03  0.41800000000E+01 0. -1.
        -11    1    1    2    0    0  0.29588987375E+02 -0.23253502246E+02  0.11962346778E+02  0.39488368934E+02  0.00000000000E+00 0. -1.
         11    1    1    2    0    0 -0.60082077621E+02  0.75021846273E+00  0.53770891760E+02  0.80633291386E+02  0.00000000000E+00 0.  1.
</event>
<event>
 7    1  0.6506388E-006  0.1725332E+03  0.7561462E-02  0.1175232E+00
          4   -1    0    0  501    0  0.00000000000E+00  0.00000000000E+00  0.95449486464E+03  0.95449486464E+03  0.00000000000E+00 0. -1.
         -4   -1    0    0    0  501 -0.00000000000E+00 -0.00000000000E+00 -0.52287140682E+02  0.52287140682E+02  0.00000000000E+00 0.  1.
         23    2    1    2    0    0 -0.15505705289E+03 -0.49331679790E+02  0.22577048138E+03  0.30511761480E+03  0.12509254301E+03 0.  0.
          5    1    3    3  502    0 -0.11707509699E+03 -0.49292422847E+02  0.70761090203E+02  0.14546795376E+03  0.41800000000E+01 0. -1.
         -5    1    3    3    0  502 -0.37981955894E+02 -0.39256943691E-01  0.15500939118E+03  0.15964966104E+03  0.41800000000E+01 0. -1.
        -11    1    1    2    0    0  0.52931371795E+02  0.56449712664E+02  0.20217142457E+03  0.21647536832E+03  0.00000000000E+00 0.  1.
         11    1    1    2    0    0  0.10212568109E+03 -0.71180328737E+01  0.47426581801E+03  0.48518902220E+03  0.00000000000E+00 0. -1.
</event>
<event>
 7    1  0.6506388E-006  0.1091603E+03  0.7561462E-02  0.1262133E+00
          2   -1    0    0  501    0  0.00000000000E+00  0.00000000000E+00  0.44064892223E+03  0.44064892223E+03  0.00000000000E+00 0. -1.
         -2   -1    0    0    0  501 -0.00000000000E+00 -0.00000000000E+00 -0.54759104728E+02  0.54759104728E+02  0.00000000000E+00 0.  1.
         23    2    1    2    0    0 -0.44687262561E+02  0.53968539855E+02  0.69729039173E+02  0.15943295594E+03  0.12508866378E+03 0.  0.
          5    1    3    3  502    0  0.40171859324E+02  0.29655127329E+02  0.45784399759E+02  0.67874063675E+02  0.41800000000E+01 0. -1.
         -5    1    3    3    0  502 -0.84859121885E+02  0.24313412526E+02  0.23944639414E+02  0.91558892263E+02  0.41800000000E+01 0. -1.
        -11    1    1    2    0    0  0.51586635869E+02 -0.44513399202E+02  0.31700019872E+03  0.32424026538E+03  0.00000000000E+00 0. -1.
         11    1    1    2    0    0 -0.68993733079E+01 -0.94551406534E+01 -0.83942038574E+00  0.11734805640E+02  0.00000000000E+00 0.  1.
</event>
<event>
 7    1  0.6506388E-006  0.2016807E+03  0.7561462E-02  0.1148329E+00
         -1   -1    0    0    0  501 -0.00000000000E+00  0.00000000000E+00  0.30622495113E+03  0.30622495113E+03  0.00000000000E+00 0.  1.
          1   -1    0    0  501    0  0.00000000000E+00 -0.00000000000E+00 -0.17340474633E+03  0.17340474633E+03  0.00000000000E+00 0. -1.
         23    2    1    2    0    0  0.14733337306E+03  0.10614971835E+03  0.16248005760E+03  0.27390089338E+03  0.12508814793E+03 0.  0.
          5    1    3    3  502    0  0.27190579065E+02 -0.13093700031E+02  0.79901375053E+02  0.85513008985E+02  0.41800000000E+01 0.  1.
         -5    1    3    3    0  502  0.12014279399E+03  0.11924341838E+03  0.82578682549E+02  0.18838788439E+03  0.41800000000E+01 0.  1.
        -11    1    1    2    0    0 -0.15195033920E+03 -0.11700166984E+03 -0.27473584113E+02  0.19373459721E+03  0.00000000000E+00 0.  1.
         11    1    1    2    0    0  0.46169661438E+01  0.10851951499E+02 -0.21862686909E+01  0.11994206872E+02  0.00000000000E+00 0. -1.
</event>
<event>
 7    1  0.6506388E-006  0.2280041E+03  0.7561462E-02  0.1128053E+00
          2   -1    0    0  501    0  0.00000000000E+00  0.00000000000E+00  0.61372740724E+03  0.61372740724E+03  0.00000000000E+00 0. -1.
         -2   -1    0    0    0  501 -0.00000000000E+00 -0.00000000000E+00 -0.91646285852E+02  0.91646285852E+02  0.00000000000E+00 0.  1.
         23    2    1    2    0    0 -0.85232057056E+02 -0.18342460407E+03  0.17969822278E+03  0.29807338432E+03  0.12508877744E+03 0.  0.
          5    1    3    3  502    0 -0.25928484558E+02  0.15263192487E+02  0.20988759070E+02  0.36922239418E+02  0.41800000000E+01 0.  1.
         -5    1    3    3    0  502 -0.59303572498E+02 -0.19868779656E+03  0.15870946371E+03  0.26115114490E+03  0.41800000000E+01 0.  1.
        -11    1    1    2    0    0 -0.16509978858E+02  0.25077259861E+02  0.29014806812E+02  0.41752932572E+02  0.00000000000E+00 0.  1.
         11    1    1    2    0    0  0.10174203591E+03  0.15834734421E+03  0.31336809179E+03  0.36554737620E+03  0.00000000000E+00 0. -1.
</event>
<event>
 7    1  0.6506388E-006  0.1137819E+03  0.7561462E-02  0.1253723E+00
          2   -1    0    0  501    0  0.00000000000E+00  0.00000000000E+00  0.55685786631E+02  0.55685786631E+02  0.00000000000E+00 0. -1.
         -2   -1    0    0    0  501 -0.00000000000E+00 -0.00000000000E+00 -0.36450896371E+03  0.36450896371E+03  0.00000000000E+00 0.  1.
         23    2    1    2    0    0 -0.55397763925E+02 -0.58125786267E+02 -0.23297714305E+03  0.27635692984E+03  0.12508910507E+03 0.  0.
          5    1    3    3  502    0 -0.22822338802E+02  0.14425721701E+02  0.28276740663E+01  0.27466866141E+02  0.41800000000E+01 0. -1.
         -5    1    3    3    0  502 -0.32575425123E+02 -0.72551507968E+02 -0.23580481712E+03  0.24889006369E+03  0.41800000000E+01 0. -1.
        -11    1    1    2    0    0  0.80534967145E+02  0.44154507422E+02 -0.47269164341E+02  0.10329508873E+03  0.00000000000E+00 0. -1.
         11    1    1    2    0    0 -0.25137203221E+02  0.13971278845E+02 -0.28576869684E+02  0.40542731769E+02  0.00000000000E+00 0.  1.
</event>
<event>
 7    1  0.6506388E-006  0.1739362E+03  0.7561462E-02  0.1173804E+00
         -1   -1    0    0    0  501 -0.00000000000E+00  0.00000000000E+00  0.17725399306E+03  0.17725399306E+03  0.00000000000E+00 0.  1.
          1   -1    0    0  501    0  0.00000000000E+00 -0.00000000000E+00 -0.23401461299E+03  0.23401461299E+03  0.00000000000E+00 0. -1.
         23    2    1    2    0    0  0.12102059113E+03 -0.76409424263E+02  0.66309993704E+02  0.20131381134E+03  0.12508337930E+03 0.  0.
          5    1    3    3  502    0  0.10134820607E+03 -0.10457081360E+03  0.77407523568E+02  0.16497245539E+03  0.41800000000E+01 0. -1.
         -5    1    3    3    0  502  0.19672385060E+02  0.28161389340E+02 -0.11097529863E+02  0.36341355954E+02  0.41800000000E+01 0. -1.
        -11    1    1    2    0    0 -0.69455595453E+02  0.90544043377E+02 -0.99967889393E+02  0.15170986270E+03  0.00000000000E+00 0. -1.
         11    1    1    2    0    0 -0.51564995679E+02 -0.14134619114E+02 -0.23102724246E+02  0.58244932006E+02  0.00000000000E+00 0.  1.
</event>
<event>
 7    1  0.6506388E-006  0.2383297E+03  0.7561462E-02  0.1120911E+00
          2   -1    0    0  501    0  0.00000000000E+00  0.00000000000E+00  0.14621736995E+03  0.14621736995E+03  0.00000000000E+00 0. -1.
         -2   -1    0    0    0  501 -0.00000000000E+00 -0.00000000000E+00 -0.41234760741E+03  0.41234760741E+03  0.00000000000E+00 0.  1.
         23    2    1    2    0    0  0.19615503637E+03  0.98234609163E+02 -0.14953561225E+03  0.29348821103E+03  0.12509034316E+03 0.  0.
          5    1    3    3  502    0 -0.59694812133E+01  0.39642936964E+02 -0.37442522849E+02  0.55014653270E+02  0.41800000000E+01 0.  1.
         -5    1    3    3    0  502  0.20212451759E+03  0.58591672199E+02 -0.11209308940E+03  0.23847355776E+03  0.41800000000E+01 0.  1.
        -11    1    1    2    0    0 -0.16884344197E+03 -0.10351315373E+03 -0.68579445191E+02  0.20958583252E+03  0.00000000000E+00 0. -1.
         11    1    1    2    0    0 -0.27311594403E+02  0.52785445681E+01 -0.48015180023E+02  0.55490933802E+02  0.00000000000E+00 0.  1.
</event>
<event>
 7    1  0.6506388E-006  0.2155089E+03  0.7561462E-02  0.1137276E+00
         -2   -1    0    0    0  501 -0.00000000000E+00  0.00000000000E+00  0.10458984039E+03  0.10458984039E+03  0.00000000000E+00 0.  1.
          2   -1    0    0  501    0  0.00000000000E+00 -0.00000000000E+00 -0.58762137708E+03  0.58762137708E+03  0.00000000000E+00 0. -1.
         23    2    1    2    0    0  0.20162167749E+03  0.12905511893E+02 -0.12000184597E+03  0.26620763304E+03  0.12509279668E+03 0.  0.
          5    1    3    3  502    0  0.20668439866E+03  0.24793844250E+02 -0.78457633607E+02  0.22249999558E+03  0.41800000000E+01 0. -1.
         -5    1    3    3    0  502 -0.50627211620E+01 -0.11888332357E+02 -0.41544212365E+02  0.43707637466E+02  0.41800000000E+01 0. -1.
        -11    1    1    2    0    0 -0.73053866127E+02 -0.31065680193E+02 -0.71383887452E+02  0.10675955802E+03  0.00000000000E+00 0.  1.
         11    1    1    2    0    0 -0.12856781137E+03  0.18160168300E+02 -0.29164580327E+03  0.31924402641E+03  0.00000000000E+00 0. -1.
</event>
<event>
 7    1  0.6506388E-006  0.3336671E+03  0.7561462E-02  0.1069526E+00
         -2   -1    0    0    0  501 -0.00000000000E+00  0.00000000000E+00  0.28571683370E+03  0.28571683370E+03  0.00000000000E+00 0.  1.
          2   -1    0    0  501    0  0.00000000000E+00 -0.00000000000E+00 -0.39934122225E+03  0.39934122225E+03  0.00000000000E+00 0. -1.
         23    2    1    2    0    0  0.92641700138E+02 -0.30628775919E+03 -0.59981304590E+02  0.34876789239E+03  0.12508640945E+03 0.  0.
          5    1    3    3  502    0  0.12240761750E+03 -0.23608831735E+03 -0.58824993955E+02  0.27239524726E+03  0.41800000000E+01 0.  1.
         -5    1    3    3    0  502 -0.29765917366E+02 -0.70199441837E+02 -0.11563106343E+01  0.76372645136E+02  0.41800000000E+01 0.  1.
        -11    1    1    2    0    0 -0.34843906264E+02  0.20865664950E+03 -0.18090520730E+01  0.21155369970E+03  0.00000000000E+00 0.  1.
         11    1    1    2    0    0 -0.57797793874E+02  0.97631109687E+02 -0.51834031891E+02  0.12473646386E+03  0.00000000000E+00 0. -1.
</event>
<event>
 7    1  0.6506388E-006  0.6612148E+02  0.7561462E-02  0.1373802E+00
         -1   -1    0    0    0  501 -0.00000000000E+00  0.00000000000E+00  0.16592507499E+03  0.16592507499E+03  0.00000000000E+00 0.  1.
          1   -1    0    0  501    0  0.00000000000E+00 -0.00000000000E+00 -0.96530417013E+02  0.96530417013E+02  0.00000000000E+00 0. -1.
         23    2    1    2    0    0 -0.98322287098E+01  0.60005870502E+02  0.65792641351E+02  0.15386393786E+03  0.12509221599E+03 0.  0.
          5    1    3    3  502    0 -0.30385540041E+01  0.60189302665E+01 -0.36807615270E+02  0.37652799018E+02  0.41800000000E+01 0.  1.
         -5    1    3    3    0  502 -0.67936747057E+01  0.53986940235E+02  0.10260025662E+03  0.11621113884E+03  0.41800000000E+01 0.  1.
        -11    1    1    2    0    0 -0.12831961431E+02 -0.20201976918E+02  0.42318162534E+02  0.48616931061E+02  0.00000000000E+00 0.  1.
         11    1    1    2    0    0  0.22664190140E+02 -0.39803893584E+02 -0.38716145913E+02  0.59974623079E+02  0.00000000000E+00 0. -1.
</event>
<event>
 7    1  0.6506388E-006  0.1069513E+03  0.7561462E-02  0.1266322E+00
          3   -1    0    0  501    0  0.00000000000E+00  0.00000000000E+00  0.29017946822E+02  0.29017946822E+02  0.00000000000E+00 0.  1.
         -3   -1    0    0    0  501 -0.00000000000E+00 -0.00000000000E+00 -0.46305913192E+03  0.46305913192E+03  0.00000000000E+00 0. -1.
         23    2    1    2    0    0  0.32904782090E+02  0.78510952246E+01 -0.29428773426E+03  0.32155695464E+03  0.12509692307E+03 0.  0.
          5    1    3    3  502    0  0.73335941237E+02 -0.16255674816E+02 -0.12591646410E+03  0.14667936314E+03  0.41800000000E+01 0.  1.
         -5    1    3    3    0  502 -0.40431159147E+02  0.24106770040E+02 -0.16837127016E+03  0.17487759150E+03  0.41800000000E+01 0.  1.
        -11    1    1    2    0    0 -0.38785102662E+02  0.32520694942E+02 -0.46498065763E+02  0.68730996702E+02  0.00000000000E+00 0.  1.
         11    1    1    2    0    0  0.58803205720E+01 -0.40371790166E+02 -0.93255385074E+02  0.10178912740E+03  0.00000000000E+00 0. -1.
</event>
<event>
 7    1  0.6506388E-006  0.1110959E+03  0.7561462E-02  0.1258554E+00
         -1   -1    0    0    0  501 -0.00000000000E+00  0.00000000000E+00  0.34521659535E+03  0.34521659535E+03  0.00000000000E+00 0.  1.
          1   -1    0    0  501    0  0.00000000000E+00 -0.00000000000E+00 -0.44775805761E+02  0.44775805761E+02  0.00000000000E+00 0. -1.
         23    2    1    2    0    0 -0.42426071133E+02  0.53172164408E+01  0.23585958589E+03  0.27041946390E+03  0.12517466954E+03 0.  0.
          5    1    3    3  502    0 -0.79068112160E+02  0.24231924402E+02  0.10850984422E+03  0.13649472961E+03  0.41800000000E+01 0. -1.
         -5    1    3    3    0  502  0.36642041027E+02 -0.18914707961E+02  0.12734974168E+03  0.13392473429E+03  0.41800000000E+01 0. -1.
        -11    1    1    2    0    0 -0.15640621051E+02 -0.30788431338E+02  0.36431318174E+02  0.50197584354E+02  0.00000000000E+00 0. -1.
         11    1    1    2    0    0  0.58066692184E+02  0.25471214897E+02  0.28149885524E+02  0.69375352861E+02  0.00000000000E+00 0.  1.
</event>
<event>
 7    1  0.6506388E-006  0.7917158E+02  0.7561462E-02  0.1331419E+00
          2   -1    0    0  501    0  0.00000000000E+00  0.00000000000E+00  0.85860673260E+03  0.85860673260E+03  0.00000000000E+00 0. -1.
         -2   -1    0    0    0  501 -0.00000000000E+00 -0.00000000000E+00 -0.16209301875E+02  0.16209301875E+02  0.00000000000E+00 0.  1.
         23    2    1    2    0    0  0.21237402789E+02 -0.39665344602E+02  0.44688867760E+03  0.46624024195E+03  0.12508439632E+03 0.  0.
          5    1    3    3  502    0  0.31616529682E+02 -0.15672712692E+02  0.24825518739E+02  0.43347637224E+02  0.41800000000E+01 0. -1.
         -5    1    3    3    0  502 -0.10379126893E+02 -0.23992631910E+02  0.42206315886E+03  0.42289260473E+03  0.41800000000E+01 0. -1.
        -11    1    1    2    0    0 -0.53762952891E+02  0.15941144951E+02  0.29539738799E+03  0.30067289874E+03  0.00000000000E+00 0. -1.
         11    1    1    2    0    0  0.32525550102E+02  0.23724199651E+02  0.10011136513E+03  0.10790289378E+03  0.00000000000E+00 0.  1.
</event>
<event>
 7    1  0.6506388E-006  0.6018333E+02  0.7561462E-02  0.1397064E+00
          1   -1    0    0  501    0  0.00000000000E+00  0.00000000000E+00  0.57113471110E+02  0.57113471110E+02  0.00000000000E+00 0. -1.
         -1   -1    0    0    0  501 -0.00000000000E+00 -0.00000000000E+00 -0.20463917868E+03  0.20463917868E+03  0.00000000000E+00 0.  1.
         23    2    1    2    0    0 -0.38771890944E+01 -0.17166613434E+02 -0.89874476779E+02  0.15502166912E+03  0.12507825994E+03 0.  0.
          5    1    3    3  502    0 -0.12148229895E+02 -0.12434363599E+01  0.30566384065E+02  0.33179841144E+02  0.41800000000E+01 0. -1.
         -5    1    3    3    0  502  0.82710408009E+01 -0.15923177074E+02 -0.12044086084E+03  0.12184182798E+03  0.41800000000E+01 0. -1.
        -11    1    1    2    0    0  0.22217205810E+02  0.48151508936E+02 -0.27327169323E+02  0.59656904295E+02  0.00000000000E+00 0.  1.
         11    1    1    2    0    0 -0.18340016715E+02 -0.30984895502E+02 -0.30324061467E+02  0.47074076372E+02  0.00000000000E+00 0. -1.
</event>
<event>
 7    1  0.6506388E-006  0.7873652E+02  0.7561462E-02  0.1332676E+00
         -4   -1    0    0    0  501 -0.00000000000E+00  0.00000000000E+00  0.72317343029E+02  0.72317343029E+02  0.00000000000E+00 0.  1.
          4   -1    0    0  501    0  0.00000000000E+00 -0.00000000000E+00 -0.21343620245E+03  0.21343620245E+03  0.00000000000E+00 0. -1.
         23    2    1    2    0    0  0.34547587284E+02 -0.40140961451E+02 -0.38450997694E+02  0.14117672532E+03  0.12509019136E+03 0.  0.
          5    1    3    3  502    0  0.37343283517E+02 -0.34894499250E+02  0.38349214716E+02  0.64033441037E+02  0.41800000000E+01 0.  1.
         -5    1    3    3    0  502 -0.27956962325E+01 -0.52464622013E+01 -0.76800212410E+02  0.77143284279E+02  0.41800000000E+01 0.  1.
        -11    1    1    2    0    0 -0.64867981872E+01  0.62630183711E+02 -0.80993520442E+02  0.10258932116E+03  0.00000000000E+00 0. -1.
         11    1    1    2    0    0 -0.28060789097E+02 -0.22489222260E+02 -0.21674341289E+02  0.41987499008E+02  0.00000000000E+00 0.  1.
</event>
<event>
 6    1  0.6506388E-006  0.1241016E+03  0.7561462E-02  0.1236480E+00
          1   -1    0    0  501    0  0.00000000000E+00  0.00000000000E+00  0.96824949502E+02  0.96824949502E+02  0.00000000000E+00 0. -1.
         -1   -1    0    0    0  501 -0.00000000000E+00 -0.00000000000E+00 -0.21539674651E+03  0.21539674651E+03  0.00000000000E+00 0.  1.
          5    1    1    2  502    0  0.92282936211E+02  0.34734782102E+02 -0.84457237683E+02  0.12989666201E+03  0.41800000000E+01 0. -1.
         -5    1    1    2    0  502 -0.63210692396E+02  0.18269009803E+02 -0.27139162243E+02  0.71297649889E+02  0.41800000000E+01 0.  1.
        -11    1    1    2    0    0 -0.44996428541E+02 -0.25286764073E+02 -0.39824008852E+02  0.65192412901E+02  0.00000000000E+00 0.  1.
         11    1    1    2    0    0  0.15924184727E+02 -0.27717027831E+02  0.32848611771E+02  0.45834971215E+02  0.00000000000E+00 0. -1.
</event>
<event>
 7    1  0.6506388E-006  0.1393668E+03  0.7561462E-02  0.1214184E+00
          1   -1    0    0  501    0  0.00000000000E+00  0.00000000000E+00  0.63184178810E+03  0.63184178810E+03  0.00000000000E+00 0. -1.
         -1   -1    0    0    0  501 -0.00000000000E+00 -0.00000000000E+00 -0.34195505270E+02  0.34195505270E+02  0.00000000000E+00 0.  1.
         23    2    1    2    0    0 -0.65463907257E+02 -0.67779851426E+02  0.24907512813E+03  0.29422206688E+03  0.12509425954E+03 0.  0.
          5    1    3    3  502    0 -0.82758481952E+02  0.33583194299E+01  0.14201381399E+03  0.16445558795E+03  0.41800000000E+01 0. -1.
         -5    1    3    3    0  502  0.17294574696E+02 -0.71138170856E+02  0.10706131414E+03  0.12976647892E+03  0.41800000000E+01 0. -1.
        -11    1    1    2    0    0  0.58538913555E+02  0.43880587484E+01  0.22780178094E+03  0.23524393904E+03  0.00000000000E+00 0. -1.
         11    1    1    2    0    0  0.69249937020E+01  0.63391792678E+02  0.12076937376E+03  0.13657128745E+03  0.00000000000E+00 0.  1.
</event>
<event>
 7    1  0.6506388E-006  0.1084002E+03  0.7561462E-02  0.1263561E+00
         -2   -1    0    0    0  501 -0.00000000000E+00  0.00000000000E+00  0.16487940721E+03  0.16487940721E+03  0.00000000000E+00 0.  1.
          2   -1    0    0  501    0  0.00000000000E+00 -0.00000000000E+00 -0.80470955218E+02  0.80470955218E+02  0.00000000000E+00 0. -1.
         23    2    1    2    0    0  0.30531315022E+02  0.25820408328E+02  0.61412313489E+02  0.14496995121E+03  0.12508381120E+03 0.  0.
          5    1    3    3  502    0 -0.45957893300E+02 -0.61021137131E+01  0.10869225823E+02  0.47801424857E+02  0.41800000000E+01 0. -1.
         -5    1    3    3    0  502  0.76489208322E+02  0.31922522041E+02  0.50543087666E+02  0.97168526355E+02  0.41800000000E+01 0. -1.
        -11    1    1    2    0    0 -0.56937207475E+02 -0.18323143754E+02  0.36206138488E+02  0.69917577592E+02  0.00000000000E+00 0.  1.
         11    1    1    2    0    0  0.26405892454E+02 -0.74972645738E+01 -0.13209999990E+02  0.30462833619E+02  0.00000000000E+00 0. -1.
</event>
<event>
 7    1  0.6506388E-006  0.9538699E+02  0.7561462E-02  0.1290307E+00
         -2   -1    0    0    0  501 -0.00000000000E+00  0.00000000000E+00  0.58651528141E+02  0.58651528141E+02  0.00000000000E+00 0.  1.
          2   -1    0    0  501    0  0.00000000000E+00 -0.00000000000E+00 -0.26042618149E+03  0.26042618149E+03  0.00000000000E+00 0. -1.
         23    2    1    2    0    0 -0.55360999204E+01 -0.27776054878E+02 -0.45303311748E+02  0.13602182879E+03  0.12508952884E+03 0.  0.
          5    1    3    3  502    0 -0.51475368431E+02 -0.39584574029E+02 -0.57535980462E+02  0.86859159010E+02  0.41800000000E+01 0. -1.
         -5    1    3    3    0  502  0.45939268510E+02  0.11808519152E+02  0.12232668714E+02  0.49162669778E+02  0.41800000000E+01 0. -1.
        -11    1    1    2    0    0 -0.30718901736E+02 -0.25452697650E+01 -0.15760807508E+02  0.34619826334E+02  0.00000000000E+00 0.  1.
         11    1    1    2    0    0  0.36255001657E+02  0.30321324643E+02 -0.14071053409E+03  0.14843605450E+03  0.00000000000E+00 0. -1.
</event>
<event>
 7    1  0.6506388E-006  0.1058135E+03  0.7561462E-02  0.1268525E+00
         -1   -1    0    0    0  501 -0.00000000000E+00  0.00000000000E+00  0.65266780067E+02  0.65266780067E+02  0.00000000000E+00 0.  1.
          1   -1    0    0  501    0  0.00000000000E+00 -0.00000000000E+00 -0.18336177883E+03  0.18336177883E+03  0.00000000000E+00 0. -1.
         23    2    1    2    0    0 -0.28861742263E+02  0.93098142230E+01 -0.46450126802E+02  0.12588353058E+03  0.11300166451E+03 0.  0.
          5    1    3    3  502    0 -0.71796075428E+02  0.10541108281E+01 -0.20165046007E+02  0.74698655122E+02  0.41800000000E+01 0. -1.
         -5    1    3    3    0  502  0.42934333165E+02  0.82557033949E+01 -0.26285080796E+02  0.51184875454E+02  0.41800000000E+01 0.  1.
        -11    1    1    2    0    0  0.30639884344E+02  0.37788502806E+02 -0.19380712621E+02  0.52367790469E+02  0.00000000000E+00 0.  1.
         11    1    1    2    0    0 -0.17781420808E+01 -0.47098317029E+02 -0.52264159339E+02  0.70377237852E+02  0.00000000000E+00 0. -1.
</event>
<event>
 7    1  0.6506388E-006  0.1211694E+03  0.7561462E-02  0.1241180E+00
         -1   -1    0    0    0  501 -0.00000000000E+00  0.00000000000E+00  0.26720856624E+02  0.26720856624E+02  0.00000000000E+00 0.  1.
          1   -1    0    0  501    0  0.00000000000E+00 -0.00000000000E+00 -0.60784756620E+03  0.60784756620E+03  0.00000000000E+00 0. -1.
         23    2    1    2    0    0 -0.60475182927E+01 -0.66017955327E+02 -0.31385897463E+03  0.34430494218E+03  0.12507395553E+03 0.  0.
          5    1    3    3  502    0 -0.39175796118E+02 -0.90139799839E+02 -0.24574838123E+03  0.26470675434E+03  0.41800000000E+01 0. -1.
         -5    1    3    3    0  502  0.33128277825E+02  0.24121844512E+02 -0.68110593400E+02  0.79598187841E+02  0.41800000000E+01 0. -1.
        -11    1    1    2    0    0  0.42001919233E+02  0.28196862439E+02 -0.71015863175E+02  0.87192184817E+02  0.00000000000E+00 0.  1.
         11    1    1    2    0    0 -0.35954400940E+02  0.37821092888E+02 -0.19625187177E+03  0.20307129583E+03  0.00000000000E+00 0. -1.
</event>
<event>
 7    1  0.6506388E-006  0.1077174E+03  0.7561462E-02  0.1264856E+00
         -2   -1    0    0    0  501 -0.00000000000E+00  0.00000000000E+00  0.52571047008E+02  0.52571047008E+02  0.00000000000E+00 0. -1.
          2   -1    0    0  501    0  0.00000000000E+00 -0.00000000000E+00 -0.27614711113E+03  0.27614711113E+03  0.00000000000E+00 0.  1.
         23    2    1    2    0    0  0.39546277941E+02  0.10123324390E+02 -0.86699297225E+02  0.15757735216E+03  0.12508982364E+03 0.  0.
          5    1    3    3  502    0  0.15795347530E+02  0.61585486509E+02 -0.76965864709E+02  0.99917375278E+02  0.41800000000E+01 0.  1.
         -5    1    3    3    0  502  0.23750930411E+02 -0.51462162119E+02 -0.97334325162E+01  0.57659976881E+02  0.41800000000E+01 0.  1.
        -11    1    1    2    0    0  0.21293307687E+02  0.17980388432E+02 -0.14026848907E+02  0.31200189273E+02  0.00000000000E+00 0.  1.
         11    1    1    2    0    0 -0.60839585628E+02 -0.28103712822E+02 -0.12284991799E+03  0.13994061670E+03  0.00000000000E+00 0. -1.
</event>
<event>
 7    1  0.6506388E-006  0.1546482E+03  0.7561462E-02  0.1194875E+00
         -1   -1    0    0    0  501 -0.00000000000E+00  0.00000000000E+00  0.83699597743E+02  0.83699597743E+02  0.00000000000E+00 0.  1.
          1   -1    0    0  501    0  0.00000000000E+00 -0.00000000000E+00 -0.39171229268E+03  0.39171229268E+03  0.00000000000E+00 0. -1.
         23    2    1    2    0    0  0.11977760363E+03 -0.78184300690E+02 -0.18970760655E+03  0.26850537531E+03  0.12508677542E+03 0.  0.
          5    1    3    3  502    0  0.11820648120E+03 -0.59932547713E+02 -0.20509040564E+03  0.24422168077E+03  0.41800000000E+01 0.  1.
         -5    1    3    3    0  502  0.15711224344E+01 -0.18251752977E+02  0.15382799097E+02  0.24283694540E+02  0.41800000000E+01 0.  1.
        -11    1    1    2    0    0 -0.27668375193E+02  0.57050753255E+02 -0.11756208130E+02  0.64486710742E+02  0.00000000000E+00 0.  1.
         11    1    1    2    0    0 -0.92109228440E+02  0.21133547436E+02 -0.10654888026E+03  0.14241980436E+03  0.00000000000E+00 0. -1.
</event>
<event>
 7    1  0.6506388E-006  0.8453400E+02  0.7561462E-02  0.1316656E+00
         -1   -1    0    0    0  501 -0.00000000000E+00  0.00000000000E+00  0.51262767695E+03  0.51262767695E+03  0.00000000000E+00 0.  1.
          1   -1    0    0  501    0  0.00000000000E+00 -0.00000000000E+00 -0.33940477320E+02  0.33940477320E+02  0.00000000000E+00 0. -1.
         23    2    1    2    0    0  0.29679138571E+02  0.42112216502E+02  0.40501228555E+03  0.42700888662E+03  0.12508935910E+03 0.  0.
          5    1    3    3  502    0 -0.16254852852E+02  0.59899610963E+02  0.98238063229E+02  0.11627713921E+03  0.41800000000E+01 0. -1.
         -5    1    3    3    0  502  0.45933991424E+02 -0.17787394460E+02  0.30677422232E+03  0.31073174741E+03  0.41800000000E+01 0. -1.
        -11    1    1    2    0    0 -0.20487377764E+02 -0.78284558905E+01  0.80482884569E+02  0.83417696431E+02  0.00000000000E+00 0.  1.
         11    1    1    2    0    0 -0.91917608077E+01 -0.34283760612E+02 -0.68079704857E+01  0.36141571225E+02  0.00000000000E+00 0. -1.
</event>
<event>
 7    1  0.6506388E-006  0.1573335E+03  0.7561462E-02  0.1191740E+00
          2   -1    0    0  501    0  0.00000000000E+00  0.00000000000E+00  0.64584026309E+03  0.64584026309E+03  0.00000000000E+00 0. -1.
         -2   -1    0    0    0  501 -0.00000000000E+00 -0.00000000000E+00 -0.57347755230E+02  0.57347755230E+02  0.00000000000E+00 0.  1.
         23    2    1    2    0    0  0.11520337220E+03 -0.47727211952E+02  0.13047169016E+03  0.21959056482E+03  0.12508976976E+03 0.  0.
          5    1    3    3  502    0  0.13554163590E+03 -0.16523696876E+02  0.11667116914E+03  0.17965022051E+03  0.41800000000E+01 0. -1.
         -5    1    3    3    0  502 -0.20338263697E+02 -0.31203515076E+02  0.13800521024E+02  0.39940344313E+02  0.41800000000E+01 0. -1.
        -11    1    1    2    0    0  0.31958651540E+00 -0.10985988162E+02  0.44149068036E+01  0.11844216881E+02  0.00000000000E+00 0.  1.
         11    1    1    2    0    0 -0.11552295872E+03  0.58713200114E+02  0.45360591090E+03  0.47175323662E+03  0.00000000000E+00 0. -1.
</event>
<event>
 7    1  0.6506388E-006  0.1068776E+03  0.7561462E-02  0.1266464E+00
          2   -1    0    0  501    0  0.00000000000E+00  0.00000000000E+00  0.53357311340E+03  0.53357311340E+03  0.00000000000E+00 0. -1.
         -2   -1    0    0    0  501 -0.00000000000E+00 -0.00000000000E+00 -0.22881680475E+02  0.22881680475E+02  0.00000000000E+00 0.  1.
         23    2    1    2    0    0 -0.34382848912E+02  0.16098941574E+02  0.31699755431E+03  0.34289377762E+03  0.12508931636E+03 0.  0.
          5    1    3    3  502    0 -0.37863380174E+02  0.64992708256E+02  0.13759017826E+03  0.15686368999E+03  0.41800000000E+01 0.  1.
         -5    1    3    3    0  502  0.34805312621E+01 -0.48893766682E+02  0.17940737606E+03  0.18603008763E+03  0.41800000000E+01 0.  1.
        -11    1    1    2    0    0  0.27234320250E+02 -0.48728497376E+02  0.13388310002E+03  0.14505467633E+03  0.00000000000E+00 0. -1.
         11    1    1    2    0    0  0.71485286616E+01  0.32629555802E+02  0.59810778596E+02  0.68506339926E+02  0.00000000000E+00 0.  1.
</event>
<event>
 7    1  0.6506388E-006  0.9948557E+02  0.7561462E-02  0.1281381E+00
          2   -1    0    0  501    0  0.00000000000E+00  0.00000000000E+00  0.66612778341E+02  0.66612778341E+02  0.00000000000E+00 0. -1.
         -2   -1    0    0    0  501 -0.00000000000E+00 -0.00000000000E+00 -0.29178076524E+03  0.29178076524E+03  0.00000000000E+00 0.  1.
         23    2    1    2    0    0  0.67650832101E+02  0.36377538227E+02 -0.18000524847E+03  0.23227056265E+03  0.12509102457E+03 0.  0.
          5    1    3    3  502    0 -0.18223172386E+01  0.12676734670E+02  0.17175259480E+02  0.21828476360E+02  0.41800000000E+01 0. -1.
         -5    1    3    3    0  502  0.69473149340E+02  0.23700803557E+02 -0.19718050795E+03  0.21044208629E+03  0.41800000000E+01 0. -1.
        -11    1    1    2    0    0 -0.84863121040E+02 -0.17913607491E+02 -0.50441664973E+02  0.10033448167E+03  0.00000000000E+00 0.  1.
         11    1    1    2    0    0  0.17212288938E+02 -0.18463930736E+02  0.52789265428E+01  0.25788499261E+02  0.00000000000E+00 0. -1.
</event>
<event>
 7    1  0.6506388E-006  0.9602062E+02  0.7561462E-02  0.1288894E+00
          1   -1    0    0  501    0  0.00000000000E+00  0.00000000000E+00  0.58062508292E+03  0.58062508292E+03  0.00000000000E+00 0. -1.
         -1   -1    0    0    0  501 -0.00000000000E+00 -0.00000000000E+00 -0.20865603928E+02  0.20865603928E+02  0.00000000000E+00 0.  1.
         23    2    1    2    0    0  0.11551813116E+02 -0.82373124718E+01  0.28247356087E+03  0.30925696275E+03  0.12508900318E+03 0.  0.
          5    1    3    3  502    0  0.49467617013E+02 -0.27846376823E+02  0.60067175582E+02  0.82752666528E+02  0.41800000000E+01 0.  1.
         -5    1    3    3    0  502 -0.37915803898E+02  0.19609064351E+02  0.22240638529E+03  0.22650429622E+03  0.41800000000E+01 0.  1.
        -11    1    1    2    0    0  0.18716654912E+02  0.42544275712E+02  0.13565433904E+03  0.14339605387E+03  0.00000000000E+00 0. -1.
         11    1    1    2    0    0 -0.30268468028E+02 -0.34306963240E+02  0.14163157908E+03  0.14883767022E+03  0.00000000000E+00 0.  1.
</event>
<event>
 7    1  0.6506388E-006  0.1230555E+03  0.7561462E-02  0.1238140E+00
          1   -1    0    0  501    0  0.00000000000E+00  0.00000000000E+00  0.78499722163E+03  0.78499722163E+03  0.00000000000E+00 0. -1.
         -1   -1    0    0    0  501 -0.00000000000E+00 -0.00000000000E+00 -0.25214906404E+02  0.25214906404E+02  0.00000000000E+00 0.  1.
         23    2    1    2    0    0  0.52704358230E+02  0.66091277093E+02  0.34878619029E+03  0.38005926801E+03  0.12508970534E+03 0.  0.
          5    1    3    3  502    0 -0.22725778013E+02  0.37243582878E+00  0.19617601553E+03  0.19753253191E+03  0.41800000000E+01 0.  1.
         -5    1    3    3    0  502  0.75430136243E+02  0.65718841265E+02  0.15261017476E+03  0.18252673610E+03  0.41800000000E+01 0.  1.
        -11    1    1    2    0    0 -0.22650048047E+02  0.20908780362E+02  0.62245407814E+02  0.69460006958E+02  0.00000000000E+00 0.  1.
         11    1    1    2    0    0 -0.30054310184E+02 -0.87000057456E+02  0.34875071712E+03  0.36069285306E+03  0.00000000000E+00 0. -1.
</event>
<event>
 7    1  0.6506388E-006  0.9318092E+02  0.7561462E-02  0.1295326E+00
         -1   -1    0    0    0  501 -0.00000000000E+00  0.00000000000E+00  0.83220379504E+02  0.83220379504E+02  0.00000000000E+00 0. -1.
          1   -1    0    0  501    0  0.00000000000E+00 -0.00000000000E+00 -0.16944255113E+03  0.16944255113E+03  0.00000000000E+00 0.  1.
         23    2    1    2    0    0  0.49688819918E+02  0.17083399847E+02 -0.41883363784E+02  0.14199939351E+03  0.12509512468E+03 0.  0.
          5    1    3    3  502    0  0.24290558986E+02 -0.37556701969E+02 -0.63556228160E+02  0.77829323887E+02  0.41800000000E+01 0.  1.
         -5    1    3    3    0  502  0.25398260931E+02  0.54640101817E+02  0.21672864376E+02  0.64170069621E+02  0.41800000000E+01 0.  1.
        -11    1    1    2    0    0 -0.12209628520E+02  0.23077055868E+02 -0.49012909440E+02  0.55532790564E+02  0.00000000000E+00 0.  1.
         11    1    1    2    0    0 -0.37479191398E+02 -0.40160455715E+02  0.46741015946E+01  0.55130746565E+02  0.00000000000E+00 0. -1.
</event>
<event>
 7    1  0.6506388E-006  0.8424904E+02  0.7561462E-02  0.1317408E+00
         -1   -1    0    0    0  501 -0.00000000000E+00  0.00000000000E+00  0.94809396899E+02  0.94809396899E+02  0.00000000000E+00 0.  1.
          1   -1    0    0  501    0  0.00000000000E+00 -0.00000000000E+00 -0.13720709988E+03  0.13720709988E+03  0.00000000000E+00 0. -1.
         23    2    1    2    0    0 -0.25262448661E+02 -0.25869931675E+02 -0.19372648229E+02  0.13163815372E+03  0.12508340953E+03 0.  0.
          5    1    3    3  502    0 -0.11011403471E+02 -0.58735460463E+02  0.32736197825E+02  0.68265923932E+02  0.41800000000E+01 0.  1.
         -5    1    3    3    0  502 -0.14251045190E+02  0.32865528789E+02 -0.52108846053E+02  0.63372229790E+02  0.41800000000E+01 0.  1.
        -11    1    1    2    0    0 -0.20724670525E+02  0.14075289094E+02 -0.42281428862E+02  0.49146159138E+02  0.00000000000E+00 0. -1.
         11    1    1    2    0    0  0.45987119186E+02  0.11794642581E+02  0.19256374113E+02  0.51232183914E+02  0.00000000000E+00 0.  1.
</event>
<event>
 6    1  0.6506388E-006  0.1611477E+03  0.7561462E-02  0.1187407E+00
         -1   -1    0    0    0  501 -0.00000000000E+00  0.00000000000E+00  0.69197266810E+02  0.69197266810E+02  0.00000000000E+00 0.  1.
          1   -1    0    0  501    0  0.00000000000E+00 -0.00000000000E+00 -0.55374418101E+03  0.55374418101E+03  0.00000000000E+00 0. -1.
          5    1    1    2  502    0  0.16413251817E+02  0.12429430300E+03 -0.11502086794E+03  0.17019324621E+03  0.41800000000E+01 0. -1.
         -5    1    1    2    0  502 -0.22221655714E+02 -0.10807317998E+03 -0.53047407037E+02  0.12249536321E+03  0.41800000000E+01 0.  1.
        -11    1    1    2    0    0 -0.38180132040E+02 -0.18429116604E+02 -0.89409070358E+02  0.98951183336E+02  0.00000000000E+00 0.  1.
         11    1    1    2    0    0  0.43988535937E+02  0.22079935830E+01 -0.22706956887E+03  0.23130165507E+03  0.00000000000E+00 0. -1.
</event>
<event>
 7    1  0.6506388E-006  0.1129574E+03  0.7561462E-02  0.1255189E+00
         -1   -1    0    0    0  501 -0.00000000000E+00  0.00000000000E+00  0.27554586015E+03  0.27554586015E+03  0.00000000000E+00 0.  1.
          1   -1    0    0  501    0  0.00000000000E+00 -0.00000000000E+00 -0.94661456981E+02  0.94661456981E+02  0.00000000000E+00 0. -1.
         23    2    1    2    0    0  0.59730100867E+02  0.74394804710E+02  0.17802829072E+03  0.23757932198E+03  0.12509032744E+03 0.  0.
          5    1    3    3  502    0  0.25112247629E+02  0.54471131366E+02  0.54309128701E+01  0.60371320574E+02  0.41800000000E+01 0.  1.
         -5    1    3    3    0  502  0.34617853238E+02  0.19923673344E+02  0.17259737785E+03  0.17720800141E+03  0.41800000000E+01 0.  1.
        -11    1    1    2    0    0 -0.75041326494E+02 -0.79658169557E+02  0.17462744042E+02  0.11082225448E+03  0.00000000000E+00 0.  1.
         11    1    1    2    0    0  0.15311225627E+02  0.52633648473E+01 -0.14606631590E+02  0.21805740668E+02  0.00000000000E+00 0. -1.
</event>
<event>
 7    1  0.6506388E-006  0.7902320E+02  0.7561462E-02  0.1331847E+00
          2   -1    0    0  501    0  0.00000000000E+00  0.00000000000E+00  0.11831233618E+03  0.11831233618E+03  0.00000000000E+00 0. -1.
         -2   -1    0    0    0  501 -0.00000000000E+00 -0.00000000000E+00 -0.10183585811E+03  0.10183585811E+03  0.00000000000E+00 0.  1.
         23    2    1    2    0    0  0.10613556188E+02 -0.37999806331E+01  0.51294522713E+01  0.12570263885E+03  0.12509098570E+03 0.  0.
          5    1    3    3  502    0  0.30823326841E+02 -0.51464643834E+02 -0.25595274054E+02  0.65355011257E+02  0.41800000000E+01 0.  1.
         -5    1    3    3    0  502 -0.20209770653E+02  0.47664663201E+02  0.30724726325E+02  0.60347627589E+02  0.41800000000E+01 0.  1.
        -11    1    1    2    0    0  0.95540013787E+01  0.18630777567E+02 -0.35565892902E+02  0.41271267887E+02  0.00000000000E+00 0.  1.
         11    1    1    2    0    0 -0.20167557567E+02 -0.14830796934E+02  0.46912918698E+02  0.53174287552E+02  0.00000000000E+00 0. -1.
</event>
<event>
 7    1  0.6506388E-006  0.2656472E+03  0.7561462E-02  0.1103797E+00
         -2   -1    0    0    0  501 -0.00000000000E+00  0.00000000000E+00  0.95287309943E+02  0.95287309943E+02  0.00000000000E+00 0.  1.
          2   -1    0    0  501    0  0.00000000000E+00 -0.00000000000E+00 -0.79568309618E+03  0.79568309618E+03  0.00000000000E+00 0. -1.
         23    2    1    2    0    0  0.32476379589E+01 -0.25176723483E+03 -0.31047459724E+03  0.41885463846E+03  0.12508974752E+03 0.  0.
          5    1    3    3  502    0  0.25125491489E+02 -0.17666731376E+02 -0.94913771791E+02  0.99847384521E+02  0.41800000000E+01 0. -1.
         -5    1    3    3    0  502 -0.21877853530E+02 -0.23410050345E+03 -0.21556082545E+03  0.31900725393E+03  0.41800000000E+01 0. -1.
        -11    1    1    2    0    0 -0.26297454462E+02  0.23541082065E+03 -0.33416002154E+03  0.40960069651E+03  0.00000000000E+00 0.  1.
         11    1    1    2    0    0  0.23049816503E+02  0.16356414182E+02 -0.55761167459E+02  0.62515071160E+02  0.00000000000E+00 0. -1.
</event>
<event>
 7    1  0.6506388E-006  0.9629152E+02  0.7561462E-02  0.1288293E+00
          1   -1    0    0  501    0  0.00000000000E+00  0.00000000000E+00  0.25219038692E+03  0.25219038692E+03  0.00000000000E+00 0. -1.
         -1   -1    0    0    0  501 -0.00000000000E+00 -0.00000000000E+00 -0.55250785546E+02  0.55250785546E+02  0.00000000000E+00 0.  1.
         23    2    1    2    0    0 -0.30192690518E+02 -0.24851665836E+02  0.12046601971E+03  0.17801189871E+03  0.12508785042E+03 0.  0.
          5    1    3    3  502    0 -0.57348995457E+02 -0.16254141191E+02  0.13361019393E+03  0.14636345414E+03  0.41800000000E+01 0. -1.
         -5    1    3    3    0  502  0.27156304939E+02 -0.85975246449E+01 -0.13144174221E+02  0.31648444573E+02  0.41800000000E+01 0. -1.
        -11    1    1    2    0    0  0.94319650079E+01 -0.37319535613E+02  0.23025019387E+02  0.44853775984E+02  0.00000000000E+00 0.  1.
         11    1    1    2    0    0  0.20760725510E+02  0.62171201450E+02  0.53448562283E+02  0.84575497772E+02  0.00000000000E+00 0. -1.
</event>
<event>
 7    1  0.6506388E-006  0.1063876E+03  0.7561462E-02  0.1267410E+00
          2   -1    0    0  501    0  0.00000000000E+00  0.00000000000E+00  0.58674320390E+03  0.58674320390E+03  0.00000000000E+00 0. -1.
         -2   -1    0    0    0  501 -0.00000000000E+00 -0.00000000000E+00 -0.25087520396E+02  0.25087520396E+02  0.00000000000E+00 0.  1.
         23    2    1    2    0    0  0.39848175796E+02 -0.45798800990E+02  0.31707209265E+03  0.34621906853E+03  0.12509006432E+03 0.  0.
          5    1    3    3  502    0 -0.31239138278E+02  0.11450882980E+02  0.16846505221E+03  0.17177005763E+03  0.41800000000E+01 0.  1.
         -5    1    3    3    0  502  0.71087314074E+02 -0.57249683971E+02  0.14860704044E+03  0.17444901091E+03  0.41800000000E+01 0.  1.
        -11    1    1    2    0    0 -0.48924311266E+02  0.87156281992E+01  0.20370003531E+03  0.20967416339E+03  0.00000000000E+00 0. -1.
         11    1    1    2    0    0  0.90761354697E+01  0.37083172791E+02  0.40883555545E+02  0.55937492376E+02  0.00000000000E+00 0.  1.
</event>
<event>
 7    1  0.6506388E-006  0.1107307E+03  0.7561462E-02  0.1259223E+00
          1   -1    0    0  501    0  0.00000000000E+00  0.00000000000E+00  0.42911889687E+03  0.42911889687E+03  0.00000000000E+00 0. -1.
         -1   -1    0    0    0  501 -0.00000000000E+00 -0.00000000000E+00 -0.32825583367E+02  0.32825583367E+02  0.00000000000E+00 0.  1.
         23    2    1    2    0    0 -0.11117163301E+02 -0.41339564382E+02  0.17851173739E+03  0.22214226657E+03  0.12509274682E+03 0.  0.
          5    1    3    3  502    0  0.53962070863E+02 -0.22709883518E+01  0.93820102922E+02  0.10833626628E+03  0.41800000000E+01 0. -1.
         -5    1    3    3    0  502 -0.65079234164E+02 -0.39068576030E+02  0.84691634464E+02  0.11380600028E+03  0.41800000000E+01 0. -1.
        -11    1    1    2    0    0  0.41623144546E+02  0.22485381516E+01  0.15085597612E+03  0.15650900172E+03  0.00000000000E+00 0. -1.
         11    1    1    2    0    0 -0.30505981244E+02  0.39091026230E+02  0.66925599993E+02  0.83293211955E+02  0.00000000000E+00 0.  1.
</event>
<event>
 7    1  0.6506388E-006  0.1463672E+03  0.7561462E-02  0.1205009E+00
          1   -1    0    0  501    0  0.00000000000E+00  0.00000000000E+00  0.40735470909E+03  0.40735470909E+03  0.00000000000E+00 0. -1.
         -1   -1    0    0    0  501 -0.00000000000E+00 -0.00000000000E+00 -0.69535581765E+02  0.69535581765E+02  0.00000000000E+00 0.  1.
         23    2    1    2    0    0 -0.11819048301E+03 -0.19647381731E+02  0.11404424478E+03  0.20738611098E+03  0.12509156397E+03 0.  0.
          5    1    3    3  502    0 -0.13593235374E+03  0.89186398950E+01  0.10573825845E+03  0.17249695253E+03  0.41800000000E+01 0.  1.
         -5    1    3    3    0  502  0.17741870732E+02 -0.28566021626E+02  0.83059863317E+01  0.34889158453E+02  0.41800000000E+01 0.  1.
        -11    1    1    2    0    0  0.42741398599E+02  0.19812973212E+02  0.18170022909E+02  0.50492878649E+02  0.00000000000E+00 0.  1.
         11    1    1    2    0    0  0.75449084409E+02 -0.16559148124E+00  0.20560485964E+03  0.21901130123E+03  0.00000000000E+00 0. -1.
</event>
<event>
 7    1  0.6506388E-006  0.1103870E+03  0.7561462E-02  0.1259855E+00
         -1   -1    0    0    0  501 -0.00000000000E+00  0.00000000000E+00  0.14428852082E+02  0.14428852082E+02  0.00000000000E+00 0.  1.
          1   -1    0    0  501    0  0.00000000000E+00 -0.00000000000E+00 -0.88915078972E+03  0.88915078972E+03  0.00000000000E+00 0. -1.
         23    2    1    2    0    0 -0.30738489512E+02 -0.84731016393E+01 -0.46094138069E+03  0.47870013585E+03  0.12518073112E+03 0.  0.
          5    1    3    3  502    0  0.46366395029E+02  0.65810989470E+00 -0.11378021744E+03  0.12293773211E+03  0.41800000000E+01 0.  1.
         -5    1    3    3    0  502 -0.77104884541E+02 -0.91312115340E+01 -0.34716116325E+03  0.35576240374E+03  0.41800000000E+01 0.  1.
        -11    1    1    2    0    0 -0.23575745262E+02 -0.23619321840E+02 -0.14733487322E+03  0.15106704802E+03  0.00000000000E+00 0. -1.
         11    1    1    2    0    0  0.54314234774E+02  0.32092423479E+02 -0.26644568373E+03  0.27381245794E+03  0.00000000000E+00 0.  1.
</event>
<event>
 7    1  0.6506388E-006  0.1917039E+03  0.7561462E-02  0.1156933E+00
          2   -1    0    0  501    0  0.00000000000E+00  0.00000000000E+00  0.96560484977E+03  0.96560484977E+03  0.00000000000E+00 0. -1.
         -2   -1    0    0    0  501 -0.00000000000E+00 -0.00000000000E+00 -0.40363771083E+02  0.40363771083E+02  0.00000000000E+00 0.  1.
         23    2    1    2    0    0 -0.87529330967E+02  0.13074955955E+03  0.36498159237E+03  0.41667248075E+03  0.12509021681E+03 0.  0.
          5    1    3    3  502    0 -0.36964173796E+01 -0.24032426719E+02  0.52184396330E+02  0.57722652882E+02  0.41800000000E+01 0.  1.
         -5    1    3    3    0  502 -0.83832913588E+02  0.15478198627E+03  0.31279719604E+03  0.35894982786E+03  0.41800000000E+01 0.  1.
        -11    1    1    2    0    0  0.10163540626E+03 -0.78167054381E+02  0.38756937991E+03  0.40822771640E+03  0.00000000000E+00 0.  1.
         11    1    1    2    0    0 -0.14106075292E+02 -0.52582505172E+02  0.17269010641E+03  0.18106842370E+03  0.00000000000E+00 0. -1.
</event>
<event>
 7    1  0.6506388E-006  0.1031732E+03  0.7561462E-02  0.1273761E+00
          1   -1    0    0  501    0  0.00000000000E+00  0.00000000000E+00  0.31025195032E+02  0.31025195032E+02  0.00000000000E+00 0. -1.
         -1   -1    0    0    0  501 -0.00000000000E+00 -0.00000000000E+00 -0.39263859864E+03  0.39263859864E+03  0.00000000000E+00 0.  1.
         23    2    1    2    0    0  0.30818760779E+01  0.27917066237E+02 -0.20597797783E+03  0.24261725492E+03  0.12508934603E+03 0.  0.
          5    1    3    3  502    0 -0.60799862702E+01 -0.48928429919E+02 -0.96982649449E+02  0.10887637109E+03  0.41800000000E+01 0. -1.
         -5    1    3    3    0  502  0.91618623482E+01  0.76845496156E+02 -0.10899532838E+03  0.13374088383E+03  0.41800000000E+01 0. -1.
        -11    1    1    2    0    0  0.12124151671E+02  0.23121073049E+02 -0.10266871385E+03  0.10593603672E+03  0.00000000000E+00 0.  1.
         11    1    1    2    0    0 -0.15206027749E+02 -0.51038139286E+02 -0.52966711935E+02  0.75110502028E+02  0.00000000000E+00 0. -1.
</event>
<event>
 7    1  0.6506388E-006  0.2075955E+03  0.7561462E-02  0.1143484E+00
          2   -1    0    0  501    0  0.00000000000E+00  0.00000000000E+00  0.11884496195E+04  0.11884496195E+04  0.00000000000E+00 0. -1.
         -2   -1    0    0    0  501 -0.00000000000E+00 -0.00000000000E+00 -0.43678951885E+02  0.43678951885E+02  0.00000000000E+00 0.  1.
         23    2    1    2    0    0  0.13128757759E+02  0.19767641183E+03  0.51745681350E+03  0.56802482478E+03  0.12506925943E+03 0.  0.
          5    1    3    3  502    0 -0.26991501393E+02  0.31938362935E+02  0.22967815533E+03  0.23349117245E+03  0.41800000000E+01 0.  1.
         -5    1    3    3    0  502  0.40120259153E+02  0.16573804890E+03  0.28777865817E+03  0.33453365234E+03  0.41800000000E+01 0.  1.
        -11    1    1    2    0    0 -0.28647894196E+02 -0.11921063435E+03  0.49081153985E+03  0.50589311601E+03  0.00000000000E+00 0. -1.
         11    1    1    2    0    0  0.15519136436E+02 -0.78465777484E+02  0.13650231428E+03  0.15821063061E+03  0.00000000000E+00 0.  1.
</event>
<event>
 7    1  0.6506388E-006  0.7949375E+02  0.7561462E-02  0.1330494E+00
         -2   -1    0    0    0  501 -0.00000000000E+00  0.00000000000E+00  0.96592827789E+02  0.96592827789E+02  0.00000000000E+00 0.  1.
          2   -1    0    0  501    0  0.00000000000E+00 -0.00000000000E+00 -0.17193579633E+03  0.17193579633E+03  0.00000000000E+00 0. -1.
         23    2    1    2    0    0  0.35246112153E+02  0.56701128032E+02 -0.29172733919E+02  0.14476745700E+03  0.12509700979E+03 0.  0.
          5    1    3    3  502    0  0.26179053333E+02  0.21741631088E+02  0.48274448896E+02  0.59210946386E+02  0.41800000000E+01 0. -1.
         -5    1    3    3    0  502  0.90670588198E+01  0.34959496945E+02 -0.77447182815E+02  0.85556510613E+02  0.41800000000E+01 0. -1.
        -11    1    1    2    0    0 -0.96234524748E+01  0.11789181032E+02 -0.48262543454E+02  0.50605026702E+02  0.00000000000E+00 0. -1.
         11    1    1    2    0    0 -0.25622659678E+02 -0.68490309064E+02  0.20923088317E+01  0.73156140418E+02  0.00000000000E+00 0.  1.
</event>
<event>
 7    1  0.6506388E-006  0.8071223E+02  0.7561462E-02  0.1327042E+00
          2   -1    0    0  501    0  0.00000000000E+00  0.00000000000E+00  0.16081275419E+03  0.16081275419E+03  0.00000000000E+00 0. -1.
         -2   -1    0    0    0  501 -0.00000000000E+00 -0.00000000000E+00 -0.74607579896E+02  0.74607579896E+02  0.00000000000E+00 0.  1.
         23    2    1    2    0    0  0.56726102184E+01 -0.42239367312E+01  0.26767670400E+02  0.12810289350E+03  0.12507526932E+03 0.  0.
          5    1    3    3  502    0 -0.40598014446E+02  0.82432408485E+01 -0.31743431860E+02  0.52357116641E+02  0.41800000000E+01 0. -1.
         -5    1    3    3    0  502  0.46270624665E+02 -0.12467177580E+02  0.58511102260E+02  0.75745776855E+02  0.41800000000E+01 0. -1.
        -11    1    1    2    0    0 -0.37573740427E+02 -0.62885084485E+01  0.62914096170E+02  0.73549403839E+02  0.00000000000E+00 0. -1.
         11    1    1    2    0    0  0.31901130208E+02  0.10512445180E+02 -0.34765922753E+01  0.33768036752E+02  0.00000000000E+00 0.  1.
</event>
<event>
 7    1  0.6506388E-006  0.7789892E+02  0.7561462E-02  0.1335122E+00
          1   -1    0    0  501    0  0.00000000000E+00  0.00000000000E+00  0.45815606572E+03  0.45815606572E+03  0.00000000000E+00 0. -1.
         -1   -1    0    0    0  501 -0.00000000000E+00 -0.00000000000E+00 -0.31221008319E+02  0.31221008319E+02  0.00000000000E+00 0.  1.
         23    2    1    2    0    0  0.45963478758E+02 -0.91718331715E+01  0.20279333360E+03  0.24283930935E+03  0.12509608352E+03 0.  0.
          5    1    3    3  502    0 -0.20240024191E+02 -0.16600946861E+02  0.16297111865E+03  0.16511301563E+03  0.41800000000E+01 0.  1.
         -5    1    3    3    0  502  0.66203502949E+02  0.74291136900E+01  0.39822214950E+02  0.77726293727E+02  0.41800000000E+01 0.  1.
        -11    1    1    2    0    0 -0.16949750997E+02 -0.16605375793E+02  0.53414820493E+01  0.24322088614E+02  0.00000000000E+00 0.  1.
         11    1    1    2    0    0 -0.29013727762E+02  0.25777208965E+02  0.21880024176E+03  0.22221567608E+03  0.00000000000E+00 0. -1.
</event>
<event>
 7    1  0.6506388E-006  0.1701619E+03  0.7561462E-02  0.1177679E+00
          2   -1    0    0  501    0  0.00000000000E+00  0.00000000000E+00  0.75224292713E+03  0.75224292713E+03  0.00000000000E+00 0. -1.
         -2   -1    0    0    0  501 -0.00000000000E+00 -0.00000000000E+00 -0.42568959339E+02  0.42568959339E+02  0.00000000000E+00 0.  1.
         23    2    1    2    0    0 -0.11904435456E+02  0.13060525806E+03  0.25566307571E+03  0.31338697162E+03  0.12509331190E+03 0.  0.
          5    1    3    3  502    0  0.41366359233E+02  0.11883665446E+03  0.18981823818E+03  0.22777568365E+03  0.41800000000E+01 0. -1.
         -5    1    3    3    0  502 -0.53270794689E+02  0.11768603601E+02  0.65844837536E+02  0.85611287969E+02  0.41800000000E+01 0. -1.
        -11    1    1    2    0    0  0.24057158390E+01 -0.14359574978E+03  0.39664439940E+03  0.42184393607E+03  0.00000000000E+00 0.  1.
         11    1    1    2    0    0  0.94987196166E+01  0.12990491717E+02  0.57366492680E+02  0.59580978776E+02  0.00000000000E+00 0. -1.
</event>
<event>
 6    1  0.6506388E-006  0.2122019E+03  0.7561462E-02  0.1139834E+00
         -1   -1    0    0    0  501 -0.00000000000E+00  0.00000000000E+00  0.51836123032E+02  0.51836123032E+02  0.00000000000E+00 0.  1.
          1   -1    0    0  501    0  0.00000000000E+00 -0.00000000000E+00 -0.91198565180E+03  0.91198565180E+03  0.00000000000E+00 0. -1.
          5    1    1    2  502    0  0.15867134539E+03 -0.12344402188E+03 -0.45551645100E+03  0.49792341973E+03  0.41800000000E+01 0. -1.
         -5    1    1    2    0  502 -0.19080153327E+02  0.10789453569E+02 -0.87364572153E+02  0.90169315328E+02  0.41800000000E+01 0.  1.
        -11    1    1    2    0    0 -0.34545929405E+02 -0.13285778311E+02 -0.51174494453E+02  0.63156646731E+02  0.00000000000E+00 0. -1.
         11    1    1    2    0    0 -0.10504526266E+03  0.12594034662E+03 -0.26609401117E+03  0.31257239304E+03  0.00000000000E+00 0.  1.
</event>
<event>
 7    1  0.6506388E-006  0.1000803E+03  0.7561462E-02  0.1280127E+00
         -2   -1    0    0    0  501 -0.00000000000E+00  0.00000000000E+00  0.85486277230E+02  0.85486277230E+02  0.00000000000E+00 0. -1.
          2   -1    0    0  501    0  0.00000000000E+00 -0.00000000000E+00 -0.23961346175E+03  0.23961346175E+03  0.00000000000E+00 0.  1.
         23    2    1    2    0    0  0.35732049479E+02 -0.24320560275E+02  0.14685452683E+02  0.13316239398E+03  0.12509313186E+03 0.  0.
          5    1    3    3  502    0 -0.30524089036E+02  0.20799922134E+02  0.34246699579E+02  0.50543699947E+02  0.41800000000E+01 0. -1.
         -5    1    3    3    0  502  0.66256138515E+02 -0.45120482409E+02 -0.19561246897E+02  0.82618694034E+02  0.41800000000E+01 0. -1.
        -11    1    1    2    0    0 -0.23623375194E+02  0.49461378766E+02 -0.14581458428E+03  0.15577671467E+03  0.00000000000E+00 0.  1.
         11    1    1    2    0    0 -0.12108674285E+02 -0.25140818491E+02 -0.22998052917E+02  0.36160630322E+02  0.00000000000E+00 0. -1.
</event>
<event>
 6    1  0.6506388E-006  0.1231262E+03  0.7561462E-02  0.1238027E+00
          2   -1    0    0  501    0  0.00000000000E+00  0.00000000000E+00  0.60406812077E+02  0.60406812077E+02  0.00000000000E+00 0. -1.
         -2   -1    0    0    0  501 -0.00000000000E+00 -0.00000000000E+00 -0.35236651022E+03  0.35236651022E+03  0.00000000000E+00 0.  1.
          5    1    1    2  502    0 -0.54412795932E+02 -0.26161191603E+02 -0.62538637901E+02  0.87027087379E+02  0.41800000000E+01 0. -1.
         -5    1    1    2    0  502  0.10548612427E+03 -0.72138871868E+01 -0.17557369945E+03  0.20499502169E+03  0.41800000000E+01 0.  1.
        -11    1    1    2    0    0  0.93580718293E+01  0.13253489842E+02  0.18336761599E+02  0.24483981034E+02  0.00000000000E+00 0.  1.
         11    1    1    2    0    0 -0.60431400163E+02  0.20121588948E+02 -0.72184122387E+02  0.96267232184E+02  0.00000000000E+00 0. -1.
</event>
<event>
 7    1  0.6506388E-006  0.8940212E+02  0.7561462E-02  0.1304306E+00
         -1   -1    0    0    0  501 -0.00000000000E+00  0.00000000000E+00  0.35884462909E+02  0.35884462909E+02  0.00000000000E+00 0.  1.
          1   -1    0    0  501    0  0.00000000000E+00 -0.00000000000E+00 -0.40673951541E+03  0.40673951541E+03  0.00000000000E+00 0. -1.
         23    2    1    2    0    0  0.26628151394E+02 -0.11278245992E+02 -0.12615215596E+03  0.17999632228E+03  0.12509217522E+03 0.  0.
          5    1    3    3  502    0 -0.22175222905E+02 -0.33264573744E+02  0.28198806657E+01  0.40295117623E+02  0.41800000000E+01 0. -1.
         -5    1    3    3    0  502  0.48803374300E+02  0.21986327752E+02 -0.12897203663E+03  0.13970120466E+03  0.41800000000E+01 0. -1.
        -11    1    1    2    0    0 -0.55375053223E+02  0.87162344173E+01 -0.21069181034E+03  0.21802157739E+03  0.00000000000E+00 0. -1.
         11    1    1    2    0    0  0.28746901828E+02  0.25620115744E+01 -0.34011086192E+02  0.44606078644E+02  0.00000000000E+00 0.  1.
</event>
<event>
 7    1  0.6506388E-006  0.1478156E+03  0.7561462E-02  0.1203183E+00
         -1   -1    0    0    0  501 -0.00000000000E+00  0.00000000000E+00  0.38402253263E+03  0.38402253263E+03  0.00000000000E+00 0.  1.
          1   -1    0    0  501    0  0.00000000000E+00 -0.00000000000E+00 -0.68770117902E+02  0.68770117902E+02  0.00000000000E+00 0. -1.
         23    2    1    2    0    0  0.11907479718E+03  0.38169697177E+01  0.19758860762E+03  0.26243978261E+03  0.12506000580E+03 0.  0.
          5    1    3    3  502    0  0.46913386657E+02  0.46585689212E+02  0.15437138699E+03  0.16798538570E+03  0.41800000000E+01 0.  1.
         -5    1    3    3    0  502  0.72161410526E+02 -0.42768719494E+02  0.43217220635E+02  0.94454396910E+02  0.41800000000E+01 0.  1.
        -11    1    1    2    0    0 -0.11035361081E+03  0.26801127169E+02  0.10888621378E+03  0.15732904178E+03  0.00000000000E+00 0.  1.
         11    1    1    2    0    0 -0.87211863685E+01 -0.30618096887E+02  0.87775933302E+01  0.33023826146E+02  0.00000000000E+00 0. -1.
</event>
<event>
 7    1  0.6506388E-006  0.8112545E+02  0.7561462E-02  0.1325888E+00
          1   -1    0    0  501    0  0.00000000000E+00  0.00000000000E+00  0.50060939186E+03  0.50060939186E+03  0.00000000000E+00 0. -1.
         -1   -1    0    0    0  501 -0.00000000000E+00 -0.00000000000E+00 -0.22926999406E+02  0.22926999406E+02  0.00000000000E+00 0.  1.
         23    2    1    2    0    0  0.70172822434E+01  0.63440535045E+00  0.29934115446E+03  0.32450119683E+03  0.12508499220E+03 0.  0.
          5    1    3    3  502    0 -0.41861132613E+02 -0.20251717507E+02  0.45759998304E+02  0.65375349562E+02  0.41800000000E+01 0.  1.
         -5    1    3    3    0  502  0.48878414856E+02  0.20886122857E+02  0.25358115615E+03  0.25912584727E+03  0.41800000000E+01 0.  1.
        -11    1    1    2    0    0  0.27313874696E+02  0.39826841701E+01  0.13749271855E+02  0.30837509637E+02  0.00000000000E+00 0.  1.
         11    1    1    2    0    0 -0.34331156939E+02 -0.46170895205E+01  0.16459196614E+03  0.16819768479E+03  0.00000000000E+00 0. -1.
</event>
<event>
 7    1  0.6506388E-006  0.1042169E+03  0.7561462E-02  0.1271670E+00
          2   -1    0    0  501    0  0.00000000000E+00  0.00000000000E+00  0.19958052619E+03  0.19958052619E+03  0.00000000000E+00 0. -1.
         -2   -1    0    0    0  501 -0.00000000000E+00 -0.00000000000E+00 -0.92992462181E+02  0.92992462181E+02  0.00000000000E+00 0.  1.
         23    2    1    2    0    0 -0.17256531373E+02 -0.10548426549E+02 -0.26976740083E+02  0.12955132476E+03  0.12508694601E+03 0.  0.
          5    1    3    3  502    0 -0.27257708485E+02  0.48415041882E+02 -0.39508940255E+02  0.68303936287E+02  0.41800000000E+01 0.  1.
         -5    1    3    3    0  502  0.10001177113E+02 -0.58963468431E+02  0.12532200172E+02  0.61247388468E+02  0.41800000000E+01 0.  1.
        -11    1    1    2    0    0 -0.14839065203E+02 -0.34439927174E+02  0.44377801434E+02  0.58100737517E+02  0.00000000000E+00 0.  1.
         11    1    1    2    0    0  0.32095596576E+02  0.44988353723E+02  0.89187002663E+02  0.10492092610E+03  0.00000000000E+00 0. -1.
</event>
<event>
 7    1  0.6506388E-006  0.1084358E+03  0.7561462E-02  0.1263494E+00
         -2   -1    0    0    0  501 -0.00000000000E+00  0.00000000000E+00  0.22684745423E+03  0.22684745423E+03  0.00000000000E+00 0.  1.
          2   -1    0    0  501    0  0.00000000000E+00 -0.00000000000E+00 -0.75104867796E+02  0.75104867796E+02  0.00000000000E+00 0. -1.
         23    2    1    2    0    0  0.23400554018E+01 -0.42058850446E+02  0.15290085429E+03  0.20198161260E+03  0.12507388947E+03 0.  0.
          5    1    3    3  502    0  0.43849838696E+02  0.20070906573E+02  0.26756890607E+02  0.55308708530E+02  0.41800000000E+01 0. -1.
         -5    1    3    3    0  502 -0.41509783294E+02 -0.62129757019E+02  0.12614396368E+03  0.14667290407E+03  0.41800000000E+01 0. -1.
        -11    1    1    2    0    0  0.31337305326E+02  0.50017306323E+02  0.16270051833E+02  0.61224768057E+02  0.00000000000E+00 0.  1.
         11    1    1    2    0    0 -0.33677360728E+02 -0.79584558774E+01 -0.17428319682E+02  0.38745941368E+02  0.00000000000E+00 0. -1.
</event>
<event>
 7    1  0.6506388E-006  0.1065159E+03  0.7561462E-02  0.1267161E+00
          1   -1    0    0  501    0  0.00000000000E+00  0.00000000000E+00  0.31238141002E+03  0.31238141002E+03  0.00000000000E+00 0. -1.
         -1   -1    0    0    0  501 -0.00000000000E+00 -0.00000000000E+00 -0.46795344980E+02  0.46795344980E+02  0.00000000000E+00 0.  1.
         23    2    1    2    0    0  0.39280788099E+01 -0.33893625866E+02  0.85890774628E+02  0.15552969265E+03  0.12509217582E+03 0.  0.
          5    1    3    3  502    0 -0.41761963402E+02  0.19960300628E+02  0.30289557244E+01  0.46573835585E+02  0.41800000000E+01 0.  1.
         -5    1    3    3    0  502  0.45690042211E+02 -0.53853926494E+02  0.82861818904E+02  0.10895585706E+03  0.41800000000E+01 0.  1.
        -11    1    1    2    0    0 -0.37151955696E+02  0.47158043870E+02  0.11420840454E+03  0.12902599964E+03  0.00000000000E+00 0. -1.
         11    1    1    2    0    0  0.33223876886E+02 -0.13264418003E+02  0.65486885866E+02  0.74621062715E+02  0.00000000000E+00 0.  1.
</event>
<event>
 7    1  0.6506388E-006  0.1094829E+03  0.7561462E-02  0.1261530E+00
         -1   -1    0    0    0  501 -0.00000000000E+00  0.00000000000E+00  0.30638405873E+03  0.30638405873E+03  0.00000000000E+00 0.  1.
          1   -1    0    0  501    0  0.00000000000E+00 -0.00000000000E+00 -0.61658837055E+02  0.61658837055E+02  0.00000000000E+00 0. -1.
         23    2    1    2    0    0  0.62813378292E+02  0.52669656419E+02  0.11031118698E+03  0.18584723426E+03  0.12510404993E+03 0.  0.
          5    1    3    3  502    0  0.54979571343E+02  0.14810957475E+02 -0.11273781426E+02  0.58195259893E+02  0.41800000000E+01 0. -1.
         -5    1    3    3    0  502  0.78338069495E+01  0.37858698944E+02  0.12158496841E+03  0.12765197436E+03  0.41800000000E+01 0. -1.
        -11    1    1    2    0    0 -0.64803305841E+02  0.52662496353E+01  0.69930235668E+02  0.95485285221E+02  0.00000000000E+00 0. -1.
         11    1    1    2    0    0  0.19899275492E+01 -0.57935906054E+02  0.64483799026E+02  0.86710376303E+02  0.00000000000E+00 0.  1.
</event>
<event>
 7    1  0.6506388E-006  0.1629558E+03  0.7561462E-02  0.1185400E+00
          1   -1    0    0  501    0  0.00000000000E+00  0.00000000000E+00  0.79752544512E+02  0.79752544512E+02  0.00000000000E+00 0. -1.
         -1   -1    0    0    0  501 -0.00000000000E+00 -0.00000000000E+00 -0.41114656600E+03  0.41114656600E+03  0.00000000000E+00 0.  1.
         23    2    1    2    0    0 -0.12061058603E+03 -0.74678606252E+02 -0.21196394946E+03  0.28407855715E+03  0.12509237813E+03 0.  0.
          5    1    3    3  502    0 -0.49192543928E+02  0.29605777343E+02 -0.98939486604E+02  0.11446791183E+03  0.41800000000E+01 0.  1.
         -5    1    3    3    0  502 -0.71418042105E+02 -0.10428438360E+03 -0.11302446286E+03  0.16961064531E+03  0.41800000000E+01 0.  1.
        -11    1    1    2    0    0  0.21349732176E+02  0.14362154538E+02 -0.80196670448E+02  0.84223443874E+02  0.00000000000E+00 0.  1.
         11    1    1    2    0    0  0.99260853857E+02  0.60316451714E+02 -0.39233401579E+02  0.12259710949E+03  0.00000000000E+00 0. -1.
</event>
<event>
 7    1  0.6506388E-006  0.1133341E+03  0.7561462E-02  0.1254517E+00
         -3   -1    0    0    0  501 -0.00000000000E+00  0.00000000000E+00  0.53598879415E+02  0.53598879415E+02  0.00000000000E+00 0.  1.
          3   -1    0    0  501    0  0.00000000000E+00 -0.00000000000E+00 -0.36867373038E+03  0.36867373038E+03  0.00000000000E+00 0. -1.
         23    2    1    2    0    0 -0.66480603729E+02 -0.31761221515E+02 -0.97379974692E+02  0.17481856273E+03  0.12510085746E+03 0.  0.
          5    1    3    3  502    0 -0.35301500250E+01 -0.57590139455E+02 -0.88979196114E+02  0.10613131424E+03  0.41800000000E+01 0. -1.
         -5    1    3    3    0  502 -0.62950453704E+02  0.25828917940E+02 -0.84007785781E+01  0.68687248484E+02  0.41800000000E+01 0. -1.
        -11    1    1    2    0    0  0.29240095686E+02 -0.21047928429E+02 -0.24063996681E+02  0.43325216943E+02  0.00000000000E+00 0.  1.
         11    1    1    2    0    0  0.37240508043E+02  0.52809149944E+02 -0.19363087960E+03  0.20412883013E+03  0.00000000000E+00 0. -1.
</event>
<event>
 7    1  0.6506388E-006  0.1263319E+03  0.7561462E-02  0.1233002E+00
         -4   -1    0    0    0  501 -0.00000000000E+00  0.00000000000E+00  0.16819502244E+04  0.16819502244E+04  0.00000000000E+00 0.  1.
          4   -1    0    0  501    0  0.00000000000E+00 -0.00000000000E+00 -0.20080489781E+02  0.20080489781E+02  0.00000000000E+00 0. -1.
         23    2    1    2    0    0 -0.86342720586E+02 -0.95425061166E+01  0.14413665604E+04  0.14482118787E+04  0.11060723001E+03 0.  0.
          5    1    3    3  502    0  0.22887810158E+02  0.14526612047E+02  0.36966590447E+03  0.37068211130E+03  0.41800000000E+01 0. -1.
         -5    1    3    3    0  502 -0.10923053074E+03 -0.24069118163E+02  0.10717006559E+04  0.10775297674E+04  0.41800000000E+01 0.  1.
        -11    1    1    2    0    0  0.27954191371E+02  0.38939470215E+02  0.15090068704E+03  0.15833109772E+03  0.00000000000E+00 0.  1.
         11    1    1    2    0    0  0.58388529215E+02 -0.29396964099E+02  0.69602487172E+02  0.95487737761E+02  0.00000000000E+00 0. -1.
</event>
<event>
 7    1  0.6721509E-006  0.2513487E+03  0.7561462E-02  0.1112455E+00
          2   -1    0    0  501    0  0.00000000000E+00  0.00000000000E+00  0.94614362536E+03  0.94614362536E+03  0.00000000000E+00 0. -1.
         -2   -1    0    0    0  501 -0.00000000000E+00 -0.00000000000E+00 -0.80955510301E+02  0.80955510301E+02  0.00000000000E+00 0.  1.
         23    2    1    2    0    0 -0.88124715006E+02  0.23485450855E+03  0.36791320548E+03  0.46252631743E+03  0.12509141445E+03 0.  0.
          5    1    3    3  502    0 -0.56519906767E+02  0.17506420083E+03  0.15997485082E+03  0.24382657683E+03  0.41800000000E+01 0. -1.
         -5    1    3    3    0  502 -0.31604808240E+02  0.59790307721E+02  0.20793835466E+03  0.21869974061E+03  0.41800000000E+01 0. -1.
        -11    1    1    2    0    0  0.45552682293E+02 -0.11207129328E+03  0.14352738159E+03  0.18771023123E+03  0.00000000000E+00 0.  1.
         11    1    1    2    0    0  0.42572032713E+02 -0.12278321527E+03  0.35374752799E+03  0.37686258700E+03  0.00000000000E+00 0. -1.
</event>
<event>
 7    1  0.6506388E-006  0.1049391E+03  0.7561462E-02  0.1270240E+00
         -2   -1    0    0    0  501 -0.00000000000E+00  0.00000000000E+00  0.10029027381E+03  0.10029027381E+03  0.00000000000E+00 0.  1.
          2   -1    0    0  501    0  0.00000000000E+00 -0.00000000000E+00 -0.24930315231E+03  0.24930315231E+03  0.00000000000E+00 0. -1.
         23    2    1    2    0    0  0.46397364696E+02  0.27802680916E+02  0.31909375894E+02  0.13997054965E+03  0.12509133456E+03 0.  0.
          5    1    3    3  502    0  0.49004124057E+02  0.74195230055E+02  0.14576032513E+02  0.90201271950E+02  0.41800000000E+01 0.  1.
         -5    1    3    3    0  502 -0.26067593615E+01 -0.46392549139E+02  0.17333343382E+02  0.49769277700E+02  0.41800000000E+01 0.  1.
        -11    1    1    2    0    0 -0.42314077067E+02  0.36697761115E+01 -0.22522342408E+02  0.48074986035E+02  0.00000000000E+00 0.  1.
         11    1    1    2    0    0 -0.40832876283E+01 -0.31472457027E+02 -0.15839991198E+03  0.16154789044E+03  0.00000000000E+00 0. -1.
</event>
<event>
 7    1  0.6506388E-006  0.1086024E+03  0.7561462E-02  0.1263180E+00
          1   -1    0    0  501    0  0.00000000000E+00  0.00000000000E+00  0.46980471831E+03  0.46980471831E+03  0.00000000000E+00 0. -1.
         -1   -1    0    0    0  501 -0.00000000000E+00 -0.00000000000E+00 -0.27787204237E+02  0.27787204237E+02  0.00000000000E+00 0.  1.
         23    2    1    2    0    0 -0.12852965269E+02 -0.45306220191E+02  0.24356619938E+03  0.27782706241E+03  0.12508209633E+03 0.  0.
          5    1    3    3  502    0 -0.36945129698E+02  0.31952565987E+02  0.62333790465E+02  0.79302477359E+02  0.41800000000E+01 0.  1.
         -5    1    3    3    0  502  0.24092164429E+02 -0.77258786177E+02  0.18123240891E+03  0.19852458505E+03  0.41800000000E+01 0.  1.
        -11    1    1    2    0    0  0.32442716971E+02 -0.53057414943E+01  0.37291853063E+02  0.49712806018E+02  0.00000000000E+00 0. -1.
         11    1    1    2    0    0 -0.19589751702E+02  0.50611961685E+02  0.16115946163E+03  0.17005205412E+03  0.00000000000E+00 0.  1.
</event>
<event>
 7    1  0.6506388E-006  0.1385404E+03  0.7561462E-02  0.1215307E+00
         -2   -1    0    0    0  501 -0.00000000000E+00  0.00000000000E+00  0.52747012650E+02  0.52747012650E+02  0.00000000000E+00 0.  1.
          2   -1    0    0  501    0  0.00000000000E+00 -0.00000000000E+00 -0.46650643607E+03  0.46650643607E+03  0.00000000000E+00 0. -1.
         23    2    1    2    0    0  0.48537401061E+02 -0.98242542635E+02 -0.13410284166E+03  0.20552351041E+03  0.11067458924E+03 0.  0.
          5    1    3    3  502    0  0.34607619792E+02  0.14151567720E+02 -0.13356506950E+02  0.39922711513E+02  0.41800000000E+01 0. -1.
         -5    1    3    3    0  502  0.13929781269E+02 -0.11239411035E+03 -0.12074633471E+03  0.16560079889E+03  0.41800000000E+01 0.  1.
        -11    1    1    2    0    0  0.11628811021E+02  0.42660374418E+02 -0.17678711304E+03  0.18223287334E+03  0.00000000000E+00 0. -1.
         11    1    1    2    0    0 -0.60166212083E+02  0.55582168216E+02 -0.10286946872E+03  0.13149706497E+03  0.00000000000E+00 0.  1.
</event>
<event>
 7    1  0.6506388E-006  0.1094074E+03  0.7561462E-02  0.1261671E+00
         -1   -1    0    0    0  501 -0.00000000000E+00  0.00000000000E+00  0.60406916078E+02  0.60406916078E+02  0.00000000000E+00 0.  1.
          1   -1    0    0  501    0  0.00000000000E+00 -0.00000000000E+00 -0.26944907132E+03  0.26944907132E+03  0.00000000000E+00 0. -1.
         23    2    1    2    0    0  0.53145013104E+02 -0.33000134243E+02 -0.85914857009E+02  0.16413982659E+03  0.12508844367E+03 0.  0.
          5    1    3    3  502    0  0.33832328679E+02  0.44485001284E+02 -0.16972475042E+02  0.58558339390E+02  0.41800000000E+01 0. -1.
         -5    1    3    3    0  502  0.19312684425E+02 -0.77485135527E+02 -0.68942381967E+02  0.10558148720E+03  0.41800000000E+01 0. -1.
        -11    1    1    2    0    0 -0.33559320411E+02  0.47695821754E+02 -0.23086658343E+02  0.62722509458E+02  0.00000000000E+00 0.  1.
         11    1    1    2    0    0 -0.19585692693E+02 -0.14695687512E+02 -0.10004063989E+03  0.10299365136E+03  0.00000000000E+00 0. -1.
</event>
<event>
 7    1  0.6506388E-006  0.1196720E+03  0.7561462E-02  0.1243639E+00
         -1   -1    0    0    0  501 -0.00000000000E+00  0.00000000000E+00  0.53953720339E+03  0.53953720339E+03  0.00000000000E+00 0.  1.
          1   -1    0    0  501    0  0.00000000000E+00 -0.00000000000E+00 -0.40876197654E+02  0.40876197654E+02  0.00000000000E+00 0. -1.
         23    2    1    2    0    0  0.56014783545E+02 -0.33476993391E+02  0.42454733325E+03  0.44737646438E+03  0.12508755990E+03 0.  0.
          5    1    3    3  502    0  0.77981719115E+02  0.18677787399E+02  0.19426714163E+03  0.21020752359E+03  0.41800000000E+01 0. -1.
         -5    1    3    3    0  502 -0.21966935570E+02 -0.52154780790E+02  0.23028019163E+03  0.23716894079E+03  0.41800000000E+01 0. -1.
        -11    1    1    2    0    0 -0.29896660119E+02 -0.24538756508E+02  0.53778126004E+02  0.66242340642E+02  0.00000000000E+00 0.  1.
         11    1    1    2    0    0 -0.26118123426E+02  0.58015749899E+02  0.20335546479E+02  0.66794596026E+02  0.00000000000E+00 0. -1.
</event>
<event>
 7    1  0.6506388E-006  0.9688629E+02  0.7561462E-02  0.1286983E+00
          2   -1    0    0  501    0  0.00000000000E+00  0.00000000000E+00  0.16568092820E+03  0.16568092820E+03  0.00000000000E+00 0. -1.
         -2   -1    0    0    0  501 -0.00000000000E+00 -0.00000000000E+00 -0.96008143253E+02  0.96008143253E+02  0.00000000000E+00 0.  1.
         23    2    1    2    0    0 -0.51770904025E+01  0.63588286656E+02  0.28277081321E+02  0.14324197397E+03  0.12509355425E+03 0.  0.
          5    1    3    3  502    0 -0.32664175852E+02  0.82255890236E+02 -0.13579402777E+02  0.89637338439E+02  0.41800000000E+01 0. -1.
         -5    1    3    3    0  502  0.27487085450E+02 -0.18667603579E+02  0.41856484098E+02  0.53604635536E+02  0.41800000000E+01 0. -1.
        -11    1    1    2    0    0 -0.12565500111E+02 -0.13037907339E+02  0.59266855751E+02  0.61971275697E+02  0.00000000000E+00 0. -1.
         11    1    1    2    0    0  0.17742590514E+02 -0.50550379317E+02 -0.17871152128E+02  0.56475821779E+02  0.00000000000E+00 0.  1.
</event>
<event>
 7    1  0.9187523E-006  0.4716416E+03  0.7561462E-02  0.1021458E+00
          2   -1    0    0  501    0  0.00000000000E+00  0.00000000000E+00  0.21839609361E+04  0.21839609361E+04  0.00000000000E+00 0. -1.
         -2   -1    0    0    0  501 -0.00000000000E+00 -0.00000000000E+00 -0.15292667571E+03  0.15292667571E+03  0.00000000000E+00 0.  1.
         23    2    1    2    0    0 -0.46727254594E+03  0.18773191498E+01  0.37017029617E+03  0.60911448127E+03  0.12508895479E+03 0.  0.
          5    1    3    3  502    0 -0.28927694471E+03 -0.28922984687E+02  0.15969692670E+03  0.33172016910E+03  0.41800000000E+01 0.  1.
         -5    1    3    3    0  502 -0.17799560123E+03  0.30800303837E+02  0.21047336946E+03  0.27739431217E+03  0.41800000000E+01 0.  1.
        -11    1    1    2    0    0  0.42664636759E+03  0.17134123417E+02  0.15600892848E+04  0.16174669325E+04  0.00000000000E+00 0.  1.
         11    1    1    2    0    0  0.40626178348E+02 -0.19011442567E+02  0.10077467944E+03  0.11030619807E+03  0.00000000000E+00 0. -1.
</event>
<event>
 7    1  0.6506388E-006  0.1555421E+03  0.7561462E-02  0.1193824E+00
         -2   -1    0    0    0  501 -0.00000000000E+00  0.00000000000E+00  0.43957335762E+02  0.43957335762E+02  0.00000000000E+00 0.  1.
          2   -1    0    0  501    0  0.00000000000E+00 -0.00000000000E+00 -0.80500363632E+03  0.80500363632E+03  0.00000000000E+00 0. -1.
         23    2    1    2    0    0 -0.12932792131E+03  0.79564289155E+02 -0.44041929084E+03  0.48236092186E+03  0.12508684923E+03 0.  0.
          5    1    3    3  502    0 -0.12177754710E+03  0.81976951785E+02 -0.44747344829E+03  0.47095642147E+03  0.41800000000E+01 0. -1.
         -5    1    3    3    0  502 -0.75503742153E+01 -0.24126626293E+01  0.70541574486E+01  0.11404500386E+02  0.41800000000E+01 0. -1.
        -11    1    1    2    0    0  0.41462379124E+02 -0.44047337241E+02 -0.22086076880E+03  0.22899514404E+03  0.00000000000E+00 0. -1.
         11    1    1    2    0    0  0.87865542190E+02 -0.35516951914E+02 -0.99766240914E+02  0.13760490618E+03  0.00000000000E+00 0.  1.
</event>
<event>
 7    1  0.6506388E-006  0.1846246E+03  0.7561462E-02  0.1163401E+00
         -2   -1    0    0    0  501 -0.00000000000E+00  0.00000000000E+00  0.64278272858E+02  0.64278272858E+02  0.00000000000E+00 0.  1.
          2   -1    0    0  501    0  0.00000000000E+00 -0.00000000000E+00 -0.78137411621E+03  0.78137411621E+03  0.00000000000E+00 0. -1.
         23    2    1    2    0    0 -0.18020267680E+03  0.19599317838E+02 -0.25652625651E+03  0.33809893897E+03  0.12509210315E+03 0.  0.
          5    1    3    3  502    0 -0.71629303959E+00 -0.50731329539E+01 -0.95328780015E+02  0.95557827795E+02  0.41800000000E+01 0. -1.
         -5    1    3    3    0  502 -0.17948638376E+03  0.24672450792E+02 -0.16119747649E+03  0.24254111118E+03  0.41800000000E+01 0. -1.
        -11    1    1    2    0    0  0.44310340074E+02 -0.16421252706E+01 -0.26527419800E+03  0.26895446257E+03  0.00000000000E+00 0. -1.
         11    1    1    2    0    0  0.13589233672E+03 -0.17957192568E+02 -0.19529538884E+03  0.23859898753E+03  0.00000000000E+00 0.  1.
</event>
<event>
 7    1  0.6506388E-006  0.7240468E+02  0.7561462E-02  0.1352102E+00
         -1   -1    0    0    0  501 -0.00000000000E+00  0.00000000000E+00  0.54516170827E+02  0.54516170827E+02  0.00000000000E+00 0.  1.
          1   -1    0    0  501    0  0.00000000000E+00 -0.00000000000E+00 -0.23875436608E+03  0.23875436608E+03  0.00000000000E+00 0. -1.
         23    2    1    2    0    0 -0.15948472916E+02 -0.17810965394E+02 -0.52764346413E+02  0.13321848029E+03  0.11996459045E+03 0.  0.
          5    1    3    3  502    0 -0.13956482214E+02  0.25308645050E+02 -0.77830078003E+02  0.83128240400E+02  0.41800000000E+01 0. -1.
         -5    1    3    3    0  502 -0.19919907013E+01 -0.43119610443E+02  0.25065731590E+02  0.50090239886E+02  0.41800000000E+01 0.  1.
        -11    1    1    2    0    0  0.20212430410E+02  0.42565277416E+02 -0.12575108330E+03  0.13428953845E+03  0.00000000000E+00 0. -1.
         11    1    1    2    0    0 -0.42639574945E+01 -0.24754312022E+02 -0.57227655365E+01  0.25762518172E+02  0.00000000000E+00 0.  1.
</event>
<event>
 7    1  0.6506388E-006  0.1824921E+03  0.7561462E-02  0.1165413E+00
         -2   -1    0    0    0  501 -0.00000000000E+00  0.00000000000E+00  0.14337863851E+03  0.14337863851E+03  0.00000000000E+00 0.  1.
          2   -1    0    0  501    0  0.00000000000E+00 -0.00000000000E+00 -0.39822446381E+03  0.39822446381E+03  0.00000000000E+00 0. -1.
         23    2    1    2    0    0 -0.15619029920E+03 -0.48293004707E+02  0.23886373882E+02  0.20723139108E+03  0.12508663688E+03 0.  0.
          5    1    3    3  502    0 -0.12439621096E+03 -0.85737194357E+02  0.38210308457E+02  0.15589350169E+03  0.41800000000E+01 0.  1.
         -5    1    3    3    0  502 -0.31794088233E+02  0.37444189650E+02 -0.14323934575E+02  0.51337889388E+02  0.41800000000E+01 0.  1.
        -11    1    1    2    0    0  0.10398735079E+03  0.22825806017E+02 -0.98605844073E+02  0.14511202235E+03  0.00000000000E+00 0.  1.
         11    1    1    2    0    0  0.52202948402E+02  0.25467198690E+02 -0.18012635511E+03  0.18925968888E+03  0.00000000000E+00 0. -1.
</event>
<event>
 7    1  0.6506388E-006  0.9542118E+02  0.7561462E-02  0.1290230E+00
          1   -1    0    0  501    0  0.00000000000E+00  0.00000000000E+00  0.64644661828E+02  0.64644661828E+02  0.00000000000E+00 0. -1.
         -1   -1    0    0    0  501 -0.00000000000E+00 -0.00000000000E+00 -0.19627833024E+03  0.19627833024E+03  0.00000000000E+00 0.  1.
         23    2    1    2    0    0 -0.36569427167E+01  0.25763286949E+02 -0.98597774218E+02  0.16139740562E+03  0.12510188358E+03 0.  0.
          5    1    3    3  502    0 -0.59775246890E+02 -0.80323863853E+01 -0.60357789691E+02  0.85429120025E+02  0.41800000000E+01 0.  1.
         -5    1    3    3    0  502  0.56118304174E+02  0.33795673335E+02 -0.38239984527E+02  0.75968285594E+02  0.41800000000E+01 0.  1.
        -11    1    1    2    0    0  0.30902340317E+02 -0.70680961609E+01 -0.52388355519E+02  0.61232772389E+02  0.00000000000E+00 0.  1.
         11    1    1    2    0    0 -0.27245397600E+02 -0.18695190788E+02  0.19352461328E+02  0.38292814058E+02  0.00000000000E+00 0. -1.
</event>
<event>
 7    1  0.6506388E-006  0.8894367E+02  0.7561462E-02  0.1305430E+00
          1   -1    0    0  501    0  0.00000000000E+00  0.00000000000E+00  0.28837440648E+02  0.28837440648E+02  0.00000000000E+00 0. -1.
         -1   -1    0    0    0  501 -0.00000000000E+00 -0.00000000000E+00 -0.66726503178E+03  0.66726503178E+03  0.00000000000E+00 0.  1.
         23    2    1    2    0    0  0.70412372524E+02  0.27576992172E+02 -0.44944956310E+03  0.47261936814E+03  0.12508303112E+03 0.  0.
          5    1    3    3  502    0  0.57246540654E+02  0.19433487815E+02 -0.69003908915E+02  0.91835933659E+02  0.41800000000E+01 0. -1.
         -5    1    3    3    0  502  0.13165831870E+02  0.81435043569E+01 -0.38044565418E+03  0.38078343449E+03  0.41800000000E+01 0. -1.
        -11    1    1    2    0    0  0.13424426967E+02 -0.18127070178E+01  0.16499978639E+01  0.13646378241E+02  0.00000000000E+00 0. -1.
         11    1    1    2    0    0 -0.83836799491E+02 -0.25764285154E+02 -0.19062802589E+03  0.20983672604E+03  0.00000000000E+00 0.  1.
</event>
<event>
 7    1  0.6506388E-006  0.2175036E+03  0.7561462E-02  0.1135758E+00
         -2   -1    0    0    0  501 -0.00000000000E+00  0.00000000000E+00  0.12737391495E+03  0.12737391495E+03  0.00000000000E+00 0.  1.
          2   -1    0    0  501    0  0.00000000000E+00 -0.00000000000E+00 -0.42999754786E+03  0.42999754786E+03  0.00000000000E+00 0. -1.
         23    2    1    2    0    0  0.14236174738E+03 -0.12963473699E+03 -0.67728834770E+02  0.23938862049E+03  0.12509070472E+03 0.  0.
          5    1    3    3  502    0 -0.21180771928E+02 -0.31117560884E+02 -0.18635511433E+02  0.42209979640E+02  0.41800000000E+01 0. -1.
         -5    1    3    3    0  502  0.16354251931E+03 -0.98517176109E+02 -0.49093323337E+02  0.19717864085E+03  0.41800000000E+01 0. -1.
        -11    1    1    2    0    0 -0.73598476200E+01  0.47656970411E+02 -0.96954589388E+02  0.10828456302E+03  0.00000000000E+00 0. -1.
         11    1    1    2    0    0 -0.13500189976E+03  0.81977766582E+02 -0.13794020875E+03  0.20969827930E+03  0.00000000000E+00 0.  1.
</event>
<event>
 7    1  0.6506388E-006  0.1486617E+03  0.7561462E-02  0.1202127E+00
          1   -1    0    0  501    0  0.00000000000E+00  0.00000000000E+00  0.30401840688E+03  0.30401840688E+03  0.00000000000E+00 0. -1.
         -1   -1    0    0    0  501 -0.00000000000E+00 -0.00000000000E+00 -0.91601375251E+02  0.91601375251E+02  0.00000000000E+00 0.  1.
         23    2    1    2    0    0  0.10494307939E+03 -0.34955682706E+02  0.41512254207E+02  0.17206028165E+03  0.12508606480E+03 0.  0.
          5    1    3    3  502    0  0.98132096778E+02 -0.76582854242E+02  0.29292495067E+02  0.12794672582E+03  0.41800000000E+01 0. -1.
         -5    1    3    3    0  502  0.68109826118E+01  0.41627171536E+02  0.12219759141E+02  0.44113555827E+02  0.41800000000E+01 0. -1.
        -11    1    1    2    0    0 -0.41655260914E+02 -0.20331190143E+02  0.11119995013E+03  0.12047384348E+03  0.00000000000E+00 0. -1.
         11    1    1    2    0    0 -0.63287818475E+02  0.55286872849E+02  0.59704827295E+02  0.10308565700E+03  0.00000000000E+00 0.  1.
</event>
<event>
 7    1  0.6506388E-006  0.9754014E+02  0.7561462E-02  0.1285555E+00
          4   -1    0    0  501    0  0.00000000000E+00  0.00000000000E+00  0.28065909729E+03  0.28065909729E+03  0.00000000000E+00 0. -1.
         -4   -1    0    0    0  501 -0.00000000000E+00 -0.00000000000E+00 -0.48531861056E+02  0.48531861056E+02  0.00000000000E+00 0.  1.
         23    2    1    2    0    0 -0.88345377465E+01 -0.38515574722E+02  0.10588117280E+03  0.16858598841E+03  0.12509562016E+03 0.  0.
          5    1    3    3  502    0  0.23879979841E+02  0.18223861946E+02 -0.12838409836E+02  0.32934172960E+02  0.41800000000E+01 0.  1.
         -5    1    3    3    0  502 -0.32714517587E+02 -0.56739436668E+02  0.11871958264E+03  0.13565181545E+03  0.41800000000E+01 0.  1.
        -11    1    1    2    0    0 -0.38955584001E+02  0.32927555473E+02  0.69422919234E+02  0.86146985723E+02  0.00000000000E+00 0. -1.
         11    1    1    2    0    0  0.47790121747E+02  0.55880192490E+01  0.56823144196E+02  0.74457984206E+02  0.00000000000E+00 0.  1.
</event>
<event>
 7    1  0.6506388E-006  0.9305726E+02  0.7561462E-02  0.1295613E+00
          2   -1    0    0  501    0  0.00000000000E+00  0.00000000000E+00  0.21385386219E+03  0.21385386219E+03  0.00000000000E+00 0.  1.
         -2   -1    0    0    0  501 -0.00000000000E+00 -0.00000000000E+00 -0.61194949330E+02  0.61194949330E+02  0.00000000000E+00 0. -1.
         23    2    1    2    0    0 -0.25293818055E+02 -0.95626910119E+01  0.55151357663E+02  0.13935617320E+03  0.12508896220E+03 0.  0.
          5    1    3    3  502    0 -0.47793162527E+02 -0.39613898668E+02  0.74380242900E+02  0.96970821827E+02  0.41800000000E+01 0.  1.
         -5    1    3    3    0  502  0.22499344472E+02  0.30051207656E+02 -0.19228885237E+02  0.42385351369E+02  0.41800000000E+01 0.  1.
        -11    1    1    2    0    0  0.27110021593E+02  0.43977724002E+02  0.29601435711E+02  0.59541905204E+02  0.00000000000E+00 0. -1.
         11    1    1    2    0    0 -0.18162035380E+01 -0.34415032990E+02  0.67906119489E+02  0.76150733122E+02  0.00000000000E+00 0.  1.
</event>
<event>
 7    1  0.7537064E-006  0.9319690E+02  0.7561462E-02  0.1295290E+00
          3   -1    0    0  501    0  0.00000000000E+00  0.00000000000E+00  0.10785109699E+03  0.10785109699E+03  0.00000000000E+00 0. -1.
         -3   -1    0    0    0  501 -0.00000000000E+00 -0.00000000000E+00 -0.11728366370E+03  0.11728366370E+03  0.00000000000E+00 0.  1.
         23    2    1    2    0    0 -0.25025377215E+02 -0.11257599614E+02 -0.14044197325E+02  0.12883258289E+03  0.12509033489E+03 0.  0.
          5    1    3    3  502    0 -0.66429503895E+02 -0.20698382436E+02 -0.38519182195E+02  0.79639825591E+02  0.41800000000E+01 0. -1.
         -5    1    3    3    0  502  0.41404126681E+02  0.94407828225E+01  0.24474984870E+02  0.49192757301E+02  0.41800000000E+01 0. -1.
        -11    1    1    2    0    0  0.49078070736E+02  0.66449850324E+01 -0.26925748547E+02  0.56372056802E+02  0.00000000000E+00 0.  1.
         11    1    1    2    0    0 -0.24052693521E+02  0.46126145811E+01  0.31537379160E+02  0.39930121001E+02  0.00000000000E+00 0. -1.
</event>
<event>
 7    1  0.6506388E-006  0.1584057E+03  0.7561462E-02  0.1190509E+00
         -1   -1    0    0    0  501 -0.00000000000E+00  0.00000000000E+00  0.58079681429E+02  0.58079681429E+02  0.00000000000E+00 0.  1.
          1   -1    0    0  501    0  0.00000000000E+00 -0.00000000000E+00 -0.57869065391E+03  0.57869065391E+03  0.00000000000E+00 0. -1.
         23    2    1    2    0    0 -0.11174149632E+03  0.71841701454E+02 -0.16568344558E+03  0.24646505706E+03  0.12508648266E+03 0.  0.
          5    1    3    3  502    0 -0.12962367656E+03  0.25913321720E+02 -0.13021021593E+03  0.18559625670E+03  0.41800000000E+01 0. -1.
         -5    1    3    3    0  502  0.17882180246E+02  0.45928379734E+02 -0.35473229643E+02  0.60868800355E+02  0.41800000000E+01 0. -1.
        -11    1    1    2    0    0  0.99236148961E+02 -0.71970683024E+02 -0.35715065279E+03  0.37760320611E+03  0.00000000000E+00 0. -1.
         11    1    1    2    0    0  0.12505347358E+02  0.12898156966E+00  0.22231258836E+01  0.12702072172E+02  0.00000000000E+00 0.  1.
</event>
<event>
 7    1  0.6506388E-006  0.9681502E+02  0.7561462E-02  0.1287140E+00
         -1   -1    0    0    0  501 -0.00000000000E+00  0.00000000000E+00  0.47375775668E+02  0.47375775668E+02  0.00000000000E+00 0.  1.
          1   -1    0    0  501    0  0.00000000000E+00 -0.00000000000E+00 -0.38315325680E+03  0.38315325680E+03  0.00000000000E+00 0. -1.
         23    2    1    2    0    0 -0.49977662299E+02  0.37080628341E+02 -0.10061176913E+03  0.17216655656E+03  0.12508339371E+03 0.  0.
          5    1    3    3  502    0  0.10145201721E+02  0.25017276746E+02  0.21958448073E+02  0.35049038440E+02  0.41800000000E+01 0.  1.
         -5    1    3    3    0  502 -0.60122864021E+02  0.12063351594E+02 -0.12257021721E+03  0.13711751812E+03  0.41800000000E+01 0.  1.
        -11    1    1    2    0    0  0.59932943107E+02  0.63716609373E+01 -0.15995640772E+03  0.17093451408E+03  0.00000000000E+00 0. -1.
         11    1    1    2    0    0 -0.99552808080E+01 -0.43452289278E+02 -0.75209304280E+02  0.87427961830E+02  0.00000000000E+00 0.  1.
</event>
<event>
 6    1  0.6506388E-006  0.1621188E+03  0.7561462E-02  0.1186325E+00
          2   -1    0    0  501    0  0.00000000000E+00  0.00000000000E+00  0.31427245853E+03  0.31427245853E+03  0.00000000000E+00 0. -1.
         -2   -1    0    0    0  501 -0.00000000000E+00 -0.00000000000E+00 -0.13168246285E+03  0.13168246285E+03  0.00000000000E+00 0.  1.
          5    1    1    2  502    0 -0.74559624319E+02  0.25253656682E+02 -0.56091252003E+02  0.96750119926E+02  0.41800000000E+01 0. -1.
         -5    1    1    2    0  502  0.14901650813E+02 -0.11354052251E+03  0.10616930044E+03  0.15621428297E+03  0.41800000000E+01 0.  1.
        -11    1    1    2    0    0  0.22863482110E+01  0.70802116790E+02  0.10582035825E+03  0.12734251195E+03  0.00000000000E+00 0. -1.
         11    1    1    2    0    0  0.57371625295E+02  0.17484749037E+02  0.26691589002E+02  0.65648006530E+02  0.00000000000E+00 0.  1.
</event>
<event>
 7    1  0.6506388E-006  0.1037096E+03  0.7561462E-02  0.1272683E+00
          1   -1    0    0  501    0  0.00000000000E+00  0.00000000000E+00  0.45105548891E+02  0.45105548891E+02  0.00000000000E+00 0. -1.
         -1   -1    0    0    0  501 -0.00000000000E+00 -0.00000000000E+00 -0.34096818903E+03  0.34096818903E+03  0.00000000000E+00 0.  1.
         23    2    1    2    0    0 -0.21596299923E+02  0.47495262463E+02 -0.20251307687E+03  0.24477328476E+03  0.12720147208E+03 0.  0.
          5    1    3    3  502    0 -0.55592118410E+02 -0.11790185007E+02 -0.14343833990E+03  0.15434222314E+03  0.41800000000E+01 0. -1.
         -5    1    3    3    0  502  0.33995818487E+02  0.59285447470E+02 -0.59074736975E+02  0.90431061616E+02  0.41800000000E+01 0.  1.
        -11    1    1    2    0    0 -0.14257688343E+02 -0.43637316072E+02 -0.94671830599E+02  0.10521526762E+03  0.00000000000E+00 0.  1.
         11    1    1    2    0    0  0.35853988267E+02 -0.38579463914E+01  0.13222673330E+01  0.36085185546E+02  0.00000000000E+00 0. -1.
</event>
<event>
 7    1  0.6506388E-006  0.6716263E+02  0.7561462E-02  0.1370016E+00
          2   -1    0    0  501    0  0.00000000000E+00  0.00000000000E+00  0.28920579924E+03  0.28920579924E+03  0.00000000000E+00 0. -1.
         -2   -1    0    0    0  501 -0.00000000000E+00 -0.00000000000E+00 -0.53105624692E+02  0.53105624692E+02  0.00000000000E+00 0.  1.
         23    2    1    2    0    0 -0.47462320877E+02  0.35152180286E+02  0.12458029418E+03  0.18616051958E+03  0.12508853533E+03 0.  0.
          5    1    3    3  502    0 -0.13033667416E+02 -0.10830990927E+02  0.12730931098E+03  0.12850027204E+03  0.41800000000E+01 0.  1.
         -5    1    3    3    0  502 -0.34428653461E+02  0.45983171213E+02 -0.27290168028E+01  0.57660247542E+02  0.41800000000E+01 0.  1.
        -11    1    1    2    0    0  0.28789229607E+02 -0.18234670638E+02  0.12359710390E+03  0.12820907553E+03  0.00000000000E+00 0. -1.
         11    1    1    2    0    0  0.18673091270E+02 -0.16917509648E+02 -0.12077223528E+02  0.27941828830E+02  0.00000000000E+00 0.  1.
</event>
<event>
 7    1  0.6506388E-006  0.1053082E+03  0.7561462E-02  0.1269514E+00
         -3   -1    0    0    0  501 -0.00000000000E+00  0.00000000000E+00  0.27761077462E+03  0.27761077462E+03  0.00000000000E+00 0.  1.
          3   -1    0    0  501    0  0.00000000000E+00 -0.00000000000E+00 -0.61845736379E+02  0.61845736379E+02  0.00000000000E+00 0. -1.
         23    2    1    2    0    0 -0.62458916889E+02  0.16759080046E+02  0.13892478007E+03  0.19780855638E+03  0.12508456099E+03 0.  0.
          5    1    3    3  502    0 -0.69340770392E+02  0.30473818341E+02  0.20853571337E+02  0.78671086686E+02  0.41800000000E+01 0.  1.
         -5    1    3    3    0  502  0.68818535024E+01 -0.13714738294E+02  0.11807120873E+03  0.11913746969E+03  0.41800000000E+01 0.  1.
        -11    1    1    2    0    0  0.89621574129E+02 -0.66313137760E+01  0.60990180491E+02  0.10860848488E+03  0.00000000000E+00 0.  1.
         11    1    1    2    0    0 -0.27162657239E+02 -0.10127766270E+02  0.15850077679E+02  0.33039469735E+02  0.00000000000E+00 0. -1.
</event>
<event>
 7    1  0.6506388E-006  0.7587326E+02  0.7561462E-02  0.1341188E+00
          1   -1    0    0  501    0  0.00000000000E+00  0.00000000000E+00  0.42887366622E+02  0.42887366622E+02  0.00000000000E+00 0.  1.
         -1   -1    0    0    0  501 -0.00000000000E+00 -0.00000000000E+00 -0.40778563925E+03  0.40778563925E+03  0.00000000000E+00 0. -1.
         23    2    1    2    0    0  0.10832547620E+01 -0.50820418591E+01 -0.32950301094E+03  0.35248071149E+03  0.12507364696E+03 0.  0.
          5    1    3    3  502    0  0.32675586034E+00 -0.64852674677E+02 -0.18300927299E+03  0.19420567083E+03  0.41800000000E+01 0. -1.
         -5    1    3    3    0  502  0.75649890162E+00  0.59770632818E+02 -0.14649373795E+03  0.15827504067E+03  0.41800000000E+01 0. -1.
        -11    1    1    2    0    0 -0.23209432916E+01  0.15839497713E+02 -0.64857066620E+02  0.66803559457E+02  0.00000000000E+00 0. -1.
         11    1    1    2    0    0  0.12376885297E+01 -0.10757455854E+02  0.29461804939E+02  0.31388734916E+02  0.00000000000E+00 0.  1.
</event>
<event>
 7    1  0.6506388E-006  0.1046293E+03  0.7561462E-02  0.1270852E+00
          2   -1    0    0  501    0  0.00000000000E+00  0.00000000000E+00  0.58207517854E+02  0.58207517854E+02  0.00000000000E+00 0.  1.
         -2   -1    0    0    0  501 -0.00000000000E+00 -0.00000000000E+00 -0.26954616740E+03  0.26954616740E+03  0.00000000000E+00 0. -1.
         23    2    1    2    0    0 -0.25883422433E+02 -0.36446394974E+02 -0.17162877511E+03  0.21703113259E+03  0.12509110600E+03 0.  0.
          5    1    3    3  502    0 -0.14067120560E+02  0.46405277676E+02 -0.55342678251E+02  0.73699512298E+02  0.41800000000E+01 0. -1.
         -5    1    3    3    0  502 -0.11816301874E+02 -0.82851672650E+02 -0.11628609686E+03  0.14333162029E+03  0.41800000000E+01 0. -1.
        -11    1    1    2    0    0  0.11458695754E+02  0.53353110756E+02 -0.59663407113E+02  0.80855292245E+02  0.00000000000E+00 0. -1.
         11    1    1    2    0    0  0.14424726680E+02 -0.16906715782E+02  0.19953532685E+02  0.29867260419E+02  0.00000000000E+00 0.  1.
</event>
<event>
 7    1  0.1137832E-005  0.2276237E+03  0.7561462E-02  0.1128324E+00
         -1   -1    0    0    0  501 -0.00000000000E+00  0.00000000000E+00  0.29703460614E+03  0.29703460614E+03  0.00000000000E+00 0.  1.
          1   -1    0    0  501    0  0.00000000000E+00 -0.00000000000E+00 -0.21519936595E+03  0.21519936595E+03  0.00000000000E+00 0. -1.
         23    2    1    2    0    0 -0.14411656222E+03 -0.14800944919E+03  0.14011411636E+03  0.27920595398E+03  0.12509044160E+03 0.  0.
          5    1    3    3  502    0 -0.55424147161E+02  0.26276315461E+01  0.73276992069E+02  0.92009404426E+02  0.41800000000E+01 0.  1.
         -5    1    3    3    0  502 -0.88692415062E+02 -0.15063708074E+03  0.66837124294E+02  0.18719654956E+03  0.41800000000E+01 0.  1.
        -11    1    1    2    0    0  0.73725953989E+02  0.16450244517E+02 -0.29363176725E+02  0.81045190996E+02  0.00000000000E+00 0. -1.
         11    1    1    2    0    0  0.70390608234E+02  0.13155920467E+03 -0.28915699453E+02  0.15198282711E+03  0.00000000000E+00 0.  1.
</event>
<event>
 7    1  0.6506388E-006  0.1866271E+03  0.7561462E-02  0.1161539E+00
         -2   -1    0    0    0  501 -0.00000000000E+00  0.00000000000E+00  0.78724738076E+02  0.78724738076E+02  0.00000000000E+00 0.  1.
          2   -1    0    0  501    0  0.00000000000E+00 -0.00000000000E+00 -0.87436622450E+03  0.87436622450E+03  0.00000000000E+00 0. -1.
         23    2    1    2    0    0 -0.15458555796E+03 -0.20791311044E+02 -0.82981077131E+02  0.21235777890E+03  0.11781762922E+03 0.  0.
          5    1    3    3  502    0 -0.11580514860E+03 -0.46482625777E+02 -0.10269306276E+03  0.16166262549E+03  0.41800000000E+01 0. -1.
         -5    1    3    3    0  502 -0.38780409354E+02  0.25691314732E+02  0.19711985626E+02  0.50695153414E+02  0.41800000000E+01 0.  1.
        -11    1    1    2    0    0 -0.15220570355E+02 -0.21836506589E+02 -0.10849743247E+03  0.11171477805E+03  0.00000000000E+00 0.  1.
         11    1    1    2    0    0  0.16980612831E+03  0.42627817633E+02 -0.60416297682E+03  0.62901840562E+03  0.00000000000E+00 0. -1.
</event>
<event>
 7    1  0.6506388E-006  0.1075306E+03  0.7561462E-02  0.1265212E+00
         -2   -1    0    0    0  501 -0.00000000000E+00  0.00000000000E+00  0.59349888680E+02  0.59349888680E+02  0.00000000000E+00 0. -1.
          2   -1    0    0  501    0  0.00000000000E+00 -0.00000000000E+00 -0.23199034205E+03  0.23199034205E+03  0.00000000000E+00 0.  1.
         23    2    1    2    0    0  0.81954350261E+01 -0.37246940912E+02 -0.66441356051E+02  0.14668866352E+03  0.12509440614E+03 0.  0.
          5    1    3    3  502    0 -0.47942463315E+02 -0.53630559322E+02 -0.39380410487E+02  0.82115807321E+02  0.41800000000E+01 0. -1.
         -5    1    3    3    0  502  0.56137898342E+02  0.16383618410E+02 -0.27060945564E+02  0.64572856195E+02  0.41800000000E+01 0. -1.
        -11    1    1    2    0    0 -0.30620924916E+01 -0.23355722851E+02 -0.70039684722E+02  0.73894679350E+02  0.00000000000E+00 0.  1.
         11    1    1    2    0    0 -0.51333425346E+01  0.60602663763E+02 -0.36159412596E+02  0.70756887863E+02  0.00000000000E+00 0. -1.
</event>
<event>
 7    1  0.6506388E-006  0.7712112E+02  0.7561462E-02  0.1337426E+00
         -4   -1    0    0    0  501 -0.00000000000E+00  0.00000000000E+00  0.74821891334E+02  0.74821891334E+02  0.00000000000E+00 0.  1.
          4   -1    0    0  501    0  0.00000000000E+00 -0.00000000000E+00 -0.22722338576E+03  0.22722338576E+03  0.00000000000E+00 0. -1.
         23    2    1    2    0    0 -0.18829452457E+02 -0.35092149187E+02 -0.15459816922E+02  0.13218283402E+03  0.12508912206E+03 0.  0.
          5    1    3    3  502    0 -0.48534764785E+02  0.24520094282E+01  0.36863493320E+02  0.61139392234E+02  0.41800000000E+01 0. -1.
         -5    1    3    3    0  502  0.29705312329E+02 -0.37544158615E+02 -0.52323310243E+02  0.71043441790E+02  0.41800000000E+01 0. -1.
        -11    1    1    2    0    0  0.11827571983E+02  0.44294380435E+02 -0.14734214184E+03  0.15431004620E+03  0.00000000000E+00 0. -1.
         11    1    1    2    0    0  0.70018804731E+01 -0.92022312478E+01  0.10400464332E+02  0.15552396871E+02  0.00000000000E+00 0.  1.
</event>
<event>
 7    1  0.6506388E-006  0.1081758E+03  0.7561462E-02  0.1263986E+00
         -2   -1    0    0    0  501 -0.00000000000E+00  0.00000000000E+00  0.92504448442E+02  0.92504448442E+02  0.00000000000E+00 0. -1.
          2   -1    0    0  501    0  0.00000000000E+00 -0.00000000000E+00 -0.18815887884E+03  0.18815887884E+03  0.00000000000E+00 0.  1.
         23    2    1    2    0    0  0.44341786189E+02  0.42926369087E+02 -0.97309397447E+02  0.17007894901E+03  0.12509541518E+03 0.  0.
          5    1    3    3  502    0 -0.33043737664E+02  0.31392985465E+02 -0.81094228202E+00  0.45777048426E+02  0.41800000000E+01 0.  1.
         -5    1    3    3    0  502  0.77385523853E+02  0.11533383622E+02 -0.96498455165E+02  0.12430190058E+03  0.41800000000E+01 0.  1.
        -11    1    1    2    0    0 -0.39158420900E+02  0.88901028491E+01  0.31073816188E+02  0.50773988503E+02  0.00000000000E+00 0. -1.
         11    1    1    2    0    0 -0.51833652895E+01 -0.51816471936E+02 -0.29418849139E+02  0.59810389769E+02  0.00000000000E+00 0.  1.
</event>
<event>
 7    1  0.6506388E-006  0.1088158E+03  0.7561462E-02  0.1262779E+00
          2   -1    0    0  501    0  0.00000000000E+00  0.00000000000E+00  0.36725604643E+03  0.36725604643E+03  0.00000000000E+00 0. -1.
         -2   -1    0    0    0  501 -0.00000000000E+00 -0.00000000000E+00 -0.45155867554E+02  0.45155867554E+02  0.00000000000E+00 0.  1.
         23    2    1    2    0    0  0.10669715904E+01  0.44788371339E+02  0.94255111587E+02  0.16290615845E+03  0.12508898339E+03 0.  0.
          5    1    3    3  502    0  0.11485650692E+02  0.80960107701E+02  0.94493391982E+02  0.12503172693E+03  0.41800000000E+01 0. -1.
         -5    1    3    3    0  502 -0.10418679102E+02 -0.36171736362E+02 -0.23828039475E+00  0.37874431523E+02  0.41800000000E+01 0. -1.
        -11    1    1    2    0    0 -0.23107528581E+02 -0.64373629981E+02  0.12465377245E+03  0.14218468658E+03  0.00000000000E+00 0.  1.
         11    1    1    2    0    0  0.22040556990E+02  0.19585258642E+02  0.10319129485E+03  0.10732106895E+03  0.00000000000E+00 0. -1.
</event>
<event>
 7    1  0.6506388E-006  0.1014164E+03  0.7561462E-02  0.1277345E+00
          2   -1    0    0  501    0  0.00000000000E+00  0.00000000000E+00  0.55738531486E+03  0.55738531486E+03  0.00000000000E+00 0.  1.
         -2   -1    0    0    0  501 -0.00000000000E+00 -0.00000000000E+00 -0.24886507960E+02  0.24886507960E+02  0.00000000000E+00 0. -1.
         23    2    1    2    0    0 -0.44276170156E+02  0.52070159990E+00  0.29671896738E+03  0.32503821716E+03  0.12508815547E+03 0.  0.
          5    1    3    3  502    0  0.11883913586E+02  0.51800696961E+02  0.88380180256E+02  0.10321370195E+03  0.41800000000E+01 0.  1.
         -5    1    3    3    0  502 -0.56160083742E+02 -0.51279995361E+02  0.20833878712E+03  0.22182451521E+03  0.41800000000E+01 0.  1.
        -11    1    1    2    0    0 -0.14373676160E+02 -0.28835154222E+01  0.42138433790E+00  0.14666110333E+02  0.00000000000E+00 0. -1.
         11    1    1    2    0    0  0.58649846316E+02  0.23628138223E+01  0.23535845519E+03  0.24256749533E+03  0.00000000000E+00 0.  1.
</event>
<event>
 7    1  0.6506388E-006  0.8902228E+02  0.7561462E-02  0.1305237E+00
         -1   -1    0    0    0  501 -0.00000000000E+00  0.00000000000E+00  0.93332618168E+02  0.93332618168E+02  0.00000000000E+00 0.  1.
          1   -1    0    0  501    0  0.00000000000E+00 -0.00000000000E+00 -0.16765164205E+03  0.16765164205E+03  0.00000000000E+00 0. -1.
         23    2    1    2    0    0  0.78887850080E+01 -0.22761075561E+01  0.23086928647E+02  0.12746306621E+03  0.12508562419E+03 0.  0.
          5    1    3    3  502    0  0.28054996429E+02 -0.45144671841E+02  0.49764993440E+02  0.72932511216E+02  0.41800000000E+01 0.  1.
         -5    1    3    3    0  502 -0.20166211421E+02  0.42868564285E+02 -0.26678064792E+02  0.54530554995E+02  0.41800000000E+01 0.  1.
        -11    1    1    2    0    0 -0.11968187690E+01 -0.37155159274E+02 -0.11748870886E+02  0.38986846537E+02  0.00000000000E+00 0.  1.
         11    1    1    2    0    0 -0.66919662391E+01  0.39431266830E+02 -0.85657081644E+02  0.94534347471E+02  0.00000000000E+00 0. -1.
</event>
<event>
 7    1  0.6506388E-006  0.2443432E+03  0.7561462E-02  0.1116933E+00
          1   -1    0    0  501    0  0.00000000000E+00  0.00000000000E+00  0.14371794430E+03  0.14371794430E+03  0.00000000000E+00 0. -1.
         -1   -1    0    0    0  501 -0.00000000000E+00 -0.00000000000E+00 -0.44614968307E+03  0.44614968307E+03  0.00000000000E+00 0.  1.
         23    2    1    2    0    0 -0.44310322028E+02  0.22402877610E+03 -0.17345341470E+03  0.31286692547E+03  0.12508928340E+03 0.  0.
          5    1    3    3  502    0  0.27814672093E+02  0.15975208577E+03 -0.92336352116E+02  0.18664902682E+03  0.41800000000E+01 0. -1.
         -5    1    3    3    0  502 -0.72124994121E+02  0.64276690336E+02 -0.81117062585E+02  0.12621789865E+03  0.41800000000E+01 0. -1.
        -11    1    1    2    0    0  0.18943074717E+02 -0.15646635352E+03 -0.13079241794E+03  0.20481019617E+03  0.00000000000E+00 0.  1.
         11    1    1    2    0    0  0.25367247311E+02 -0.67562422585E+02  0.18140938762E+01  0.72190505735E+02  0.00000000000E+00 0. -1.
</event>
<event>
 7    1  0.6506388E-006  0.1234665E+03  0.7561462E-02  0.1237486E+00
         -1   -1    0    0    0  501 -0.00000000000E+00  0.00000000000E+00  0.31936525696E+03  0.31936525696E+03  0.00000000000E+00 0.  1.
          1   -1    0    0  501    0  0.00000000000E+00 -0.00000000000E+00 -0.67216526778E+02  0.67216526778E+02  0.00000000000E+00 0. -1.
         23    2    1    2    0    0  0.78361210061E+02 -0.47984979830E+02  0.17609002213E+03  0.23473017196E+03  0.12509004837E+03 0.  0.
          5    1    3    3  502    0 -0.16988705567E+02 -0.25044455311E+02 -0.28005369117E+01  0.30678270252E+02  0.41800000000E+01 0.  1.
         -5    1    3    3    0  502  0.95349915628E+02 -0.22940524518E+02  0.17889055904E+03  0.20405190171E+03  0.41800000000E+01 0.  1.
        -11    1    1    2    0    0 -0.75069421696E+02  0.51329041995E+01  0.78584282520E+02  0.10879914631E+03  0.00000000000E+00 0.  1.
         11    1    1    2    0    0 -0.32917883650E+01  0.42852075630E+02 -0.25255744672E+01  0.43052465467E+02  0.00000000000E+00 0. -1.
</event>
<event>
 7    1  0.6506388E-006  0.6581706E+02  0.7561462E-02  0.1374924E+00
          2   -1    0    0  501    0  0.00000000000E+00  0.00000000000E+00  0.81405309380E+02  0.81405309380E+02  0.00000000000E+00 0. -1.
         -2   -1    0    0    0  501 -0.00000000000E+00 -0.00000000000E+00 -0.20297295547E+03  0.20297295547E+03  0.00000000000E+00 0.  1.
         23    2    1    2    0    0  0.18382089023E+01 -0.39953161361E+02 -0.12834555561E+03  0.18362901237E+03  0.12508956161E+03 0.  0.
          5    1    3    3  502    0 -0.27007665929E+02  0.32054359087E+00 -0.13102227232E+03  0.13384253812E+03  0.41800000000E+01 0.  1.
         -5    1    3    3    0  502  0.28845874831E+02 -0.40273704952E+02  0.26767167128E+01  0.49786474244E+02  0.41800000000E+01 0.  1.
        -11    1    1    2    0    0  0.17674428919E+02  0.18343522268E+02 -0.38949343957E+02  0.46539463270E+02  0.00000000000E+00 0.  1.
         11    1    1    2    0    0 -0.19512637821E+02  0.21609639093E+02  0.45727253473E+02  0.54209789214E+02  0.00000000000E+00 0. -1.
</event>
<event>
 7    1  0.6506388E-006  0.1239788E+03  0.7561462E-02  0.1236674E+00
          2   -1    0    0  501    0  0.00000000000E+00  0.00000000000E+00  0.57374383887E+03  0.57374383887E+03  0.00000000000E+00 0. -1.
         -2   -1    0    0    0  501 -0.00000000000E+00 -0.00000000000E+00 -0.37291448234E+02  0.37291448234E+02  0.00000000000E+00 0.  1.
         23    2    1    2    0    0 -0.17153290228E+02  0.88283985451E+02  0.21215349988E+03  0.26219314082E+03  0.12509131915E+03 0.  0.
          5    1    3    3  502    0  0.47019112199E+02  0.69151755260E+02  0.14389264832E+03  0.16647921434E+03  0.41800000000E+01 0.  1.
         -5    1    3    3    0  502 -0.64172402427E+02  0.19132230191E+02  0.68260851565E+02  0.95713926477E+02  0.41800000000E+01 0.  1.
        -11    1    1    2    0    0  0.18523256417E+02 -0.14987535162E+02  0.95519515717E+01  0.25670547663E+02  0.00000000000E+00 0.  1.
         11    1    1    2    0    0 -0.13699661888E+01 -0.73296450289E+02  0.31474693918E+03  0.32317159863E+03  0.00000000000E+00 0. -1.
</event>
<event>
 7    1  0.6506388E-006  0.1432351E+03  0.7561462E-02  0.1209041E+00
         -1   -1    0    0    0  501 -0.00000000000E+00  0.00000000000E+00  0.37269821471E+02  0.37269821471E+02  0.00000000000E+00 0.  1.
          1   -1    0    0  501    0  0.00000000000E+00 -0.00000000000E+00 -0.64508977289E+03  0.64508977289E+03  0.00000000000E+00 0. -1.
         23    2    1    2    0    0 -0.67544025845E+02  0.99605002582E+02 -0.35329555337E+03  0.39363520683E+03  0.12509027165E+03 0.  0.
          5    1    3    3  502    0 -0.79373538779E+02  0.27947360428E+02 -0.27100117232E+03  0.28379626744E+03  0.41800000000E+01 0.  1.
         -5    1    3    3    0  502  0.11829512934E+02  0.71657642154E+02 -0.82294381047E+02  0.10983893939E+03  0.41800000000E+01 0.  1.
        -11    1    1    2    0    0  0.34712613227E+02 -0.88079885358E+02 -0.13980778449E+03  0.16884681912E+03  0.00000000000E+00 0.  1.
         11    1    1    2    0    0  0.32831412618E+02 -0.11525117224E+02 -0.11471661356E+03  0.11987756841E+03  0.00000000000E+00 0. -1.
</event>
<event>
 7    1  0.6506388E-006  0.1383057E+03  0.7561462E-02  0.1215627E+00
          2   -1    0    0  501    0  0.00000000000E+00  0.00000000000E+00  0.39484288633E+03  0.39484288633E+03  0.00000000000E+00 0. -1.
         -2   -1    0    0    0  501 -0.00000000000E+00 -0.00000000000E+00 -0.54218310227E+02  0.54218310227E+02  0.00000000000E+00 0.  1.
         23    2    1    2    0    0 -0.90972511557E+02  0.40116068733E+00  0.12673315231E+03  0.19996274399E+03  0.12509056040E+03 0.  0.
          5    1    3    3  502    0  0.54440022050E+01  0.46477754619E+02  0.29861634108E+02  0.55668738318E+02  0.41800000000E+01 0. -1.
         -5    1    3    3    0  502 -0.96416513762E+02 -0.46076593931E+02  0.96871518199E+02  0.14429400567E+03  0.41800000000E+01 0. -1.
        -11    1    1    2    0    0  0.68348572292E+02  0.37937122745E+02  0.16728443344E+03  0.18464786565E+03  0.00000000000E+00 0.  1.
         11    1    1    2    0    0  0.22623939264E+02 -0.38338283432E+02  0.46606990355E+02  0.64450586920E+02  0.00000000000E+00 0. -1.
</event>
<event>
 6    1  0.6506388E-006  0.9038861E+02  0.7561462E-02  0.1301913E+00
          1   -1    0    0  501    0  0.00000000000E+00  0.00000000000E+00  0.15267143406E+03  0.15267143406E+03  0.00000000000E+00 0. -1.
         -1   -1    0    0    0  501 -0.00000000000E+00 -0.00000000000E+00 -0.21033921230E+03  0.21033921230E+03  0.00000000000E+00 0.  1.
          5    1    1    2  502    0  0.43131511470E+02 -0.10437980837E+01  0.13746946868E+02  0.45473813831E+02  0.41800000000E+01 0. -1.
         -5    1    1    2    0  502 -0.14335730010E+02 -0.41253245872E+02 -0.16974557016E+03  0.17532362772E+03  0.41800000000E+01 0.  1.
        -11    1    1    2    0    0  0.15742120776E+02  0.46240040292E+02  0.21607332580E+02  0.53411913596E+02  0.00000000000E+00 0. -1.
         11    1    1    2    0    0 -0.44537902236E+02 -0.39429963363E+01  0.76723512465E+02  0.88801291211E+02  0.00000000000E+00 0.  1.
</event>
<event>
 7    1  0.6506388E-006  0.1092912E+03  0.7561462E-02  0.1261888E+00
         -4   -1    0    0    0  501 -0.00000000000E+00  0.00000000000E+00  0.49142306079E+02  0.49142306079E+02  0.00000000000E+00 0. -1.
          4   -1    0    0  501    0  0.00000000000E+00 -0.00000000000E+00 -0.49442908240E+03  0.49442908240E+03  0.00000000000E+00 0.  1.
         23    2    1    2    0    0  0.84872068617E+01  0.97872427739E+02 -0.13930304129E+03  0.21144087351E+03  0.12510340077E+03 0.  0.
          5    1    3    3  502    0  0.23001184545E+02  0.42792373877E+02  0.11573217797E+02  0.50116399737E+02  0.41800000000E+01 0.  1.
         -5    1    3    3    0  502 -0.14513977683E+02  0.55080053862E+02 -0.15087625908E+03  0.16132447377E+03  0.41800000000E+01 0.  1.
        -11    1    1    2    0    0 -0.32125468807E+02 -0.60121924025E+02 -0.25716542189E+03  0.26604651043E+03  0.00000000000E+00 0.  1.
         11    1    1    2    0    0  0.23638261945E+02 -0.37750503714E+02 -0.48818313135E+02  0.66084004538E+02  0.00000000000E+00 0. -1.
</event>
<event>
 7    1  0.6506388E-006  0.2263292E+03  0.7561462E-02  0.1129250E+00
          2   -1    0    0  501    0  0.00000000000E+00  0.00000000000E+00  0.40565667660E+03  0.40565667660E+03  0.00000000000E+00 0. -1.
         -2   -1    0    0    0  501 -0.00000000000E+00 -0.00000000000E+00 -0.15923003595E+03  0.15923003595E+03  0.00000000000E+00 0.  1.
         23    2    1    2    0    0  0.14108798640E+03  0.16620165161E+03  0.51124297518E+02  0.25649462336E+03  0.12508792551E+03 0.  0.
          5    1    3    3  502    0  0.19321493821E+02  0.79496103984E+02  0.67386364056E+02  0.10607235801E+03  0.41800000000E+01 0. -1.
         -5    1    3    3    0  502  0.12176649258E+03  0.86705547629E+02 -0.16262066538E+02  0.15042226535E+03  0.41800000000E+01 0. -1.
        -11    1    1    2    0    0 -0.93577415079E+02 -0.81539534616E+02  0.50371395952E+02  0.13395038577E+03  0.00000000000E+00 0.  1.
         11    1    1    2    0    0 -0.47510571324E+02 -0.84662116997E+02  0.14493094718E+03  0.17444170342E+03  0.00000000000E+00 0. -1.
</event>
<event>
 7    1  0.6506388E-006  0.9062245E+02  0.7561462E-02  0.1301351E+00
          2   -1    0    0  501    0  0.00000000000E+00  0.00000000000E+00  0.16999138123E+03  0.16999138123E+03  0.00000000000E+00 0.  1.
         -2   -1    0    0    0  501 -0.00000000000E+00 -0.00000000000E+00 -0.97043558772E+02  0.97043558772E+02  0.00000000000E+00 0. -1.
         23    2    1    2    0    0  0.66487220685E+02 -0.13486130123E+02  0.27775676045E+02  0.14498631571E+03  0.12508843809E+03 0.  0.
          5    1    3    3  502    0  0.37941770754E+02 -0.26750329194E+02 -0.45493301111E+02  0.65132717784E+02  0.41800000000E+01 0.  1.
         -5    1    3    3    0  502  0.28545449931E+02  0.13264199071E+02  0.73268977156E+02  0.79853597929E+02  0.41800000000E+01 0.  1.
        -11    1    1    2    0    0 -0.49535103558E+02  0.45111370291E+02  0.35464583180E+01  0.67092023227E+02  0.00000000000E+00 0. -1.
         11    1    1    2    0    0 -0.16952117127E+02 -0.31625240169E+02  0.41625688095E+02  0.54956601061E+02  0.00000000000E+00 0.  1.
</event>
<event>
 7    1  0.6506388E-006  0.1140154E+03  0.7561462E-02  0.1253310E+00
          1   -1    0    0  501    0  0.00000000000E+00  0.00000000000E+00  0.26055640375E+03  0.26055640375E+03  0.00000000000E+00 0. -1.
         -1   -1    0    0    0  501 -0.00000000000E+00 -0.00000000000E+00 -0.17393365206E+03  0.17393365206E+03  0.00000000000E+00 0.  1.
         23    2    1    2    0    0  0.51789453045E+02 -0.74241615468E+02 -0.12096617922E+03  0.19019484189E+03  0.11553050010E+03 0.  0.
          5    1    3    3  502    0  0.44833743536E+02 -0.19223353483E+02  0.81289835509E+01  0.49630178845E+02  0.41800000000E+01 0. -1.
         -5    1    3    3    0  502  0.69557095091E+01 -0.55018261985E+02 -0.12909516277E+03  0.14056466305E+03  0.41800000000E+01 0.  1.
        -11    1    1    2    0    0 -0.30367242631E+02 -0.13431502536E+02  0.90910158799E+02  0.96784459797E+02  0.00000000000E+00 0.  1.
         11    1    1    2    0    0 -0.21422210414E+02  0.87673118004E+02  0.11667877212E+03  0.14751075412E+03  0.00000000000E+00 0. -1.
</event>
<event>
 7    1  0.6506388E-006  0.1680401E+03  0.7561462E-02  0.1179907E+00
          1   -1    0    0  501    0  0.00000000000E+00  0.00000000000E+00  0.10700322567E+03  0.10700322567E+03  0.00000000000E+00 0. -1.
         -1   -1    0    0    0  501 -0.00000000000E+00 -0.00000000000E+00 -0.30930889551E+03  0.30930889551E+03  0.00000000000E+00 0.  1.
         23    2    1    2    0    0 -0.12387426476E+03 -0.70250413118E+02 -0.12667932216E+03  0.22797975130E+03  0.12508861790E+03 0.  0.
          5    1    3    3  502    0 -0.10665383111E+03 -0.16710069977E+02 -0.23754341450E+02  0.11061648732E+03  0.41800000000E+01 0.  1.
         -5    1    3    3    0  502 -0.17220433650E+02 -0.53540343141E+02 -0.10292498071E+03  0.11736326398E+03  0.41800000000E+01 0.  1.
        -11    1    1    2    0    0  0.10173285295E+03  0.94470832882E+02 -0.68236127046E+02  0.15469479846E+03  0.00000000000E+00 0.  1.
         11    1    1    2    0    0  0.22141411805E+02 -0.24220419764E+02 -0.73902206415E+01  0.33637571425E+02  0.00000000000E+00 0. -1.
</event>
<event>
 7    1  0.6506388E-006  0.6127574E+02  0.7561462E-02  0.1392555E+00
         -1   -1    0    0    0  501 -0.00000000000E+00  0.00000000000E+00  0.31884965033E+02  0.31884965033E+02  0.00000000000E+00 0.  1.
          1   -1    0    0  501    0  0.00000000000E+00 -0.00000000000E+00 -0.41066141385E+03  0.41066141385E+03  0.00000000000E+00 0. -1.
         23    2    1    2    0    0  0.34965612910E+02 -0.33192870729E+02 -0.20777769390E+03  0.24727540224E+03  0.12509673743E+03 0.  0.
          5    1    3    3  502    0  0.19183687482E+02 -0.29613232751E+02 -0.22230741339E+03  0.22512888724E+03  0.41800000000E+01 0.  1.
         -5    1    3    3    0  502  0.15781925428E+02 -0.35796379786E+01  0.14529719490E+02  0.22146515003E+02  0.41800000000E+01 0.  1.
        -11    1    1    2    0    0  0.87255106597E+01  0.24165981542E+02 -0.13643926316E+03  0.13883732110E+03  0.00000000000E+00 0. -1.
         11    1    1    2    0    0 -0.43691123570E+02  0.90268891871E+01 -0.34559491758E+02  0.56433655541E+02  0.00000000000E+00 0.  1.
</event>
<event>
 7    1  0.6506388E-006  0.1520952E+03  0.7561462E-02  0.1197922E+00
          2   -1    0    0  501    0  0.00000000000E+00  0.00000000000E+00  0.41590504877E+03  0.41590504877E+03  0.00000000000E+00 0. -1.
         -2   -1    0    0    0  501 -0.00000000000E+00 -0.00000000000E+00 -0.10808112645E+03  0.10808112645E+03  0.00000000000E+00 0.  1.
         23    2    1    2    0    0 -0.24835101559E+02  0.12591672421E+03  0.73298207313E+00  0.17922133366E+03  0.12509174822E+03 0.  0.
          5    1    3    3  502    0 -0.52883825627E+02  0.41174178889E+02  0.43645641307E+02  0.80090114404E+02  0.41800000000E+01 0.  1.
         -5    1    3    3    0  502  0.28048724068E+02  0.84742545318E+02 -0.42912659234E+02  0.99131219257E+02  0.41800000000E+01 0.  1.
        -11    1    1    2    0    0  0.50790901414E+02 -0.75915883663E+02  0.24208982640E+03  0.25874779439E+03  0.00000000000E+00 0. -1.
         11    1    1    2    0    0 -0.25955799855E+02 -0.50000840543E+02  0.65001113849E+02  0.86017047164E+02  0.00000000000E+00 0.  1.
</event>
<event>
 7    1  0.6506388E-006  0.1365419E+03  0.7561462E-02  0.1218059E+00
         -3   -1    0    0    0  501 -0.00000000000E+00  0.00000000000E+00  0.28686788363E+03  0.28686788363E+03  0.00000000000E+00 0.  1.
          3   -1    0    0  501    0  0.00000000000E+00 -0.00000000000E+00 -0.12617167652E+03  0.12617167652E+03  0.00000000000E+00 0. -1.
         23    2    1    2    0    0 -0.98448071536E+02  0.78545461152E+02  0.18443706974E+03  0.25597482709E+03  0.12507864388E+03 0.  0.
          5    1    3    3  502    0 -0.30670737112E+02  0.15595636195E+02 -0.13698962022E+02  0.37269987172E+02  0.41800000000E+01 0.  1.
         -5    1    3    3    0  502 -0.67777334424E+02  0.62949824957E+02  0.19813603176E+03  0.21870483992E+03  0.41800000000E+01 0.  1.
        -11    1    1    2    0    0  0.16883839834E+02 -0.59798487142E+02 -0.37017622301E+02  0.72327224977E+02  0.00000000000E+00 0. -1.
         11    1    1    2    0    0  0.81564231702E+02 -0.18746974010E+02  0.13276759669E+02  0.84737508076E+02  0.00000000000E+00 0.  1.
</event>
<event>
 7    1  0.6506388E-006  0.1043673E+03  0.7561462E-02  0.1271371E+00
          1   -1    0    0  501    0  0.00000000000E+00  0.00000000000E+00  0.60809334978E+02  0.60809334978E+02  0.00000000000E+00 0. -1.
         -1   -1    0    0    0  501 -0.00000000000E+00 -0.00000000000E+00 -0.21199264148E+03  0.21199264148E+03  0.00000000000E+00 0.  1.
         23    2    1    2    0    0  0.24750594339E+02 -0.16744983649E+02 -0.98282039133E+02  0.16186024053E+03  0.12508553813E+03 0.  0.
          5    1    3    3  502    0  0.14938388827E+02 -0.64634474940E+02 -0.90340291609E+02  0.11215886724E+03  0.41800000000E+01 0. -1.
         -5    1    3    3    0  502  0.98122055123E+01  0.47889491291E+02 -0.79417475236E+01  0.49701373290E+02  0.41800000000E+01 0. -1.
        -11    1    1    2    0    0 -0.57412933389E+02  0.18965184565E+02 -0.17994004859E+02  0.63084921786E+02  0.00000000000E+00 0. -1.
         11    1    1    2    0    0  0.32662339050E+02 -0.22202009159E+01 -0.34907262510E+02  0.47856814147E+02  0.00000000000E+00 0.  1.
</event>
<event>
 7    1  0.6506388E-006  0.1148616E+03  0.7561462E-02  0.1251823E+00
          4   -1    0    0  501    0  0.00000000000E+00  0.00000000000E+00  0.23216118031E+02  0.23216118031E+02  0.00000000000E+00 0.  1.
         -4   -1    0    0    0  501 -0.00000000000E+00 -0.00000000000E+00 -0.71382557273E+03  0.71382557273E+03  0.00000000000E+00 0. -1.
         23    2    1    2    0    0  0.24110606033E+02 -0.65061644213E+02 -0.38812873161E+03  0.41364858203E+03  0.12508756231E+03 0.  0.
          5    1    3    3  502    0 -0.18885353033E+02  0.25017107208E+02 -0.18034262027E+03  0.18309408865E+03  0.41800000000E+01 0.  1.
         -5    1    3    3    0  502  0.42995959066E+02 -0.90078751421E+02 -0.20778611134E+03  0.23055449338E+03  0.41800000000E+01 0.  1.
        -11    1    1    2    0    0  0.24354768910E+02  0.28505964863E+02 -0.43664652756E+02  0.57552990380E+02  0.00000000000E+00 0.  1.
         11    1    1    2    0    0 -0.48465374943E+02  0.36555679351E+02 -0.25881607034E+03  0.26584011835E+03  0.00000000000E+00 0. -1.
</event>
<event>
 7    1  0.6506388E-006  0.1036154E+03  0.7561462E-02  0.1272872E+00
         -2   -1    0    0    0  501 -0.00000000000E+00  0.00000000000E+00  0.90360646159E+02  0.90360646159E+02  0.00000000000E+00 0.  1.
          2   -1    0    0  501    0  0.00000000000E+00 -0.00000000000E+00 -0.19296035832E+03  0.19296035832E+03  0.00000000000E+00 0. -1.
         23    2    1    2    0    0 -0.66500542711E+02 -0.37368286283E+02 -0.38542848116E+02  0.15149925363E+03  0.12509101370E+03 0.  0.
          5    1    3    3  502    0 -0.50881747663E+02  0.94465318392E+01  0.35157188121E+02  0.62703185610E+02  0.41800000000E+01 0.  1.
         -5    1    3    3    0  502 -0.15618795048E+02 -0.46814818122E+02 -0.73700036236E+02  0.88796068020E+02  0.41800000000E+01 0.  1.
        -11    1    1    2    0    0 -0.19761948168E+01  0.37253545958E+02 -0.49212573135E+02  0.61754428076E+02  0.00000000000E+00 0. -1.
         11    1    1    2    0    0  0.68476737528E+02  0.11474032420E+00 -0.14844290909E+02  0.70067322772E+02  0.00000000000E+00 0.  1.
</event>
<event>
 7    1  0.6506388E-006  0.1525843E+03  0.7561462E-02  0.1197333E+00
         -1   -1    0    0    0  501 -0.00000000000E+00  0.00000000000E+00  0.68396211703E+02  0.68396211703E+02  0.00000000000E+00 0.  1.
          1   -1    0    0  501    0  0.00000000000E+00 -0.00000000000E+00 -0.39910540073E+03  0.39910540073E+03  0.00000000000E+00 0. -1.
         23    2    1    2    0    0  0.82210328648E+02 -0.83376612000E+02 -0.12978366875E+03  0.21495278329E+03  0.12510276098E+03 0.  0.
          5    1    3    3  502    0  0.30725855310E+02  0.31798174004E+02 -0.25460802956E+02  0.51194989420E+02  0.41800000000E+01 0. -1.
         -5    1    3    3    0  502  0.51484473338E+02 -0.11517478600E+03 -0.10432286579E+03  0.16375779387E+03  0.41800000000E+01 0. -1.
        -11    1    1    2    0    0 -0.50845924654E+02  0.89154317018E+02 -0.87965220589E+02  0.13517277955E+03  0.00000000000E+00 0.  1.
         11    1    1    2    0    0 -0.31364403994E+02 -0.57777050177E+01 -0.11296029969E+03  0.11737604960E+03  0.00000000000E+00 0. -1.
</event>
<event>
 7    1  0.6506388E-006  0.1128631E+03  0.7561462E-02  0.1255358E+00
         -2   -1    0    0    0  501 -0.00000000000E+00  0.00000000000E+00  0.12509397683E+03  0.12509397683E+03  0.00000000000E+00 0. -1.
          2   -1    0    0  501    0  0.00000000000E+00 -0.00000000000E+00 -0.13561684076E+03  0.13561684076E+03  0.00000000000E+00 0.  1.
         23    2    1    2    0    0 -0.45560186352E+02  0.44572154756E+02  0.23375480390E+02  0.14232485319E+03  0.12509014027E+03 0.  0.
          5    1    3    3  502    0  0.11972417950E+02  0.52728148755E+02 -0.31141636075E+02  0.62536951957E+02  0.41800000000E+01 0.  1.
         -5    1    3    3    0  502 -0.57532604302E+02 -0.81559939990E+01  0.54517116465E+02  0.79787901236E+02  0.41800000000E+01 0.  1.
        -11    1    1    2    0    0  0.49694046300E+02 -0.70902741857E+02 -0.28815155884E+02  0.91252453387E+02  0.00000000000E+00 0.  1.
         11    1    1    2    0    0 -0.41338599484E+01  0.26330587101E+02 -0.50831884298E+01  0.27133511011E+02  0.00000000000E+00 0. -1.
</event>
<event>
 7    1  0.6506388E-006  0.1033522E+03  0.7561462E-02  0.1273401E+00
         -2   -1    0    0    0  501 -0.00000000000E+00  0.00000000000E+00  0.42706805799E+02  0.42706805799E+02  0.00000000000E+00 0.  1.
          2   -1    0    0  501    0  0.00000000000E+00 -0.00000000000E+00 -0.39383173474E+03  0.39383173474E+03  0.00000000000E+00 0. -1.
         23    2    1    2    0    0 -0.53960112235E+02  0.37208823168E+02 -0.14257259100E+03  0.20067162808E+03  0.12508384539E+03 0.  0.
          5    1    3    3  502    0  0.40584075177E+02  0.49268853720E+01 -0.37663060608E+02  0.55743339439E+02  0.41800000000E+01 0.  1.
         -5    1    3    3    0  502 -0.94544187413E+02  0.32281937796E+02 -0.10490953039E+03  0.14492828864E+03  0.41800000000E+01 0.  1.
        -11    1    1    2    0    0  0.18859176762E+02 -0.11231661896E+02  0.84315598313E+00  0.21966558427E+02  0.00000000000E+00 0.  1.
         11    1    1    2    0    0  0.35100935473E+02 -0.25977161272E+02 -0.20939549393E+03  0.21390035404E+03  0.00000000000E+00 0. -1.
</event>
<event>
 7    1  0.6506388E-006  0.9900415E+02  0.7561462E-02  0.1282404E+00
         -1   -1    0    0    0  501 -0.00000000000E+00  0.00000000000E+00  0.22798183055E+03  0.22798183055E+03  0.00000000000E+00 0.  1.
          1   -1    0    0  501    0  0.00000000000E+00 -0.00000000000E+00 -0.67557131527E+02  0.67557131527E+02  0.00000000000E+00 0. -1.
         23    2    1    2    0    0  0.16839865516E+02 -0.43223949655E+02  0.13567285824E+03  0.19028076238E+03  0.12509097960E+03 0.  0.
          5    1    3    3  502    0 -0.53950936595E+02 -0.21419113672E+02  0.48069633584E+02  0.75482740165E+02  0.41800000000E+01 0.  1.
         -5    1    3    3    0  502  0.70790802111E+02 -0.21804835983E+02  0.87603224654E+02  0.11479802222E+03  0.41800000000E+01 0.  1.
        -11    1    1    2    0    0 -0.21985805595E+02 -0.10554015616E+00  0.50159108741E+02  0.54766075047E+02  0.00000000000E+00 0.  1.
         11    1    1    2    0    0  0.51459400786E+01  0.43329489811E+02 -0.25407267953E+02  0.50492124647E+02  0.00000000000E+00 0. -1.
</event>
<event>
 6    1  0.6506388E-006  0.1595303E+03  0.7561462E-02  0.1189228E+00
         -1   -1    0    0    0  501 -0.00000000000E+00  0.00000000000E+00  0.56420515141E+03  0.56420515141E+03  0.00000000000E+00 0.  1.
          1   -1    0    0  501    0  0.00000000000E+00 -0.00000000000E+00 -0.54741431771E+02  0.54741431771E+02  0.00000000000E+00 0. -1.
          5    1    1    2  502    0 -0.52663507693E+02  0.13280574105E+03  0.22096793074E+03  0.26316365386E+03  0.41800000000E+01 0. -1.
         -5    1    1    2    0  502 -0.27200994363E+02 -0.55452259078E+02  0.70249486185E+02  0.93633913944E+02  0.41800000000E+01 0.  1.
        -11    1    1    2    0    0  0.39285756457E+00 -0.10129217945E+02 -0.81260613234E+01  0.12991853827E+02  0.00000000000E+00 0. -1.
         11    1    1    2    0    0  0.79471644492E+02 -0.67224264024E+02  0.22637236404E+03  0.24915716155E+03  0.00000000000E+00 0.  1.
</event>
<event>
 7    1  0.6506388E-006  0.1287343E+03  0.7561462E-02  0.1229346E+00
          2   -1    0    0  501    0  0.00000000000E+00  0.00000000000E+00  0.42056357789E+03  0.42056357789E+03  0.00000000000E+00 0.  1.
         -2   -1    0    0    0  501 -0.00000000000E+00 -0.00000000000E+00 -0.52583868183E+02  0.52583868183E+02  0.00000000000E+00 0. -1.
         23    2    1    2    0    0  0.31666378515E+02  0.71444286023E+02  0.97096054641E+02  0.17658492556E+03  0.12509015379E+03 0.  0.
          5    1    3    3  502    0 -0.41595325464E+02  0.14892894377E+02  0.64666371395E+02  0.78429467630E+02  0.41800000000E+01 0.  1.
         -5    1    3    3    0  502  0.73261703978E+02  0.56551391646E+02  0.32429683246E+02  0.98155457934E+02  0.41800000000E+01 0.  1.
        -11    1    1    2    0    0  0.13709750195E+02  0.16520395606E+02  0.41134018109E+02  0.46399225933E+02  0.00000000000E+00 0. -1.
         11    1    1    2    0    0 -0.45376128709E+02 -0.87964681629E+02  0.22974963696E+03  0.25016329457E+03  0.00000000000E+00 0.  1.
</event>
<event>
 7    1  0.6506388E-006  0.9034606E+02  0.7561462E-02  0.1302016E+00
          1   -1    0    0  501    0  0.00000000000E+00  0.00000000000E+00  0.51884626086E+02  0.51884626086E+02  0.00000000000E+00 0. -1.
         -1   -1    0    0    0  501 -0.00000000000E+00 -0.00000000000E+00 -0.44824371721E+03  0.44824371721E+03  0.00000000000E+00 0.  1.
         23    2    1    2    0    0 -0.47651660586E+02 -0.48510871695E+02 -0.34934885777E+03  0.37724716696E+03  0.12508723007E+03 0.  0.
          5    1    3    3  502    0  0.25970903032E+01 -0.18163866706E+02 -0.29958967929E+03  0.30018014470E+03  0.41800000000E+01 0.  1.
         -5    1    3    3    0  502 -0.50248750889E+02 -0.30347004989E+02 -0.49759178472E+02  0.77067022259E+02  0.41800000000E+01 0.  1.
        -11    1    1    2    0    0  0.62841160991E+02  0.57664332520E+02 -0.56946593753E+02  0.10255291951E+03  0.00000000000E+00 0.  1.
         11    1    1    2    0    0 -0.15189500405E+02 -0.91534608255E+01  0.99363603974E+01  0.20328256826E+02  0.00000000000E+00 0. -1.
</event>
<event>
 7    1  0.6506388E-006  0.8750706E+02  0.7561462E-02  0.1309004E+00
         -2   -1    0    0    0  501 -0.00000000000E+00  0.00000000000E+00  0.52539390783E+02  0.52539390783E+02  0.00000000000E+00 0.  1.
          2   -1    0    0  501    0  0.00000000000E+00 -0.00000000000E+00 -0.33932051504E+03  0.33932051504E+03  0.00000000000E+00 0. -1.
         23    2    1    2    0    0  0.14195254907E+02 -0.62606528457E+02 -0.92916270418E+02  0.16853000093E+03  0.12509134757E+03 0.  0.
          5    1    3    3  502    0  0.15078068303E+02 -0.22080716099E+02  0.29189081351E+02  0.39804284157E+02  0.41800000000E+01 0.  1.
         -5    1    3    3    0  502 -0.88281339602E+00 -0.40525812359E+02 -0.12210535177E+03  0.12872571677E+03  0.41800000000E+01 0.  1.
        -11    1    1    2    0    0  0.36400776981E+02  0.24970046602E+02 -0.52862742592E+02  0.68869364354E+02  0.00000000000E+00 0. -1.
         11    1    1    2    0    0 -0.50596031888E+02  0.37636481856E+02 -0.14100211124E+03  0.15446054054E+03  0.00000000000E+00 0.  1.
</event>
<event>
 7    1  0.6506388E-006  0.1399585E+03  0.7561462E-02  0.1213385E+00
          3   -1    0    0  501    0  0.00000000000E+00  0.00000000000E+00  0.28374584379E+03  0.28374584379E+03  0.00000000000E+00 0. -1.
         -3   -1    0    0    0  501 -0.00000000000E+00 -0.00000000000E+00 -0.10890916023E+03  0.10890916023E+03  0.00000000000E+00 0.  1.
         23    2    1    2    0    0 -0.97008641984E+02  0.63251241271E+02  0.86246745730E+01  0.17068486231E+03  0.12509013178E+03 0.  0.
          5    1    3    3  502    0 -0.93750093882E+02  0.93543855548E+02 -0.12927287331E+02  0.13313196525E+03  0.41800000000E+01 0. -1.
         -5    1    3    3    0  502 -0.32585481014E+01 -0.30292614277E+02  0.21551961904E+02  0.37552897057E+02  0.41800000000E+01 0. -1.
        -11    1    1    2    0    0  0.45657645950E+02 -0.21438956182E+02  0.88082912695E+01  0.51203861876E+02  0.00000000000E+00 0.  1.
         11    1    1    2    0    0  0.51350996033E+02 -0.41812285089E+02  0.15740371771E+03  0.17076627983E+03  0.00000000000E+00 0. -1.
</event>
<event>
 7    1  0.6506388E-006  0.1451313E+03  0.7561462E-02  0.1206587E+00
         -1   -1    0    0    0  501 -0.00000000000E+00  0.00000000000E+00  0.67962176880E+02  0.67962176880E+02  0.00000000000E+00 0.  1.
          1   -1    0    0  501    0  0.00000000000E+00 -0.00000000000E+00 -0.37381549323E+03  0.37381549323E+03  0.00000000000E+00 0. -1.
         23    2    1    2    0    0 -0.81639159751E+02  0.82460929566E+02 -0.14331569520E+03  0.22282310368E+03  0.12508393075E+03 0.  0.
          5    1    3    3  502    0 -0.10442603645E+03  0.23736347418E+02 -0.83549102576E+02  0.13589016233E+03  0.41800000000E+01 0.  1.
         -5    1    3    3    0  502  0.22786876695E+02  0.58724582148E+02 -0.59766592626E+02  0.86932941352E+02  0.41800000000E+01 0.  1.
        -11    1    1    2    0    0  0.23225265198E+02 -0.64610355194E+01  0.61996200606E+01  0.24891629364E+02  0.00000000000E+00 0.  1.
         11    1    1    2    0    0  0.58413894553E+02 -0.75999894047E+02 -0.16873724121E+03  0.19406293706E+03  0.00000000000E+00 0. -1.
</event>
<event>
 7    1  0.6506388E-006  0.1291937E+03  0.7561462E-02  0.1228657E+00
          1   -1    0    0  501    0  0.00000000000E+00  0.00000000000E+00  0.82482478578E+03  0.82482478578E+03  0.00000000000E+00 0. -1.
         -1   -1    0    0    0  501 -0.00000000000E+00 -0.00000000000E+00 -0.36024555974E+02  0.36024555974E+02  0.00000000000E+00 0.  1.
         23    2    1    2    0    0 -0.86027653945E+02 -0.71803105040E+02  0.23945310632E+03  0.29247146512E+03  0.12508127218E+03 0.  0.
          5    1    3    3  502    0 -0.39109021524E+02 -0.39155471514E+02  0.10537614920E+02  0.56490532324E+02  0.41800000000E+01 0.  1.
         -5    1    3    3    0  502 -0.46918632422E+02 -0.32647633526E+02  0.22891549140E+03  0.23598093280E+03  0.41800000000E+01 0.  1.
        -11    1    1    2    0    0  0.18489174600E+02  0.75700118320E+02  0.27674089957E+03  0.28750283996E+03  0.00000000000E+00 0. -1.
         11    1    1    2    0    0  0.67538479346E+02 -0.38970132802E+01  0.27260622393E+03  0.28087503668E+03  0.00000000000E+00 0.  1.
</event>
<event>
 7    1  0.6506388E-006  0.1103943E+03  0.7561462E-02  0.1259841E+00
          4   -1    0    0  501    0  0.00000000000E+00  0.00000000000E+00  0.52954723023E+02  0.52954723023E+02  0.00000000000E+00 0. -1.
         -4   -1    0    0    0  501 -0.00000000000E+00 -0.00000000000E+00 -0.36529050864E+03  0.36529050864E+03  0.00000000000E+00 0.  1.
         23    2    1    2    0    0 -0.36402860824E+02 -0.65590339371E+02 -0.23561872542E+03  0.27711022613E+03  0.12508650112E+03 0.  0.
          5    1    3    3  502    0  0.10445912335E+02  0.33900028134E+02 -0.53641819250E+02  0.64445683831E+02  0.41800000000E+01 0. -1.
         -5    1    3    3    0  502 -0.46848773160E+02 -0.99490367505E+02 -0.18197690617E+03  0.21266454230E+03  0.41800000000E+01 0. -1.
        -11    1    1    2    0    0  0.11679717013E+02  0.22038443523E+02  0.20165563500E+02  0.32074269028E+02  0.00000000000E+00 0. -1.
         11    1    1    2    0    0  0.24723143812E+02  0.43551895848E+02 -0.96882623697E+02  0.10906073650E+03  0.00000000000E+00 0.  1.
</event>
<event>
 7    1  0.6506388E-006  0.3292567E+03  0.7561462E-02  0.1071466E+00
         -2   -1    0    0    0  501 -0.00000000000E+00  0.00000000000E+00  0.80425048131E+02  0.80425048131E+02  0.00000000000E+00 0.  1.
          2   -1    0    0  501    0  0.00000000000E+00 -0.00000000000E+00 -0.14347139927E+04  0.14347139927E+04  0.00000000000E+00 0. -1.
         23    2    1    2    0    0  0.25554461453E+03  0.18693513518E+03 -0.81634364264E+03  0.88448444652E+03  0.12509196012E+03 0.  0.
          5    1    3    3  502    0  0.26627381156E+03  0.16847257952E+03 -0.72390234526E+03  0.78951683367E+03  0.41800000000E+01 0.  1.
         -5    1    3    3    0  502 -0.10729197032E+02  0.18462555659E+02 -0.92441297380E+02  0.94967612856E+02  0.41800000000E+01 0.  1.
        -11    1    1    2    0    0 -0.98585586291E+02 -0.39235562132E+02 -0.11839967943E+03  0.15898751916E+03  0.00000000000E+00 0. -1.
         11    1    1    2    0    0 -0.15695902823E+03 -0.14769957304E+03 -0.41954562253E+03  0.47166707518E+03  0.00000000000E+00 0.  1.
</event>
<event>
 7    1  0.6506388E-006  0.1678202E+03  0.7561462E-02  0.1180140E+00
         -2   -1    0    0    0  501 -0.00000000000E+00  0.00000000000E+00  0.73902619893E+02  0.73902619893E+02  0.00000000000E+00 0. -1.
          2   -1    0    0  501    0  0.00000000000E+00 -0.00000000000E+00 -0.58080527908E+03  0.58080527908E+03  0.00000000000E+00 0.  1.
         23    2    1    2    0    0 -0.96894538245E+02  0.13183539543E+03 -0.15830944399E+03  0.25970533809E+03  0.12496343282E+03 0.  0.
          5    1    3    3  502    0 -0.77730459295E+02  0.75898981758E+02 -0.16753078626E+03  0.19971659039E+03  0.41800000000E+01 0. -1.
         -5    1    3    3    0  502 -0.19164078950E+02  0.55936413673E+02  0.92213422631E+01  0.59988747692E+02  0.41800000000E+01 0. -1.
        -11    1    1    2    0    0  0.20857111212E+02 -0.80226091278E+01 -0.13397809317E+03  0.13582897627E+03  0.00000000000E+00 0.  1.
         11    1    1    2    0    0  0.76037427033E+02 -0.12381278630E+03 -0.21461512202E+03  0.25917358461E+03  0.00000000000E+00 0. -1.
</event>
<event>
 7    1  0.6506388E-006  0.1759537E+03  0.7561462E-02  0.1171777E+00
          2   -1    0    0  501    0  0.00000000000E+00  0.00000000000E+00  0.12804787664E+04  0.12804787664E+04  0.00000000000E+00 0.  1.
         -2   -1    0    0    0  501 -0.00000000000E+00 -0.00000000000E+00 -0.33240062282E+02  0.33240062282E+02  0.00000000000E+00 0. -1.
         23    2    1    2    0    0 -0.94567042663E+02  0.11674157304E+03  0.36862916906E+03  0.41726052635E+03  0.12508941655E+03 0.  0.
          5    1    3    3  502    0 -0.10868545880E+03  0.11626241505E+03  0.24134655082E+03  0.28912818627E+03  0.41800000000E+01 0.  1.
         -5    1    3    3    0  502  0.14118416134E+02  0.47915799126E+00  0.12728261824E+03  0.12813234007E+03  0.41800000000E+01 0.  1.
        -11    1    1    2    0    0  0.64770432653E+02 -0.13008681015E+03  0.72352746112E+03  0.73797681137E+03  0.00000000000E+00 0.  1.
         11    1    1    2    0    0  0.29796610010E+02  0.13345237113E+02  0.15508207390E+03  0.15848149093E+03  0.00000000000E+00 0. -1.
</event>
<event>
 7    1  0.6506388E-006  0.1399047E+03  0.7561462E-02  0.1213457E+00
         -1   -1    0    0    0  501 -0.00000000000E+00  0.00000000000E+00  0.56092526332E+03  0.56092526332E+03  0.00000000000E+00 0.  1.
          1   -1    0    0  501    0  0.00000000000E+00 -0.00000000000E+00 -0.38781919053E+02  0.38781919053E+02  0.00000000000E+00 0. -1.
         23    2    1    2    0    0  0.10025619323E+03 -0.28957539714E+01  0.30142662828E+03  0.34141600274E+03  0.12508870860E+03 0.  0.
          5    1    3    3  502    0  0.52863577102E+02 -0.62691524180E+02  0.18156052859E+03  0.19926485623E+03  0.41800000000E+01 0.  1.
         -5    1    3    3    0  502  0.47392616125E+02  0.59795770208E+02  0.11986609969E+03  0.14215114651E+03  0.41800000000E+01 0.  1.
        -11    1    1    2    0    0 -0.57066304913E+02 -0.32296932662E+02  0.17274434849E+03  0.18477084443E+03  0.00000000000E+00 0.  1.
         11    1    1    2    0    0 -0.43189888314E+02  0.35192686633E+02  0.47972367492E+02  0.73520335199E+02  0.00000000000E+00 0. -1.
</event>
<event>
 7    1  0.6506388E-006  0.6211742E+02  0.7561462E-02  0.1389155E+00
         -1   -1    0    0    0  501 -0.00000000000E+00  0.00000000000E+00  0.31239346886E+03  0.31239346886E+03  0.00000000000E+00 0.  1.
          1   -1    0    0  501    0  0.00000000000E+00 -0.00000000000E+00 -0.60636593354E+02  0.60636593354E+02  0.00000000000E+00 0. -1.
         23    2    1    2    0    0  0.39500929171E+02  0.27220918596E+02  0.23272601112E+03  0.26853483281E+03  0.12509299888E+03 0.  0.
          5    1    3    3  502    0 -0.12580547688E+02  0.19284253128E+02 -0.58943053870E+01  0.24132298582E+02  0.41800000000E+01 0.  1.
         -5    1    3    3    0  502  0.52081476859E+02  0.79366654678E+01  0.23862031650E+03  0.24440253423E+03  0.41800000000E+01 0.  1.
        -11    1    1    2    0    0 -0.17395291921E+02 -0.12668947629E+02  0.55447773616E+02  0.59477340341E+02  0.00000000000E+00 0.  1.
         11    1    1    2    0    0 -0.22105637250E+02 -0.14551970967E+02 -0.36416909230E+02  0.45017889057E+02  0.00000000000E+00 0. -1.
</event>
<event>
 7    1  0.6506388E-006  0.1014985E+03  0.7561462E-02  0.1277176E+00
         -3   -1    0    0    0  501 -0.00000000000E+00  0.00000000000E+00  0.59648538931E+02  0.59648538931E+02  0.00000000000E+00 0.  1.
          3   -1    0    0  501    0  0.00000000000E+00 -0.00000000000E+00 -0.32257829298E+03  0.32257829298E+03  0.00000000000E+00 0. -1.
         23    2    1    2    0    0  0.71260313556E+02 -0.24189860181E+02 -0.85625845992E+02  0.16922403620E+03  0.12506721114E+03 0.  0.
          5    1    3    3  502    0  0.55217423906E+02  0.23764260528E+02  0.98924760890E+01  0.61065845318E+02  0.41800000000E+01 0.  1.
         -5    1    3    3    0  502  0.16042889650E+02 -0.47954120709E+02 -0.95518322081E+02  0.10815819088E+03  0.41800000000E+01 0.  1.
        -11    1    1    2    0    0 -0.69042511307E+02  0.13542784214E+01 -0.17706935906E+03  0.19005857085E+03  0.00000000000E+00 0. -1.
         11    1    1    2    0    0 -0.22178022491E+01  0.22835581760E+02 -0.23454899914E+00  0.22944224859E+02  0.00000000000E+00 0.  1.
</event>
<event>
 7    1  0.6506388E-006  0.8300973E+02  0.7561462E-02  0.1320721E+00
          1   -1    0    0  501    0  0.00000000000E+00  0.00000000000E+00  0.50853633578E+02  0.50853633578E+02  0.00000000000E+00 0. -1.
         -1   -1    0    0    0  501 -0.00000000000E+00 -0.00000000000E+00 -0.28455897574E+03  0.28455897574E+03  0.00000000000E+00 0.  1.
         23    2    1    2    0    0 -0.48908857930E+02 -0.13246760831E+02 -0.15178045558E+03  0.20311221585E+03  0.12509881084E+03 0.  0.
          5    1    3    3  502    0 -0.30323695787E+02 -0.25214216835E+02  0.90817294012E+01  0.40684560533E+02  0.41800000000E+01 0. -1.
         -5    1    3    3    0  502 -0.18585162142E+02  0.11967456004E+02 -0.16086218498E+03  0.16242765531E+03  0.41800000000E+01 0. -1.
        -11    1    1    2    0    0  0.64072070134E+02 -0.20167390195E+02 -0.54166543200E+02  0.86290023762E+02  0.00000000000E+00 0.  1.
         11    1    1    2    0    0 -0.15163212205E+02  0.33414151027E+02 -0.27758343382E+02  0.46010369706E+02  0.00000000000E+00 0. -1.
</event>
<event>
 7    1  0.6506388E-006  0.6717016E+02  0.7561462E-02  0.1369989E+00
          1   -1    0    0  501    0  0.00000000000E+00  0.00000000000E+00  0.12278030077E+03  0.12278030077E+03  0.00000000000E+00 0. -1.
         -1   -1    0    0    0  501 -0.00000000000E+00 -0.00000000000E+00 -0.10002182733E+03  0.10002182733E+03  0.00000000000E+00 0.  1.
         23    2    1    2    0    0 -0.64673278342E+01 -0.78171591672E+01 -0.25710350750E+01  0.12553008185E+03  0.12509299309E+03 0.  0.
          5    1    3    3  502    0 -0.27550859031E+01  0.21980519851E+02 -0.58068806084E+02  0.62291190318E+02  0.41800000000E+01 0. -1.
         -5    1    3    3    0  502 -0.37122419312E+01 -0.29797679018E+02  0.55497771009E+02  0.63238891530E+02  0.41800000000E+01 0. -1.
        -11    1    1    2    0    0 -0.22451333713E+02  0.35136515284E+02  0.37070805766E+02  0.55793205069E+02  0.00000000000E+00 0.  1.
         11    1    1    2    0    0  0.28918661547E+02 -0.27319356116E+02 -0.11741297257E+02  0.41478841179E+02  0.00000000000E+00 0. -1.
</event>
<event>
 7    1  0.6506388E-006  0.9834811E+02  0.7561462E-02  0.1283808E+00
          2   -1    0    0  501    0  0.00000000000E+00  0.00000000000E+00  0.41516133618E+03  0.41516133618E+03  0.00000000000E+00 0. -1.
         -2   -1    0    0    0  501 -0.00000000000E+00 -0.00000000000E+00 -0.30222152609E+02  0.30222152609E+02  0.00000000000E+00 0.  1.
         23    2    1    2    0    0 -0.15612266152E+02  0.14963652455E+02  0.18477918813E+03  0.22418270634E+03  0.12508750420E+03 0.  0.
          5    1    3    3  502    0 -0.62070624185E+02  0.87931470834E+01  0.15802194471E+03  0.17005437140E+03  0.41800000000E+01 0.  1.
         -5    1    3    3    0  502  0.46458358033E+02  0.61705053715E+01  0.26757243415E+02  0.54128334935E+02  0.41800000000E+01 0.  1.
        -11    1    1    2    0    0 -0.10839803754E+02  0.31519635386E+02  0.12216185022E+03  0.12662743150E+03  0.00000000000E+00 0.  1.
         11    1    1    2    0    0  0.26452069906E+02 -0.46483287841E+02  0.77998145222E+02  0.94573350945E+02  0.00000000000E+00 0. -1.
</event>
<event>
 7    1  0.6506388E-006  0.6931605E+02  0.7561462E-02  0.1362434E+00
          3   -1    0    0  501    0  0.00000000000E+00  0.00000000000E+00  0.19328986901E+03  0.19328986901E+03  0.00000000000E+00 0. -1.
         -3   -1    0    0    0  501 -0.00000000000E+00 -0.00000000000E+00 -0.66524064236E+02  0.66524064236E+02  0.00000000000E+00 0.  1.
         23    2    1    2    0    0 -0.78182248195E+01  0.20829629009E+02  0.43363571712E+02  0.13425075132E+03  0.12509143373E+03 0.  0.
          5    1    3    3  502    0 -0.52522109673E+02  0.30974390425E+02  0.59670650800E+02  0.85416882603E+02  0.41800000000E+01 0.  1.
         -5    1    3    3    0  502  0.44703884853E+02 -0.10144761416E+02 -0.16307079089E+02  0.48833868714E+02  0.41800000000E+01 0.  1.
        -11    1    1    2    0    0 -0.26376061441E+01 -0.20861037950E+02  0.10204478276E+03  0.10418866329E+03  0.00000000000E+00 0. -1.
         11    1    1    2    0    0  0.10455830964E+02  0.31408940506E-01 -0.18642549697E+02  0.21374518635E+02  0.00000000000E+00 0.  1.
</event>
<event>
 7    1  0.6506388E-006  0.1518328E+03  0.7561462E-02  0.1198239E+00
          1   -1    0    0  501    0  0.00000000000E+00  0.00000000000E+00  0.40810307008E+03  0.40810307008E+03  0.00000000000E+00 0. -1.
         -1   -1    0    0    0  501 -0.00000000000E+00 -0.00000000000E+00 -0.59759995176E+02  0.59759995176E+02  0.00000000000E+00 0.  1.
         23    2    1    2    0    0 -0.23975141505E+02 -0.10567651542E+03  0.14534179136E+03  0.22026165811E+03  0.12509447789E+03 0.  0.
          5    1    3    3  502    0  0.49899895736E+02 -0.50377141562E+02  0.46086219788E+02  0.84671530285E+02  0.41800000000E+01 0.  1.
         -5    1    3    3    0  502 -0.73875037241E+02 -0.55299373855E+02  0.99255571574E+02  0.13559012783E+03  0.41800000000E+01 0.  1.
        -11    1    1    2    0    0 -0.30398081180E+02  0.66884101152E+02  0.12418790285E+03  0.14429193165E+03  0.00000000000E+00 0. -1.
         11    1    1    2    0    0  0.54373222685E+02  0.38792414266E+02  0.78813380693E+02  0.10330947549E+03  0.00000000000E+00 0.  1.
</event>
<event>
 7    1  0.6506388E-006  0.1205701E+03  0.7561462E-02  0.1242160E+00
          2   -1    0    0  501    0  0.00000000000E+00  0.00000000000E+00  0.10589478461E+03  0.10589478461E+03  0.00000000000E+00 0. -1.
         -2   -1    0    0    0  501 -0.00000000000E+00 -0.00000000000E+00 -0.18592420076E+03  0.18592420076E+03  0.00000000000E+00 0.  1.
         23    2    1    2    0    0 -0.47841900662E+02 -0.50139493664E+02 -0.11129099708E+03  0.17240180958E+03  0.11195481960E+03 0.  0.
          5    1    3    3  502    0 -0.34137787070E+02  0.29627987836E+02 -0.18022300421E+02  0.48841395165E+02  0.41800000000E+01 0. -1.
         -5    1    3    3    0  502 -0.13704113592E+02 -0.79767481500E+02 -0.93268696664E+02  0.12356041442E+03  0.41800000000E+01 0.  1.
        -11    1    1    2    0    0  0.70413094195E+02  0.13542041117E+02  0.13856904137E+02  0.73030161605E+02  0.00000000000E+00 0.  1.
         11    1    1    2    0    0 -0.22571193533E+02  0.36597452547E+02  0.17404676792E+02  0.46387014182E+02  0.00000000000E+00 0. -1.
</event>
<event>
 7    1  0.6506388E-006  0.1131995E+03  0.7561462E-02  0.1254757E+00
          2   -1    0    0  501    0  0.00000000000E+00  0.00000000000E+00  0.87447406985E+03  0.87447406985E+03  0.00000000000E+00 0. -1.
         -2   -1    0    0    0  501 -0.00000000000E+00 -0.00000000000E+00 -0.16146310134E+02  0.16146310134E+02  0.00000000000E+00 0.  1.
         23    2    1    2    0    0  0.37528509528E+02  0.27204513682E+02  0.50920663058E+03  0.52639093966E+03  0.12509018400E+03 0.  0.
          5    1    3    3  502    0 -0.13352148535E+02 -0.38186463904E+02  0.27358703342E+03  0.27659324495E+03  0.41800000000E+01 0.  1.
         -5    1    3    3    0  502  0.50880658064E+02  0.65390977586E+02  0.23561959716E+03  0.24979769470E+03  0.41800000000E+01 0.  1.
        -11    1    1    2    0    0 -0.63948215150E+02  0.12254873771E+01  0.24142076634E+03  0.24974959952E+03  0.00000000000E+00 0.  1.
         11    1    1    2    0    0  0.26419705622E+02 -0.28430001059E+02  0.10770036280E+03  0.11447984081E+03  0.00000000000E+00 0. -1.
</event>
<event>
 7    1  0.6506388E-006  0.1770691E+03  0.7561462E-02  0.1170670E+00
         -2   -1    0    0    0  501 -0.00000000000E+00  0.00000000000E+00  0.32509215575E+02  0.32509215575E+02  0.00000000000E+00 0.  1.
          2   -1    0    0  501    0  0.00000000000E+00 -0.00000000000E+00 -0.10599893710E+04  0.10599893710E+04  0.00000000000E+00 0. -1.
         23    2    1    2    0    0  0.86402092313E+02 -0.11948738755E+03 -0.46016503996E+03  0.49914442613E+03  0.12510290481E+03 0.  0.
          5    1    3    3  502    0  0.10358755219E+03 -0.51956326843E+02 -0.35012661449E+03  0.36883052943E+03  0.41800000000E+01 0. -1.
         -5    1    3    3    0  502 -0.17185459881E+02 -0.67531060705E+02 -0.11003842547E+03  0.13031389669E+03  0.41800000000E+01 0. -1.
        -11    1    1    2    0    0 -0.11439581308E+02  0.85148982383E+02 -0.21524060377E+03  0.23175359918E+03  0.00000000000E+00 0.  1.
         11    1    1    2    0    0 -0.74962511005E+02  0.34338405165E+02 -0.35207451171E+03  0.36160056128E+03  0.00000000000E+00 0. -1.
</event>
<event>
 7    1  0.6506388E-006  0.1296484E+03  0.7561462E-02  0.1227978E+00
         -2   -1    0    0    0  501 -0.00000000000E+00  0.00000000000E+00  0.25030747979E+02  0.25030747979E+02  0.00000000000E+00 0.  1.
          2   -1    0    0  501    0  0.00000000000E+00 -0.00000000000E+00 -0.84475157793E+03  0.84475157793E+03  0.00000000000E+00 0. -1.
         23    2    1    2    0    0 -0.51662584482E+02 -0.78610598520E+02 -0.38063803922E+03  0.41155936925E+03  0.12508856334E+03 0.  0.
          5    1    3    3  502    0 -0.20120075573E+02 -0.10026470738E+03 -0.34214674614E+03  0.35712700441E+03  0.41800000000E+01 0. -1.
         -5    1    3    3    0  502 -0.31542508909E+02  0.21654108855E+02 -0.38491293084E+02  0.54432364838E+02  0.41800000000E+01 0. -1.
        -11    1    1    2    0    0 -0.14504748357E+02  0.38363216742E+02 -0.70243356971E+02  0.81340354820E+02  0.00000000000E+00 0.  1.
         11    1    1    2    0    0  0.66167332838E+02  0.40247381779E+02 -0.36883943376E+03  0.37688260184E+03  0.00000000000E+00 0. -1.
</event>
<event>
 7    1  0.6506388E-006  0.1221642E+03  0.7561462E-02  0.1239569E+00
         -2   -1    0    0    0  501 -0.00000000000E+00  0.00000000000E+00  0.36302535862E+02  0.36302535862E+02  0.00000000000E+00 0. -1.
          2   -1    0    0  501    0  0.00000000000E+00 -0.00000000000E+00 -0.46253700676E+03  0.46253700676E+03  0.00000000000E+00 0.  1.
         23    2    1    2    0    0 -0.11708238619E+02 -0.61807262946E+02 -0.17520608166E+03  0.22428218406E+03  0.12509239158E+03 0.  0.
          5    1    3    3  502    0  0.93749107419E+01 -0.96586525788E+02 -0.13960123770E+03  0.17006711582E+03  0.41800000000E+01 0. -1.
         -5    1    3    3    0  502 -0.21083149361E+02  0.34779262842E+02 -0.35604843961E+02  0.54215068240E+02  0.41800000000E+01 0. -1.
        -11    1    1    2    0    0  0.39197616623E+02  0.67672616708E+02 -0.14362088252E+03  0.16353285326E+03  0.00000000000E+00 0.  1.
         11    1    1    2    0    0 -0.27489378004E+02 -0.58653537628E+01 -0.10740750672E+03  0.11102450530E+03  0.00000000000E+00 0. -1.
</event>
<event>
 6    1  0.6506388E-006  0.1398250E+03  0.7561462E-02  0.1213565E+00
         -1   -1    0    0    0  501 -0.00000000000E+00  0.00000000000E+00  0.28783443547E+03  0.28783443547E+03  0.00000000000E+00 0.  1.
          1   -1    0    0  501    0  0.00000000000E+00 -0.00000000000E+00 -0.69968025150E+02  0.69968025150E+02  0.00000000000E+00 0. -1.
          5    1    1    2  502    0  0.79151207943E+02 -0.38719532224E+02  0.72773859607E+02  0.11435743499E+03  0.41800000000E+01 0. -1.
         -5    1    1    2    0  502 -0.14327111785E+02  0.73028358595E+02  0.76917520762E+02  0.10710828489E+03  0.41800000000E+01 0.  1.
        -11    1    1    2    0    0 -0.56574669642E+01 -0.54187549560E+02  0.22274581932E+02  0.58859616547E+02  0.00000000000E+00 0. -1.
         11    1    1    2    0    0 -0.59166629194E+02  0.19878723189E+02  0.45900448014E+02  0.77477124196E+02  0.00000000000E+00 0.  1.
</event>
<event>
 7    1  0.6506388E-006  0.1093219E+03  0.7561462E-02  0.1261831E+00
          1   -1    0    0  501    0  0.00000000000E+00  0.00000000000E+00  0.18586036340E+03  0.18586036340E+03  0.00000000000E+00 0. -1.
         -1   -1    0    0    0  501 -0.00000000000E+00 -0.00000000000E+00 -0.94886171784E+02  0.94886171784E+02  0.00000000000E+00 0.  1.
         23    2    1    2    0    0  0.53627120670E+02  0.44385429268E+02  0.18820410048E+02  0.14438908316E+03  0.12509222638E+03 0.  0.
          5    1    3    3  502    0  0.14534228753E+02  0.80324831871E+02 -0.12362855286E+02  0.82665803155E+02  0.41800000000E+01 0.  1.
         -5    1    3    3    0  502  0.39092891917E+02 -0.35939402603E+02  0.31183265335E+02  0.61723280007E+02  0.41800000000E+01 0.  1.
        -11    1    1    2    0    0 -0.64248608887E+01 -0.34910663023E+02 -0.13600341380E+02  0.38013188709E+02  0.00000000000E+00 0.  1.
         11    1    1    2    0    0 -0.47202259781E+02 -0.94747662446E+01  0.85754122946E+02  0.98344263310E+02  0.00000000000E+00 0. -1.
</event>
<event>
 7    1  0.6506388E-006  0.4860253E+02  0.7561462E-02  0.1453028E+00
         -1   -1    0    0    0  501 -0.00000000000E+00  0.00000000000E+00  0.51869214536E+02  0.51869214536E+02  0.00000000000E+00 0.  1.
          1   -1    0    0  501    0  0.00000000000E+00 -0.00000000000E+00 -0.25068492785E+03  0.25068492785E+03  0.00000000000E+00 0. -1.
         23    2    1    2    0    0  0.35483036070E+02  0.11828389881E+02 -0.12791479935E+03  0.18277952890E+03  0.12508878301E+03 0.  0.
          5    1    3    3  502    0  0.37217578435E+02  0.79535241471E+01 -0.15262874461E+03  0.15735759522E+03  0.41800000000E+01 0.  1.
         -5    1    3    3    0  502 -0.17345423654E+01  0.38748657341E+01  0.24713945259E+02  0.25421933679E+02  0.41800000000E+01 0.  1.
        -11    1    1    2    0    0 -0.34950802797E+02 -0.22958973345E+02 -0.89105670272E+02  0.98430145524E+02  0.00000000000E+00 0. -1.
         11    1    1    2    0    0 -0.53223327277E+00  0.11130583464E+02  0.18204756309E+02  0.21344467967E+02  0.00000000000E+00 0.  1.
</event>
<event>
 7    1  0.6506388E-006  0.9194456E+02  0.7561462E-02  0.1298210E+00
         -2   -1    0    0    0  501 -0.00000000000E+00  0.00000000000E+00  0.19672637491E+02  0.19672637491E+02  0.00000000000E+00 0.  1.
          2   -1    0    0  501    0  0.00000000000E+00 -0.00000000000E+00 -0.60703149231E+03  0.60703149231E+03  0.00000000000E+00 0. -1.
         23    2    1    2    0    0 -0.16429696514E+02 -0.13915711459E+02 -0.32101565040E+03  0.34520056846E+03  0.12509517461E+03 0.  0.
          5    1    3    3  502    0  0.30437144846E+02 -0.41879579607E+02 -0.64016159546E+02  0.82437006602E+02  0.41800000000E+01 0.  1.
         -5    1    3    3    0  502 -0.46866841361E+02  0.27963868147E+02 -0.25699949086E+03  0.26276356186E+03  0.41800000000E+01 0.  1.
        -11    1    1    2    0    0  0.33096319912E+02 -0.20530628925E+02 -0.20877954945E+03  0.21238119829E+03  0.00000000000E+00 0. -1.
         11    1    1    2    0    0 -0.16666623397E+02  0.34446340385E+02 -0.57563654965E+02  0.69122363055E+02  0.00000000000E+00 0.  1.
</event>
<event>
 7    1  0.6506388E-006  0.1002030E+03  0.7561462E-02  0.1279870E+00
          2   -1    0    0  501    0  0.00000000000E+00  0.00000000000E+00  0.12179225535E+02  0.12179225535E+02  0.00000000000E+00 0.  1.
         -2   -1    0    0    0  501 -0.00000000000E+00 -0.00000000000E+00 -0.11900328749E+04  0.11900328749E+04  0.00000000000E+00 0. -1.
         23    2    1    2    0    0 -0.16598328511E+02  0.44971040886E+02 -0.79839491082E+03  0.80955534606E+03  0.12509007028E+03 0.  0.
          5    1    3    3  502    0  0.73728593505E+01 -0.26114959769E+02 -0.53363019066E+03  0.53433603936E+03  0.41800000000E+01 0.  1.
         -5    1    3    3    0  502 -0.23971187862E+02  0.71086000654E+02 -0.26476472016E+03  0.27521930670E+03  0.41800000000E+01 0.  1.
        -11    1    1    2    0    0 -0.34585001068E+02 -0.10642192233E+02 -0.19035389132E+03  0.19376269634E+03  0.00000000000E+00 0.  1.
         11    1    1    2    0    0  0.51183329579E+02 -0.34328848653E+02 -0.18910484725E+03  0.19889405806E+03  0.00000000000E+00 0. -1.
</event>
<event>
 7    1  0.6506388E-006  0.1466338E+03  0.7561462E-02  0.1204671E+00
          1   -1    0    0  501    0  0.00000000000E+00  0.00000000000E+00  0.28713005311E+02  0.28713005311E+02  0.00000000000E+00 0. -1.
         -1   -1    0    0    0  501 -0.00000000000E+00 -0.00000000000E+00 -0.10942657270E+04  0.10942657270E+04  0.00000000000E+00 0.  1.
         23    2    1    2    0    0 -0.19661655277E+02  0.17282026503E+02 -0.61750675991E+03  0.63047869466E+03  0.12451319913E+03 0.  0.
          5    1    3    3  502    0 -0.12270928407E+02 -0.49003275320E+02 -0.39244856170E+03  0.39570853245E+03  0.41800000000E+01 0.  1.
         -5    1    3    3    0  502 -0.73907268696E+01  0.66285301823E+02 -0.22505819821E+03  0.23477016221E+03  0.41800000000E+01 0.  1.
        -11    1    1    2    0    0  0.81945998277E-01 -0.95307260961E+02 -0.36354680862E+03  0.37583209385E+03  0.00000000000E+00 0.  1.
         11    1    1    2    0    0  0.19579709279E+02  0.78025234457E+02 -0.84499153171E+02  0.11666794382E+03  0.00000000000E+00 0. -1.
</event>
<event>
 7    1  0.6506388E-006  0.1939775E+03  0.7561462E-02  0.1154922E+00
         -1   -1    0    0    0  501 -0.00000000000E+00  0.00000000000E+00  0.53385181777E+03  0.53385181777E+03  0.00000000000E+00 0.  1.
          1   -1    0    0  501    0  0.00000000000E+00 -0.00000000000E+00 -0.80062632573E+02  0.80062632573E+02  0.00000000000E+00 0. -1.
         23    2    1    2    0    0  0.15526090733E+03 -0.77561227880E+02  0.19289787456E+03  0.28805679074E+03  0.12508169837E+03 0.  0.
          5    1    3    3  502    0  0.13316705700E+03 -0.11047150862E+03  0.16710704931E+03  0.24058191457E+03  0.41800000000E+01 0.  1.
         -5    1    3    3    0  502  0.22093850328E+02  0.32910280738E+02  0.25790825242E+02  0.47474876169E+02  0.41800000000E+01 0.  1.
        -11    1    1    2    0    0 -0.92947961311E+02  0.33909626060E+02  0.21584446071E+03  0.23744055566E+03  0.00000000000E+00 0.  1.
         11    1    1    2    0    0 -0.62312946016E+02  0.43651601819E+02  0.45046849934E+02  0.88417103954E+02  0.00000000000E+00 0. -1.
</event>
<event>
 7    1  0.6506388E-006  0.1122184E+03  0.7561462E-02  0.1256516E+00
         -2   -1    0    0    0  501 -0.00000000000E+00  0.00000000000E+00  0.39733013118E+02  0.39733013118E+02  0.00000000000E+00 0.  1.
          2   -1    0    0  501    0  0.00000000000E+00 -0.00000000000E+00 -0.41714336225E+03  0.41714336225E+03  0.00000000000E+00 0. -1.
         23    2    1    2    0    0  0.37188133140E+02 -0.57104019345E+02 -0.23211752687E+03  0.27234119062E+03  0.12508937427E+03 0.  0.
          5    1    3    3  502    0  0.66365233192E+02  0.75469817998E+01 -0.78967672165E+02  0.10351167450E+03  0.41800000000E+01 0. -1.
         -5    1    3    3    0  502 -0.29177100052E+02 -0.64651001145E+02 -0.15314985471E+03  0.16882951612E+03  0.41800000000E+01 0. -1.
        -11    1    1    2    0    0 -0.44688948787E+02  0.20626613125E+02 -0.18822365470E+02  0.52695737537E+02  0.00000000000E+00 0.  1.
         11    1    1    2    0    0  0.75008156467E+01  0.36477406220E+02 -0.12647045679E+03  0.13183944721E+03  0.00000000000E+00 0. -1.
</event>
<event>
 6    1  0.6506388E-006  0.5264814E+03  0.7561462E-02  0.1007089E+00
         -1   -1    0    0    0  501 -0.00000000000E+00  0.00000000000E+00  0.64369993429E+03  0.64369993429E+03  0.00000000000E+00 0.  1.
          1   -1    0    0  501    0  0.00000000000E+00 -0.00000000000E+00 -0.77827302254E+03  0.77827302254E+03  0.00000000000E+00 0. -1.
          5    1    1    2  502    0  0.38822591999E+02 -0.26652337543E+03  0.28925468011E+03  0.39525643026E+03  0.41800000000E+01 0. -1.
         -5    1    1    2    0  502 -0.28014342266E+03 -0.13816555202E+03  0.88544201253E+02  0.32469617337E+03  0.41800000000E+01 0.  1.
        -11    1    1    2    0    0  0.80221226341E+02  0.12999824491E+03 -0.10690003314E+03  0.18644732747E+03  0.00000000000E+00 0. -1.
         11    1    1    2    0    0  0.16109960432E+03  0.27469068253E+03 -0.40547193648E+03  0.51557302572E+03  0.00000000000E+00 0.  1.
</event>
<event>
 7    1  0.6506388E-006  0.1122367E+03  0.7561462E-02  0.1256483E+00
         -2   -1    0    0    0  501 -0.00000000000E+00  0.00000000000E+00  0.97863957522E+02  0.97863957522E+02  0.00000000000E+00 0.  1.
          2   -1    0    0  501    0  0.00000000000E+00 -0.00000000000E+00 -0.15071444648E+03  0.15071444648E+03  0.00000000000E+00 0. -1.
         23    2    1    2    0    0  0.29334966502E+01 -0.41093272793E+02  0.90465167077E+01  0.13200727271E+03  0.12508724200E+03 0.  0.
          5    1    3    3  502    0  0.63772572276E+02 -0.19912898530E+02  0.95897478641E+00  0.66946669336E+02  0.41800000000E+01 0. -1.
         -5    1    3    3    0  502 -0.60839075626E+02 -0.21180374263E+02  0.80875419213E+01  0.65060603373E+02  0.41800000000E+01 0. -1.
        -11    1    1    2    0    0  0.27917838666E+02 -0.12929246711E+02 -0.40334371069E+02  0.50729011678E+02  0.00000000000E+00 0. -1.
         11    1    1    2    0    0 -0.30851335316E+02  0.54022519505E+02 -0.21562634594E+02  0.65842119612E+02  0.00000000000E+00 0.  1.
</event>
<event>
 7    1  0.6506388E-006  0.1118895E+03  0.7561462E-02  0.1257110E+00
         -2   -1    0    0    0  501 -0.00000000000E+00  0.00000000000E+00  0.29895991593E+03  0.29895991593E+03  0.00000000000E+00 0.  1.
          2   -1    0    0  501    0  0.00000000000E+00 -0.00000000000E+00 -0.10675551349E+03  0.10675551349E+03  0.00000000000E+00 0. -1.
         23    2    1    2    0    0  0.59723584311E+01  0.50021323656E+02  0.25175376139E+03  0.28559771927E+03  0.12509316126E+03 0.  0.
          5    1    3    3  502    0 -0.58089498798E+02  0.31554054450E+02  0.10200246749E+03  0.12162246502E+03  0.41800000000E+01 0.  1.
         -5    1    3    3    0  502  0.64061857229E+02  0.18467269206E+02  0.14975129390E+03  0.16397525426E+03  0.41800000000E+01 0.  1.
        -11    1    1    2    0    0 -0.40126530004E+02 -0.18210231806E+02  0.49309248609E+00  0.44068062050E+02  0.00000000000E+00 0.  1.
         11    1    1    2    0    0  0.34154171573E+02 -0.31811091849E+02 -0.60042451441E+02  0.76049648096E+02  0.00000000000E+00 0. -1.
</event>
<event>
 6    1  0.6506388E-006  0.1620744E+03  0.7561462E-02  0.1186374E+00
         -2   -1    0    0    0  501 -0.00000000000E+00  0.00000000000E+00  0.20389937459E+03  0.20389937459E+03  0.00000000000E+00 0.  1.
          2   -1    0    0  501    0  0.00000000000E+00 -0.00000000000E+00 -0.28243806446E+03  0.28243806446E+03  0.00000000000E+00 0. -1.
          5    1    1    2  502    0  0.11185810383E+03  0.13455770392E+02 -0.11394543485E+03  0.16029450293E+03  0.41800000000E+01 0. -1.
         -5    1    1    2    0  502 -0.36084790127E+02 -0.85894712295E+02  0.12857379614E+03  0.15883547189E+03  0.41800000000E+01 0.  1.
        -11    1    1    2    0    0  0.85331739695E+01  0.10514364534E+02  0.12566164848E+02  0.18473641183E+02  0.00000000000E+00 0.  1.
         11    1    1    2    0    0 -0.84306487669E+02  0.61924577369E+02 -0.10573321601E+03  0.14873382303E+03  0.00000000000E+00 0. -1.
</event>
<event>
 6    1  0.6506388E-006  0.1446764E+03  0.7561462E-02  0.1207171E+00
         -1   -1    0    0    0  501 -0.00000000000E+00  0.00000000000E+00  0.22769254837E+02  0.22769254837E+02  0.00000000000E+00 0.  1.
          1   -1    0    0  501    0  0.00000000000E+00 -0.00000000000E+00 -0.97758324250E+03  0.97758324250E+03  0.00000000000E+00 0. -1.
          5    1    1    2  502    0 -0.62142320315E+02 -0.10770345422E+03 -0.38684510372E+03  0.40635982663E+03  0.41800000000E+01 0. -1.
         -5    1    1    2    0  502  0.99268827055E+01  0.45325563539E+02 -0.16910036922E+03  0.17540056151E+03  0.41800000000E+01 0.  1.
        -11    1    1    2    0    0 -0.14384030819E+02  0.48143152990E+02 -0.98213667853E+02  0.11032038830E+03  0.00000000000E+00 0.  1.
         11    1    1    2    0    0  0.66599468429E+02  0.14234737692E+02 -0.30065484687E+03  0.30827172089E+03  0.00000000000E+00 0. -1.
</event>
<event>
 7    1  0.6506388E-006  0.2725233E+03  0.7561462E-02  0.1099844E+00
         -4   -1    0    0    0  501 -0.00000000000E+00  0.00000000000E+00  0.49511237926E+02  0.49511237926E+02  0.00000000000E+00 0.  1.
          4   -1    0    0  501    0  0.00000000000E+00 -0.00000000000E+00 -0.15562647935E+04  0.15562647935E+04  0.00000000000E+00 0. -1.
         23    2    1    2    0    0  0.24092221488E+03  0.79116694811E+02 -0.67979684450E+03  0.73625600080E+03  0.12508470691E+03 0.  0.
          5    1    3    3  502    0  0.17668143239E+03  0.11242085196E+03 -0.47965487041E+03  0.52339377491E+03  0.41800000000E+01 0.  1.
         -5    1    3    3    0  502  0.64240782485E+02 -0.33304157150E+02 -0.20014197409E+03  0.21286222589E+03  0.41800000000E+01 0.  1.
        -11    1    1    2    0    0 -0.11597281032E+03 -0.74960879263E+02 -0.34493087511E+03  0.37154560253E+03  0.00000000000E+00 0.  1.
         11    1    1    2    0    0 -0.12494940456E+03 -0.41558155484E+01 -0.48202583594E+03  0.49797442807E+03  0.00000000000E+00 0. -1.
</event>
<event>
 7    1  0.6506388E-006  0.2562252E+03  0.7561462E-02  0.1109433E+00
          2   -1    0    0  501    0  0.00000000000E+00  0.00000000000E+00  0.68802829665E+03  0.68802829665E+03  0.00000000000E+00 0. -1.
         -2   -1    0    0    0  501 -0.00000000000E+00 -0.00000000000E+00 -0.11331621183E+03  0.11331621183E+03  0.00000000000E+00 0.  1.
         23    2    1    2    0    0 -0.18241565684E+03  0.15132853567E+03  0.15191125895E+03  0.30803973358E+03  0.12504258995E+03 0.  0.
          5    1    3    3  502    0 -0.33005249337E+02  0.91467977462E+02  0.98314034830E+02  0.13834326593E+03  0.41800000000E+01 0.  1.
         -5    1    3    3    0  502 -0.14941040750E+03  0.59860558205E+02  0.53597224120E+02  0.16969646765E+03  0.41800000000E+01 0.  1.
        -11    1    1    2    0    0  0.40836092591E+02 -0.91898197091E+02  0.16339563719E+03  0.19186192780E+03  0.00000000000E+00 0. -1.
         11    1    1    2    0    0  0.14157956425E+03 -0.59430338576E+02  0.25940518868E+03  0.30144284711E+03  0.00000000000E+00 0.  1.
</event>
<event>
 7    1  0.6506388E-006  0.1482719E+03  0.7561462E-02  0.1202613E+00
         -3   -1    0    0    0  501 -0.00000000000E+00  0.00000000000E+00  0.10696147153E+03  0.10696147153E+03  0.00000000000E+00 0.  1.
          3   -1    0    0  501    0  0.00000000000E+00 -0.00000000000E+00 -0.29628227827E+03  0.29628227827E+03  0.00000000000E+00 0. -1.
         23    2    1    2    0    0  0.51957503897E+02  0.11394336832E+03 -0.28048081882E+02  0.17920518960E+03  0.12508050082E+03 0.  0.
          5    1    3    3  502    0  0.42522051555E+02  0.17836866086E+02 -0.61447398970E+02  0.76938507266E+02  0.41800000000E+01 0.  1.
         -5    1    3    3    0  502  0.94354523422E+01  0.96106502236E+02  0.33399317088E+02  0.10226668233E+03  0.41800000000E+01 0.  1.
        -11    1    1    2    0    0  0.16333295087E+02  0.44309481589E+01 -0.80969653013E+01  0.18760881565E+02  0.00000000000E+00 0. -1.
         11    1    1    2    0    0 -0.68290798984E+02 -0.11837431648E+03 -0.15317575956E+03  0.20527767863E+03  0.00000000000E+00 0.  1.
</event>
<event>
 7    1  0.6506388E-006  0.1381907E+03  0.7561462E-02  0.1215784E+00
          1   -1    0    0  501    0  0.00000000000E+00  0.00000000000E+00  0.76161058023E+03  0.76161058023E+03  0.00000000000E+00 0. -1.
         -1   -1    0    0    0  501 -0.00000000000E+00 -0.00000000000E+00 -0.26222687406E+02  0.26222687406E+02  0.00000000000E+00 0.  1.
         23    2    1    2    0    0  0.16934345736E+02 -0.88478689981E+02  0.42809881771E+03  0.45500372127E+03  0.12507812759E+03 0.  0.
          5    1    3    3  502    0 -0.23934599262E+02 -0.10495588368E+03  0.33544146592E+03  0.35231669279E+03  0.41800000000E+01 0.  1.
         -5    1    3    3    0  502  0.40868944997E+02  0.16477193699E+02  0.92657351785E+02  0.10268702848E+03  0.41800000000E+01 0.  1.
        -11    1    1    2    0    0 -0.42978629953E+02  0.88453673687E+02  0.26994666892E+03  0.28730196498E+03  0.00000000000E+00 0.  1.
         11    1    1    2    0    0  0.26044284217E+02  0.25016294368E-01  0.37342406197E+02  0.45527581385E+02  0.00000000000E+00 0. -1.
</event>
<event>
 7    1  0.6506388E-006  0.1256971E+03  0.7561462E-02  0.1233984E+00
         -2   -1    0    0    0  501 -0.00000000000E+00  0.00000000000E+00  0.17496089765E+03  0.17496089765E+03  0.00000000000E+00 0.  1.
          2   -1    0    0  501    0  0.00000000000E+00 -0.00000000000E+00 -0.12561075756E+03  0.12561075756E+03  0.00000000000E+00 0. -1.
         23    2    1    2    0    0  0.84046478139E+01 -0.97359109602E+02  0.50912423675E+02  0.16670057309E+03  0.12509025484E+03 0.  0.
          5    1    3    3  502    0 -0.43032861367E+02 -0.63914196206E+02  0.68024727460E+02  0.10286732999E+03  0.41800000000E+01 0. -1.
         -5    1    3    3    0  502  0.51437509181E+02 -0.33444913395E+02 -0.17112303784E+02  0.63833243092E+02  0.41800000000E+01 0. -1.
        -11    1    1    2    0    0  0.23531632892E+02  0.53796963326E+02  0.35267030144E+02  0.68495360609E+02  0.00000000000E+00 0.  1.
         11    1    1    2    0    0 -0.31936280706E+02  0.43562146275E+02 -0.36829313735E+02  0.65375721515E+02  0.00000000000E+00 0. -1.
</event>
<event>
 7    1  0.6506388E-006  0.1164843E+03  0.7561462E-02  0.1249012E+00
         -1   -1    0    0    0  501 -0.00000000000E+00  0.00000000000E+00  0.21495144420E+03  0.21495144420E+03  0.00000000000E+00 0.  1.
          1   -1    0    0  501    0  0.00000000000E+00 -0.00000000000E+00 -0.82652173901E+02  0.82652173901E+02  0.00000000000E+00 0. -1.
         23    2    1    2    0    0 -0.53455648062E+02  0.36616496552E+02  0.11815838946E+03  0.18386636224E+03  0.12508860873E+03 0.  0.
          5    1    3    3  502    0  0.14061055787E+02 -0.37625370916E+02  0.36157709081E+02  0.54205480833E+02  0.41800000000E+01 0.  1.
         -5    1    3    3    0  502 -0.67516703849E+02  0.74241867467E+02  0.82000680383E+02  0.12966088141E+03  0.41800000000E+01 0.  1.
        -11    1    1    2    0    0  0.37159927543E+02 -0.55759152268E+02  0.39701623040E+02  0.77885570863E+02  0.00000000000E+00 0.  1.
         11    1    1    2    0    0  0.16295720519E+02  0.19142655717E+02 -0.25560742205E+02  0.35851684998E+02  0.00000000000E+00 0. -1.
</event>
<event>
 7    1  0.6506388E-006  0.8422353E+02  0.7561462E-02  0.1317476E+00
          1   -1    0    0  501    0  0.00000000000E+00  0.00000000000E+00  0.28134755209E+03  0.28134755209E+03  0.00000000000E+00 0. -1.
         -1   -1    0    0    0  501 -0.00000000000E+00 -0.00000000000E+00 -0.44612889337E+02  0.44612889337E+02  0.00000000000E+00 0.  1.
         23    2    1    2    0    0  0.24797681790E+02  0.27847493049E+01  0.10909882612E+03  0.16784827486E+03  0.12509120538E+03 0.  0.
          5    1    3    3  502    0 -0.15542164066E+02  0.45607153734E+02  0.95907793385E+02  0.10741205038E+03  0.41800000000E+01 0. -1.
         -5    1    3    3    0  502  0.40339845856E+02 -0.42822404429E+02  0.13191032739E+02  0.60436224481E+02  0.41800000000E+01 0. -1.
        -11    1    1    2    0    0  0.10376301487E+02  0.17614126486E+02 -0.35679284174E+01  0.20752233557E+02  0.00000000000E+00 0.  1.
         11    1    1    2    0    0 -0.35173983277E+02 -0.20398875791E+02  0.13120376504E+03  0.13735993300E+03  0.00000000000E+00 0. -1.
</event>
<event>
 7    1  0.6506388E-006  0.2637857E+03  0.7561462E-02  0.1104890E+00
         -2   -1    0    0    0  501 -0.00000000000E+00  0.00000000000E+00  0.39152488169E+03  0.39152488169E+03  0.00000000000E+00 0.  1.
          2   -1    0    0  501    0  0.00000000000E+00 -0.00000000000E+00 -0.19983257720E+03  0.19983257720E+03  0.00000000000E+00 0. -1.
         23    2    1    2    0    0  0.18249223609E+03  0.17592419138E+03  0.14805807587E+03  0.31909468928E+03  0.12508992588E+03 0.  0.
          5    1    3    3  502    0  0.52181878170E+02  0.11629947037E+03  0.11553356000E+03  0.17208716135E+03  0.41800000000E+01 0.  1.
         -5    1    3    3    0  502  0.13031035792E+03  0.59624721010E+02  0.32524515868E+02  0.14700752793E+03  0.41800000000E+01 0.  1.
        -11    1    1    2    0    0 -0.12493087027E+03 -0.93094796424E+02  0.65571535595E+02  0.16903842684E+03  0.00000000000E+00 0.  1.
         11    1    1    2    0    0 -0.57561365820E+02 -0.82829394951E+02 -0.21937306971E+02  0.10322434277E+03  0.00000000000E+00 0. -1.
</event>
<event>
 7    1  0.6506388E-006  0.1382164E+03  0.7561462E-02  0.1215749E+00
         -1   -1    0    0    0  501 -0.00000000000E+00  0.00000000000E+00  0.26217244368E+02  0.26217244368E+02  0.00000000000E+00 0.  1.
          1   -1    0    0  501    0  0.00000000000E+00 -0.00000000000E+00 -0.76688541487E+03  0.76688541487E+03  0.00000000000E+00 0. -1.
         23    2    1    2    0    0 -0.45726979580E+02 -0.33401343985E+02 -0.32590527962E+03  0.35365009487E+03  0.12509009502E+03 0.  0.
          5    1    3    3  502    0 -0.87089893009E+02 -0.25912248371E+02 -0.25917529262E+03  0.27467325823E+03  0.41800000000E+01 0.  1.
         -5    1    3    3    0  502  0.41362913428E+02 -0.74890956132E+01 -0.66729987001E+02  0.78976836639E+02  0.41800000000E+01 0.  1.
        -11    1    1    2    0    0  0.61547109412E+02  0.75996206749E+02 -0.24727053547E+03  0.26590635162E+03  0.00000000000E+00 0.  1.
         11    1    1    2    0    0 -0.15820129831E+02 -0.42594862764E+02 -0.16749235541E+03  0.17354621276E+03  0.00000000000E+00 0. -1.
</event>
<event>
 7    1  0.6506388E-006  0.1247762E+03  0.7561462E-02  0.1235419E+00
          2   -1    0    0  501    0  0.00000000000E+00  0.00000000000E+00  0.28983123981E+03  0.28983123981E+03  0.00000000000E+00 0. -1.
         -2   -1    0    0    0  501 -0.00000000000E+00 -0.00000000000E+00 -0.87938274526E+02  0.87938274526E+02  0.00000000000E+00 0.  1.
         23    2    1    2    0    0  0.10944830003E+03  0.40399253492E+02  0.92096635555E+02  0.19426750956E+03  0.12508814862E+03 0.  0.
          5    1    3    3  502    0  0.60894474562E+02  0.29058752058E+02  0.11944298823E+03  0.13724666823E+03  0.41800000000E+01 0. -1.
         -5    1    3    3    0  502  0.48553825470E+02  0.11340501434E+02 -0.27346352675E+02  0.57020841323E+02  0.41800000000E+01 0. -1.
        -11    1    1    2    0    0 -0.68834060444E+02  0.73544721893E+01  0.97567446711E+02  0.11963119491E+03  0.00000000000E+00 0. -1.
         11    1    1    2    0    0 -0.40614239588E+02 -0.47753725681E+02  0.12228883021E+02  0.63870809872E+02  0.00000000000E+00 0.  1.
</event>
<event>
 7    1  0.6506388E-006  0.1222825E+03  0.7561462E-02  0.1239378E+00
          1   -1    0    0  501    0  0.00000000000E+00  0.00000000000E+00  0.28121061350E+03  0.28121061350E+03  0.00000000000E+00 0. -1.
         -1   -1    0    0    0  501 -0.00000000000E+00 -0.00000000000E+00 -0.62797048213E+02  0.62797048213E+02  0.00000000000E+00 0.  1.
         23    2    1    2    0    0 -0.70359215084E+02 -0.72332699966E+01  0.77377527993E+02  0.16175074004E+03  0.12317987142E+03 0.  0.
          5    1    3    3  502    0  0.20707934604E+02 -0.28779017208E+02 -0.61720150199E+01  0.36230050462E+02  0.41800000000E+01 0. -1.
         -5    1    3    3    0  502 -0.91067149688E+02  0.21545747212E+02  0.83549543013E+02  0.12552068958E+03  0.41800000000E+01 0.  1.
        -11    1    1    2    0    0  0.21664976832E+02  0.47368102023E+02  0.69771292294E+02  0.87069750997E+02  0.00000000000E+00 0.  1.
         11    1    1    2    0    0  0.48694238252E+02 -0.40134832027E+02  0.71264745000E+02  0.95187170672E+02  0.00000000000E+00 0. -1.
</event>
<event>
 7    1  0.6506388E-006  0.1223628E+03  0.7561462E-02  0.1239249E+00
          1   -1    0    0  501    0  0.00000000000E+00  0.00000000000E+00  0.27252769867E+03  0.27252769867E+03  0.00000000000E+00 0. -1.
         -1   -1    0    0    0  501 -0.00000000000E+00 -0.00000000000E+00 -0.88241974927E+02  0.88241974927E+02  0.00000000000E+00 0.  1.
         23    2    1    2    0    0 -0.95570986686E+02  0.56716595905E+02  0.11179832198E+03  0.20123610659E+03  0.12508605058E+03 0.  0.
          5    1    3    3  502    0 -0.81453714492E+02  0.54682386710E+02  0.13903098370E+03  0.17021150916E+03  0.41800000000E+01 0.  1.
         -5    1    3    3    0  502 -0.14117272194E+02  0.20342091946E+01 -0.27232661719E+02  0.31024597428E+02  0.41800000000E+01 0.  1.
        -11    1    1    2    0    0  0.50098076128E+02  0.98443047145E+01 -0.10181933848E+00  0.51056223266E+02  0.00000000000E+00 0.  1.
         11    1    1    2    0    0  0.45472910558E+02 -0.66560900620E+02  0.72589221096E+02  0.10847734374E+03  0.00000000000E+00 0. -1.
</event>
<event>
 7    1  0.6506388E-006  0.1125225E+03  0.7561462E-02  0.1255969E+00
          1   -1    0    0  501    0  0.00000000000E+00  0.00000000000E+00  0.88721103163E+02  0.88721103163E+02  0.00000000000E+00 0. -1.
         -1   -1    0    0    0  501 -0.00000000000E+00 -0.00000000000E+00 -0.20917993819E+03  0.20917993819E+03  0.00000000000E+00 0.  1.
         23    2    1    2    0    0 -0.25013663155E+02  0.89411486291E+02 -0.58282463247E+02  0.16632438080E+03  0.12508739705E+03 0.  0.
          5    1    3    3  502    0  0.39529033267E+01  0.98286563405E+02  0.22766619408E+01  0.98481112810E+02  0.41800000000E+01 0. -1.
         -5    1    3    3    0  502 -0.28966566481E+02 -0.88750771147E+01 -0.60559125188E+02  0.67843267986E+02  0.41800000000E+01 0. -1.
        -11    1    1    2    0    0 -0.13305995566E+01 -0.39912363994E+02  0.90298704146E+01  0.40942714303E+02  0.00000000000E+00 0. -1.
         11    1    1    2    0    0  0.26344262711E+02 -0.49499122297E+02 -0.71206242191E+02  0.90633946250E+02  0.00000000000E+00 0.  1.
</event>
<event>
 7    1  0.6506388E-006  0.1078724E+03  0.7561462E-02  0.1264561E+00
          1   -1    0    0  501    0  0.00000000000E+00  0.00000000000E+00  0.36979080240E+02  0.36979080240E+02  0.00000000000E+00 0. -1.
         -1   -1    0    0    0  501 -0.00000000000E+00 -0.00000000000E+00 -0.10121078927E+04  0.10121078927E+04  0.00000000000E+00 0.  1.
         23    2    1    2    0    0 -0.63367438449E+02 -0.49278910183E+02 -0.88090434383E+03  0.89335415621E+03  0.12508134230E+03 0.  0.
          5    1    3    3  502    0  0.15339576310E+02 -0.29222778160E+02 -0.59977642968E+03  0.60069835306E+03  0.41800000000E+01 0. -1.
         -5    1    3    3    0  502 -0.78707014759E+02 -0.20056132023E+02 -0.28112791415E+03  0.29265580315E+03  0.41800000000E+01 0. -1.
        -11    1    1    2    0    0  0.16781140228E+02  0.51842204561E+02 -0.94489155840E+02  0.10907530157E+03  0.00000000000E+00 0.  1.
         11    1    1    2    0    0  0.46586298222E+02 -0.25632943779E+01  0.26468722803E+00  0.46657515144E+02  0.00000000000E+00 0. -1.
</event>
<event>
 7    1  0.6506388E-006  0.7805679E+02  0.7561462E-02  0.1334658E+00
         -2   -1    0    0    0  501 -0.00000000000E+00  0.00000000000E+00  0.32599651509E+03  0.32599651509E+03  0.00000000000E+00 0. -1.
          2   -1    0    0  501    0  0.00000000000E+00 -0.00000000000E+00 -0.52339305084E+02  0.52339305084E+02  0.00000000000E+00 0.  1.
         23    2    1    2    0    0  0.56659483856E+02  0.12773963298E+02  0.21855118272E+03  0.25842826095E+03  0.12508827019E+03 0.  0.
          5    1    3    3  502    0  0.46326939508E+02  0.17166272310E+02  0.11328232693E+02  0.50859291040E+02  0.41800000000E+01 0. -1.
         -5    1    3    3    0  502  0.10332544348E+02 -0.43923090122E+01  0.20722295002E+03  0.20756896991E+03  0.41800000000E+01 0. -1.
        -11    1    1    2    0    0  0.18070582083E+02  0.25998328397E+01 -0.89086974052E+01  0.20314279634E+02  0.00000000000E+00 0.  1.
         11    1    1    2    0    0 -0.74730065938E+02 -0.15373796137E+02  0.64014724699E+02  0.99593279598E+02  0.00000000000E+00 0. -1.
</event>
<event>
 7    1  0.6506388E-006  0.1012463E+03  0.7561462E-02  0.1277697E+00
          1   -1    0    0  501    0  0.00000000000E+00  0.00000000000E+00  0.19228725106E+03  0.19228725106E+03  0.00000000000E+00 0. -1.
         -1   -1    0    0    0  501 -0.00000000000E+00 -0.00000000000E+00 -0.83552273504E+02  0.83552273504E+02  0.00000000000E+00 0.  1.
         23    2    1    2    0    0 -0.59294062296E+02 -0.29660689094E+02  0.70188344868E+02  0.15801815426E+03  0.12509113085E+03 0.  0.
          5    1    3    3  502    0  0.12447207762E+02  0.32928868015E+02 -0.60681050939E+01  0.35965784147E+02  0.41800000000E+01 0.  1.
         -5    1    3    3    0  502 -0.71741270059E+02 -0.62589557109E+02  0.76256449961E+02  0.12205237011E+03  0.41800000000E+01 0.  1.
        -11    1    1    2    0    0  0.44827442305E+02  0.34417114423E+02 -0.17958228799E+02  0.59300382211E+02  0.00000000000E+00 0.  1.
         11    1    1    2    0    0  0.14466619991E+02 -0.47564253289E+01  0.56504861484E+02  0.58520988091E+02  0.00000000000E+00 0. -1.
</event>
<event>
 7    1  0.6506388E-006  0.9119709E+02  0.7561462E-02  0.1299978E+00
         -1   -1    0    0    0  501 -0.00000000000E+00  0.00000000000E+00  0.62661937713E+02  0.62661937713E+02  0.00000000000E+00 0.  1.
          1   -1    0    0  501    0  0.00000000000E+00 -0.00000000000E+00 -0.35095300936E+03  0.35095300936E+03  0.00000000000E+00 0. -1.
         23    2    1    2    0    0  0.39097650914E+02 -0.57739356010E+02 -0.45698334103E+02  0.15029274753E+03  0.12504844133E+03 0.  0.
          5    1    3    3  502    0  0.37145760520E+02 -0.74833744018E+02  0.16812180781E+02  0.85323024975E+02  0.41800000000E+01 0. -1.
         -5    1    3    3    0  502  0.19518903945E+01  0.17094388008E+02 -0.62510514884E+02  0.64969722552E+02  0.41800000000E+01 0. -1.
        -11    1    1    2    0    0 -0.82348594377E+01  0.47961487336E+02 -0.21603543545E+03  0.22144847380E+03  0.00000000000E+00 0. -1.
         11    1    1    2    0    0 -0.30862791476E+02  0.97778686737E+01 -0.26557302094E+02  0.41873725748E+02  0.00000000000E+00 0.  1.
</event>
<event>
 7    1  0.6506388E-006  0.1585190E+03  0.7561462E-02  0.1190379E+00
          1   -1    0    0  501    0  0.00000000000E+00  0.00000000000E+00  0.24299302703E+03  0.24299302703E+03  0.00000000000E+00 0. -1.
         -1   -1    0    0    0  501 -0.00000000000E+00 -0.00000000000E+00 -0.12454490601E+03  0.12454490601E+03  0.00000000000E+00 0.  1.
         23    2    1    2    0    0 -0.24785256060E+02 -0.12736229798E+03  0.19733496104E+02  0.18130845763E+03  0.12509149480E+03 0.  0.
          5    1    3    3  502    0 -0.44804728751E+02 -0.63358056417E+01  0.35354452981E+02  0.57576174736E+02  0.41800000000E+01 0. -1.
         -5    1    3    3    0  502  0.20019472691E+02 -0.12102649234E+03 -0.15620956878E+02  0.12373228289E+03  0.41800000000E+01 0. -1.
        -11    1    1    2    0    0 -0.25886039170E+02  0.35407068697E+02  0.60010989154E+02  0.74330790100E+02  0.00000000000E+00 0. -1.
         11    1    1    2    0    0  0.50671295231E+02  0.91955229287E+02  0.38703635756E+02  0.11189868531E+03  0.00000000000E+00 0.  1.
</event>
<event>
 7    1  0.6506388E-006  0.1514191E+03  0.7561462E-02  0.1198740E+00
          1   -1    0    0  501    0  0.00000000000E+00  0.00000000000E+00  0.26301632948E+03  0.26301632948E+03  0.00000000000E+00 0. -1.
         -1   -1    0    0    0  501 -0.00000000000E+00 -0.00000000000E+00 -0.12300748554E+03  0.12300748554E+03  0.00000000000E+00 0.  1.
         23    2    1    2    0    0  0.13559360697E+03 -0.22220489658E+02  0.31103953496E+02  0.18839467890E+03  0.12508286334E+03 0.  0.
          5    1    3    3  502    0  0.57620807292E+02 -0.57835666132E+00  0.76228112027E+02  0.95648781449E+02  0.41800000000E+01 0.  1.
         -5    1    3    3    0  502  0.77972799681E+02 -0.21642132997E+02 -0.45124158531E+02  0.92745897451E+02  0.41800000000E+01 0.  1.
        -11    1    1    2    0    0 -0.83454183376E+02 -0.31472837371E+02  0.69323056655E+02  0.11296382784E+03  0.00000000000E+00 0. -1.
         11    1    1    2    0    0 -0.52139423597E+02  0.53693327029E+02  0.39581833786E+02  0.84665308281E+02  0.00000000000E+00 0.  1.
</event>
<event>
 7    1  0.6506388E-006  0.1969037E+03  0.7561462E-02  0.1152378E+00
         -1   -1    0    0    0  501 -0.00000000000E+00  0.00000000000E+00  0.41607943447E+03  0.41607943447E+03  0.00000000000E+00 0.  1.
          1   -1    0    0  501    0  0.00000000000E+00 -0.00000000000E+00 -0.28460145659E+03  0.28460145659E+03  0.00000000000E+00 0. -1.
         23    2    1    2    0    0  0.15075455157E+03 -0.11194325581E+03  0.33813316848E+03  0.40649696554E+03  0.12509003166E+03 0.  0.
          5    1    3    3  502    0  0.26378465995E+02 -0.67408584887E+02  0.46036158378E+02  0.85886792133E+02  0.41800000000E+01 0.  1.
         -5    1    3    3    0  502  0.12437608558E+03 -0.44534670925E+02  0.29209701010E+03  0.32061017340E+03  0.41800000000E+01 0.  1.
        -11    1    1    2    0    0 -0.96826276576E+02  0.84996828130E+02 -0.19351635891E+03  0.23248305270E+03  0.00000000000E+00 0.  1.
         11    1    1    2    0    0 -0.53928274998E+02  0.26946427682E+02 -0.13138831696E+02  0.61700872825E+02  0.00000000000E+00 0. -1.
</event>
<event>
 7    1  0.6506388E-006  0.8871273E+02  0.7561462E-02  0.1305999E+00
         -1   -1    0    0    0  501 -0.00000000000E+00  0.00000000000E+00  0.12786422632E+03  0.12786422632E+03  0.00000000000E+00 0.  1.
          1   -1    0    0  501    0  0.00000000000E+00 -0.00000000000E+00 -0.11135817289E+03  0.11135817289E+03  0.00000000000E+00 0. -1.
         23    2    1    2    0    0 -0.15690012350E+02 -0.39225524205E+02  0.33767573844E+02  0.13628042437E+03  0.12508911538E+03 0.  0.
          5    1    3    3  502    0  0.32661635096E+02 -0.65423658684E+02  0.34865553594E+02  0.81117918799E+02  0.41800000000E+01 0. -1.
         -5    1    3    3    0  502 -0.48351647447E+02  0.26198134479E+02 -0.10979797502E+01  0.55162505568E+02  0.41800000000E+01 0. -1.
        -11    1    1    2    0    0  0.45270052476E+01  0.37456125013E+02  0.33793835842E+02  0.50650552005E+02  0.00000000000E+00 0.  1.
         11    1    1    2    0    0  0.11163007103E+02  0.17693991917E+01 -0.51055356252E+02  0.52291422844E+02  0.00000000000E+00 0. -1.
</event>
<event>
 7    1  0.6506388E-006  0.9703404E+02  0.7561462E-02  0.1286660E+00
          1   -1    0    0  501    0  0.00000000000E+00  0.00000000000E+00  0.13863099006E+03  0.13863099006E+03  0.00000000000E+00 0. -1.
         -1   -1    0    0    0  501 -0.00000000000E+00 -0.00000000000E+00 -0.12835897296E+03  0.12835897296E+03  0.00000000000E+00 0.  1.
         23    2    1    2    0    0  0.74476775309E+02 -0.11400442749E+02 -0.13892802262E+02  0.14669195786E+03  0.12509500546E+03 0.  0.
          5    1    3    3  502    0  0.36451007281E+02 -0.45964498532E+02  0.40761939723E+02  0.71557104379E+02  0.41800000000E+01 0.  1.
         -5    1    3    3    0  502  0.38025768028E+02  0.34564055783E+02 -0.54654741985E+02  0.75134853482E+02  0.41800000000E+01 0.  1.
        -11    1    1    2    0    0 -0.62487615167E+02 -0.57739786677E+01 -0.24461280660E+02  0.67352766316E+02  0.00000000000E+00 0.  1.
         11    1    1    2    0    0 -0.11989160141E+02  0.17174421416E+02  0.48626100026E+02  0.52945238838E+02  0.00000000000E+00 0. -1.
</event>
<event>
 7    1  0.6506388E-006  0.1261397E+03  0.7561462E-02  0.1233299E+00
          2   -1    0    0  501    0  0.00000000000E+00  0.00000000000E+00  0.38564828530E+03  0.38564828530E+03  0.00000000000E+00 0. -1.
         -2   -1    0    0    0  501 -0.00000000000E+00 -0.00000000000E+00 -0.49713083886E+02  0.49713083886E+02  0.00000000000E+00 0.  1.
         23    2    1    2    0    0  0.81991858873E+02  0.32243843869E+02  0.20724728450E+03  0.25760860081E+03  0.12509366047E+03 0.  0.
          5    1    3    3  502    0  0.63905075359E+02  0.71795055983E+02  0.18513561003E+03  0.20864097206E+03  0.41800000000E+01 0.  1.
         -5    1    3    3    0  502  0.18086783514E+02 -0.39551212114E+02  0.22111674469E+02  0.48967628750E+02  0.41800000000E+01 0.  1.
        -11    1    1    2    0    0 -0.84946124336E+02 -0.51237786607E+01  0.60799461577E+02  0.10458810485E+03  0.00000000000E+00 0.  1.
         11    1    1    2    0    0  0.29542654622E+01 -0.27120065208E+02  0.67888455339E+02  0.73164663531E+02  0.00000000000E+00 0. -1.
</event>
<event>
 7    1  0.6506388E-006  0.1157528E+03  0.7561462E-02  0.1250273E+00
          1   -1    0    0  501    0  0.00000000000E+00  0.00000000000E+00  0.25954047646E+03  0.25954047646E+03  0.00000000000E+00 0. -1.
         -1   -1    0    0    0  501 -0.00000000000E+00 -0.00000000000E+00 -0.73456495664E+02  0.73456495664E+02  0.00000000000E+00 0.  1.
         23    2    1    2    0    0 -0.52452129305E+02 -0.11880411433E+02  0.22730323898E+02  0.13804558192E+03  0.12509014757E+03 0.  0.
          5    1    3    3  502    0  0.62198255791E+01 -0.58956980183E+02  0.19821845070E+02  0.62649738104E+02  0.41800000000E+01 0.  1.
         -5    1    3    3    0  502 -0.58671954884E+02  0.47076568750E+02  0.29084788284E+01  0.75395843813E+02  0.41800000000E+01 0.  1.
        -11    1    1    2    0    0  0.61328477153E+02 -0.19317147164E+02  0.65176688687E+02  0.91555092882E+02  0.00000000000E+00 0.  1.
         11    1    1    2    0    0 -0.88763478480E+01  0.31197558597E+02  0.98176968213E+02  0.10339629733E+03  0.00000000000E+00 0. -1.
</event>
<event>
 7    1  0.6506388E-006  0.8913776E+02  0.7561462E-02  0.1304953E+00
         -1   -1    0    0    0  501 -0.00000000000E+00  0.00000000000E+00  0.19283871873E+02  0.19283871873E+02  0.00000000000E+00 0.  1.
          1   -1    0    0  501    0  0.00000000000E+00 -0.00000000000E+00 -0.66361055224E+03  0.66361055224E+03  0.00000000000E+00 0. -1.
         23    2    1    2    0    0  0.12620843363E+01  0.26285624385E+02 -0.30605312037E+03  0.33167403300E+03  0.12508646917E+03 0.  0.
          5    1    3    3  502    0  0.17967174269E+02  0.53451067139E+02 -0.56073753412E+02  0.79634001226E+02  0.41800000000E+01 0. -1.
         -5    1    3    3    0  502 -0.16705089932E+02 -0.27165442754E+02 -0.24997936696E+03  0.25204003177E+03  0.41800000000E+01 0. -1.
        -11    1    1    2    0    0 -0.26576615159E+01 -0.57880528469E+02 -0.26748243793E+03  0.27368608540E+03  0.00000000000E+00 0. -1.
         11    1    1    2    0    0  0.13955771796E+01  0.31594904084E+02 -0.70791122063E+02  0.77534305715E+02  0.00000000000E+00 0.  1.
</event>
<event>
 7    1  0.6506388E-006  0.9188108E+02  0.7561462E-02  0.1298359E+00
         -4   -1    0    0    0  501 -0.00000000000E+00  0.00000000000E+00  0.97426333898E+02  0.97426333898E+02  0.00000000000E+00 0.  1.
          4   -1    0    0  501    0  0.00000000000E+00 -0.00000000000E+00 -0.14452124555E+03  0.14452124555E+03  0.00000000000E+00 0. -1.
         23    2    1    2    0    0  0.32470595724E-01 -0.69193982671E+02 -0.14986037247E+02  0.14373584092E+03  0.12509037677E+03 0.  0.
          5    1    3    3  502    0 -0.10235329288E+02  0.18540009379E+02 -0.45359070404E+02  0.50233570262E+02  0.41800000000E+01 0.  1.
         -5    1    3    3    0  502  0.10267799884E+02 -0.87733992050E+02  0.30373033156E+02  0.93502270660E+02  0.41800000000E+01 0.  1.
        -11    1    1    2    0    0 -0.12696022457E+02  0.38547903067E+02  0.12647641308E+02  0.42509912347E+02  0.00000000000E+00 0.  1.
         11    1    1    2    0    0  0.12663551862E+02  0.30646079604E+02 -0.44756515711E+02  0.55701826177E+02  0.00000000000E+00 0. -1.
</event>
<event>
 7    1  0.6506388E-006  0.1149681E+03  0.7561462E-02  0.1251637E+00
         -1   -1    0    0    0  501 -0.00000000000E+00  0.00000000000E+00  0.16513128171E+03  0.16513128171E+03  0.00000000000E+00 0.  1.
          1   -1    0    0  501    0  0.00000000000E+00 -0.00000000000E+00 -0.82822570471E+02  0.82822570471E+02  0.00000000000E+00 0. -1.
         23    2    1    2    0    0  0.42030171131E+02  0.81436399310E+01  0.51870014481E+02  0.14206794933E+03  0.12513972058E+03 0.  0.
          5    1    3    3  502    0  0.70684258052E+02  0.43469261448E+02  0.17513241786E+02  0.84911878233E+02  0.41800000000E+01 0.  1.
         -5    1    3    3    0  502 -0.28654086921E+02 -0.35325621517E+02  0.34356772695E+02  0.57156071093E+02  0.41800000000E+01 0.  1.
        -11    1    1    2    0    0  0.26185918582E+02  0.13688687194E+02  0.12259248807E+02  0.31990180843E+02  0.00000000000E+00 0. -1.
         11    1    1    2    0    0 -0.68216089713E+02 -0.21832327125E+02  0.18179447949E+02  0.73895722009E+02  0.00000000000E+00 0.  1.
</event>
<event>
 7    1  0.6506388E-006  0.9552077E+02  0.7561462E-02  0.1290007E+00
          1   -1    0    0  501    0  0.00000000000E+00  0.00000000000E+00  0.21428569312E+02  0.21428569312E+02  0.00000000000E+00 0. -1.
         -1   -1    0    0    0  501 -0.00000000000E+00 -0.00000000000E+00 -0.74015530311E+03  0.74015530311E+03  0.00000000000E+00 0.  1.
         23    2    1    2    0    0  0.45867419984E+02 -0.22738929632E+02 -0.49586124077E+03  0.51395631265E+03  0.12510732224E+03 0.  0.
          5    1    3    3  502    0  0.79325084350E+02 -0.47602439159E+02 -0.31667471552E+03  0.32993758360E+03  0.41800000000E+01 0. -1.
         -5    1    3    3    0  502 -0.33457664366E+02  0.24863509527E+02 -0.17918652525E+03  0.18401872905E+03  0.41800000000E+01 0. -1.
        -11    1    1    2    0    0 -0.36986493664E+02  0.27845983691E+02 -0.23033962522E+03  0.23494625442E+03  0.00000000000E+00 0.  1.
         11    1    1    2    0    0 -0.88809263202E+01 -0.51070540591E+01  0.74741321880E+01  0.12681305352E+02  0.00000000000E+00 0. -1.
</event>
<event>
 6    1  0.6506388E-006  0.1777086E+03  0.7561462E-02  0.1170039E+00
         -2   -1    0    0    0  501 -0.00000000000E+00  0.00000000000E+00  0.10771674391E+03  0.10771674391E+03  0.00000000000E+00 0.  1.
          2   -1    0    0  501    0  0.00000000000E+00 -0.00000000000E+00 -0.37864834303E+03  0.37864834303E+03  0.00000000000E+00 0. -1.
          5    1    1    2  502    0  0.22358424814E+02  0.62364901584E+02  0.48625228877E+01  0.66561224737E+02  0.41800000000E+01 0. -1.
         -5    1    1    2    0  502 -0.13669620311E+03 -0.18488860560E+01 -0.55533920937E+02  0.14761693365E+03  0.41800000000E+01 0.  1.
        -11    1    1    2    0    0  0.32957023189E+02  0.19366470401E+02 -0.23801315266E+02  0.45030302705E+02  0.00000000000E+00 0.  1.
         11    1    1    2    0    0  0.81380755108E+02 -0.79882485929E+02 -0.19645888580E+03  0.22715662586E+03  0.00000000000E+00 0. -1.
</event>
<event>
 7    1  0.6506388E-006  0.2217356E+03  0.7561462E-02  0.1132596E+00
         -2   -1    0    0    0  501 -0.00000000000E+00  0.00000000000E+00  0.57919951661E+02  0.57919951661E+02  0.00000000000E+00 0.  1.
          2   -1    0    0  501    0  0.00000000000E+00 -0.00000000000E+00 -0.92050302343E+03  0.92050302343E+03  0.00000000000E+00 0. -1.
         23    2    1    2    0    0  0.18881244310E+03  0.67808635018E+02 -0.47931116520E+03  0.53444875758E+03  0.12509249273E+03 0.  0.
          5    1    3    3  502    0  0.94848280603E+02 -0.22299555991E+02 -0.27860469052E+03  0.29518047447E+03  0.41800000000E+01 0.  1.
         -5    1    3    3    0  502  0.93964162496E+02  0.90108191009E+02 -0.20070647468E+03  0.23926828310E+03  0.41800000000E+01 0.  1.
        -11    1    1    2    0    0 -0.60728000619E+02  0.15781588175E+02 -0.62283574181E+02  0.88409231403E+02  0.00000000000E+00 0.  1.
         11    1    1    2    0    0 -0.12808444248E+03 -0.83590223193E+02 -0.32098833239E+03  0.35556498611E+03  0.00000000000E+00 0. -1.
</event>
<event>
 6    1  0.6506388E-006  0.1314241E+03  0.7561462E-02  0.1225358E+00
          1   -1    0    0  501    0  0.00000000000E+00  0.00000000000E+00  0.33654436968E+03  0.33654436968E+03  0.00000000000E+00 0. -1.
         -1   -1    0    0    0  501 -0.00000000000E+00 -0.00000000000E+00 -0.18654992191E+03  0.18654992191E+03  0.00000000000E+00 0.  1.
          5    1    1    2  502    0  0.75254617543E+01  0.42473402284E+02  0.54617896803E+02  0.69722374654E+02  0.41800000000E+01 0. -1.
         -5    1    1    2    0  502 -0.19219055287E+02 -0.11195788033E+03 -0.14642400329E+03  0.18536828260E+03  0.41800000000E+01 0.  1.
        -11    1    1    2    0    0  0.24683937640E+02  0.83296961249E+02  0.22952172719E+03  0.24541374000E+03  0.00000000000E+00 0. -1.
         11    1    1    2    0    0 -0.12990344108E+02 -0.13812483204E+02  0.12278827064E+02  0.22589894342E+02  0.00000000000E+00 0.  1.
</event>
<event>
 7    1  0.6506388E-006  0.1563488E+03  0.7561462E-02  0.1192882E+00
         -1   -1    0    0    0  501 -0.00000000000E+00  0.00000000000E+00  0.30991449497E+02  0.30991449497E+02  0.00000000000E+00 0.  1.
          1   -1    0    0  501    0  0.00000000000E+00 -0.00000000000E+00 -0.93913144623E+03  0.93913144623E+03  0.00000000000E+00 0. -1.
         23    2    1    2    0    0  0.91782182159E+02 -0.89746199705E+02 -0.53595021266E+03  0.56512657403E+03  0.12508822849E+03 0.  0.
          5    1    3    3  502    0  0.51863440265E+01  0.17484044230E+02 -0.96308034470E+01  0.21043163783E+02  0.41800000000E+01 0. -1.
         -5    1    3    3    0  502  0.86595838132E+02 -0.10723024393E+03 -0.52631940921E+03  0.54408341025E+03  0.41800000000E+01 0. -1.
        -11    1    1    2    0    0  0.16843366666E+02  0.23324227013E+02 -0.10737594737E+03  0.11116345011E+03  0.00000000000E+00 0. -1.
         11    1    1    2    0    0 -0.10862554882E+03  0.66421972692E+02 -0.26481383670E+03  0.29383287158E+03  0.00000000000E+00 0.  1.
</event>
<event>
 7    1  0.6506388E-006  0.1581084E+03  0.7561462E-02  0.1190849E+00
         -1   -1    0    0    0  501 -0.00000000000E+00  0.00000000000E+00  0.69246758894E+02  0.69246758894E+02  0.00000000000E+00 0.  1.
          1   -1    0    0  501    0  0.00000000000E+00 -0.00000000000E+00 -0.64203353093E+03  0.64203353093E+03  0.00000000000E+00 0. -1.
         23    2    1    2    0    0  0.11903345818E+03 -0.22335144096E+02 -0.71549335641E+02  0.18823883672E+03  0.12508688737E+03 0.  0.
          5    1    3    3  502    0 -0.17881056059E+02  0.19463459843E+02  0.27486177261E+01  0.26899548960E+02  0.41800000000E+01 0. -1.
         -5    1    3    3    0  502  0.13691451424E+03 -0.41798603939E+02 -0.74297953367E+02  0.16133928776E+03  0.41800000000E+01 0. -1.
        -11    1    1    2    0    0 -0.24029206800E+02 -0.29476930207E+02 -0.18295808426E+03  0.18686881171E+03  0.00000000000E+00 0. -1.
         11    1    1    2    0    0 -0.95004251383E+02  0.51812074303E+02 -0.31827935214E+03  0.33617264139E+03  0.00000000000E+00 0.  1.
</event>
<event>
 7    1  0.6506388E-006  0.1272956E+03  0.7561462E-02  0.1231525E+00
         -3   -1    0    0    0  501 -0.00000000000E+00  0.00000000000E+00  0.91262299095E+02  0.91262299095E+02  0.00000000000E+00 0.  1.
          3   -1    0    0  501    0  0.00000000000E+00 -0.00000000000E+00 -0.19746902915E+03  0.19746902915E+03  0.00000000000E+00 0. -1.
         23    2    1    2    0    0 -0.28341766832E+02 -0.61777718132E+02 -0.15631438316E+02  0.14323112757E+03  0.12510424388E+03 0.  0.
          5    1    3    3  502    0 -0.73084180304E+02 -0.62406741798E+02 -0.18075181136E+01  0.96211425279E+02  0.41800000000E+01 0. -1.
         -5    1    3    3    0  502  0.44742413472E+02  0.62902366575E+00 -0.13823920202E+02  0.47019702294E+02  0.41800000000E+01 0. -1.
        -11    1    1    2    0    0  0.57424627070E+02  0.61814982839E+02 -0.72622012527E+02  0.11132221971E+03  0.00000000000E+00 0. -1.
         11    1    1    2    0    0 -0.29082860238E+02 -0.37264706985E-01 -0.17953279214E+02  0.34177980965E+02  0.00000000000E+00 0.  1.
</event>
<event>
 7    1  0.6506388E-006  0.1144167E+03  0.7561462E-02  0.1252603E+00
          1   -1    0    0  501    0  0.00000000000E+00  0.00000000000E+00  0.11030797070E+03  0.11030797070E+03  0.00000000000E+00 0. -1.
         -1   -1    0    0    0  501 -0.00000000000E+00 -0.00000000000E+00 -0.17330229618E+03  0.17330229618E+03  0.00000000000E+00 0.  1.
         23    2    1    2    0    0  0.24453935183E+02  0.73469709873E+02 -0.73218357279E+02  0.16433142050E+03  0.12509234471E+03 0.  0.
          5    1    3    3  502    0 -0.39058409745E+02 -0.26045997917E+01 -0.47823056956E+02  0.61942396535E+02  0.41800000000E+01 0.  1.
         -5    1    3    3    0  502  0.63512344928E+02  0.76074309665E+02 -0.25395300323E+02  0.10238902396E+03  0.41800000000E+01 0.  1.
        -11    1    1    2    0    0 -0.36574344547E+01 -0.68882641776E+02  0.42196915922E+02  0.80862691509E+02  0.00000000000E+00 0. -1.
         11    1    1    2    0    0 -0.20796500728E+02 -0.45870680976E+01 -0.31972884124E+02  0.38416154877E+02  0.00000000000E+00 0.  1.
</event>
<event>
 7    1  0.6506388E-006  0.9375606E+02  0.7561462E-02  0.1294003E+00
          1   -1    0    0  501    0  0.00000000000E+00  0.00000000000E+00  0.99766410033E+02  0.99766410033E+02  0.00000000000E+00 0. -1.
         -1   -1    0    0    0  501 -0.00000000000E+00 -0.00000000000E+00 -0.13377491993E+03  0.13377491993E+03  0.00000000000E+00 0.  1.
         23    2    1    2    0    0 -0.31846978155E+02  0.24518418478E+02 -0.10079976544E+02  0.13176834770E+03  0.12508360670E+03 0.  0.
          5    1    3    3  502    0  0.31445781347E+02 -0.21792589445E+01  0.36696649396E+02  0.48556182006E+02  0.41800000000E+01 0.  1.
         -5    1    3    3    0  502 -0.63292759502E+02  0.26697677423E+02 -0.46776625940E+02  0.83212165694E+02  0.41800000000E+01 0.  1.
        -11    1    1    2    0    0  0.60779901684E+01 -0.50168860227E+02 -0.37536135508E+02  0.62950917148E+02  0.00000000000E+00 0.  1.
         11    1    1    2    0    0  0.25768987987E+02  0.25650441749E+02  0.13607602152E+02  0.38822065119E+02  0.00000000000E+00 0. -1.
</event>
<event>
 7    1  0.6506388E-006  0.7957495E+02  0.7561462E-02  0.1330262E+00
         -1   -1    0    0    0  501 -0.00000000000E+00  0.00000000000E+00  0.65300384557E+02  0.65300384557E+02  0.00000000000E+00 0.  1.
          1   -1    0    0  501    0  0.00000000000E+00 -0.00000000000E+00 -0.18801284062E+03  0.18801284062E+03  0.00000000000E+00 0. -1.
         23    2    1    2    0    0  0.15163777368E+02 -0.30464047926E+02 -0.69601792165E+02  0.14713878560E+03  0.12508962545E+03 0.  0.
          5    1    3    3  502    0  0.32404666286E+01  0.45273637042E+02 -0.50470560908E+02  0.68007005178E+02  0.41800000000E+01 0. -1.
         -5    1    3    3    0  502  0.11923310740E+02 -0.75737684968E+02 -0.19131231257E+02  0.79131780421E+02  0.41800000000E+01 0. -1.
        -11    1    1    2    0    0 -0.49760713268E+01  0.24455143829E+02 -0.76226783370E+02  0.80208090917E+02  0.00000000000E+00 0. -1.
         11    1    1    2    0    0 -0.10187706042E+02  0.60089040970E+01  0.23116119477E+02  0.25966348656E+02  0.00000000000E+00 0.  1.
</event>
<event>
 7    1  0.6506388E-006  0.7602835E+02  0.7561462E-02  0.1340716E+00
         -1   -1    0    0    0  501 -0.00000000000E+00  0.00000000000E+00  0.29961664100E+03  0.29961664100E+03  0.00000000000E+00 0.  1.
          1   -1    0    0  501    0  0.00000000000E+00 -0.00000000000E+00 -0.55517262660E+02  0.55517262660E+02  0.00000000000E+00 0. -1.
         23    2    1    2    0    0 -0.27316362063E+02 -0.58522171520E+02  0.15134897950E+03  0.20668573685E+03  0.12506579079E+03 0.  0.
          5    1    3    3  502    0 -0.12249488739E+02  0.16391878752E+01  0.14343133085E+03  0.14402345636E+03  0.41800000000E+01 0.  1.
         -5    1    3    3    0  502 -0.15066873324E+02 -0.60161359395E+02  0.79176486441E+01  0.62662280489E+02  0.41800000000E+01 0.  1.
        -11    1    1    2    0    0  0.10492078934E+02  0.59092055082E+02  0.62680961240E+01  0.60342718891E+02  0.00000000000E+00 0. -1.
         11    1    1    2    0    0  0.16824283128E+02 -0.56988356198E+00  0.86482302715E+02  0.88105447919E+02  0.00000000000E+00 0.  1.
</event>
<event>
 7    1  0.6506388E-006  0.9770661E+02  0.7561462E-02  0.1285194E+00
          1   -1    0    0  501    0  0.00000000000E+00  0.00000000000E+00  0.94724636129E+02  0.94724636129E+02  0.00000000000E+00 0. -1.
         -1   -1    0    0    0  501 -0.00000000000E+00 -0.00000000000E+00 -0.31997861273E+03  0.31997861273E+03  0.00000000000E+00 0.  1.
         23    2    1    2    0    0  0.32449384620E+02 -0.67349167859E+01 -0.27604291238E+03  0.30487009585E+03  0.12509102368E+03 0.  0.
          5    1    3    3  502    0  0.65049576425E+02 -0.32957162356E+02 -0.23509189976E+03  0.24617736629E+03  0.41800000000E+01 0.  1.
         -5    1    3    3    0  502 -0.32600191805E+02  0.26222245570E+02 -0.40951012623E+02  0.58692729561E+02  0.41800000000E+01 0.  1.
        -11    1    1    2    0    0 -0.50982240317E+02  0.22753706083E+02  0.61531757857E+02  0.83084759091E+02  0.00000000000E+00 0. -1.
         11    1    1    2    0    0  0.18532855697E+02 -0.16018789297E+02 -0.10742822081E+02  0.26748393917E+02  0.00000000000E+00 0.  1.
</event>
<event>
 7    1  0.9990622E-006  0.1680900E+03  0.7561462E-02  0.1179854E+00
          3   -1    0    0  501    0  0.00000000000E+00  0.00000000000E+00  0.19938641049E+03  0.19938641049E+03  0.00000000000E+00 0. -1.
         -3   -1    0    0    0  501 -0.00000000000E+00 -0.00000000000E+00 -0.16657667747E+03  0.16657667747E+03  0.00000000000E+00 0.  1.
         23    2    1    2    0    0 -0.63105884986E+02 -0.12607595112E+03 -0.17635837041E+02  0.18930278093E+03  0.12508805677E+03 0.  0.
          5    1    3    3  502    0 -0.24061997707E+01 -0.11020389001E+03 -0.46999823617E+02  0.11990472464E+03  0.41800000000E+01 0.  1.
         -5    1    3    3    0  502 -0.60699685215E+02 -0.15872061115E+02  0.29363986576E+02  0.69398056291E+02  0.41800000000E+01 0.  1.
        -11    1    1    2    0    0  0.57559464642E+02  0.26683028682E+02  0.43392068103E+02  0.76863174302E+02  0.00000000000E+00 0. -1.
         11    1    1    2    0    0  0.55464203440E+01  0.99392922440E+02  0.70535019578E+01  0.99797132722E+02  0.00000000000E+00 0.  1.
</event>
<event>
 7    1  0.6506388E-006  0.1136079E+03  0.7561462E-02  0.1254031E+00
         -3   -1    0    0    0  501 -0.00000000000E+00  0.00000000000E+00  0.21670058669E+04  0.21670058669E+04  0.00000000000E+00 0.  1.
          3   -1    0    0  501    0  0.00000000000E+00 -0.00000000000E+00 -0.10308694794E+02  0.10308694794E+02  0.00000000000E+00 0. -1.
         23    2    1    2    0    0  0.53536239438E+02  0.14894405051E+02  0.18196382057E+04  0.18239481921E+04  0.11232023669E+03 0.  0.
          5    1    3    3  502    0 -0.33382152971E+02  0.13278038178E+02  0.69914594795E+03  0.70008085488E+03  0.41800000000E+01 0. -1.
         -5    1    3    3    0  502  0.86918392410E+02  0.16163668731E+01  0.11204922577E+04  0.11238673372E+04  0.41800000000E+01 0.  1.
        -11    1    1    2    0    0 -0.63799724838E+02  0.20617506530E+02  0.24886822110E+03  0.25774188239E+03  0.00000000000E+00 0. -1.
         11    1    1    2    0    0  0.10263485399E+02 -0.35511911581E+02  0.88190745340E+02  0.95624487242E+02  0.00000000000E+00 0.  1.
</event>
<event>
 7    1  0.6506388E-006  0.8014594E+02  0.7561462E-02  0.1328638E+00
         -1   -1    0    0    0  501 -0.00000000000E+00  0.00000000000E+00  0.48712309425E+02  0.48712309425E+02  0.00000000000E+00 0.  1.
          1   -1    0    0  501    0  0.00000000000E+00 -0.00000000000E+00 -0.28322668860E+03  0.28322668860E+03  0.00000000000E+00 0. -1.
         23    2    1    2    0    0  0.10533521261E+02  0.21552958856E+02 -0.14071173927E+03  0.18979642997E+03  0.12508959251E+03 0.  0.
          5    1    3    3  502    0  0.19177792437E+01 -0.43329421045E+02 -0.11771759481E+02  0.45134945736E+02  0.41800000000E+01 0. -1.
         -5    1    3    3    0  502  0.86157420173E+01  0.64882379901E+02 -0.12893997979E+03  0.14466148423E+03  0.41800000000E+01 0. -1.
        -11    1    1    2    0    0 -0.28060498060E+02 -0.86295314425E+01  0.13742580602E+02  0.32414794244E+02  0.00000000000E+00 0.  1.
         11    1    1    2    0    0  0.17526976799E+02 -0.12923427413E+02 -0.10754522051E+03  0.10972777382E+03  0.00000000000E+00 0. -1.
</event>
<event>
 6    1  0.6506388E-006  0.1218891E+03  0.7561462E-02  0.1240013E+00
          1   -1    0    0  501    0  0.00000000000E+00  0.00000000000E+00  0.11620925452E+03  0.11620925452E+03  0.00000000000E+00 0. -1.
         -1   -1    0    0    0  501 -0.00000000000E+00 -0.00000000000E+00 -0.23030421729E+03  0.23030421729E+03  0.00000000000E+00 0.  1.
          5    1    1    2  502    0 -0.78390095679E+02 -0.46978091652E+02 -0.24729126618E+02  0.94767875881E+02  0.41800000000E+01 0. -1.
         -5    1    1    2    0  502  0.44798121948E+02  0.23936078144E+02 -0.13127489825E+03  0.14082037806E+03  0.41800000000E+01 0.  1.
        -11    1    1    2    0    0 -0.24134084138E+02 -0.18333011292E+02  0.21058187821E+02  0.36905292229E+02  0.00000000000E+00 0.  1.
         11    1    1    2    0    0  0.57726057868E+02  0.41375024800E+02  0.20850874277E+02  0.74019925644E+02  0.00000000000E+00 0. -1.
</event>
<event>
 7    1  0.6506388E-006  0.1061843E+03  0.7561462E-02  0.1267804E+00
          4   -1    0    0  501    0  0.00000000000E+00  0.00000000000E+00  0.18660105741E+03  0.18660105741E+03  0.00000000000E+00 0.  1.
         -4   -1    0    0    0  501 -0.00000000000E+00 -0.00000000000E+00 -0.11961449258E+03  0.11961449258E+03  0.00000000000E+00 0. -1.
         23    2    1    2    0    0  0.97282122384E+02  0.17049142738E+02  0.80803261453E+01  0.15957793967E+03  0.12508134375E+03 0.  0.
          5    1    3    3  502    0  0.77668509552E+02  0.25549686919E+02 -0.51105582493E+02  0.96511330110E+02  0.41800000000E+01 0. -1.
         -5    1    3    3    0  502  0.19613612832E+02 -0.85005441811E+01  0.59185908638E+02  0.63066609557E+02  0.41800000000E+01 0. -1.
        -11    1    1    2    0    0 -0.36010912066E+02 -0.29067656546E+02 -0.16140655201E+02  0.49012602412E+02  0.00000000000E+00 0. -1.
         11    1    1    2    0    0 -0.61271210319E+02  0.12018513808E+02  0.75046893880E+02  0.97625007908E+02  0.00000000000E+00 0.  1.
</event>
<event>
 7    1  0.6506388E-006  0.1067405E+03  0.7561462E-02  0.1266728E+00
          2   -1    0    0  501    0  0.00000000000E+00  0.00000000000E+00  0.25929338158E+03  0.25929338158E+03  0.00000000000E+00 0. -1.
         -2   -1    0    0    0  501 -0.00000000000E+00 -0.00000000000E+00 -0.50450982339E+02  0.50450982339E+02  0.00000000000E+00 0.  1.
         23    2    1    2    0    0  0.12809350836E+02 -0.32128900433E+02  0.95614185994E+02  0.16120092432E+03  0.12508924704E+03 0.  0.
          5    1    3    3  502    0  0.34893006178E+02  0.34073963447E+02  0.72669927884E+02  0.87618192653E+02  0.41800000000E+01 0. -1.
         -5    1    3    3    0  502 -0.22083655342E+02 -0.66202863880E+02  0.22944258110E+02  0.73582731666E+02  0.41800000000E+01 0. -1.
        -11    1    1    2    0    0 -0.45894670995E+02  0.39693542299E+02  0.84787617932E+02  0.10426331225E+03  0.00000000000E+00 0.  1.
         11    1    1    2    0    0  0.33085320160E+02 -0.75646418656E+01  0.28440595319E+02  0.44280127357E+02  0.00000000000E+00 0. -1.
</event>
<event>
 6    1  0.6506388E-006  0.1282100E+03  0.7561462E-02  0.1230136E+00
         -4   -1    0    0    0  501 -0.00000000000E+00  0.00000000000E+00  0.48318343173E+02  0.48318343173E+02  0.00000000000E+00 0.  1.
          4   -1    0    0  501    0  0.00000000000E+00 -0.00000000000E+00 -0.42218216763E+03  0.42218216763E+03  0.00000000000E+00 0. -1.
          5    1    1    2  502    0 -0.83783721940E+02 -0.23143443973E+01 -0.79738838234E+02  0.11576192368E+03  0.41800000000E+01 0. -1.
         -5    1    1    2    0  502  0.85236008716E+02 -0.40300934619E+02 -0.10566411448E+03  0.14167469782E+03  0.41800000000E+01 0.  1.
        -11    1    1    2    0    0 -0.10800405722E+02 -0.15704501662E+02 -0.41311828340E+01  0.19502482094E+02  0.00000000000E+00 0.  1.
         11    1    1    2    0    0  0.93481189459E+01  0.58319780678E+02 -0.18432968891E+03  0.19356140721E+03  0.00000000000E+00 0. -1.
</event>
<event>
 7    1  0.8205829E-006  0.2305722E+03  0.7561462E-02  0.1126238E+00
         -3   -1    0    0    0  501 -0.00000000000E+00  0.00000000000E+00  0.18112199666E+03  0.18112199666E+03  0.00000000000E+00 0.  1.
          3   -1    0    0  501    0  0.00000000000E+00 -0.00000000000E+00 -0.35432583881E+03  0.35432583881E+03  0.00000000000E+00 0. -1.
         23    2    1    2    0    0 -0.73452205157E+02 -0.21312415631E+03 -0.77828556226E+02  0.26929873065E+03  0.12508952683E+03 0.  0.
          5    1    3    3  502    0 -0.81099668575E+02 -0.19499152494E+03 -0.24915608501E+02  0.21269017605E+03  0.41800000000E+01 0. -1.
         -5    1    3    3    0  502  0.76474634187E+01 -0.18132631370E+02 -0.52912947725E+02  0.56608554602E+02  0.41800000000E+01 0. -1.
        -11    1    1    2    0    0  0.78588615204E+02  0.18182025602E+03 -0.11481094290E+03  0.22894612587E+03  0.00000000000E+00 0. -1.
         11    1    1    2    0    0 -0.51364100469E+01  0.31303900286E+02  0.19435656976E+02  0.37202978959E+02  0.00000000000E+00 0.  1.
</event>
<event>
 7    1  0.6506388E-006  0.1139517E+03  0.7561462E-02  0.1253422E+00
         -2   -1    0    0    0  501 -0.00000000000E+00  0.00000000000E+00  0.57901301095E+02  0.57901301095E+02  0.00000000000E+00 0. -1.
          2   -1    0    0  501    0  0.00000000000E+00 -0.00000000000E+00 -0.23331799731E+03  0.23331799731E+03  0.00000000000E+00 0.  1.
         23    2    1    2    0    0  0.35956390786E+02 -0.91177447851E+01 -0.78282588530E+02  0.15215278669E+03  0.12508521704E+03 0.  0.
          5    1    3    3  502    0 -0.30512664493E+02 -0.44095374306E+02 -0.21596115390E+02  0.57959376546E+02  0.41800000000E+01 0. -1.
         -5    1    3    3    0  502  0.66469055279E+02  0.34977629521E+02 -0.56686473140E+02  0.94193410139E+02  0.41800000000E+01 0. -1.
        -11    1    1    2    0    0 -0.26969398362E+02 -0.40394330522E+02 -0.55528256796E+02  0.73772879089E+02  0.00000000000E+00 0.  1.
         11    1    1    2    0    0 -0.89869924237E+01  0.49512075307E+02 -0.41605850892E+02  0.65293632634E+02  0.00000000000E+00 0. -1.
</event>
<event>
 7    1  0.6506388E-006  0.1670518E+03  0.7561462E-02  0.1180958E+00
         -2   -1    0    0    0  501 -0.00000000000E+00  0.00000000000E+00  0.22183725097E+03  0.22183725097E+03  0.00000000000E+00 0.  1.
          2   -1    0    0  501    0  0.00000000000E+00 -0.00000000000E+00 -0.14938106419E+03  0.14938106419E+03  0.00000000000E+00 0. -1.
         23    2    1    2    0    0  0.14622830791E+03 -0.80269977084E+01  0.25363556671E+02  0.19424318596E+03  0.12505980392E+03 0.  0.
          5    1    3    3  502    0  0.13691977051E+03 -0.39917378127E+02 -0.13060099879E+02  0.14327756014E+03  0.41800000000E+01 0. -1.
         -5    1    3    3    0  502  0.93085374021E+01  0.31890380419E+02  0.38423656550E+02  0.50965625813E+02  0.41800000000E+01 0. -1.
        -11    1    1    2    0    0 -0.13018850305E+03  0.27140595522E+02  0.63235809495E+02  0.14725632704E+03  0.00000000000E+00 0.  1.
         11    1    1    2    0    0 -0.16039804862E+02 -0.19113597813E+02 -0.16143179389E+02  0.29718802166E+02  0.00000000000E+00 0. -1.
</event>
<event>
 7    1  0.6506388E-006  0.1534826E+03  0.7561462E-02  0.1196258E+00
         -1   -1    0    0    0  501 -0.00000000000E+00  0.00000000000E+00  0.40381223598E+03  0.40381223598E+03  0.00000000000E+00 0.  1.
          1   -1    0    0  501    0  0.00000000000E+00 -0.00000000000E+00 -0.78641359962E+02  0.78641359962E+02  0.00000000000E+00 0. -1.
         23    2    1    2    0    0 -0.54823338578E+01 -0.13215536080E+03  0.23572870746E+03  0.29784619407E+03  0.12509690815E+03 0.  0.
          5    1    3    3  502    0  0.29235519300E+02 -0.87863468542E+02  0.53380892145E+02  0.10696586717E+03  0.41800000000E+01 0. -1.
         -5    1    3    3    0  502 -0.34717853158E+02 -0.44291892256E+02  0.18234781531E+03  0.19088032690E+03  0.41800000000E+01 0. -1.
        -11    1    1    2    0    0  0.45745638589E+02  0.76755495037E+02  0.69728983772E+02  0.11334108102E+03  0.00000000000E+00 0.  1.
         11    1    1    2    0    0 -0.40263304731E+02  0.55399865760E+02  0.19713184787E+02  0.71266320857E+02  0.00000000000E+00 0. -1.
</event>
<event>
 7    1  0.6506388E-006  0.1133702E+03  0.7561462E-02  0.1254453E+00
          2   -1    0    0  501    0  0.00000000000E+00  0.00000000000E+00  0.16174084021E+03  0.16174084021E+03  0.00000000000E+00 0.  1.
         -2   -1    0    0    0  501 -0.00000000000E+00 -0.00000000000E+00 -0.97974523099E+02  0.97974523099E+02  0.00000000000E+00 0. -1.
         23    2    1    2    0    0  0.33143890935E+02 -0.64516610418E+02  0.18662142265E+02  0.14579533793E+03  0.12508834670E+03 0.  0.
          5    1    3    3  502    0  0.66809804432E+02 -0.62368530890E+02 -0.20681841930E+02  0.93800824086E+02  0.41800000000E+01 0.  1.
         -5    1    3    3    0  502 -0.33665913497E+02 -0.21480795283E+01  0.39343984195E+02  0.51994513841E+02  0.41800000000E+01 0.  1.
        -11    1    1    2    0    0  0.21162028647E+02  0.30681367448E+02  0.30813341176E+02  0.48359484689E+02  0.00000000000E+00 0.  1.
         11    1    1    2    0    0 -0.54305919583E+02  0.33835242970E+02  0.14290833665E+02  0.65560540689E+02  0.00000000000E+00 0. -1.
</event>
<event>
 7    1  0.6506388E-006  0.7225362E+02  0.7561462E-02  0.1352593E+00
          1   -1    0    0  501    0  0.00000000000E+00  0.00000000000E+00  0.26517269591E+03  0.26517269591E+03  0.00000000000E+00 0. -1.
         -1   -1    0    0    0  501 -0.00000000000E+00 -0.00000000000E+00 -0.61483375297E+02  0.61483375297E+02  0.00000000000E+00 0.  1.
         23    2    1    2    0    0 -0.45861851940E+02 -0.89901088708E+01  0.53118360106E+02  0.14371019836E+03  0.12508768690E+03 0.  0.
          5    1    3    3  502    0  0.13346078472E+02  0.18702880195E+01 -0.34528807189E+02  0.37300492139E+02  0.41800000000E+01 0.  1.
         -5    1    3    3    0  502 -0.59207930412E+02 -0.10860396890E+02  0.87647167295E+02  0.10640970623E+03  0.41800000000E+01 0.  1.
        -11    1    1    2    0    0  0.36807406169E+02  0.29802479179E+02  0.15295973225E+03  0.16012386644E+03  0.00000000000E+00 0. -1.
         11    1    1    2    0    0  0.90544457708E+01 -0.20812370308E+02 -0.23887717372E+01  0.22822006407E+02  0.00000000000E+00 0.  1.
</event>
<event>
 7    1  0.6506388E-006  0.1023485E+03  0.7561462E-02  0.1275434E+00
          2   -1    0    0  501    0  0.00000000000E+00  0.00000000000E+00  0.20465200518E+03  0.20465200518E+03  0.00000000000E+00 0. -1.
         -2   -1    0    0    0  501 -0.00000000000E+00 -0.00000000000E+00 -0.62599506718E+02  0.62599506718E+02  0.00000000000E+00 0.  1.
         23    2    1    2    0    0  0.13880772612E+02 -0.31521762284E+02  0.77426654260E+02  0.15108955346E+03  0.12508744553E+03 0.  0.
          5    1    3    3  502    0  0.21620442492E+02  0.45936462992E+02  0.22287236068E+02  0.55603915845E+02  0.41800000000E+01 0. -1.
         -5    1    3    3    0  502 -0.77396698806E+01 -0.77458225276E+02  0.55139418192E+02  0.95485637618E+02  0.41800000000E+01 0. -1.
        -11    1    1    2    0    0  0.20612378831E+02 -0.90797753269E+01 -0.98578723811E+01  0.24586380965E+02  0.00000000000E+00 0.  1.
         11    1    1    2    0    0 -0.34493151443E+02  0.40601537611E+02  0.74483716585E+02  0.91575577471E+02  0.00000000000E+00 0. -1.
</event>
<event>
 7    1  0.6506388E-006  0.1157754E+03  0.7561462E-02  0.1250234E+00
         -2   -1    0    0    0  501 -0.00000000000E+00  0.00000000000E+00  0.30804034344E+02  0.30804034344E+02  0.00000000000E+00 0.  1.
          2   -1    0    0  501    0  0.00000000000E+00 -0.00000000000E+00 -0.48834974829E+03  0.48834974829E+03  0.00000000000E+00 0. -1.
         23    2    1    2    0    0 -0.47678929057E+02 -0.30939453202E+02 -0.25942765076E+03  0.29356710410E+03  0.12509359932E+03 0.  0.
          5    1    3    3  502    0  0.19864110897E+02  0.28818803773E+02 -0.27565396099E+02  0.44748517459E+02  0.41800000000E+01 0.  1.
         -5    1    3    3    0  502 -0.67543039953E+02 -0.59758256975E+02 -0.23186225466E+03  0.24881858664E+03  0.41800000000E+01 0.  1.
        -11    1    1    2    0    0 -0.48653145295E+01 -0.27213427651E+02 -0.71697893832E+02  0.76842891082E+02  0.00000000000E+00 0.  1.
         11    1    1    2    0    0  0.52544243586E+02  0.58152880853E+02 -0.12642016936E+03  0.14874378745E+03  0.00000000000E+00 0. -1.
</event>
<event>
 7    1  0.6506388E-006  0.8040709E+02  0.7561462E-02  0.1327900E+00
         -2   -1    0    0    0  501 -0.00000000000E+00  0.00000000000E+00  0.68096237591E+02  0.68096237591E+02  0.00000000000E+00 0.  1.
          2   -1    0    0  501    0  0.00000000000E+00 -0.00000000000E+00 -0.22276365747E+03  0.22276365747E+03  0.00000000000E+00 0. -1.
         23    2    1    2    0    0 -0.16159358363E+01  0.34699420598E+02 -0.34756320975E+02  0.13439632473E+03  0.12509080388E+03 0.  0.
          5    1    3    3  502    0 -0.24305852127E+02  0.64569554112E+01 -0.75516222996E+02  0.79703444445E+02  0.41800000000E+01 0.  1.
         -5    1    3    3    0  502  0.22689916291E+02  0.28242465187E+02  0.40759902021E+02  0.54692880285E+02  0.41800000000E+01 0.  1.
        -11    1    1    2    0    0  0.43889762020E+02  0.42232818982E+00 -0.39398372605E+02  0.58980686120E+02  0.00000000000E+00 0.  1.
         11    1    1    2    0    0 -0.42273826184E+02 -0.35121748788E+02 -0.80512726299E+02  0.97482884211E+02  0.00000000000E+00 0. -1.
</event>
<event>
 7    1  0.6506388E-006  0.1161731E+03  0.7561462E-02  0.1249547E+00
         -2   -1    0    0    0  501 -0.00000000000E+00  0.00000000000E+00  0.66865233926E+02  0.66865233926E+02  0.00000000000E+00 0. -1.
          2   -1    0    0  501    0  0.00000000000E+00 -0.00000000000E+00 -0.27433972464E+03  0.27433972464E+03  0.00000000000E+00 0.  1.
         23    2    1    2    0    0  0.77685003012E+02  0.24882172271E+02 -0.11870237820E+03  0.19078267174E+03  0.12511471160E+03 0.  0.
          5    1    3    3  502    0 -0.30807755646E+02 -0.91786221183E+01 -0.44040593937E+02  0.54684652566E+02  0.41800000000E+01 0. -1.
         -5    1    3    3    0  502  0.10849275866E+03  0.34060794389E+02 -0.74661784259E+02  0.13609801918E+03  0.41800000000E+01 0. -1.
        -11    1    1    2    0    0 -0.58506594676E+02 -0.53263773375E+01 -0.10373183412E+03  0.11921277333E+03  0.00000000000E+00 0.  1.
         11    1    1    2    0    0 -0.19178408336E+02 -0.19555794933E+02  0.14959721601E+02  0.31209513488E+02  0.00000000000E+00 0. -1.
</event>
<event>
 7    1  0.6506388E-006  0.1457506E+03  0.7561462E-02  0.1205794E+00
          2   -1    0    0  501    0  0.00000000000E+00  0.00000000000E+00  0.27456520596E+03  0.27456520596E+03  0.00000000000E+00 0. -1.
         -2   -1    0    0    0  501 -0.00000000000E+00 -0.00000000000E+00 -0.16095923011E+03  0.16095923011E+03  0.00000000000E+00 0.  1.
         23    2    1    2    0    0 -0.12630429388E+03 -0.33160112938E+02 -0.68812435453E+02  0.19347309844E+03  0.12507725935E+03 0.  0.
          5    1    3    3  502    0 -0.67483470705E+02  0.30445418381E+02 -0.76323844466E+02  0.10641308168E+03  0.41800000000E+01 0. -1.
         -5    1    3    3    0  502 -0.58820823170E+02 -0.63605531319E+02  0.75114090130E+01  0.87060016759E+02  0.41800000000E+01 0. -1.
        -11    1    1    2    0    0  0.78805334658E+02  0.22087404572E+02  0.39179842359E+02  0.90736950900E+02  0.00000000000E+00 0.  1.
         11    1    1    2    0    0  0.47498959217E+02  0.11072708366E+02  0.14323856895E+03  0.15131438673E+03  0.00000000000E+00 0. -1.
</event>
<event>
 7    1  0.6506388E-006  0.8750171E+02  0.7561462E-02  0.1309017E+00
         -3   -1    0    0    0  501 -0.00000000000E+00  0.00000000000E+00  0.47518927034E+02  0.47518927034E+02  0.00000000000E+00 0.  1.
          3   -1    0    0  501    0  0.00000000000E+00 -0.00000000000E+00 -0.34994403549E+03  0.34994403549E+03  0.00000000000E+00 0. -1.
         23    2    1    2    0    0  0.18377315154E+02 -0.32984410823E+02 -0.77854479378E+02  0.15210071847E+03  0.12509041342E+03 0.  0.
          5    1    3    3  502    0  0.35066161157E+02  0.32238731869E+02  0.16391405271E+01  0.47844860461E+02  0.41800000000E+01 0.  1.
         -5    1    3    3    0  502 -0.16688846003E+02 -0.65223142692E+02 -0.79493619905E+02  0.10425585801E+03  0.41800000000E+01 0.  1.
        -11    1    1    2    0    0 -0.19384220096E+02 -0.63404608091E+01 -0.33461716373E+01  0.20667517912E+02  0.00000000000E+00 0.  1.
         11    1    1    2    0    0  0.10069049425E+01  0.39324871632E+02 -0.22122445744E+03  0.22469472614E+03  0.00000000000E+00 0. -1.
</event>
<event>
 7    1  0.6506388E-006  0.1008849E+03  0.7561462E-02  0.1278446E+00
         -2   -1    0    0    0  501 -0.00000000000E+00  0.00000000000E+00  0.58731219565E+02  0.58731219565E+02  0.00000000000E+00 0. -1.
          2   -1    0    0  501    0  0.00000000000E+00 -0.00000000000E+00 -0.28148786791E+03  0.28148786791E+03  0.00000000000E+00 0.  1.
         23    2    1    2    0    0  0.50722421163E+02  0.26819088596E+02 -0.71767941417E+02  0.15521416992E+03  0.12509505828E+03 0.  0.
          5    1    3    3  502    0  0.14470916254E+02  0.59047229324E+02 -0.85162801273E+02  0.10471942431E+03  0.41800000000E+01 0. -1.
         -5    1    3    3    0  502  0.36251504910E+02 -0.32228140728E+02  0.13394859857E+02  0.50494745604E+02  0.41800000000E+01 0. -1.
        -11    1    1    2    0    0 -0.17914195302E+02 -0.49247297843E+02 -0.12977384481E+03  0.13995522689E+03  0.00000000000E+00 0.  1.
         11    1    1    2    0    0 -0.32808225862E+02  0.22428209247E+02 -0.21214862122E+02  0.45049690666E+02  0.00000000000E+00 0. -1.
</event>
<event>
 7    1  0.6506388E-006  0.1057941E+03  0.7561462E-02  0.1268563E+00
         -1   -1    0    0    0  501 -0.00000000000E+00  0.00000000000E+00  0.64964787281E+03  0.64964787281E+03  0.00000000000E+00 0.  1.
          1   -1    0    0  501    0  0.00000000000E+00 -0.00000000000E+00 -0.26982605370E+02  0.26982605370E+02  0.00000000000E+00 0. -1.
         23    2    1    2    0    0  0.56168371229E+02  0.48081692453E+02  0.34909973540E+03  0.37813140410E+03  0.12508396552E+03 0.  0.
          5    1    3    3  502    0 -0.27097124839E+02  0.34666687415E+02  0.47280792158E+02  0.64722323027E+02  0.41800000000E+01 0.  1.
         -5    1    3    3    0  502  0.83265496069E+02  0.13415005038E+02  0.30181894324E+03  0.31340908107E+03  0.41800000000E+01 0.  1.
        -11    1    1    2    0    0 -0.45071231528E+02 -0.54026178924E+02  0.27671704978E+03  0.28552157459E+03  0.00000000000E+00 0.  1.
         11    1    1    2    0    0 -0.11097139702E+02  0.59444864705E+01 -0.31515177398E+01  0.12977499490E+02  0.00000000000E+00 0. -1.
</event>
<event>
 7    1  0.6506388E-006  0.7109495E+02  0.7561462E-02  0.1356409E+00
          3   -1    0    0  501    0  0.00000000000E+00  0.00000000000E+00  0.20986741181E+03  0.20986741181E+03  0.00000000000E+00 0. -1.
         -3   -1    0    0    0  501 -0.00000000000E+00 -0.00000000000E+00 -0.10868724828E+03  0.10868724828E+03  0.00000000000E+00 0.  1.
         23    2    1    2    0    0  0.35795866016E+02  0.18244193572E+02 -0.47338323103E+02  0.13965064880E+03  0.12508873752E+03 0.  0.
          5    1    3    3  502    0 -0.35786019202E+01  0.19936316715E+02 -0.83486143957E+02  0.86009718919E+02  0.41800000000E+01 0.  1.
         -5    1    3    3    0  502  0.39374467936E+02 -0.16921231424E+01  0.36147820854E+02  0.53640929881E+02  0.41800000000E+01 0.  1.
        -11    1    1    2    0    0 -0.21395079637E+02 -0.45930251619E+02  0.36046306475E+02  0.62182583228E+02  0.00000000000E+00 0.  1.
         11    1    1    2    0    0 -0.14400786379E+02  0.27686058046E+02  0.11247218016E+03  0.11672142806E+03  0.00000000000E+00 0. -1.
</event>
<event>
 7    1  0.6506388E-006  0.8601048E+02  0.7561462E-02  0.1312811E+00
         -2   -1    0    0    0  501 -0.00000000000E+00  0.00000000000E+00  0.24709188704E+03  0.24709188704E+03  0.00000000000E+00 0.  1.
          2   -1    0    0  501    0  0.00000000000E+00 -0.00000000000E+00 -0.58190909987E+02  0.58190909987E+02  0.00000000000E+00 0. -1.
         23    2    1    2    0    0  0.18037297312E+02  0.39980130153E+02  0.14771547452E+03  0.19847362955E+03  0.12509262694E+03 0.  0.
          5    1    3    3  502    0  0.40721654801E+02  0.14755925521E+02 -0.32994143105E+01  0.43638847859E+02  0.41800000000E+01 0.  1.
         -5    1    3    3    0  502 -0.22684357488E+02  0.25224204633E+02  0.15101488883E+03  0.15483478169E+03  0.41800000000E+01 0.  1.
        -11    1    1    2    0    0 -0.36367595981E+02 -0.58105374304E+02  0.43080055120E+02  0.80961272899E+02  0.00000000000E+00 0.  1.
         11    1    1    2    0    0  0.18330298668E+02  0.18125244150E+02 -0.18945525790E+01  0.25847894581E+02  0.00000000000E+00 0. -1.
</event>
<event>
 7    1  0.6506388E-006  0.1002951E+03  0.7561462E-02  0.1279677E+00
         -3   -1    0    0    0  501 -0.00000000000E+00  0.00000000000E+00  0.34213553487E+03  0.34213553487E+03  0.00000000000E+00 0.  1.
          3   -1    0    0  501    0  0.00000000000E+00 -0.00000000000E+00 -0.49861440200E+02  0.49861440200E+02  0.00000000000E+00 0. -1.
         23    2    1    2    0    0 -0.41654805023E+02  0.53013561982E+02  0.21360990907E+03  0.25655624386E+03  0.12508538075E+03 0.  0.
          5    1    3    3  502    0 -0.59177479078E+01  0.80168821245E+02  0.72185914431E+02  0.10812186773E+03  0.41800000000E+01 0.  1.
         -5    1    3    3    0  502 -0.35737057115E+02 -0.27155259263E+02  0.14142399464E+03  0.14843437613E+03  0.41800000000E+01 0.  1.
        -11    1    1    2    0    0  0.46582266068E+01 -0.32264478311E+02  0.86380246724E+02  0.92326825245E+02  0.00000000000E+00 0.  1.
         11    1    1    2    0    0  0.36996578416E+02 -0.20749083672E+02 -0.77160611287E+01  0.43113905959E+02  0.00000000000E+00 0. -1.
</event>
<event>
 7    1  0.6506388E-006  0.2971709E+03  0.7561462E-02  0.1086663E+00
          1   -1    0    0  501    0  0.00000000000E+00  0.00000000000E+00  0.77949382810E+02  0.77949382810E+02  0.00000000000E+00 0. -1.
         -1   -1    0    0    0  501 -0.00000000000E+00 -0.00000000000E+00 -0.12498455537E+04  0.12498455537E+04  0.00000000000E+00 0.  1.
         23    2    1    2    0    0 -0.83711244619E+02 -0.27479249980E+03 -0.71562265271E+03  0.78120560099E+03  0.12509164449E+03 0.  0.
          5    1    3    3  502    0 -0.10978843917E+03 -0.23301049275E+03 -0.64891900339E+03  0.69818388442E+03  0.41800000000E+01 0.  1.
         -5    1    3    3    0  502  0.26077194554E+02 -0.41782007047E+02 -0.66703649322E+02  0.83021716566E+02  0.41800000000E+01 0.  1.
        -11    1    1    2    0    0  0.16490797480E+02  0.47962601877E+02 -0.29622621480E+02  0.58735485728E+02  0.00000000000E+00 0. -1.
         11    1    1    2    0    0  0.67220447139E+02  0.22682989792E+03 -0.42665089671E+03  0.48785384980E+03  0.00000000000E+00 0.  1.
</event>
<event>
 6    1  0.6506388E-006  0.1408937E+03  0.7561462E-02  0.1212131E+00
          1   -1    0    0  501    0  0.00000000000E+00  0.00000000000E+00  0.68553863545E+03  0.68553863545E+03  0.00000000000E+00 0. -1.
         -1   -1    0    0    0  501 -0.00000000000E+00 -0.00000000000E+00 -0.38302607556E+02  0.38302607556E+02  0.00000000000E+00 0.  1.
          5    1    1    2  502    0 -0.70897247145E+02 -0.83931359943E+01  0.30213216948E+03  0.31048057044E+03  0.41800000000E+01 0. -1.
         -5    1    1    2    0  502  0.95597311049E+02  0.51769771893E+02  0.10135082710E+03  0.14868899662E+03  0.41800000000E+01 0.  1.
        -11    1    1    2    0    0  0.33308320299E+02 -0.20562233236E+02  0.11789321186E+03  0.12422181386E+03  0.00000000000E+00 0.  1.
         11    1    1    2    0    0 -0.58008384203E+02 -0.22814402663E+02  0.12585981946E+03  0.14044986209E+03  0.00000000000E+00 0. -1.
</event>
<event>
 7    1  0.6506388E-006  0.7947219E+02  0.7561462E-02  0.1330556E+00
          4   -1    0    0  501    0  0.00000000000E+00  0.00000000000E+00  0.12861121232E+04  0.12861121232E+04  0.00000000000E+00 0. -1.
         -4   -1    0    0    0  501 -0.00000000000E+00 -0.00000000000E+00 -0.11197524292E+02  0.11197524292E+02  0.00000000000E+00 0.  1.
         23    2    1    2    0    0  0.19441534708E+02  0.45370095495E+02  0.78925767846E+03  0.80064181490E+03  0.12515276239E+03 0.  0.
          5    1    3    3  502    0  0.23449695705E+02  0.25275072637E+02  0.77394097218E+03  0.77471983216E+03  0.41800000000E+01 0.  1.
         -5    1    3    3    0  502 -0.40081609971E+01  0.20095022858E+02  0.15316706281E+02  0.25921982747E+02  0.41800000000E+01 0.  1.
        -11    1    1    2    0    0 -0.35218246541E+02 -0.67493038722E+02  0.38174611129E+03  0.38926305842E+03  0.00000000000E+00 0.  1.
         11    1    1    2    0    0  0.15776711834E+02  0.22122943227E+02  0.10391080913E+03  0.10740477414E+03  0.00000000000E+00 0. -1.
</event>
<event>
 7    1  0.6506388E-006  0.9371931E+02  0.7561462E-02  0.1294087E+00
         -3   -1    0    0    0  501 -0.00000000000E+00  0.00000000000E+00  0.85419416909E+03  0.85419416909E+03  0.00000000000E+00 0.  1.
          3   -1    0    0  501    0  0.00000000000E+00 -0.00000000000E+00 -0.25945742955E+02  0.25945742955E+02  0.00000000000E+00 0. -1.
         23    2    1    2    0    0 -0.43949600214E+02 -0.42313926399E+02  0.69366181350E+03  0.70748781994E+03  0.12510103173E+03 0.  0.
          5    1    3    3  502    0 -0.31979934364E+02 -0.61926170368E+02  0.17663861828E+03  0.18993746509E+03  0.41800000000E+01 0. -1.
         -5    1    3    3    0  502 -0.11969665851E+02  0.19612243969E+02  0.51702319522E+03  0.51755035485E+03  0.41800000000E+01 0. -1.
        -11    1    1    2    0    0 -0.19140337929E+02  0.16652540734E+01  0.73242261848E+02  0.75720238561E+02  0.00000000000E+00 0.  1.
         11    1    1    2    0    0  0.63089938143E+02  0.40648672325E+02  0.61344350793E+02  0.96931853541E+02  0.00000000000E+00 0. -1.
</event>
<event>
 7    1  0.6506388E-006  0.7035209E+02  0.7561462E-02  0.1358900E+00
          1   -1    0    0  501    0  0.00000000000E+00  0.00000000000E+00  0.38580890656E+03  0.38580890656E+03  0.00000000000E+00 0. -1.
         -1   -1    0    0    0  501 -0.00000000000E+00 -0.00000000000E+00 -0.42569999956E+02  0.42569999956E+02  0.00000000000E+00 0.  1.
         23    2    1    2    0    0  0.38485174827E+01  0.63027252024E+02  0.14528635398E+03  0.20184876432E+03  0.12509018115E+03 0.  0.
          5    1    3    3  502    0  0.13958636295E+02  0.33977334814E+02  0.16229514855E+03  0.16645266730E+03  0.41800000000E+01 0.  1.
         -5    1    3    3    0  502 -0.10110118812E+02  0.29049917209E+02 -0.17008794563E+02  0.35396097027E+02  0.41800000000E+01 0.  1.
        -11    1    1    2    0    0  0.16048372366E+02 -0.32621151235E+02  0.13895031452E+02  0.38919939138E+02  0.00000000000E+00 0.  1.
         11    1    1    2    0    0 -0.19896889849E+02 -0.30406100789E+02  0.18405752117E+03  0.18761020305E+03  0.00000000000E+00 0. -1.
</event>
<event>
 7    1  0.6506388E-006  0.1128413E+03  0.7561462E-02  0.1255397E+00
         -2   -1    0    0    0  501 -0.00000000000E+00  0.00000000000E+00  0.32590062799E+02  0.32590062799E+02  0.00000000000E+00 0. -1.
          2   -1    0    0  501    0  0.00000000000E+00 -0.00000000000E+00 -0.55425666739E+03  0.55425666739E+03  0.00000000000E+00 0.  1.
         23    2    1    2    0    0  0.72177081912E+02  0.28572683586E+02 -0.25990886920E+03  0.29870505040E+03  0.12508460116E+03 0.  0.
          5    1    3    3  502    0  0.69050620156E+02 -0.36017883505E+02 -0.10506709741E+03  0.13085046211E+03  0.41800000000E+01 0.  1.
         -5    1    3    3    0  502  0.31264617558E+01  0.64590567090E+02 -0.15484177178E+03  0.16785458829E+03  0.41800000000E+01 0.  1.
        -11    1    1    2    0    0 -0.33197640689E+02  0.21367151214E+01 -0.15084466986E+02  0.36526566265E+02  0.00000000000E+00 0. -1.
         11    1    1    2    0    0 -0.38979441223E+02 -0.30709398707E+02 -0.24667326841E+03  0.25161511353E+03  0.00000000000E+00 0.  1.
</event>
<event>
 7    1  0.6506388E-006  0.1065540E+03  0.7561462E-02  0.1267088E+00
         -2   -1    0    0    0  501 -0.00000000000E+00  0.00000000000E+00  0.99431426682E+02  0.99431426682E+02  0.00000000000E+00 0.  1.
          2   -1    0    0  501    0  0.00000000000E+00 -0.00000000000E+00 -0.20078881317E+03  0.20078881317E+03  0.00000000000E+00 0. -1.
         23    2    1    2    0    0 -0.46226541707E+02  0.62673974484E+02  0.14214650265E+02  0.14804258141E+03  0.12509847878E+03 0.  0.
          5    1    3    3  502    0  0.30018176149E+02  0.43079687150E+02  0.38849420387E+02  0.65449982496E+02  0.41800000000E+01 0.  1.
         -5    1    3    3    0  502 -0.76244717857E+02  0.19594287334E+02 -0.24634770122E+02  0.82592598919E+02  0.41800000000E+01 0.  1.
        -11    1    1    2    0    0  0.36778366079E+02 -0.29615761109E+02 -0.21243725084E+02  0.51778734756E+02  0.00000000000E+00 0.  1.
         11    1    1    2    0    0  0.94481756283E+01 -0.33058213375E+02 -0.94328311673E+02  0.10039892369E+03  0.00000000000E+00 0. -1.
</event>
<event>
 7    1  0.6506388E-006  0.1809163E+03  0.7561462E-02  0.1166919E+00
          1   -1    0    0  501    0  0.00000000000E+00  0.00000000000E+00  0.53110564432E+03  0.53110564432E+03  0.00000000000E+00 0. -1.
         -1   -1    0    0    0  501 -0.00000000000E+00 -0.00000000000E+00 -0.13075808664E+03  0.13075808664E+03  0.00000000000E+00 0.  1.
         23    2    1    2    0    0  0.10809802201E+03  0.12864398712E+03 -0.15933306861E+02  0.20388965247E+03  0.11437946639E+03 0.  0.
          5    1    3    3  502    0  0.79745748420E+01  0.77970727163E+02 -0.41408573918E+02  0.88742157581E+02  0.41800000000E+01 0. -1.
         -5    1    3    3    0  502  0.10012344717E+03  0.50673259956E+02  0.25475267057E+02  0.11514749489E+03  0.41800000000E+01 0.  1.
        -11    1    1    2    0    0 -0.73330283780E+02 -0.10822733941E+03  0.38603781433E+03  0.40757291570E+03  0.00000000000E+00 0. -1.
         11    1    1    2    0    0 -0.34767738227E+02 -0.20416647711E+02  0.30243050204E+02  0.50401162792E+02  0.00000000000E+00 0.  1.
</event>
<event>
 7    1  0.6506388E-006  0.1257402E+03  0.7561462E-02  0.1233917E+00
          2   -1    0    0  501    0  0.00000000000E+00  0.00000000000E+00  0.65425238716E+03  0.65425238716E+03  0.00000000000E+00 0. -1.
         -2   -1    0    0    0  501 -0.00000000000E+00 -0.00000000000E+00 -0.28865302379E+02  0.28865302379E+02  0.00000000000E+00 0.  1.
         23    2    1    2    0    0 -0.22602971097E+02 -0.76990399108E+02  0.28649220114E+03  0.32274503119E+03  0.12509259764E+03 0.  0.
          5    1    3    3  502    0  0.58504802499E+01 -0.10054216907E+03  0.14598280694E+03  0.17740182694E+03  0.41800000000E+01 0. -1.
         -5    1    3    3    0  502 -0.28453451346E+02  0.23551769961E+02  0.14050939421E+03  0.14534320425E+03  0.41800000000E+01 0. -1.
        -11    1    1    2    0    0  0.36920732845E+02  0.17964459419E+01  0.54472342656E+02  0.65830113522E+02  0.00000000000E+00 0.  1.
         11    1    1    2    0    0 -0.14317761749E+02  0.75193953166E+02  0.28442254098E+03  0.29454254483E+03  0.00000000000E+00 0. -1.
</event>
<event>
 7    1  0.6506388E-006  0.8953467E+02  0.7561462E-02  0.1303982E+00
         -2   -1    0    0    0  501 -0.00000000000E+00  0.00000000000E+00  0.71099955072E+02  0.71099955072E+02  0.00000000000E+00 0.  1.
          2   -1    0    0  501    0  0.00000000000E+00 -0.00000000000E+00 -0.27987021588E+03  0.27987021588E+03  0.00000000000E+00 0. -1.
         23    2    1    2    0    0 -0.40710319605E+02 -0.72239950453E+02 -0.69774038693E+02  0.16550811818E+03  0.12509428501E+03 0.  0.
          5    1    3    3  502    0 -0.12583498244E+02 -0.43910059163E+02 -0.10341805773E+03  0.11313357057E+03  0.41800000000E+01 0.  1.
         -5    1    3    3    0  502 -0.28126821362E+02 -0.28329891290E+02  0.33644019039E+02  0.52374547612E+02  0.41800000000E+01 0.  1.
        -11    1    1    2    0    0  0.33311055585E+02  0.17130785735E+02 -0.12154218407E+03  0.12718330375E+03  0.00000000000E+00 0. -1.
         11    1    1    2    0    0  0.73992640200E+01  0.55109164718E+02 -0.17454038046E+02  0.58278749026E+02  0.00000000000E+00 0.  1.
</event>
<event>
 7    1  0.6506388E-006  0.1830773E+03  0.7561462E-02  0.1164858E+00
         -2   -1    0    0    0  501 -0.00000000000E+00  0.00000000000E+00  0.69070665960E+03  0.69070665960E+03  0.00000000000E+00 0. -1.
          2   -1    0    0  501    0  0.00000000000E+00 -0.00000000000E+00 -0.50109613439E+02  0.50109613439E+02  0.00000000000E+00 0.  1.
         23    2    1    2    0    0 -0.15064443637E+03 -0.24294997851E+02  0.37023957268E+03  0.41953336170E+03  0.12508759840E+03 0.  0.
          5    1    3    3  502    0  0.16982062779E+02  0.12728888045E+02  0.74279360964E+02  0.77364791167E+02  0.41800000000E+01 0. -1.
         -5    1    3    3    0  502 -0.16762649915E+03 -0.37023885896E+02  0.29596021171E+03  0.34216857053E+03  0.41800000000E+01 0. -1.
        -11    1    1    2    0    0  0.15162789646E+03  0.31724273700E+01  0.22639100204E+03  0.27249581480E+03  0.00000000000E+00 0. -1.
         11    1    1    2    0    0 -0.98346009273E+00  0.21122570481E+02  0.43966471444E+02  0.48787096539E+02  0.00000000000E+00 0.  1.
</event>
<event>
 7    1  0.6506388E-006  0.1097858E+03  0.7561462E-02  0.1260967E+00
          1   -1    0    0  501    0  0.00000000000E+00  0.00000000000E+00  0.95601158692E+03  0.95601158692E+03  0.00000000000E+00 0. -1.
         -1   -1    0    0    0  501 -0.00000000000E+00 -0.00000000000E+00 -0.21091069834E+02  0.21091069834E+02  0.00000000000E+00 0.  1.
         23    2    1    2    0    0  0.46126662903E+02 -0.71822116470E+02  0.39400376787E+03  0.42210547623E+03  0.12509188032E+03 0.  0.
          5    1    3    3  502    0 -0.74301640461E+01 -0.17800377478E+02  0.30203934045E+03  0.30268349204E+03  0.41800000000E+01 0. -1.
         -5    1    3    3    0  502  0.53556826949E+02 -0.54021738992E+02  0.91964427425E+02  0.11942198419E+03  0.41800000000E+01 0. -1.
        -11    1    1    2    0    0  0.19828667325E+02  0.50628874667E+02  0.21176770247E+03  0.21863672794E+03  0.00000000000E+00 0.  1.
         11    1    1    2    0    0 -0.65955330228E+02  0.21193241803E+02  0.32914904675E+03  0.33636045258E+03  0.00000000000E+00 0. -1.
</event>
<event>
 7    1  0.6506388E-006  0.1341241E+03  0.7561462E-02  0.1221461E+00
         -1   -1    0    0    0  501 -0.00000000000E+00  0.00000000000E+00  0.17599746064E+02  0.17599746064E+02  0.00000000000E+00 0.  1.
          1   -1    0    0  501    0  0.00000000000E+00 -0.00000000000E+00 -0.11133743702E+04  0.11133743702E+04  0.00000000000E+00 0. -1.
         23    2    1    2    0    0 -0.22874493671E+02 -0.80502284845E+02 -0.67274691831E+03  0.68937612534E+03  0.12508863165E+03 0.  0.
          5    1    3    3  502    0 -0.50509259242E+02 -0.98537896144E+02 -0.58771616637E+03  0.59807078750E+03  0.41800000000E+01 0.  1.
         -5    1    3    3    0  502  0.27634765571E+02  0.18035611300E+02 -0.85030751945E+02  0.91305337847E+02  0.41800000000E+01 0.  1.
        -11    1    1    2    0    0  0.58462662674E+02  0.43766134112E+02 -0.20401362099E+03  0.21669082808E+03  0.00000000000E+00 0.  1.
         11    1    1    2    0    0 -0.35588169003E+02  0.36736150733E+02 -0.21901408478E+03  0.22490716279E+03  0.00000000000E+00 0. -1.
</event>
<event>
 7    1  0.6506388E-006  0.8465996E+02  0.7561462E-02  0.1316324E+00
         -1   -1    0    0    0  501 -0.00000000000E+00  0.00000000000E+00  0.35190315168E+03  0.35190315168E+03  0.00000000000E+00 0.  1.
          1   -1    0    0  501    0  0.00000000000E+00 -0.00000000000E+00 -0.37270375288E+02  0.37270375288E+02  0.00000000000E+00 0. -1.
         23    2    1    2    0    0  0.35482518023E+01 -0.26689930691E+02  0.21995876267E+03  0.25446765019E+03  0.12508790999E+03 0.  0.
          5    1    3    3  502    0  0.26649589823E+02  0.28763593325E+02  0.17481331069E+03  0.17920577818E+03  0.41800000000E+01 0. -1.
         -5    1    3    3    0  502 -0.23101338021E+02 -0.55453524016E+02  0.45145451982E+02  0.75261872012E+02  0.41800000000E+01 0. -1.
        -11    1    1    2    0    0  0.24433123835E+02 -0.74336109094E+01  0.86026703350E+02  0.89737560702E+02  0.00000000000E+00 0.  1.
         11    1    1    2    0    0 -0.27981375638E+02  0.34123541601E+02  0.86473103701E+01  0.44968316074E+02  0.00000000000E+00 0. -1.
</event>
<event>
 7    1  0.6506388E-006  0.1171297E+03  0.7561462E-02  0.1247909E+00
         -2   -1    0    0    0  501 -0.00000000000E+00  0.00000000000E+00  0.48405419337E+02  0.48405419337E+02  0.00000000000E+00 0.  1.
          2   -1    0    0  501    0  0.00000000000E+00 -0.00000000000E+00 -0.42311750007E+03  0.42311750007E+03  0.00000000000E+00 0. -1.
         23    2    1    2    0    0  0.79228297171E+01 -0.53899540410E+02 -0.79308797804E+02  0.15781742215E+03  0.12509405117E+03 0.  0.
          5    1    3    3  502    0  0.63583201235E+02 -0.25478330186E+02 -0.19812675838E+02  0.71428168899E+02  0.41800000000E+01 0.  1.
         -5    1    3    3    0  502 -0.55660371518E+02 -0.28421210224E+02 -0.59496121966E+02  0.86389253250E+02  0.41800000000E+01 0.  1.
        -11    1    1    2    0    0 -0.40133812578E+02 -0.84742029085E-01 -0.15038111776E+03  0.15564450094E+03  0.00000000000E+00 0. -1.
         11    1    1    2    0    0  0.32210982861E+02  0.53984282439E+02 -0.14502216517E+03  0.15806099632E+03  0.00000000000E+00 0.  1.
</event>
<event>
 7    1  0.6506388E-006  0.1273823E+03  0.7561462E-02  0.1231392E+00
         -1   -1    0    0    0  501 -0.00000000000E+00  0.00000000000E+00  0.87089176102E+02  0.87089176102E+02  0.00000000000E+00 0.  1.
          1   -1    0    0  501    0  0.00000000000E+00 -0.00000000000E+00 -0.31148824306E+03  0.31148824306E+03  0.00000000000E+00 0. -1.
         23    2    1    2    0    0  0.64445925951E+02  0.71602712522E+02 -0.26050068673E+02  0.16002063784E+03  0.12509105741E+03 0.  0.
          5    1    3    3  502    0  0.10186305979E+03  0.45396201640E+02 -0.13166483583E+02  0.11237315855E+03  0.41800000000E+01 0.  1.
         -5    1    3    3    0  502 -0.37417133839E+02  0.26206510882E+02 -0.12883585090E+02  0.47647479284E+02  0.41800000000E+01 0.  1.
        -11    1    1    2    0    0 -0.50468604912E+02 -0.46827507895E+02 -0.44220158872E+02  0.81824923025E+02  0.00000000000E+00 0.  1.
         11    1    1    2    0    0 -0.13977321038E+02 -0.24775204627E+02 -0.15412883942E+03  0.15673185830E+03  0.00000000000E+00 0. -1.
</event>
<event>
 7    1  0.6506388E-006  0.1281867E+03  0.7561462E-02  0.1230171E+00
         -2   -1    0    0    0  501 -0.00000000000E+00  0.00000000000E+00  0.47224073445E+02  0.47224073445E+02  0.00000000000E+00 0.  1.
          2   -1    0    0  501    0  0.00000000000E+00 -0.00000000000E+00 -0.53283843401E+03  0.53283843401E+03  0.00000000000E+00 0. -1.
         23    2    1    2    0    0 -0.37225408767E+02 -0.97823764247E+02 -0.17247118311E+03  0.23738030422E+03  0.12509148620E+03 0.  0.
          5    1    3    3  502    0  0.12201159375E+02 -0.35503953463E+02 -0.14991035170E+03  0.15459619966E+03  0.41800000000E+01 0. -1.
         -5    1    3    3    0  502 -0.49426568142E+02 -0.62319810785E+02 -0.22560831408E+02  0.82784104564E+02  0.41800000000E+01 0. -1.
        -11    1    1    2    0    0  0.66191998844E+02  0.83735240228E+02 -0.23184188742E+03  0.25523250563E+03  0.00000000000E+00 0.  1.
         11    1    1    2    0    0 -0.28966590077E+02  0.14088524019E+02 -0.81301290038E+02  0.87449697607E+02  0.00000000000E+00 0. -1.
</event>
<event>
 7    1  0.6506388E-006  0.1905280E+03  0.7561462E-02  0.1157986E+00
          2   -1    0    0  501    0  0.00000000000E+00  0.00000000000E+00  0.51194711214E+03  0.51194711214E+03  0.00000000000E+00 0. -1.
         -2   -1    0    0    0  501 -0.00000000000E+00 -0.00000000000E+00 -0.90675022372E+02  0.90675022372E+02  0.00000000000E+00 0.  1.
         23    2    1    2    0    0 -0.14671998562E+03  0.89011110753E+02  0.12017141680E+03  0.24400455145E+03  0.12508924692E+03 0.  0.
          5    1    3    3  502    0 -0.15989710667E+02 -0.16191994962E+02 -0.15774263878E+02  0.28002702529E+02  0.41800000000E+01 0. -1.
         -5    1    3    3    0  502 -0.13073027495E+03  0.10520310572E+03  0.13594568068E+03  0.21600184892E+03  0.41800000000E+01 0. -1.
        -11    1    1    2    0    0  0.10631773440E+03 -0.17247031496E+02  0.20861474386E+03  0.23477868749E+03  0.00000000000E+00 0.  1.
         11    1    1    2    0    0  0.40402251221E+02 -0.71764079258E+02  0.92485929105E+02  0.12383889558E+03  0.00000000000E+00 0. -1.
</event>
<event>
 7    1  0.6506388E-006  0.1913556E+03  0.7561462E-02  0.1157244E+00
         -2   -1    0    0    0  501 -0.00000000000E+00  0.00000000000E+00  0.13084752483E+03  0.13084752483E+03  0.00000000000E+00 0.  1.
          2   -1    0    0  501    0  0.00000000000E+00 -0.00000000000E+00 -0.34015008825E+03  0.34015008825E+03  0.00000000000E+00 0. -1.
         23    2    1    2    0    0  0.14611889619E+03  0.10137204628E+03 -0.74853107391E+02  0.22994502528E+03  0.12507878867E+03 0.  0.
          5    1    3    3  502    0  0.44421125769E+02  0.91345675030E+02 -0.77186607351E+02  0.12764213065E+03  0.41800000000E+01 0. -1.
         -5    1    3    3    0  502  0.10169777042E+03  0.10026371252E+02  0.23334999602E+01  0.10230289464E+03  0.41800000000E+01 0. -1.
        -11    1    1    2    0    0 -0.12910182624E+03 -0.96157390275E+02 -0.14800856788E+03  0.21867798566E+03  0.00000000000E+00 0. -1.
         11    1    1    2    0    0 -0.17017069946E+02 -0.52146560074E+01  0.13559111855E+02  0.22374602144E+02  0.00000000000E+00 0.  1.
</event>
<event>
 7    1  0.6506388E-006  0.2489766E+03  0.7561462E-02  0.1113953E+00
         -2   -1    0    0    0  501 -0.00000000000E+00  0.00000000000E+00  0.10044331545E+04  0.10044331545E+04  0.00000000000E+00 0. -1.
          2   -1    0    0  501    0  0.00000000000E+00 -0.00000000000E+00 -0.69588044871E+02  0.69588044871E+02  0.00000000000E+00 0.  1.
         23    2    1    2    0    0  0.23214514103E+03  0.67774099194E+02  0.48268302888E+03  0.55417965306E+03  0.12508991355E+03 0.  0.
          5    1    3    3  502    0  0.18017592656E+03  0.82693225662E+02  0.27184980298E+03  0.33648376167E+03  0.41800000000E+01 0.  1.
         -5    1    3    3    0  502  0.51969214463E+02 -0.14919126468E+02  0.21083322590E+03  0.21769589140E+03  0.41800000000E+01 0.  1.
        -11    1    1    2    0    0 -0.58599020572E+02  0.13830560412E+01  0.52573452543E+02  0.78738338618E+02  0.00000000000E+00 0.  1.
         11    1    1    2    0    0 -0.17354612045E+03 -0.69157155235E+02  0.39958862816E+03  0.44110320765E+03  0.00000000000E+00 0. -1.
</event>
<event>
 6    1  0.6506388E-006  0.9390597E+02  0.7561462E-02  0.1293659E+00
          1   -1    0    0  501    0  0.00000000000E+00  0.00000000000E+00  0.55072191315E+03  0.55072191315E+03  0.00000000000E+00 0. -1.
         -1   -1    0    0    0  501 -0.00000000000E+00 -0.00000000000E+00 -0.31086520947E+02  0.31086520947E+02  0.00000000000E+00 0.  1.
          5    1    1    2  502    0 -0.20306593393E+02  0.42380100616E+02  0.25613829941E+03  0.26044717600E+03  0.41800000000E+01 0. -1.
         -5    1    1    2    0  502 -0.24724524628E+01 -0.36551335155E+02 -0.10164083948E+01  0.36886564069E+02  0.41800000000E+01 0.  1.
        -11    1    1    2    0    0 -0.36732652555E+02 -0.21044419856E+02  0.12687631214E+03  0.13375258484E+03  0.00000000000E+00 0.  1.
         11    1    1    2    0    0  0.59511698411E+02  0.15215654395E+02  0.13763718905E+03  0.15072210918E+03  0.00000000000E+00 0. -1.
</event>
<event>
 7    1  0.6506388E-006  0.1493737E+03  0.7561462E-02  0.1201245E+00
         -2   -1    0    0    0  501 -0.00000000000E+00  0.00000000000E+00  0.14699063957E+04  0.14699063957E+04  0.00000000000E+00 0.  1.
          2   -1    0    0  501    0  0.00000000000E+00 -0.00000000000E+00 -0.25275212000E+02  0.25275212000E+02  0.00000000000E+00 0. -1.
         23    2    1    2    0    0  0.12187209335E+02  0.13168894998E+03  0.97518790170E+03  0.99203292323E+03  0.12508944612E+03 0.  0.
          5    1    3    3  502    0  0.49304611278E+02  0.10583440508E+03  0.86491025147E+03  0.87276519265E+03  0.41800000000E+01 0. -1.
         -5    1    3    3    0  502 -0.37117401943E+02  0.25854544899E+02  0.11027765023E+03  0.11926773059E+03  0.41800000000E+01 0. -1.
        -11    1    1    2    0    0  0.10553555320E+02 -0.21160167897E+02  0.37044970180E+01  0.23934358848E+02  0.00000000000E+00 0. -1.
         11    1    1    2    0    0 -0.22740764655E+02 -0.11052878208E+03  0.46573878503E+03  0.47921432566E+03  0.00000000000E+00 0.  1.
</event>
<event>
 7    1  0.6506388E-006  0.1948776E+03  0.7561462E-02  0.1154134E+00
          2   -1    0    0  501    0  0.00000000000E+00  0.00000000000E+00  0.24866131609E+03  0.24866131609E+03  0.00000000000E+00 0. -1.
         -2   -1    0    0    0  501 -0.00000000000E+00 -0.00000000000E+00 -0.25368360121E+03  0.25368360121E+03  0.00000000000E+00 0.  1.
         23    2    1    2    0    0 -0.10840363064E+03 -0.16142718345E+03 -0.12048786281E+03  0.25783805705E+03  0.11896661671E+03 0.  0.
          5    1    3    3  502    0 -0.20636015137E+02 -0.40107530546E+02  0.22652702951E+02  0.50646584073E+02  0.41800000000E+01 0. -1.
         -5    1    3    3    0  502 -0.87767615499E+02 -0.12131965290E+03 -0.14314056576E+03  0.20719147298E+03  0.41800000000E+01 0.  1.
        -11    1    1    2    0    0  0.55215766834E+02  0.74087200561E+02  0.29253542807E+01  0.92445940375E+02  0.00000000000E+00 0.  1.
         11    1    1    2    0    0  0.53187863802E+02  0.87339982885E+02  0.11254022342E+03  0.15206091987E+03  0.00000000000E+00 0. -1.
</event>
<event>
 7    1  0.6506388E-006  0.1500256E+03  0.7561462E-02  0.1200442E+00
         -2   -1    0    0    0  501 -0.00000000000E+00  0.00000000000E+00  0.28037492284E+02  0.28037492284E+02  0.00000000000E+00 0.  1.
          2   -1    0    0  501    0  0.00000000000E+00 -0.00000000000E+00 -0.10560919088E+04  0.10560919088E+04  0.00000000000E+00 0. -1.
         23    2    1    2    0    0  0.11241802070E+03 -0.70914771864E+02 -0.46214487241E+03  0.49688271812E+03  0.12509131151E+03 0.  0.
          5    1    3    3  502    0  0.46183509453E+02  0.22694265029E+02 -0.62370445650E+02  0.80965987310E+02  0.41800000000E+01 0. -1.
         -5    1    3    3    0  502  0.66234511249E+02 -0.93609036893E+02 -0.39977442676E+03  0.41591673080E+03  0.41800000000E+01 0. -1.
        -11    1    1    2    0    0 -0.38322875854E+02  0.32314762544E+02 -0.81479387541E+02  0.95664921920E+02  0.00000000000E+00 0.  1.
         11    1    1    2    0    0 -0.74095144848E+02  0.38600009320E+02 -0.48443015656E+03  0.49158176105E+03  0.00000000000E+00 0. -1.
</event>
<event>
 7    1  0.6506388E-006  0.1201555E+03  0.7561462E-02  0.1242841E+00
          3   -1    0    0  501    0  0.00000000000E+00  0.00000000000E+00  0.33117552852E+03  0.33117552852E+03  0.00000000000E+00 0. -1.
         -3   -1    0    0    0  501 -0.00000000000E+00 -0.00000000000E+00 -0.59041125768E+02  0.59041125768E+02  0.00000000000E+00 0.  1.
         23    2    1    2    0    0 -0.49412052151E+02 -0.46133414689E+02  0.71131919732E+02  0.15899018021E+03  0.12509310352E+03 0.  0.
          5    1    3    3  502    0  0.24603291983E+02 -0.57650777817E+02  0.52042185788E+02  0.81576930935E+02  0.41800000000E+01 0. -1.
         -5    1    3    3    0  502 -0.74015344134E+02  0.11517363127E+02  0.19089733944E+02  0.77413249271E+02  0.41800000000E+01 0. -1.
        -11    1    1    2    0    0 -0.16641712640E+02 -0.66438915607E+01  0.63606674760E+01  0.19014362608E+02  0.00000000000E+00 0.  1.
         11    1    1    2    0    0  0.66053764791E+02  0.52777306250E+02  0.19464181555E+03  0.21221211148E+03  0.00000000000E+00 0. -1.
</event>
<event>
 7    1  0.6506388E-006  0.1414530E+03  0.7561462E-02  0.1211387E+00
          1   -1    0    0  501    0  0.00000000000E+00  0.00000000000E+00  0.15130072996E+03  0.15130072996E+03  0.00000000000E+00 0. -1.
         -1   -1    0    0    0  501 -0.00000000000E+00 -0.00000000000E+00 -0.22771834082E+03  0.22771834082E+03  0.00000000000E+00 0.  1.
         23    2    1    2    0    0  0.11093904071E+03  0.70308618844E+02 -0.11524006677E+03  0.21489052795E+03  0.12508754284E+03 0.  0.
          5    1    3    3  502    0  0.15688454797E+02 -0.10751794643E+02  0.21851904446E+02  0.29269554658E+02  0.41800000000E+01 0.  1.
         -5    1    3    3    0  502  0.95250585914E+02  0.81060413487E+02 -0.13709197122E+03  0.18562097329E+03  0.41800000000E+01 0.  1.
        -11    1    1    2    0    0 -0.64183842204E+02 -0.15087842417E+02 -0.22101794793E+02  0.69539182638E+02  0.00000000000E+00 0.  1.
         11    1    1    2    0    0 -0.46755198507E+02 -0.55220776427E+02  0.60924250706E+02  0.94589360188E+02  0.00000000000E+00 0. -1.
</event>
<event>
 7    1  0.6506388E-006  0.1034801E+03  0.7561462E-02  0.1273143E+00
          4   -1    0    0  501    0  0.00000000000E+00  0.00000000000E+00  0.49952297144E+02  0.49952297144E+02  0.00000000000E+00 0. -1.
         -4   -1    0    0    0  501 -0.00000000000E+00 -0.00000000000E+00 -0.40392807141E+03  0.40392807141E+03  0.00000000000E+00 0.  1.
         23    2    1    2    0    0 -0.70583659531E+02  0.30238563404E+02 -0.27471515281E+03  0.31146761844E+03  0.12508892216E+03 0.  0.
          5    1    3    3  502    0  0.24242481603E+02  0.34165619361E+01 -0.15204898135E+03  0.15406406440E+03  0.41800000000E+01 0.  1.
         -5    1    3    3    0  502 -0.94826141133E+02  0.26822001468E+02 -0.12266617146E+03  0.15740355404E+03  0.41800000000E+01 0.  1.
        -11    1    1    2    0    0  0.34880217906E+02 -0.32552319736E+02  0.77477605984E+01  0.48335400233E+02  0.00000000000E+00 0.  1.
         11    1    1    2    0    0  0.35703441625E+02  0.23137563319E+01 -0.87008382054E+02  0.94077349877E+02  0.00000000000E+00 0. -1.
</event>
<event>
 7    1  0.6506388E-006  0.9756326E+02  0.7561462E-02  0.1285505E+00
         -2   -1    0    0    0  501 -0.00000000000E+00  0.00000000000E+00  0.43702473500E+02  0.43702473500E+02  0.00000000000E+00 0.  1.
          2   -1    0    0  501    0  0.00000000000E+00 -0.00000000000E+00 -0.34822202767E+03  0.34822202767E+03  0.00000000000E+00 0. -1.
         23    2    1    2    0    0 -0.54612999814E+02 -0.46874151684E+01 -0.13674388052E+03  0.19326686639E+03  0.12509452896E+03 0.  0.
          5    1    3    3  502    0 -0.67196567540E+02 -0.35757021794E+02 -0.31063269210E+02  0.82318542205E+02  0.41800000000E+01 0.  1.
         -5    1    3    3    0  502  0.12583567726E+02  0.31069606626E+02 -0.10568061131E+03  0.11094832419E+03  0.41800000000E+01 0.  1.
        -11    1    1    2    0    0  0.20344586624E+02 -0.30068394653E+02 -0.16827839960E+02  0.40014831746E+02  0.00000000000E+00 0.  1.
         11    1    1    2    0    0  0.34268413190E+02  0.34755809822E+02 -0.15094783369E+03  0.15864280304E+03  0.00000000000E+00 0. -1.
</event>
<event>
 7    1  0.6506388E-006  0.2141646E+03  0.7561462E-02  0.1138310E+00
          1   -1    0    0  501    0  0.00000000000E+00  0.00000000000E+00  0.91259672817E+03  0.91259672817E+03  0.00000000000E+00 0. -1.
         -1   -1    0    0    0  501 -0.00000000000E+00 -0.00000000000E+00 -0.52632389485E+02  0.52632389485E+02  0.00000000000E+00 0.  1.
         23    2    1    2    0    0  0.17828685015E+03 -0.64650288940E+02  0.43244659299E+03  0.48849218215E+03  0.12509474584E+03 0.  0.
          5    1    3    3  502    0  0.83981960563E+02  0.25521170071E+02  0.24319357895E+03  0.25858246086E+03  0.41800000000E+01 0. -1.
         -5    1    3    3    0  502  0.94304889592E+02 -0.90171459011E+02  0.18925301404E+03  0.22990972129E+03  0.41800000000E+01 0. -1.
        -11    1    1    2    0    0 -0.26631914318E+02  0.51136075771E+02  0.97107491348E+02  0.11293370614E+03  0.00000000000E+00 0.  1.
         11    1    1    2    0    0 -0.15165493584E+03  0.13514213168E+02  0.33041025435E+03  0.36380322937E+03  0.00000000000E+00 0. -1.
</event>
<event>
 7    1  0.6506388E-006  0.1409849E+03  0.7561462E-02  0.1212010E+00
         -1   -1    0    0    0  501 -0.00000000000E+00  0.00000000000E+00  0.40296238695E+03  0.40296238695E+03  0.00000000000E+00 0.  1.
          1   -1    0    0  501    0  0.00000000000E+00 -0.00000000000E+00 -0.54509683474E+02  0.54509683474E+02  0.00000000000E+00 0. -1.
         23    2    1    2    0    0  0.85197240879E+02 -0.51434106824E+02  0.16458883242E+03  0.22943617695E+03  0.12508972116E+03 0.  0.
          5    1    3    3  502    0 -0.25613849157E+02 -0.26363266963E+02  0.11481370584E+02  0.38734808430E+02  0.41800000000E+01 0.  1.
         -5    1    3    3    0  502  0.11081109004E+03 -0.25070839861E+02  0.15310746184E+03  0.19070136852E+03  0.41800000000E+01 0.  1.
        -11    1    1    2    0    0 -0.59054320666E+02  0.75432615112E+02  0.15534425823E+03  0.18250844029E+03  0.00000000000E+00 0.  1.
         11    1    1    2    0    0 -0.26142920213E+02 -0.23998508288E+02  0.28519612821E+02  0.45527453177E+02  0.00000000000E+00 0. -1.
</event>
<event>
 7    1  0.6506388E-006  0.9080115E+02  0.7561462E-02  0.1300923E+00
          2   -1    0    0  501    0  0.00000000000E+00  0.00000000000E+00  0.33076213695E+03  0.33076213695E+03  0.00000000000E+00 0. -1.
         -2   -1    0    0    0  501 -0.00000000000E+00 -0.00000000000E+00 -0.56924482862E+02  0.56924482862E+02  0.00000000000E+00 0.  1.
         23    2    1    2    0    0  0.33008620068E+02 -0.27899610590E+02  0.49759572034E+02  0.14139056933E+03  0.12508925140E+03 0.  0.
          5    1    3    3  502    0  0.64808103180E+01  0.40375547660E+02 -0.14774556353E+02  0.43680037393E+02  0.41800000000E+01 0. -1.
         -5    1    3    3    0  502  0.26527809750E+02 -0.68275158250E+02  0.64534128386E+02  0.97710531934E+02  0.41800000000E+01 0. -1.
        -11    1    1    2    0    0 -0.24255583688E+02  0.43176526034E+02  0.22324237186E+03  0.22866941714E+03  0.00000000000E+00 0. -1.
         11    1    1    2    0    0 -0.87530363807E+01 -0.15276915444E+02  0.83571018628E+00  0.17626633340E+02  0.00000000000E+00 0.  1.
</event>
<event>
 7    1  0.6506388E-006  0.1351078E+03  0.7561462E-02  0.1220068E+00
          4   -1    0    0  501    0  0.00000000000E+00  0.00000000000E+00  0.60652010499E+03  0.60652010499E+03  0.00000000000E+00 0. -1.
         -4   -1    0    0    0  501 -0.00000000000E+00 -0.00000000000E+00 -0.40183957012E+02  0.40183957012E+02  0.00000000000E+00 0.  1.
         23    2    1    2    0    0 -0.99270722658E+02 -0.47438548759E+02  0.27399376674E+03  0.32066411472E+03  0.12509115864E+03 0.  0.
          5    1    3    3  502    0 -0.10270222006E+03 -0.27923376380E+02  0.27997285341E+03  0.29954921466E+03  0.41800000000E+01 0. -1.
         -5    1    3    3    0  502  0.34314974003E+01 -0.19515172379E+02 -0.59790866688E+01  0.21114900066E+02  0.41800000000E+01 0. -1.
        -11    1    1    2    0    0  0.14252505216E+02  0.56204392002E+02  0.10065659609E+03  0.11616289391E+03  0.00000000000E+00 0. -1.
         11    1    1    2    0    0  0.85018217442E+02 -0.87658432424E+01  0.19168578514E+03  0.20987705337E+03  0.00000000000E+00 0.  1.
</event>
<event>
 7    1  0.6506388E-006  0.1276363E+03  0.7561462E-02  0.1231006E+00
          1   -1    0    0  501    0  0.00000000000E+00  0.00000000000E+00  0.13713338349E+03  0.13713338349E+03  0.00000000000E+00 0. -1.
         -1   -1    0    0    0  501 -0.00000000000E+00 -0.00000000000E+00 -0.16670622137E+03  0.16670622137E+03  0.00000000000E+00 0.  1.
         23    2    1    2    0    0 -0.38362268990E+02 -0.98570033696E+02 -0.47134367973E+02  0.16354159274E+03  0.11548371611E+03 0.  0.
          5    1    3    3  502    0 -0.62070054856E+02 -0.79986817295E+02  0.68689623476E+01  0.10156395864E+03  0.41800000000E+01 0. -1.
         -5    1    3    3    0  502  0.23707785867E+02 -0.18583216401E+02 -0.54003330321E+02  0.61977634097E+02  0.41800000000E+01 0.  1.
        -11    1    1    2    0    0  0.23266563508E+02 -0.54363557329E+00 -0.22464900564E+02  0.32346565111E+02  0.00000000000E+00 0.  1.
         11    1    1    2    0    0  0.15095705481E+02  0.99113669269E+02  0.40026430664E+02  0.10795144701E+03  0.00000000000E+00 0. -1.
</event>
<event>
 7    1  0.6506388E-006  0.9693865E+02  0.7561462E-02  0.1286869E+00
          2   -1    0    0  501    0  0.00000000000E+00  0.00000000000E+00  0.51230880569E+02  0.51230880569E+02  0.00000000000E+00 0. -1.
         -2   -1    0    0    0  501 -0.00000000000E+00 -0.00000000000E+00 -0.26743215695E+03  0.26743215695E+03  0.00000000000E+00 0.  1.
         23    2    1    2    0    0  0.24145626866E+02  0.28147881430E+02 -0.15116764015E+03  0.19968629111E+03  0.12509054681E+03 0.  0.
          5    1    3    3  502    0 -0.40252118025E+02  0.98761817431E+01 -0.91814323245E+01  0.42656102387E+02  0.41800000000E+01 0. -1.
         -5    1    3    3    0  502  0.64397744891E+02  0.18271699687E+02 -0.14198620783E+03  0.15703018872E+03  0.41800000000E+01 0. -1.
        -11    1    1    2    0    0  0.47246699752E+01  0.24583616600E+02  0.61757465108E+01  0.25784036854E+02  0.00000000000E+00 0. -1.
         11    1    1    2    0    0 -0.28870296841E+02 -0.52731498031E+02 -0.71209382739E+02  0.93192709555E+02  0.00000000000E+00 0.  1.
</event>
<event>
 6    1  0.6506388E-006  0.1247847E+03  0.7561462E-02  0.1235406E+00
          4   -1    0    0  501    0  0.00000000000E+00  0.00000000000E+00  0.12515271056E+03  0.12515271056E+03  0.00000000000E+00 0. -1.
         -4   -1    0    0    0  501 -0.00000000000E+00 -0.00000000000E+00 -0.19428579370E+03  0.19428579370E+03  0.00000000000E+00 0.  1.
          5    1    1    2  502    0 -0.45073983149E+01  0.26328219932E+02  0.42125954432E+02  0.50055571530E+02  0.41800000000E+01 0. -1.
         -5    1    1    2    0  502 -0.42235688750E+02 -0.91845311580E+02 -0.10791438512E+03  0.14792701436E+03  0.41800000000E+01 0.  1.
        -11    1    1    2    0    0 -0.20297837924E+02  0.47922959758E+02  0.36384203053E+00  0.52045601903E+02  0.00000000000E+00 0. -1.
         11    1    1    2    0    0  0.67040924989E+02  0.17594131889E+02 -0.37084944853E+01  0.69410316464E+02  0.00000000000E+00 0.  1.
</event>
<event>
 7    1  0.6506388E-006  0.1272953E+03  0.7561462E-02  0.1231525E+00
         -1   -1    0    0    0  501 -0.00000000000E+00  0.00000000000E+00  0.50732411766E+02  0.50732411766E+02  0.00000000000E+00 0.  1.
          1   -1    0    0  501    0  0.00000000000E+00 -0.00000000000E+00 -0.47190403157E+03  0.47190403157E+03  0.00000000000E+00 0. -1.
         23    2    1    2    0    0 -0.26156078762E+02  0.88841501429E+02 -0.12452374224E+03  0.19912848552E+03  0.12477595333E+03 0.  0.
          5    1    3    3  502    0  0.23686798160E+02 -0.14768010321E+02  0.17785651105E+01  0.28280633475E+02  0.41800000000E+01 0.  1.
         -5    1    3    3    0  502 -0.49842876922E+02  0.10360951175E+03 -0.12630230735E+03  0.17084785204E+03  0.41800000000E+01 0.  1.
        -11    1    1    2    0    0 -0.15260955928E+02 -0.57182043632E+02 -0.73574047072E+02  0.94423637360E+02  0.00000000000E+00 0.  1.
         11    1    1    2    0    0  0.41417034690E+02 -0.31659457798E+02 -0.22307383049E+03  0.22908432046E+03  0.00000000000E+00 0. -1.
</event>
<event>
 7    1  0.6506388E-006  0.9521192E+02  0.7561462E-02  0.1290700E+00
         -1   -1    0    0    0  501 -0.00000000000E+00  0.00000000000E+00  0.12698560530E+04  0.12698560530E+04  0.00000000000E+00 0.  1.
          1   -1    0    0  501    0  0.00000000000E+00 -0.00000000000E+00 -0.17103324831E+02  0.17103324831E+02  0.00000000000E+00 0. -1.
         23    2    1    2    0    0 -0.38606350147E+02  0.28155547056E+02  0.10622691485E+04  0.10706753112E+04  0.12508674240E+03 0.  0.
          5    1    3    3  502    0 -0.43025842096E+02 -0.33742225009E+02  0.76534293445E+03  0.76730505051E+03  0.41800000000E+01 0. -1.
         -5    1    3    3    0  502  0.44194919492E+01  0.61897772066E+02  0.29692621406E+03  0.30337026072E+03  0.41800000000E+01 0. -1.
        -11    1    1    2    0    0  0.85015543050E+01  0.17064577793E+02  0.91700073592E+00  0.19087093315E+02  0.00000000000E+00 0. -1.
         11    1    1    2    0    0  0.30104795842E+02 -0.45220124849E+02  0.18956657889E+03  0.19719697324E+03  0.00000000000E+00 0.  1.
</event>
<event>
 7    1  0.6506388E-006  0.9646210E+02  0.7561462E-02  0.1287917E+00
         -1   -1    0    0    0  501 -0.00000000000E+00  0.00000000000E+00  0.24039415885E+03  0.24039415885E+03  0.00000000000E+00 0.  1.
          1   -1    0    0  501    0  0.00000000000E+00 -0.00000000000E+00 -0.88773672660E+02  0.88773672660E+02  0.00000000000E+00 0. -1.
         23    2    1    2    0    0  0.12953702211E+02 -0.73546333480E+02  0.15529239080E+03  0.21293279191E+03  0.12509110944E+03 0.  0.
          5    1    3    3  502    0  0.16319331430E+02 -0.71474408971E+02  0.17639000653E+03  0.19106495890E+03  0.41800000000E+01 0.  1.
         -5    1    3    3    0  502 -0.33656292188E+01 -0.20719245090E+01 -0.21097615728E+02  0.21867833012E+02  0.41800000000E+01 0.  1.
        -11    1    1    2    0    0  0.27384284271E+02  0.67636867369E+02  0.90462324186E+01  0.73528764259E+02  0.00000000000E+00 0.  1.
         11    1    1    2    0    0 -0.40337986482E+02  0.59094661107E+01 -0.12718137037E+02  0.42706275333E+02  0.00000000000E+00 0. -1.
</event>
<event>
 7    1  0.6506388E-006  0.9906146E+02  0.7561462E-02  0.1282282E+00
          2   -1    0    0  501    0  0.00000000000E+00  0.00000000000E+00  0.10078255850E+03  0.10078255850E+03  0.00000000000E+00 0.  1.
         -2   -1    0    0    0  501 -0.00000000000E+00 -0.00000000000E+00 -0.13753128165E+03  0.13753128165E+03  0.00000000000E+00 0. -1.
         23    2    1    2    0    0 -0.14640948211E+02  0.12439283392E+02 -0.66300121157E+02  0.14288735699E+03  0.12510794374E+03 0.  0.
          5    1    3    3  502    0 -0.38159263295E+02 -0.47603944595E+02 -0.24226872333E+02  0.65777493562E+02  0.41800000000E+01 0.  1.
         -5    1    3    3    0  502  0.23518315083E+02  0.60043227988E+02 -0.42073248823E+02  0.77109863429E+02  0.41800000000E+01 0.  1.
        -11    1    1    2    0    0 -0.36783068699E+01  0.27849411049E+02 -0.15657546780E+02  0.32160199135E+02  0.00000000000E+00 0.  1.
         11    1    1    2    0    0  0.18319255081E+02 -0.40288694441E+02  0.45208944781E+02  0.63266284028E+02  0.00000000000E+00 0. -1.
</event>
<event>
 7    1  0.6506388E-006  0.8112871E+02  0.7561462E-02  0.1325879E+00
          2   -1    0    0  501    0  0.00000000000E+00  0.00000000000E+00  0.24723573823E+03  0.24723573823E+03  0.00000000000E+00 0. -1.
         -2   -1    0    0    0  501 -0.00000000000E+00 -0.00000000000E+00 -0.70216581459E+02  0.70216581459E+02  0.00000000000E+00 0.  1.
         23    2    1    2    0    0  0.67137476951E+02 -0.19860824303E+02  0.69734272968E+02  0.15941575074E+03  0.12509444273E+03 0.  0.
          5    1    3    3  502    0 -0.88188551357E-01 -0.18093999729E+02  0.87731053762E+02  0.89675028841E+02  0.41800000000E+01 0.  1.
         -5    1    3    3    0  502  0.67225665503E+02 -0.17668245737E+01 -0.17996780795E+02  0.69740721894E+02  0.41800000000E+01 0.  1.
        -11    1    1    2    0    0 -0.40836507408E+02 -0.36912855626E+01  0.11483287206E+03  0.12193372967E+03  0.00000000000E+00 0. -1.
         11    1    1    2    0    0 -0.26300969544E+02  0.23552109865E+02 -0.75479882486E+01  0.36102839288E+02  0.00000000000E+00 0.  1.
</event>
<event>
 7    1  0.6506388E-006  0.1198689E+03  0.7561462E-02  0.1243313E+00
         -1   -1    0    0    0  501 -0.00000000000E+00  0.00000000000E+00  0.10055396789E+03  0.10055396789E+03  0.00000000000E+00 0.  1.
          1   -1    0    0  501    0  0.00000000000E+00 -0.00000000000E+00 -0.24328218600E+03  0.24328218600E+03  0.00000000000E+00 0. -1.
         23    2    1    2    0    0 -0.94025082742E+02 -0.91756206617E+01 -0.92750251863E+01  0.15703180442E+03  0.12509217924E+03 0.  0.
          5    1    3    3  502    0  0.19217324670E+02 -0.15133122865E+02  0.28166374864E+02  0.37538434279E+02  0.41800000000E+01 0.  1.
         -5    1    3    3    0  502 -0.11324240741E+03  0.59575022028E+01 -0.37441400050E+02  0.11949337014E+03  0.41800000000E+01 0.  1.
        -11    1    1    2    0    0  0.56302467242E+02 -0.12869883709E+02 -0.13739225443E+02  0.59366388134E+02  0.00000000000E+00 0.  1.
         11    1    1    2    0    0  0.37722615500E+02  0.22045504371E+02 -0.11971396747E+03  0.12743796134E+03  0.00000000000E+00 0. -1.
</event>
<event>
 7    1  0.6506388E-006  0.1246831E+03  0.7561462E-02  0.1235565E+00
          1   -1    0    0  501    0  0.00000000000E+00  0.00000000000E+00  0.22084698293E+03  0.22084698293E+03  0.00000000000E+00 0. -1.
         -1   -1    0    0    0  501 -0.00000000000E+00 -0.00000000000E+00 -0.99604950124E+02  0.99604950124E+02  0.00000000000E+00 0.  1.
         23    2    1    2    0    0  0.15227916597E+02  0.69328043747E+02 -0.13023117002E+02  0.14441405808E+03  0.12509017348E+03 0.  0.
          5    1    3    3  502    0  0.64084955455E+02  0.13406348064E+02  0.10427689364E+02  0.66429065849E+02  0.41800000000E+01 0. -1.
         -5    1    3    3    0  502 -0.48857038858E+02  0.55921695683E+02 -0.23450806367E+02  0.77984992231E+02  0.41800000000E+01 0. -1.
        -11    1    1    2    0    0 -0.49371338793E+02 -0.49447482413E+02  0.10786321541E+03  0.12851869844E+03  0.00000000000E+00 0. -1.
         11    1    1    2    0    0  0.34143422195E+02 -0.19880561334E+02  0.26401934399E+02  0.47519176531E+02  0.00000000000E+00 0.  1.
</event>
<event>
 7    1  0.6506388E-006  0.9253671E+02  0.7561462E-02  0.1296822E+00
          1   -1    0    0  501    0  0.00000000000E+00  0.00000000000E+00  0.49862531837E+02  0.49862531837E+02  0.00000000000E+00 0. -1.
         -1   -1    0    0    0  501 -0.00000000000E+00 -0.00000000000E+00 -0.30697153845E+03  0.30697153845E+03  0.00000000000E+00 0.  1.
         23    2    1    2    0    0  0.50348095429E+02  0.78223825533E+00 -0.18994874706E+03  0.23293490251E+03  0.12507037892E+03 0.  0.
          5    1    3    3  502    0  0.63146001026E+02  0.34377423957E+02 -0.48251574184E+02  0.86688589415E+02  0.41800000000E+01 0.  1.
         -5    1    3    3    0  502 -0.12797905597E+02 -0.33595185702E+02 -0.14169717288E+03  0.14624631309E+03  0.41800000000E+01 0.  1.
        -11    1    1    2    0    0 -0.59468095163E+02  0.12483214591E+02 -0.64670446904E+01  0.61107345351E+02  0.00000000000E+00 0. -1.
         11    1    1    2    0    0  0.91199997339E+01 -0.13265452846E+02 -0.60693214859E+02  0.62791822432E+02  0.00000000000E+00 0.  1.
</event>
<event>
 7    1  0.6506388E-006  0.1047547E+03  0.7561462E-02  0.1270604E+00
         -2   -1    0    0    0  501 -0.00000000000E+00  0.00000000000E+00  0.34736877404E+03  0.34736877404E+03  0.00000000000E+00 0.  1.
          2   -1    0    0  501    0  0.00000000000E+00 -0.00000000000E+00 -0.48093013428E+02  0.48093013428E+02  0.00000000000E+00 0. -1.
         23    2    1    2    0    0 -0.52355628290E+02 -0.31737573665E+02  0.21855373379E+03  0.25915724246E+03  0.12509339059E+03 0.  0.
          5    1    3    3  502    0 -0.63377072330E+02  0.49760211529E+01  0.21028110319E+03  0.21972034235E+03  0.41800000000E+01 0. -1.
         -5    1    3    3    0  502  0.11021444039E+02 -0.36713594818E+02  0.82726306032E+01  0.39436900110E+02  0.41800000000E+01 0. -1.
        -11    1    1    2    0    0  0.76946651950E+02  0.30000456814E+02  0.48648081466E+02  0.95851189276E+02  0.00000000000E+00 0. -1.
         11    1    1    2    0    0 -0.24591023659E+02  0.17371168505E+01  0.32073945353E+02  0.40453355733E+02  0.00000000000E+00 0.  1.
</event>
<event>
 7    1  0.6506388E-006  0.9514356E+02  0.7561462E-02  0.1290853E+00
         -2   -1    0    0    0  501 -0.00000000000E+00  0.00000000000E+00  0.56360520558E+02  0.56360520558E+02  0.00000000000E+00 0.  1.
          2   -1    0    0  501    0  0.00000000000E+00 -0.00000000000E+00 -0.25030808279E+03  0.25030808279E+03  0.00000000000E+00 0. -1.
         23    2    1    2    0    0  0.29943063906E+02  0.29048207198E+02 -0.66128067181E+02  0.14751490331E+03  0.12508932813E+03 0.  0.
          5    1    3    3  502    0  0.61968848237E+02  0.22468748667E+02  0.78620965702E+01  0.66515169555E+02  0.41800000000E+01 0. -1.
         -5    1    3    3    0  502 -0.32025784331E+02  0.65794585308E+01 -0.73990163751E+02  0.80999733756E+02  0.41800000000E+01 0. -1.
        -11    1    1    2    0    0 -0.35412154478E+02 -0.54637784860E+02 -0.10883792297E+03  0.12682666004E+03  0.00000000000E+00 0.  1.
         11    1    1    2    0    0  0.54690905722E+01  0.25589577662E+02 -0.18981572081E+02  0.32327040002E+02  0.00000000000E+00 0. -1.
</event>
<event>
 7    1  0.6506388E-006  0.1886394E+03  0.7561462E-02  0.1159694E+00
         -1   -1    0    0    0  501 -0.00000000000E+00  0.00000000000E+00  0.60346712110E+02  0.60346712110E+02  0.00000000000E+00 0.  1.
          1   -1    0    0  501    0  0.00000000000E+00 -0.00000000000E+00 -0.65197494832E+03  0.65197494832E+03  0.00000000000E+00 0. -1.
         23    2    1    2    0    0  0.16081033936E+03 -0.14798542007E+02 -0.37465468521E+03  0.42672327350E+03  0.12509059481E+03 0.  0.
          5    1    3    3  502    0  0.10970250452E+03  0.39942767593E+02 -0.15156854158E+03  0.19136498995E+03  0.41800000000E+01 0.  1.
         -5    1    3    3    0  502  0.51107834839E+02 -0.54741309600E+02 -0.22308614363E+03  0.23535828356E+03  0.41800000000E+01 0.  1.
        -11    1    1    2    0    0 -0.73556066366E+02  0.52528409230E+02 -0.11335403685E+03  0.14497884792E+03  0.00000000000E+00 0.  1.
         11    1    1    2    0    0 -0.87254272992E+02 -0.37729867223E+02 -0.10361951415E+03  0.14061953900E+03  0.00000000000E+00 0. -1.
</event>
<event>
 7    1  0.6506388E-006  0.1427891E+03  0.7561462E-02  0.1209625E+00
         -2   -1    0    0    0  501 -0.00000000000E+00  0.00000000000E+00  0.15044088711E+03  0.15044088711E+03  0.00000000000E+00 0.  1.
          2   -1    0    0  501    0  0.00000000000E+00 -0.00000000000E+00 -0.16181068222E+03  0.16181068222E+03  0.00000000000E+00 0. -1.
         23    2    1    2    0    0  0.56578208390E+02 -0.84329195606E+02  0.41965976240E+02  0.16649846022E+03  0.12509231471E+03 0.  0.
          5    1    3    3  502    0  0.14942562662E+01  0.31776951100E+02  0.34226591919E+01  0.32267544359E+02  0.41800000000E+01 0. -1.
         -5    1    3    3    0  502  0.55083952124E+02 -0.11610614671E+03  0.38543317048E+02  0.13423091586E+03  0.41800000000E+01 0. -1.
        -11    1    1    2    0    0  0.21267283507E+01  0.62108455924E+02  0.18520527997E+01  0.62172448643E+02  0.00000000000E+00 0.  1.
         11    1    1    2    0    0 -0.58704936741E+02  0.22220739682E+02 -0.55187824148E+02  0.83580660466E+02  0.00000000000E+00 0. -1.
</event>
<event>
 6    1  0.6506388E-006  0.1185734E+03  0.7561462E-02  0.1245469E+00
         -1   -1    0    0    0  501 -0.00000000000E+00  0.00000000000E+00  0.25080646253E+03  0.25080646253E+03  0.00000000000E+00 0.  1.
          1   -1    0    0  501    0  0.00000000000E+00 -0.00000000000E+00 -0.98716839080E+02  0.98716839080E+02  0.00000000000E+00 0. -1.
          5    1    1    2  502    0 -0.15735768475E+02  0.84760447016E+02  0.14694347855E+03  0.17041656632E+03  0.41800000000E+01 0. -1.
         -5    1    1    2    0  502  0.22137448024E+02 -0.63564245318E+02 -0.36347814721E+02  0.76610155482E+02  0.41800000000E+01 0.  1.
        -11    1    1    2    0    0  0.24719110331E+02  0.19980168798E+02 -0.60122150957E+01  0.32347925607E+02  0.00000000000E+00 0. -1.
         11    1    1    2    0    0 -0.31120789879E+02 -0.41176370496E+02  0.47506174712E+02  0.70148654197E+02  0.00000000000E+00 0.  1.
</event>
<event>
 7    1  0.6506388E-006  0.6479095E+02  0.7561462E-02  0.1378760E+00
         -2   -1    0    0    0  501 -0.00000000000E+00  0.00000000000E+00  0.98194111685E+02  0.98194111685E+02  0.00000000000E+00 0. -1.
          2   -1    0    0  501    0  0.00000000000E+00 -0.00000000000E+00 -0.14038233344E+03  0.14038233344E+03  0.00000000000E+00 0.  1.
         23    2    1    2    0    0  0.40403135797E+02 -0.10072619098E+02 -0.85509370047E+00  0.13184158454E+03  0.12509037209E+03 0.  0.
          5    1    3    3  502    0  0.12067089703E+02  0.20370566891E+02 -0.56989810588E+02  0.61853743299E+02  0.41800000000E+01 0. -1.
         -5    1    3    3    0  502  0.28336046094E+02 -0.30443185988E+02  0.56134716887E+02  0.69987841240E+02  0.41800000000E+01 0. -1.
        -11    1    1    2    0    0 -0.18658543366E+02 -0.19529213181E+02 -0.59805089408E+02  0.65621491351E+02  0.00000000000E+00 0.  1.
         11    1    1    2    0    0 -0.21744592431E+02  0.29601832278E+02  0.18471961349E+02  0.41113369240E+02  0.00000000000E+00 0. -1.
</event>
<event>
 7    1  0.6506388E-006  0.1196938E+03  0.7561462E-02  0.1243603E+00
         -1   -1    0    0    0  501 -0.00000000000E+00  0.00000000000E+00  0.59039810478E+03  0.59039810478E+03  0.00000000000E+00 0.  1.
          1   -1    0    0  501    0  0.00000000000E+00 -0.00000000000E+00 -0.27574786571E+02  0.27574786571E+02  0.00000000000E+00 0. -1.
         23    2    1    2    0    0 -0.25258800674E+02  0.49014060451E+02  0.39827920335E+03  0.42107675585E+03  0.12505568905E+03 0.  0.
          5    1    3    3  502    0 -0.74011877862E+02  0.33268684711E+02  0.19191191469E+03  0.20840397992E+03  0.41800000000E+01 0. -1.
         -5    1    3    3    0  502  0.48753077187E+02  0.15745375740E+02  0.20636728866E+03  0.21267277593E+03  0.41800000000E+01 0. -1.
        -11    1    1    2    0    0 -0.13000090063E+02 -0.64249146778E+02  0.11597776269E+03  0.13322085663E+03  0.00000000000E+00 0. -1.
         11    1    1    2    0    0  0.38258890737E+02  0.15235086327E+02  0.48566352169E+02  0.63675278868E+02  0.00000000000E+00 0.  1.
</event>
<event>
 7    1  0.6506388E-006  0.2403574E+03  0.7561462E-02  0.1119555E+00
         -2   -1    0    0    0  501 -0.00000000000E+00  0.00000000000E+00  0.81740913454E+02  0.81740913454E+02  0.00000000000E+00 0.  1.
          2   -1    0    0  501    0  0.00000000000E+00 -0.00000000000E+00 -0.73367618521E+03  0.73367618521E+03  0.00000000000E+00 0. -1.
         23    2    1    2    0    0 -0.16944608742E+03 -0.13713689873E+03 -0.30005192550E+03  0.39140266979E+03  0.12508551630E+03 0.  0.
          5    1    3    3  502    0  0.58730603674E+01  0.16446616082E+02 -0.17164963238E+02  0.24841344199E+02  0.41800000000E+01 0.  1.
         -5    1    3    3    0  502 -0.17531914778E+03 -0.15358351481E+03 -0.28288696226E+03  0.36656132559E+03  0.41800000000E+01 0.  1.
        -11    1    1    2    0    0  0.37151176840E+02 -0.25675495690E+01 -0.25476732858E+02  0.45120573672E+02  0.00000000000E+00 0.  1.
         11    1    1    2    0    0  0.13229491058E+03  0.13970444830E+03 -0.32640661340E+03  0.37889385520E+03  0.00000000000E+00 0. -1.
</event>
<event>
 7    1  0.6506388E-006  0.6426075E+02  0.7561462E-02  0.1380774E+00
         -2   -1    0    0    0  501 -0.00000000000E+00  0.00000000000E+00  0.10865078253E+03  0.10865078253E+03  0.00000000000E+00 0.  1.
          2   -1    0    0  501    0  0.00000000000E+00 -0.00000000000E+00 -0.16875594638E+03  0.16875594638E+03  0.00000000000E+00 0. -1.
         23    2    1    2    0    0 -0.29001753222E+02 -0.42198818133E+01  0.41033110668E+02  0.13487125777E+03  0.12509049088E+03 0.  0.
          5    1    3    3  502    0 -0.24741234916E+02 -0.34130083416E+01  0.85924165710E+02  0.89577965952E+02  0.41800000000E+01 0. -1.
         -5    1    3    3    0  502 -0.42605183060E+01 -0.80687347171E+00 -0.44891055041E+02  0.45293291819E+02  0.41800000000E+01 0. -1.
        -11    1    1    2    0    0 -0.27363173126E+02  0.25037413974E+02 -0.21833242538E+02  0.43038422622E+02  0.00000000000E+00 0.  1.
         11    1    1    2    0    0  0.56364926348E+02 -0.20817532161E+02 -0.79305031980E+02  0.99497048523E+02  0.00000000000E+00 0. -1.
</event>
<event>
 7    1  0.6506388E-006  0.1168057E+03  0.7561462E-02  0.1248462E+00
         -1   -1    0    0    0  501 -0.00000000000E+00  0.00000000000E+00  0.44553818339E+03  0.44553818339E+03  0.00000000000E+00 0.  1.
          1   -1    0    0  501    0  0.00000000000E+00 -0.00000000000E+00 -0.36217709270E+02  0.36217709270E+02  0.00000000000E+00 0. -1.
         23    2    1    2    0    0 -0.10172722866E+02  0.62179459857E+02  0.26632301901E+03  0.30090792955E+03  0.12509141495E+03 0.  0.
          5    1    3    3  502    0 -0.61808548139E+02  0.56101546486E+02  0.12595098607E+03  0.15115820663E+03  0.41800000000E+01 0.  1.
         -5    1    3    3    0  502  0.51635825273E+02  0.60779133706E+01  0.14037203294E+03  0.14974972292E+03  0.41800000000E+01 0.  1.
        -11    1    1    2    0    0  0.42869374102E+02 -0.36355571064E+02  0.12170413104E+03  0.13405747385E+03  0.00000000000E+00 0.  1.
         11    1    1    2    0    0 -0.32696651237E+02 -0.25823888793E+02  0.21293324067E+02  0.46790489251E+02  0.00000000000E+00 0. -1.
</event>
<event>
 7    1  0.6506388E-006  0.1122446E+03  0.7561462E-02  0.1256469E+00
          3   -1    0    0  501    0  0.00000000000E+00  0.00000000000E+00  0.23560956875E+03  0.23560956875E+03  0.00000000000E+00 0. -1.
         -3   -1    0    0    0  501 -0.00000000000E+00 -0.00000000000E+00 -0.76889346049E+02  0.76889346049E+02  0.00000000000E+00 0.  1.
         23    2    1    2    0    0  0.65154297015E+02  0.10038281338E+02  0.73474444607E+02  0.15934793523E+03  0.12508965161E+03 0.  0.
          5    1    3    3  502    0 -0.31613491128E+02  0.48422399107E+01  0.50082250580E+02  0.59569827361E+02  0.41800000000E+01 0.  1.
         -5    1    3    3    0  502  0.96767788143E+02  0.51960414268E+01  0.23392194027E+02  0.99778107870E+02  0.41800000000E+01 0.  1.
        -11    1    1    2    0    0  0.83876985802E+01  0.15304016849E+02  0.72199220364E+02  0.74278488410E+02  0.00000000000E+00 0. -1.
         11    1    1    2    0    0 -0.73541995596E+02 -0.25342298187E+02  0.13046557734E+02  0.78872491163E+02  0.00000000000E+00 0.  1.
</event>
<event>
 7    1  0.6506388E-006  0.1468630E+03  0.7561462E-02  0.1204382E+00
          1   -1    0    0  501    0  0.00000000000E+00  0.00000000000E+00  0.44348097900E+03  0.44348097900E+03  0.00000000000E+00 0. -1.
         -1   -1    0    0    0  501 -0.00000000000E+00 -0.00000000000E+00 -0.65408128148E+02  0.65408128148E+02  0.00000000000E+00 0.  1.
         23    2    1    2    0    0  0.40643266745E+02 -0.11805667636E+03  0.11681010445E+03  0.20565602462E+03  0.11428274584E+03 0.  0.
          5    1    3    3  502    0  0.76008314585E+02 -0.60957417751E+02  0.91599428711E+02  0.13379461277E+03  0.41800000000E+01 0. -1.
         -5    1    3    3    0  502 -0.35365047840E+02 -0.57099258608E+02  0.25210675737E+02  0.71861411852E+02  0.41800000000E+01 0.  1.
        -11    1    1    2    0    0 -0.29492902644E+02  0.38109005454E+02  0.18848497918E+03  0.19454746202E+03  0.00000000000E+00 0. -1.
         11    1    1    2    0    0 -0.11150364101E+02  0.79947670905E+02  0.72777767222E+02  0.10868562050E+03  0.00000000000E+00 0.  1.
</event>
<event>
 7    1  0.6506388E-006  0.3769470E+03  0.7561462E-02  0.1052068E+00
          2   -1    0    0  501    0  0.00000000000E+00  0.00000000000E+00  0.72821401122E+03  0.72821401122E+03  0.00000000000E+00 0. -1.
         -2   -1    0    0    0  501 -0.00000000000E+00 -0.00000000000E+00 -0.30323179477E+03  0.30323179477E+03  0.00000000000E+00 0.  1.
         23    2    1    2    0    0 -0.21020180059E+03  0.30642583844E+03 -0.77826407775E+02  0.39973215825E+03  0.12508899696E+03 0.  0.
          5    1    3    3  502    0 -0.17448018169E+03  0.26809191811E+03 -0.18445427633E+02  0.32042833295E+03  0.41800000000E+01 0. -1.
         -5    1    3    3    0  502 -0.35721618899E+02  0.38333920333E+02 -0.59380980142E+02  0.79303825302E+02  0.41800000000E+01 0. -1.
        -11    1    1    2    0    0  0.17351444902E+03 -0.29631102691E+03  0.46526655119E+03  0.57825638980E+03  0.00000000000E+00 0. -1.
         11    1    1    2    0    0  0.36687351568E+02 -0.10114811532E+02  0.37542073036E+02  0.53457257928E+02  0.00000000000E+00 0.  1.
</event>
<event>
 7    1  0.6506388E-006  0.1211088E+03  0.7561462E-02  0.1241279E+00
         -1   -1    0    0    0  501 -0.00000000000E+00  0.00000000000E+00  0.84130902286E+03  0.84130902286E+03  0.00000000000E+00 0. -1.
          1   -1    0    0  501    0  0.00000000000E+00 -0.00000000000E+00 -0.21732146865E+02  0.21732146865E+02  0.00000000000E+00 0.  1.
         23    2    1    2    0    0  0.24378556051E+02 -0.61885735180E+02  0.59434283546E+03  0.61099562215E+03  0.12509230996E+03 0.  0.
          5    1    3    3  502    0  0.43640776914E+02  0.17949632961E+02  0.34988292351E+03  0.35307540172E+03  0.41800000000E+01 0.  1.
         -5    1    3    3    0  502 -0.19262220863E+02 -0.79835368141E+02  0.24445991194E+03  0.25792022043E+03  0.41800000000E+01 0.  1.
        -11    1    1    2    0    0 -0.54009772519E+02  0.62972248745E+02  0.15491073836E+03  0.17572676660E+03  0.00000000000E+00 0.  1.
         11    1    1    2    0    0  0.29631216467E+02 -0.10865135655E+01  0.70323302177E+02  0.76318780979E+02  0.00000000000E+00 0. -1.
</event>
<event>
 7    1  0.6506388E-006  0.5392287E+02  0.7561462E-02  0.1425262E+00
          2   -1    0    0  501    0  0.00000000000E+00  0.00000000000E+00  0.32743661102E+03  0.32743661102E+03  0.00000000000E+00 0. -1.
         -2   -1    0    0    0  501 -0.00000000000E+00 -0.00000000000E+00 -0.37775658366E+02  0.37775658366E+02  0.00000000000E+00 0.  1.
         23    2    1    2    0    0 -0.17421069478E+02  0.14495224437E+02  0.14142405124E+03  0.19016425289E+03  0.12509226840E+03 0.  0.
          5    1    3    3  502    0  0.10777157193E+02  0.10663286759E+02 -0.20425727759E+02  0.25778587164E+02  0.41800000000E+01 0. -1.
         -5    1    3    3    0  502 -0.28198226671E+02  0.38319376782E+01  0.16184977900E+03  0.16438566573E+03  0.41800000000E+01 0. -1.
        -11    1    1    2    0    0 -0.19371850399E+02  0.71728663118E+01  0.12448483677E+03  0.12618713557E+03  0.00000000000E+00 0. -1.
         11    1    1    2    0    0  0.36792919876E+02 -0.21668090749E+02  0.23752064646E+02  0.48860880924E+02  0.00000000000E+00 0.  1.
</event>
<event>
 7    1  0.6506388E-006  0.1135157E+03  0.7561462E-02  0.1254195E+00
          2   -1    0    0  501    0  0.00000000000E+00  0.00000000000E+00  0.72071314611E+03  0.72071314611E+03  0.00000000000E+00 0. -1.
         -2   -1    0    0    0  501 -0.00000000000E+00 -0.00000000000E+00 -0.20098154501E+02  0.20098154501E+02  0.00000000000E+00 0.  1.
         23    2    1    2    0    0  0.32443281957E+02 -0.31991592793E+02  0.32628281224E+03  0.35240035233E+03  0.12509798642E+03 0.  0.
          5    1    3    3  502    0  0.75254766538E+02  0.56973995963E+01  0.19846281974E+03  0.21236926206E+03  0.41800000000E+01 0. -1.
         -5    1    3    3    0  502 -0.42811484582E+02 -0.37688992389E+02  0.12781999250E+03  0.14003109027E+03  0.41800000000E+01 0. -1.
        -11    1    1    2    0    0 -0.37638921803E+02 -0.19576680329E+02  0.25208969705E+03  0.25563479851E+03  0.00000000000E+00 0. -1.
         11    1    1    2    0    0  0.51956398465E+01  0.51568273122E+02  0.12224248232E+03  0.13277614978E+03  0.00000000000E+00 0.  1.
</event>
<event>
 7    1  0.6506388E-006  0.7436149E+02  0.7561462E-02  0.1345860E+00
          1   -1    0    0  501    0  0.00000000000E+00  0.00000000000E+00  0.30612598003E+03  0.30612598003E+03  0.00000000000E+00 0. -1.
         -1   -1    0    0    0  501 -0.00000000000E+00 -0.00000000000E+00 -0.47915694733E+02  0.47915694733E+02  0.00000000000E+00 0.  1.
         23    2    1    2    0    0  0.17640245515E+02 -0.19673722586E+02  0.76705024684E+02  0.14909460684E+03  0.12508919760E+03 0.  0.
          5    1    3    3  502    0 -0.18551804419E+02  0.25917645839E+02  0.84319888593E+02  0.90239735291E+02  0.41800000000E+01 0. -1.
         -5    1    3    3    0  502  0.36192049934E+02 -0.45591368425E+02 -0.76148639088E+01  0.58854871554E+02  0.41800000000E+01 0. -1.
        -11    1    1    2    0    0 -0.23719783034E+02 -0.11567123051E+02  0.66445903430E+01  0.27213544857E+02  0.00000000000E+00 0.  1.
         11    1    1    2    0    0  0.60795375183E+01  0.31240845637E+02  0.17486067027E+03  0.17773352306E+03  0.00000000000E+00 0. -1.
</event>
<event>
 7    1  0.6506388E-006  0.1020170E+03  0.7561462E-02  0.1276111E+00
         -2   -1    0    0    0  501 -0.00000000000E+00  0.00000000000E+00  0.27049555402E+03  0.27049555402E+03  0.00000000000E+00 0.  1.
          2   -1    0    0  501    0  0.00000000000E+00 -0.00000000000E+00 -0.62195127008E+02  0.62195127008E+02  0.00000000000E+00 0. -1.
         23    2    1    2    0    0  0.33502521935E+02  0.31711134688E+01  0.19870712591E+03  0.23720267206E+03  0.12509240908E+03 0.  0.
          5    1    3    3  502    0  0.30480375507E+02  0.53188032957E+02  0.16653513364E+03  0.17750899492E+03  0.41800000000E+01 0.  1.
         -5    1    3    3    0  502  0.30221464282E+01 -0.50016919489E+02  0.32171992269E+02  0.59693677142E+02  0.41800000000E+01 0.  1.
        -11    1    1    2    0    0  0.40304789338E+00  0.38546460702E+02 -0.71013321760E+01  0.39197206520E+02  0.00000000000E+00 0. -1.
         11    1    1    2    0    0 -0.33905569828E+02 -0.41717574171E+02  0.16694633281E+02  0.56290802450E+02  0.00000000000E+00 0.  1.
</event>
<event>
 7    1  0.6506388E-006  0.1149983E+03  0.7561462E-02  0.1251584E+00
          2   -1    0    0  501    0  0.00000000000E+00  0.00000000000E+00  0.51233582176E+03  0.51233582176E+03  0.00000000000E+00 0. -1.
         -2   -1    0    0    0  501 -0.00000000000E+00 -0.00000000000E+00 -0.42461934761E+02  0.42461934761E+02  0.00000000000E+00 0.  1.
         23    2    1    2    0    0 -0.68616579406E+02  0.26336399835E+02  0.12185801072E+03  0.18946981854E+03  0.12509035309E+03 0.  0.
          5    1    3    3  502    0  0.10067247465E+01 -0.29634644865E+02  0.89483043389E+02  0.94360548563E+02  0.41800000000E+01 0.  1.
         -5    1    3    3    0  502 -0.69623304152E+02  0.55971044699E+02  0.32374967327E+02  0.95109269976E+02  0.41800000000E+01 0.  1.
        -11    1    1    2    0    0  0.42847466430E+02  0.27515989380E+02  0.14296908888E+03  0.15176691150E+03  0.00000000000E+00 0.  1.
         11    1    1    2    0    0  0.25769112976E+02 -0.53852389215E+02  0.20504678740E+03  0.21356102648E+03  0.00000000000E+00 0. -1.
</event>
<event>
 7    1  0.6506388E-006  0.1336057E+03  0.7561462E-02  0.1222202E+00
         -1   -1    0    0    0  501 -0.00000000000E+00  0.00000000000E+00  0.53897372637E+02  0.53897372637E+02  0.00000000000E+00 0.  1.
          1   -1    0    0  501    0  0.00000000000E+00 -0.00000000000E+00 -0.44062033116E+03  0.44062033116E+03  0.00000000000E+00 0. -1.
         23    2    1    2    0    0  0.10870588024E+03 -0.22513931421E+00 -0.19434254253E+03  0.25540957052E+03  0.12509198932E+03 0.  0.
          5    1    3    3  502    0  0.42834890831E+02  0.45308261150E+02 -0.23642279936E+02  0.66813892279E+02  0.41800000000E+01 0.  1.
         -5    1    3    3    0  502  0.65870989406E+02 -0.45533400465E+02 -0.17070026259E+03  0.18859567825E+03  0.41800000000E+01 0.  1.
        -11    1    1    2    0    0 -0.99682524119E+02  0.21012536881E+02 -0.95582734226E+02  0.13969320457E+03  0.00000000000E+00 0.  1.
         11    1    1    2    0    0 -0.90233561177E+01 -0.20787397567E+02 -0.96797681763E+02  0.99414928698E+02  0.00000000000E+00 0. -1.
</event>
<event>
 7    1  0.6506388E-006  0.3840125E+03  0.7561462E-02  0.1049461E+00
          2   -1    0    0  501    0  0.00000000000E+00  0.00000000000E+00  0.14756932295E+04  0.14756932295E+04  0.00000000000E+00 0. -1.
         -2   -1    0    0    0  501 -0.00000000000E+00 -0.00000000000E+00 -0.11903716659E+03  0.11903716659E+03  0.00000000000E+00 0.  1.
         23    2    1    2    0    0 -0.31443739493E+03 -0.20388008493E+03  0.39520573497E+03  0.55881360022E+03  0.12508837868E+03 0.  0.
          5    1    3    3  502    0 -0.30137269563E+03 -0.14819821512E+03  0.35547717209E+03  0.48904979799E+03  0.41800000000E+01 0.  1.
         -5    1    3    3    0  502 -0.13064699299E+02 -0.55681869814E+02  0.39728562877E+02  0.69763802233E+02  0.41800000000E+01 0.  1.
        -11    1    1    2    0    0  0.21800304346E+03  0.14508947714E+03  0.54860003219E+03  0.60789660194E+03  0.00000000000E+00 0.  1.
         11    1    1    2    0    0  0.96434351467E+02  0.58790607794E+02  0.41285029575E+03  0.42802019392E+03  0.00000000000E+00 0. -1.
</event>
<event>
 7    1  0.6506388E-006  0.1533521E+03  0.7561462E-02  0.1196413E+00
         -1   -1    0    0    0  501 -0.00000000000E+00  0.00000000000E+00  0.94527584046E+02  0.94527584046E+02  0.00000000000E+00 0.  1.
          1   -1    0    0  501    0  0.00000000000E+00 -0.00000000000E+00 -0.33903745439E+03  0.33903745439E+03  0.00000000000E+00 0. -1.
         23    2    1    2    0    0 -0.13434505047E+02  0.12935093141E+03 -0.11993739433E+03  0.21666832587E+03  0.12509210804E+03 0.  0.
          5    1    3    3  502    0  0.96771869676E+01  0.85724950992E+02 -0.13894423116E+03  0.16360130483E+03  0.41800000000E+01 0. -1.
         -5    1    3    3    0  502 -0.23111692015E+02  0.43625980422E+02  0.19006836834E+02  0.53067021039E+02  0.41800000000E+01 0. -1.
        -11    1    1    2    0    0  0.27369201398E+02  0.11181814223E+02 -0.15513484212E+01  0.29605959474E+02  0.00000000000E+00 0.  1.
         11    1    1    2    0    0 -0.13934696351E+02 -0.14053274564E+03 -0.12302112760E+03  0.18729075309E+03  0.00000000000E+00 0. -1.
</event>
<event>
 7    1  0.6506388E-006  0.1814173E+03  0.7561462E-02  0.1166438E+00
         -2   -1    0    0    0  501 -0.00000000000E+00  0.00000000000E+00  0.12046906853E+03  0.12046906853E+03  0.00000000000E+00 0.  1.
          2   -1    0    0  501    0  0.00000000000E+00 -0.00000000000E+00 -0.38476292891E+03  0.38476292891E+03  0.00000000000E+00 0. -1.
         23    2    1    2    0    0  0.16943182901E+03  0.79188047145E+01 -0.48237934553E+02  0.21620870559E+03  0.12509777734E+03 0.  0.
          5    1    3    3  502    0  0.14186436240E+03 -0.29054047126E+02 -0.74572837670E+02  0.16293623136E+03  0.41800000000E+01 0. -1.
         -5    1    3    3    0  502  0.27567466612E+02  0.36972851840E+02  0.26334903117E+02  0.53272474232E+02  0.41800000000E+01 0. -1.
        -11    1    1    2    0    0 -0.13830859520E+03  0.39051324713E+01 -0.21504735922E+03  0.25571445848E+03  0.00000000000E+00 0. -1.
         11    1    1    2    0    0 -0.31123233812E+02 -0.11823937186E+02 -0.10085666044E+01  0.33308833364E+02  0.00000000000E+00 0.  1.
</event>
<event>
 7    1  0.6506388E-006  0.1231730E+03  0.7561462E-02  0.1237952E+00
          1   -1    0    0  501    0  0.00000000000E+00  0.00000000000E+00  0.43915211826E+02  0.43915211826E+02  0.00000000000E+00 0. -1.
         -1   -1    0    0    0  501 -0.00000000000E+00 -0.00000000000E+00 -0.45844056852E+03  0.45844056852E+03  0.00000000000E+00 0.  1.
         23    2    1    2    0    0 -0.59713826237E+02 -0.37841015709E+02 -0.32840694932E+03  0.35846271083E+03  0.12508679859E+03 0.  0.
          5    1    3    3  502    0  0.20890675701E+02  0.26011954435E+02 -0.40062620364E+02  0.52302275813E+02  0.41800000000E+01 0.  1.
         -5    1    3    3    0  502 -0.80604501938E+02 -0.63852970145E+02 -0.28834432895E+03  0.30616043501E+03  0.41800000000E+01 0.  1.
        -11    1    1    2    0    0 -0.14061509727E+02 -0.13840321258E+02 -0.35380025305E+02  0.40509588234E+02  0.00000000000E+00 0.  1.
         11    1    1    2    0    0  0.73775335964E+02  0.51681336967E+02 -0.50738382075E+02  0.10338348129E+03  0.00000000000E+00 0. -1.
</event>
<event>
 7    1  0.6506388E-006  0.1213395E+03  0.7561462E-02  0.1240903E+00
         -2   -1    0    0    0  501 -0.00000000000E+00  0.00000000000E+00  0.73157141282E+02  0.73157141282E+02  0.00000000000E+00 0. -1.
          2   -1    0    0  501    0  0.00000000000E+00 -0.00000000000E+00 -0.33804118833E+03  0.33804118833E+03  0.00000000000E+00 0.  1.
         23    2    1    2    0    0 -0.64867945427E+02  0.75855046034E+02 -0.70803321657E+02  0.17499457399E+03  0.12509257458E+03 0.  0.
          5    1    3    3  502    0 -0.56844519405E+02  0.83349085480E+02  0.22531515319E+01  0.10099959668E+03  0.41800000000E+01 0. -1.
         -5    1    3    3    0  502 -0.80234260225E+01 -0.74940394459E+01 -0.73056473189E+02  0.73994977310E+02  0.41800000000E+01 0. -1.
        -11    1    1    2    0    0  0.83198455163E+02 -0.46396288115E+02 -0.16672543041E+03  0.19202074794E+03  0.00000000000E+00 0.  1.
         11    1    1    2    0    0 -0.18330509736E+02 -0.29458757919E+02 -0.27355294984E+02  0.44183007695E+02  0.00000000000E+00 0. -1.
</event>
<event>
 7    1  0.6506388E-006  0.1337925E+03  0.7561462E-02  0.1221934E+00
          1   -1    0    0  501    0  0.00000000000E+00  0.00000000000E+00  0.41162306237E+02  0.41162306237E+02  0.00000000000E+00 0. -1.
         -1   -1    0    0    0  501 -0.00000000000E+00 -0.00000000000E+00 -0.49790523958E+03  0.49790523958E+03  0.00000000000E+00 0.  1.
         23    2    1    2    0    0 -0.61477058280E+02  0.68089022582E+02 -0.28410871814E+03  0.32369784821E+03  0.12508792716E+03 0.  0.
          5    1    3    3  502    0  0.10034565722E+02 -0.23746309921E+02 -0.11780892743E+03  0.12066895013E+03  0.41800000000E+01 0. -1.
         -5    1    3    3    0  502 -0.71511624002E+02  0.91835332503E+02 -0.16629979071E+03  0.20302889808E+03  0.41800000000E+01 0. -1.
        -11    1    1    2    0    0  0.49025705252E+02  0.64315916294E+01 -0.44000284110E+02  0.66188444219E+02  0.00000000000E+00 0.  1.
         11    1    1    2    0    0  0.12451353027E+02 -0.74520614212E+02 -0.12863393109E+03  0.14918125339E+03  0.00000000000E+00 0. -1.
</event>
<event>
 7    1  0.6506388E-006  0.9762516E+02  0.7561462E-02  0.1285371E+00
          1   -1    0    0  501    0  0.00000000000E+00  0.00000000000E+00  0.18129502175E+02  0.18129502175E+02  0.00000000000E+00 0.  1.
         -1   -1    0    0    0  501 -0.00000000000E+00 -0.00000000000E+00 -0.75682452164E+03  0.75682452164E+03  0.00000000000E+00 0. -1.
         23    2    1    2    0    0 -0.40366607052E+02 -0.96304294467E+01 -0.47345662566E+03  0.49146118911E+03  0.12510282124E+03 0.  0.
          5    1    3    3  502    0  0.11540841722E+02 -0.35743709413E+02 -0.37618765503E+03  0.37808124522E+03  0.41800000000E+01 0. -1.
         -5    1    3    3    0  502 -0.51907448774E+02  0.26113279967E+02 -0.97268970626E+02  0.11337994389E+03  0.41800000000E+01 0. -1.
        -11    1    1    2    0    0  0.92138344911E+01  0.48512090431E+02 -0.15081454159E+03  0.15869260732E+03  0.00000000000E+00 0. -1.
         11    1    1    2    0    0  0.31152772560E+02 -0.38881660984E+02 -0.11442385222E+03  0.12480022739E+03  0.00000000000E+00 0.  1.
</event>
<event>
 7    1  0.6506388E-006  0.1291313E+03  0.7561462E-02  0.1228750E+00
         -3   -1    0    0    0  501 -0.00000000000E+00  0.00000000000E+00  0.91678055426E+02  0.91678055426E+02  0.00000000000E+00 0.  1.
          3   -1    0    0  501    0  0.00000000000E+00 -0.00000000000E+00 -0.28798669788E+03  0.28798669788E+03  0.00000000000E+00 0. -1.
         23    2    1    2    0    0  0.49847483163E+02  0.79653595860E+02 -0.93536488468E+01  0.15672927165E+03  0.12508839649E+03 0.  0.
          5    1    3    3  502    0  0.98605588630E+01 -0.31623493465E+02  0.13869971037E+02  0.36154176198E+02  0.41800000000E+01 0.  1.
         -5    1    3    3    0  502  0.39986924300E+02  0.11127708933E+03 -0.23223619883E+02  0.12057509546E+03  0.41800000000E+01 0.  1.
        -11    1    1    2    0    0 -0.56038766738E+02 -0.46466071757E+02 -0.17047522711E+03  0.18536785660E+03  0.00000000000E+00 0. -1.
         11    1    1    2    0    0  0.61912835750E+01 -0.33187524103E+02 -0.16479766502E+02  0.37567625056E+02  0.00000000000E+00 0.  1.
</event>
<event>
 7    1  0.6506388E-006  0.1045197E+03  0.7561462E-02  0.1271069E+00
          1   -1    0    0  501    0  0.00000000000E+00  0.00000000000E+00  0.73931074248E+03  0.73931074248E+03  0.00000000000E+00 0. -1.
         -1   -1    0    0    0  501 -0.00000000000E+00 -0.00000000000E+00 -0.29984367522E+02  0.29984367522E+02  0.00000000000E+00 0.  1.
         23    2    1    2    0    0  0.80028339588E+02  0.60772598214E+02  0.34220654771E+03  0.37795464144E+03  0.12508615375E+03 0.  0.
          5    1    3    3  502    0  0.14227165218E+02  0.59812594247E+01 -0.76661149868E+01  0.17732157608E+02  0.41800000000E+01 0. -1.
         -5    1    3    3    0  502  0.65801174370E+02  0.54791338789E+02  0.34987266269E+03  0.36022248383E+03  0.41800000000E+01 0. -1.
        -11    1    1    2    0    0 -0.56317238218E+02 -0.19269289546E+02  0.31519004660E+03  0.32076112969E+03  0.00000000000E+00 0.  1.
         11    1    1    2    0    0 -0.23711101370E+02 -0.41503308668E+02  0.51929780652E+02  0.70579338883E+02  0.00000000000E+00 0. -1.
</event>
<event>
 7    1  0.6506388E-006  0.1936386E+03  0.7561462E-02  0.1155220E+00
         -2   -1    0    0    0  501 -0.00000000000E+00  0.00000000000E+00  0.28364027316E+03  0.28364027316E+03  0.00000000000E+00 0. -1.
          2   -1    0    0  501    0  0.00000000000E+00 -0.00000000000E+00 -0.21519931881E+03  0.21519931881E+03  0.00000000000E+00 0.  1.
         23    2    1    2    0    0 -0.17139855635E+03 -0.26102699765E+02  0.17458633975E+03  0.27602289123E+03  0.12509768344E+03 0.  0.
          5    1    3    3  502    0 -0.19149081607E+03 -0.21819069718E+02  0.15928756194E+03  0.25006959878E+03  0.41800000000E+01 0. -1.
         -5    1    3    3    0  502  0.20092259719E+02 -0.42836300463E+01  0.15298777803E+02  0.25953292455E+02  0.41800000000E+01 0. -1.
        -11    1    1    2    0    0  0.29318366664E+02  0.73428329828E+01 -0.68151266048E+02  0.74552524330E+02  0.00000000000E+00 0.  1.
         11    1    1    2    0    0  0.14208018969E+03  0.18759866782E+02 -0.37994119348E+02  0.14826417642E+03  0.00000000000E+00 0. -1.
</event>
<event>
 7    1  0.6506388E-006  0.1000279E+03  0.7561462E-02  0.1280237E+00
          2   -1    0    0  501    0  0.00000000000E+00  0.00000000000E+00  0.45665250374E+02  0.45665250374E+02  0.00000000000E+00 0.  1.
         -2   -1    0    0    0  501 -0.00000000000E+00 -0.00000000000E+00 -0.33645868600E+03  0.33645868600E+03  0.00000000000E+00 0. -1.
         23    2    1    2    0    0  0.22382478220E+02  0.19280590657E+02 -0.24647833971E+03  0.27797858386E+03  0.12509118527E+03 0.  0.
          5    1    3    3  502    0  0.65466856828E+02 -0.21374439154E+02 -0.12568773965E+03  0.14337941376E+03  0.41800000000E+01 0.  1.
         -5    1    3    3    0  502 -0.43084378609E+02  0.40655029811E+02 -0.12079060006E+03  0.13459917010E+03  0.41800000000E+01 0.  1.
        -11    1    1    2    0    0 -0.29952457291E+02  0.17117921632E+02  0.12119377345E+02  0.36565725017E+02  0.00000000000E+00 0.  1.
         11    1    1    2    0    0  0.75699790715E+01 -0.36398512290E+02 -0.56434473261E+02  0.67579627494E+02  0.00000000000E+00 0. -1.
</event>
<event>
 7    1  0.6506388E-006  0.1088746E+03  0.7561462E-02  0.1262668E+00
         -1   -1    0    0    0  501 -0.00000000000E+00  0.00000000000E+00  0.27599837733E+02  0.27599837733E+02  0.00000000000E+00 0.  1.
          1   -1    0    0  501    0  0.00000000000E+00 -0.00000000000E+00 -0.51848018271E+03  0.51848018271E+03  0.00000000000E+00 0. -1.
         23    2    1    2    0    0  0.33376298785E+02  0.33581838600E+02 -0.22821402809E+03  0.26452123742E+03  0.12509246669E+03 0.  0.
          5    1    3    3  502    0 -0.18577323279E+02 -0.37262985820E+02 -0.10590071534E+03  0.11386870054E+03  0.41800000000E+01 0. -1.
         -5    1    3    3    0  502  0.51953622063E+02  0.70844824420E+02 -0.12231331275E+03  0.15065253688E+03  0.41800000000E+01 0. -1.
        -11    1    1    2    0    0 -0.51450224935E+02 -0.19117548341E+01 -0.21749661745E+03  0.22350740269E+03  0.00000000000E+00 0. -1.
         11    1    1    2    0    0  0.18073926150E+02 -0.31670083765E+02 -0.45169699437E+02  0.58051380340E+02  0.00000000000E+00 0.  1.
</event>
<event>
 7    1  0.6506388E-006  0.1846736E+03  0.7561462E-02  0.1163355E+00
         -2   -1    0    0    0  501 -0.00000000000E+00  0.00000000000E+00  0.14637994040E+03  0.14637994040E+03  0.00000000000E+00 0.  1.
          2   -1    0    0  501    0  0.00000000000E+00 -0.00000000000E+00 -0.32505892468E+03  0.32505892468E+03  0.00000000000E+00 0. -1.
         23    2    1    2    0    0  0.10023178132E+03  0.11755624546E+03  0.24813704823E+02  0.20032137660E+03  0.12508818147E+03 0.  0.
          5    1    3    3  502    0 -0.27866488084E+02  0.31226912724E+02 -0.67553821331E+01  0.42600103570E+02  0.41800000000E+01 0.  1.
         -5    1    3    3    0  502  0.12809826941E+03  0.86329332738E+02  0.31569086956E+02  0.15772127303E+03  0.41800000000E+01 0.  1.
        -11    1    1    2    0    0 -0.64355847892E+02 -0.12065669727E+03 -0.18660016022E+03  0.23134245946E+03  0.00000000000E+00 0.  1.
         11    1    1    2    0    0 -0.35875933430E+02  0.31004518078E+01 -0.16892528885E+02  0.39775029013E+02  0.00000000000E+00 0. -1.
</event>
<event>
 7    1  0.6506388E-006  0.1098187E+03  0.7561462E-02  0.1260906E+00
          2   -1    0    0  501    0  0.00000000000E+00  0.00000000000E+00  0.36376420225E+03  0.36376420225E+03  0.00000000000E+00 0. -1.
         -2   -1    0    0    0  501 -0.00000000000E+00 -0.00000000000E+00 -0.41141505038E+02  0.41141505038E+02  0.00000000000E+00 0.  1.
         23    2    1    2    0    0  0.45422585065E+02  0.13740326433E+02  0.12986560050E+03  0.18644424615E+03  0.12507747569E+03 0.  0.
          5    1    3    3  502    0 -0.14740735634E+02  0.47467834434E+02  0.98813160145E+02  0.11068874202E+03  0.41800000000E+01 0. -1.
         -5    1    3    3    0  502  0.60163320699E+02 -0.33727508000E+02  0.31052440359E+02  0.75755504128E+02  0.41800000000E+01 0. -1.
        -11    1    1    2    0    0 -0.18998011565E+02  0.38043343669E+02  0.60075903665E+02  0.73602545079E+02  0.00000000000E+00 0.  1.
         11    1    1    2    0    0 -0.26424573500E+02 -0.51783670103E+02  0.13268119304E+03  0.14485891606E+03  0.00000000000E+00 0. -1.
</event>
<event>
 7    1  0.6506388E-006  0.1299073E+03  0.7561462E-02  0.1227593E+00
         -1   -1    0    0    0  501 -0.00000000000E+00  0.00000000000E+00  0.63653990345E+02  0.63653990345E+02  0.00000000000E+00 0.  1.
          1   -1    0    0  501    0  0.00000000000E+00 -0.00000000000E+00 -0.60917505342E+03  0.60917505342E+03  0.00000000000E+00 0. -1.
         23    2    1    2    0    0  0.20233763785E+01  0.94574828335E+02 -0.57232294466E+02  0.16694726706E+03  0.12508941698E+03 0.  0.
          5    1    3    3  502    0  0.78633097484E+01 -0.25793536170E+02  0.97897129472E+01  0.28990498926E+02  0.41800000000E+01 0.  1.
         -5    1    3    3    0  502 -0.58399333700E+01  0.12036836451E+03 -0.67022007413E+02  0.13795676813E+03  0.41800000000E+01 0.  1.
        -11    1    1    2    0    0  0.20320517265E+02 -0.68885340912E+01 -0.21396497721E+02  0.30301574853E+02  0.00000000000E+00 0.  1.
         11    1    1    2    0    0 -0.22343893643E+02 -0.87686294244E+02 -0.46689227088E+03  0.47558020185E+03  0.00000000000E+00 0. -1.
</event>
<event>
 7    1  0.6506388E-006  0.5911184E+02  0.7561462E-02  0.1401597E+00
          1   -1    0    0  501    0  0.00000000000E+00  0.00000000000E+00  0.32053121868E+03  0.32053121868E+03  0.00000000000E+00 0. -1.
         -1   -1    0    0    0  501 -0.00000000000E+00 -0.00000000000E+00 -0.32797094452E+02  0.32797094452E+02  0.00000000000E+00 0.  1.
         23    2    1    2    0    0  0.39433177787E+02  0.23245496856E+02  0.13721165579E+03  0.19122447144E+03  0.12507770128E+03 0.  0.
          5    1    3    3  502    0  0.58371604667E+01  0.30504682593E+02 -0.15270408190E+02  0.34860663630E+02  0.41800000000E+01 0.  1.
         -5    1    3    3    0  502  0.33596017320E+02 -0.72591857373E+01  0.15248206398E+03  0.15636380781E+03  0.41800000000E+01 0.  1.
        -11    1    1    2    0    0 -0.29335429188E+02 -0.28136485253E+01  0.42592889753E+02  0.51794191577E+02  0.00000000000E+00 0. -1.
         11    1    1    2    0    0 -0.10097748599E+02 -0.20431848331E+02  0.10792957869E+03  0.11030965012E+03  0.00000000000E+00 0.  1.
</event>
<event>
 7    1  0.6506388E-006  0.1251696E+03  0.7561462E-02  0.1234805E+00
         -2   -1    0    0    0  501 -0.00000000000E+00  0.00000000000E+00  0.73868491697E+02  0.73868491697E+02  0.00000000000E+00 0.  1.
          2   -1    0    0  501    0  0.00000000000E+00 -0.00000000000E+00 -0.39369355818E+03  0.39369355818E+03  0.00000000000E+00 0. -1.
         23    2    1    2    0    0  0.34739023678E+02 -0.89226734656E+02 -0.42903019843E+02  0.16326564354E+03  0.12508713485E+03 0.  0.
          5    1    3    3  502    0  0.47938140224E+02  0.14215719276E+02 -0.29068101842E+02  0.57987747907E+02  0.41800000000E+01 0.  1.
         -5    1    3    3    0  502 -0.13199116546E+02 -0.10344245393E+03 -0.13834918001E+02  0.10527789563E+03  0.41800000000E+01 0.  1.
        -11    1    1    2    0    0 -0.16904251243E+02  0.47571122256E+02 -0.24166695562E+03  0.24688394606E+03  0.00000000000E+00 0. -1.
         11    1    1    2    0    0 -0.17834772435E+02  0.41655612401E+02 -0.35255091020E+02  0.57412460277E+02  0.00000000000E+00 0.  1.
</event>
<event>
 7    1  0.6506388E-006  0.9835940E+02  0.7561462E-02  0.1283784E+00
         -1   -1    0    0    0  501 -0.00000000000E+00  0.00000000000E+00  0.59771562678E+02  0.59771562678E+02  0.00000000000E+00 0.  1.
          1   -1    0    0  501    0  0.00000000000E+00 -0.00000000000E+00 -0.23034842018E+03  0.23034842018E+03  0.00000000000E+00 0. -1.
         23    2    1    2    0    0  0.12688825348E+01 -0.12001936742E+02 -0.41612619104E+02  0.13237982866E+03  0.12508857829E+03 0.  0.
          5    1    3    3  502    0 -0.51152466196E+02 -0.25995880223E+02  0.87989624387E+01  0.58200126516E+02  0.41800000000E+01 0. -1.
         -5    1    3    3    0  502  0.52421348731E+02  0.13993943481E+02 -0.50411581542E+02  0.74179702146E+02  0.41800000000E+01 0. -1.
        -11    1    1    2    0    0  0.26193152511E+02 -0.26642256513E+02 -0.29672368618E+02  0.47711010574E+02  0.00000000000E+00 0.  1.
         11    1    1    2    0    0 -0.27462035046E+02  0.38644193256E+02 -0.99291869781E+02  0.11002914362E+03  0.00000000000E+00 0. -1.
</event>
<event>
 7    1  0.6506388E-006  0.1406784E+03  0.7561462E-02  0.1212419E+00
          1   -1    0    0  501    0  0.00000000000E+00  0.00000000000E+00  0.69992424794E+03  0.69992424794E+03  0.00000000000E+00 0. -1.
         -1   -1    0    0    0  501 -0.00000000000E+00 -0.00000000000E+00 -0.28563386737E+02  0.28563386737E+02  0.00000000000E+00 0.  1.
         23    2    1    2    0    0 -0.22549750318E+02 -0.85552566692E+02  0.36379757268E+03  0.39474463004E+03  0.12508763389E+03 0.  0.
          5    1    3    3  502    0  0.51763871820E+02 -0.27227614688E+02  0.14204655370E+03  0.15367347606E+03  0.41800000000E+01 0. -1.
         -5    1    3    3    0  502 -0.74313622138E+02 -0.58324952004E+02  0.22175101898E+03  0.24107115398E+03  0.41800000000E+01 0. -1.
        -11    1    1    2    0    0  0.58980170708E+02  0.51917209221E+02  0.21178184343E+03  0.22588848212E+03  0.00000000000E+00 0. -1.
         11    1    1    2    0    0 -0.36430420389E+02  0.33635357471E+02  0.95781445093E+02  0.10785452251E+03  0.00000000000E+00 0.  1.
</event>
<event>
 7    1  0.6506388E-006  0.1114395E+03  0.7561462E-02  0.1257927E+00
          2   -1    0    0  501    0  0.00000000000E+00  0.00000000000E+00  0.38478032115E+03  0.38478032115E+03  0.00000000000E+00 0. -1.
         -2   -1    0    0    0  501 -0.00000000000E+00 -0.00000000000E+00 -0.35787368935E+02  0.35787368935E+02  0.00000000000E+00 0.  1.
         23    2    1    2    0    0 -0.13490405386E+02  0.43895958924E+02  0.21083007578E+03  0.24941210533E+03  0.12509289023E+03 0.  0.
          5    1    3    3  502    0 -0.75056233567E+01  0.87730521952E+02  0.15159570564E+03  0.17536165268E+03  0.41800000000E+01 0.  1.
         -5    1    3    3    0  502 -0.59847820297E+01 -0.43834563028E+02  0.59234370142E+02  0.74050452652E+02  0.41800000000E+01 0.  1.
        -11    1    1    2    0    0 -0.21749987655E+02 -0.49999631533E+02  0.11826228548E+03  0.13022669958E+03  0.00000000000E+00 0. -1.
         11    1    1    2    0    0  0.35240393042E+02  0.61036726097E+01  0.19900590958E+02  0.40928885173E+02  0.00000000000E+00 0.  1.
</event>
<event>
 7    1  0.6506388E-006  0.9813486E+02  0.7561462E-02  0.1284268E+00
          2   -1    0    0  501    0  0.00000000000E+00  0.00000000000E+00  0.18922041109E+03  0.18922041109E+03  0.00000000000E+00 0.  1.
         -2   -1    0    0    0  501 -0.00000000000E+00 -0.00000000000E+00 -0.67350762977E+02  0.67350762977E+02  0.00000000000E+00 0. -1.
         23    2    1    2    0    0 -0.26630027531E+02  0.14460847672E+02  0.72271182462E+02  0.14760800730E+03  0.12508687191E+03 0.  0.
          5    1    3    3  502    0  0.34343033693E+02  0.36953567325E+02  0.64544738002E+02  0.82027469211E+02  0.41800000000E+01 0.  1.
         -5    1    3    3    0  502 -0.60973061225E+02 -0.22492719653E+02  0.77264444594E+01  0.65580538092E+02  0.41800000000E+01 0.  1.
        -11    1    1    2    0    0  0.32944930917E+02 -0.41369739728E+02  0.81225711339E+00  0.52891243131E+02  0.00000000000E+00 0. -1.
         11    1    1    2    0    0 -0.63149033854E+01  0.26908892056E+02  0.48786208536E+02  0.56071923632E+02  0.00000000000E+00 0.  1.
</event>
<event>
 7    1  0.6506388E-006  0.9843450E+02  0.7561462E-02  0.1283623E+00
         -3   -1    0    0    0  501 -0.00000000000E+00  0.00000000000E+00  0.94424265654E+03  0.94424265654E+03  0.00000000000E+00 0.  1.
          3   -1    0    0  501    0  0.00000000000E+00 -0.00000000000E+00 -0.14095693144E+02  0.14095693144E+02  0.00000000000E+00 0. -1.
         23    2    1    2    0    0  0.18945235693E+02  0.61748837114E+01  0.67616355038E+03  0.68792400560E+03  0.12508093171E+03 0.  0.
          5    1    3    3  502    0  0.47221793043E+02  0.45103209817E+02  0.52916016420E+03  0.53319053729E+03  0.41800000000E+01 0.  1.
         -5    1    3    3    0  502 -0.28276557350E+02 -0.38928326106E+02  0.14700338618E+03  0.15473346831E+03  0.41800000000E+01 0.  1.
        -11    1    1    2    0    0 -0.40905765066E+02  0.22762293848E+02  0.19958716587E+03  0.20500351318E+03  0.00000000000E+00 0.  1.
         11    1    1    2    0    0  0.21960529373E+02 -0.28937177559E+02  0.54396247146E+02  0.65410830900E+02  0.00000000000E+00 0. -1.
</event>
<event>
 7    1  0.6506388E-006  0.6564501E+02  0.7561462E-02  0.1375562E+00
          1   -1    0    0  501    0  0.00000000000E+00  0.00000000000E+00  0.17532115081E+03  0.17532115081E+03  0.00000000000E+00 0. -1.
         -1   -1    0    0    0  501 -0.00000000000E+00 -0.00000000000E+00 -0.76701771030E+02  0.76701771030E+02  0.00000000000E+00 0.  1.
         23    2    1    2    0    0 -0.19272484544E+02 -0.20176900120E+01  0.12762192937E+02  0.12722599237E+03  0.12509228526E+03 0.  0.
          5    1    3    3  502    0 -0.11960767072E+02 -0.18928298483E+02  0.66484880089E+02  0.70278390085E+02  0.41800000000E+01 0.  1.
         -5    1    3    3    0  502 -0.73117174720E+01  0.16910608471E+02 -0.53722687153E+02  0.56947602286E+02  0.41800000000E+01 0.  1.
        -11    1    1    2    0    0 -0.26362888542E+02  0.26881724968E+02  0.45107794954E+02  0.58756635329E+02  0.00000000000E+00 0. -1.
         11    1    1    2    0    0  0.45635373086E+02 -0.24864034956E+02  0.40749391894E+02  0.66040294145E+02  0.00000000000E+00 0.  1.
</event>
<event>
 7    1  0.6506388E-006  0.8274494E+02  0.7561462E-02  0.1321437E+00
         -2   -1    0    0    0  501 -0.00000000000E+00  0.00000000000E+00  0.20701242978E+03  0.20701242978E+03  0.00000000000E+00 0.  1.
          2   -1    0    0  501    0  0.00000000000E+00 -0.00000000000E+00 -0.67889533844E+02  0.67889533844E+02  0.00000000000E+00 0. -1.
         23    2    1    2    0    0  0.21703284456E+02 -0.33272173499E+02  0.10361335913E+03  0.16717999676E+03  0.12504140531E+03 0.  0.
          5    1    3    3  502    0 -0.44696386519E+02 -0.23060390753E+02  0.82362081656E+02  0.96594686625E+02  0.41800000000E+01 0. -1.
         -5    1    3    3    0  502  0.66399670975E+02 -0.10211782746E+02  0.21251277470E+02  0.70585310133E+02  0.41800000000E+01 0. -1.
        -11    1    1    2    0    0 -0.24671874660E+02  0.14316291006E+02 -0.28845572676E+02  0.40567531974E+02  0.00000000000E+00 0. -1.
         11    1    1    2    0    0  0.29685902041E+01  0.18955882492E+02  0.64355109487E+02  0.67154434894E+02  0.00000000000E+00 0.  1.
</event>
<event>
 7    1  0.6506388E-006  0.9024258E+02  0.7561462E-02  0.1302265E+00
         -2   -1    0    0    0  501 -0.00000000000E+00  0.00000000000E+00  0.33277036191E+03  0.33277036191E+03  0.00000000000E+00 0.  1.
          2   -1    0    0  501    0  0.00000000000E+00 -0.00000000000E+00 -0.43743104960E+02  0.43743104960E+02  0.00000000000E+00 0. -1.
         23    2    1    2    0    0  0.29288280006E+01 -0.23880603296E+02  0.23664355294E+03  0.26874178144E+03  0.12507242979E+03 0.  0.
          5    1    3    3  502    0 -0.18583555326E+02 -0.49311382665E+02  0.32928889306E+02  0.62279572412E+02  0.41800000000E+01 0.  1.
         -5    1    3    3    0  502  0.21512383327E+02  0.25430779369E+02  0.20371466364E+03  0.20646220903E+03  0.41800000000E+01 0.  1.
        -11    1    1    2    0    0 -0.46714991963E+02  0.17088577180E+02  0.30548254054E+02  0.58373844913E+02  0.00000000000E+00 0. -1.
         11    1    1    2    0    0  0.43786163962E+02  0.67920261156E+01  0.21835449957E+02  0.49397840521E+02  0.00000000000E+00 0.  1.
</event>
<event>
 7    1  0.6506388E-006  0.1430972E+03  0.7561462E-02  0.1209221E+00
         -1   -1    0    0    0  501 -0.00000000000E+00  0.00000000000E+00  0.20226351415E+03  0.20226351415E+03  0.00000000000E+00 0. -1.
          1   -1    0    0  501    0  0.00000000000E+00 -0.00000000000E+00 -0.12881028040E+03  0.12881028040E+03  0.00000000000E+00 0.  1.
         23    2    1    2    0    0 -0.10929050175E+03  0.34616539990E+02  0.72857219349E+02  0.18465733116E+03  0.12508971552E+03 0.  0.
          5    1    3    3  502    0  0.15132903782E+02 -0.71239192125E+01 -0.18045183195E+02  0.24957083931E+02  0.41800000000E+01 0. -1.
         -5    1    3    3    0  502 -0.12442340553E+03  0.41740459203E+02  0.90902402544E+02  0.15970024723E+03  0.41800000000E+01 0. -1.
        -11    1    1    2    0    0  0.78236815731E+02 -0.59144931552E+02 -0.22461979858E+02  0.10061641418E+03  0.00000000000E+00 0.  1.
         11    1    1    2    0    0  0.31053686015E+02  0.24528391561E+02  0.23057994253E+02  0.45800049200E+02  0.00000000000E+00 0. -1.
</event>
<event>
 7    1  0.6506388E-006  0.1604967E+03  0.7561462E-02  0.1188137E+00
         -1   -1    0    0    0  501 -0.00000000000E+00  0.00000000000E+00  0.25705570657E+03  0.25705570657E+03  0.00000000000E+00 0.  1.
          1   -1    0    0  501    0  0.00000000000E+00 -0.00000000000E+00 -0.13861260403E+03  0.13861260403E+03  0.00000000000E+00 0. -1.
         23    2    1    2    0    0  0.17991345107E+02 -0.13451366284E+03  0.13886056210E+03  0.23096414865E+03  0.12507824856E+03 0.  0.
          5    1    3    3  502    0  0.88980416935E+01  0.23892921411E+02  0.19646156747E+02  0.32457521693E+02  0.41800000000E+01 0. -1.
         -5    1    3    3    0  502  0.90933034139E+01 -0.15840658425E+03  0.11921440535E+03  0.19850662695E+03  0.41800000000E+01 0. -1.
        -11    1    1    2    0    0 -0.15813547679E+02  0.65330841151E+02 -0.55440228846E+02  0.87130970786E+02  0.00000000000E+00 0. -1.
         11    1    1    2    0    0 -0.21777974287E+01  0.69182821690E+02  0.35022769295E+02  0.77573191166E+02  0.00000000000E+00 0.  1.
</event>
<event>
 6    1  0.6506388E-006  0.1427294E+03  0.7561462E-02  0.1209703E+00
          1   -1    0    0  501    0  0.00000000000E+00  0.00000000000E+00  0.59457367367E+03  0.59457367367E+03  0.00000000000E+00 0. -1.
         -1   -1    0    0    0  501 -0.00000000000E+00 -0.00000000000E+00 -0.39416751501E+02  0.39416751501E+02  0.00000000000E+00 0.  1.
          5    1    1    2  502    0  0.22922897788E+02  0.12580311481E+03  0.19189483268E+03  0.23063603826E+03  0.41800000000E+01 0. -1.
         -5    1    1    2    0  502 -0.30024481204E+02 -0.31392574482E+02  0.11287431071E+03  0.12101671630E+03  0.41800000000E+01 0.  1.
        -11    1    1    2    0    0 -0.17954892342E+02 -0.85371329519E+02  0.11495216634E+03  0.14430745860E+03  0.00000000000E+00 0.  1.
         11    1    1    2    0    0  0.25056475758E+02 -0.90392108064E+01  0.13543561245E+03  0.13803021201E+03  0.00000000000E+00 0. -1.
</event>
<event>
 7    1  0.6506388E-006  0.1659637E+03  0.7561462E-02  0.1182124E+00
          1   -1    0    0  501    0  0.00000000000E+00  0.00000000000E+00  0.13564934528E+03  0.13564934528E+03  0.00000000000E+00 0. -1.
         -1   -1    0    0    0  501 -0.00000000000E+00 -0.00000000000E+00 -0.30823940858E+03  0.30823940858E+03  0.00000000000E+00 0.  1.
         23    2    1    2    0    0  0.33474806915E+02 -0.13006833451E+03 -0.20828187819E+03  0.27760817856E+03  0.12508647281E+03 0.  0.
          5    1    3    3  502    0  0.13517504611E+02  0.23136746750E+02 -0.46742721852E+02  0.54040599804E+02  0.41800000000E+01 0. -1.
         -5    1    3    3    0  502  0.19957302303E+02 -0.15320508126E+03 -0.16153915634E+03  0.22356757876E+03  0.41800000000E+01 0. -1.
        -11    1    1    2    0    0 -0.20088560339E+02  0.60493248471E+00 -0.16548810786E+02  0.26034195555E+02  0.00000000000E+00 0.  1.
         11    1    1    2    0    0 -0.13386246576E+02  0.12946340203E+03  0.52240625677E+02  0.14024637975E+03  0.00000000000E+00 0. -1.
</event>
<event>
 7    1  0.6506388E-006  0.1133305E+03  0.7561462E-02  0.1254524E+00
         -2   -1    0    0    0  501 -0.00000000000E+00  0.00000000000E+00  0.62082725286E+02  0.62082725286E+02  0.00000000000E+00 0.  1.
          2   -1    0    0  501    0  0.00000000000E+00 -0.00000000000E+00 -0.37056174821E+03  0.37056174821E+03  0.00000000000E+00 0. -1.
         23    2    1    2    0    0  0.46792046396E+02  0.45095935852E+02 -0.45492363641E+02  0.14812750571E+03  0.12509621802E+03 0.  0.
          5    1    3    3  502    0  0.82613568482E+02  0.28784124032E+01 -0.12969838529E+02  0.83779329591E+02  0.41800000000E+01 0. -1.
         -5    1    3    3    0  502 -0.35821522085E+02  0.42217523449E+02 -0.32522525112E+02  0.64348176123E+02  0.41800000000E+01 0. -1.
        -11    1    1    2    0    0  0.91813151333E+01 -0.28564354371E+02 -0.23755300873E+02  0.38269220109E+02  0.00000000000E+00 0.  1.
         11    1    1    2    0    0 -0.55973361530E+02 -0.16531581481E+02 -0.23923135841E+03  0.24624774767E+03  0.00000000000E+00 0. -1.
</event>
<event>
 7    1  0.6506388E-006  0.1001482E+03  0.7561462E-02  0.1279985E+00
          2   -1    0    0  501    0  0.00000000000E+00  0.00000000000E+00  0.14412147223E+03  0.14412147223E+03  0.00000000000E+00 0.  1.
         -2   -1    0    0    0  501 -0.00000000000E+00 -0.00000000000E+00 -0.12918989683E+03  0.12918989683E+03  0.00000000000E+00 0. -1.
         23    2    1    2    0    0 -0.53169482406E+02 -0.49679848770E+02 -0.32132777516E+02  0.14824151916E+03  0.12509177183E+03 0.  0.
          5    1    3    3  502    0 -0.48917292800E+02  0.99780548008E+01  0.32785155902E+02  0.59873215715E+02  0.41800000000E+01 0. -1.
         -5    1    3    3    0  502 -0.42521896055E+01 -0.59657903570E+02 -0.64917933418E+02  0.88368303447E+02  0.41800000000E+01 0. -1.
        -11    1    1    2    0    0  0.17982530819E+02  0.51957604804E+02  0.65307062215E+02  0.85369646167E+02  0.00000000000E+00 0.  1.
         11    1    1    2    0    0  0.35186951586E+02 -0.22777560347E+01 -0.18242709298E+02  0.39700203741E+02  0.00000000000E+00 0. -1.
</event>
<event>
 6    1  0.6506388E-006  0.1317757E+03  0.7561462E-02  0.1224844E+00
         -1   -1    0    0    0  501 -0.00000000000E+00  0.00000000000E+00  0.47088893893E+02  0.47088893893E+02  0.00000000000E+00 0.  1.
          1   -1    0    0  501    0  0.00000000000E+00 -0.00000000000E+00 -0.45789314981E+03  0.45789314981E+03  0.00000000000E+00 0. -1.
          5    1    1    2  502    0 -0.14134966493E+02 -0.94921280604E+02 -0.15462285725E+03  0.18203172024E+03  0.41800000000E+01 0. -1.
         -5    1    1    2    0  502  0.33459286569E+02  0.93692154514E+02 -0.74543655428E+02  0.12438638446E+03  0.41800000000E+01 0.  1.
        -11    1    1    2    0    0  0.23061998415E+02 -0.82332836376E+01 -0.21321240987E+02  0.32469032132E+02  0.00000000000E+00 0. -1.
         11    1    1    2    0    0 -0.42386318491E+02  0.94624097278E+01 -0.16031650225E+03  0.16609490687E+03  0.00000000000E+00 0.  1.
</event>
<event>
 7    1  0.6506388E-006  0.9673418E+02  0.7561462E-02  0.1287317E+00
          1   -1    0    0  501    0  0.00000000000E+00  0.00000000000E+00  0.50255278368E+02  0.50255278368E+02  0.00000000000E+00 0. -1.
         -1   -1    0    0    0  501 -0.00000000000E+00 -0.00000000000E+00 -0.23854590298E+03  0.23854590298E+03  0.00000000000E+00 0.  1.
         23    2    1    2    0    0 -0.53550624912E+01 -0.49668771797E+01 -0.11855879951E+03  0.17250196992E+03  0.12508954441E+03 0.  0.
          5    1    3    3  502    0  0.16090821159E+02 -0.48784973661E+02 -0.87580356402E+01  0.52278712388E+02  0.41800000000E+01 0. -1.
         -5    1    3    3    0  502 -0.21445883650E+02  0.43818096481E+02 -0.10980076387E+03  0.12022325753E+03  0.41800000000E+01 0. -1.
        -11    1    1    2    0    0  0.31379269980E+02  0.39041641245E+02 -0.34745018725E+02  0.60960025113E+02  0.00000000000E+00 0.  1.
         11    1    1    2    0    0 -0.26024207489E+02 -0.34074764065E+02 -0.34986806372E+02  0.55339186311E+02  0.00000000000E+00 0. -1.
</event>
<event>
 7    1  0.6506388E-006  0.1424944E+03  0.7561462E-02  0.1210011E+00
         -1   -1    0    0    0  501 -0.00000000000E+00  0.00000000000E+00  0.18334076312E+03  0.18334076312E+03  0.00000000000E+00 0. -1.
          1   -1    0    0  501    0  0.00000000000E+00 -0.00000000000E+00 -0.36492936904E+03  0.36492936904E+03  0.00000000000E+00 0.  1.
         23    2    1    2    0    0  0.73455489352E+02  0.86906890630E+02  0.12423994720E+03  0.20983570570E+03  0.12508773862E+03 0.  0.
          5    1    3    3  502    0  0.47307546710E+02  0.10924109048E+03  0.52508590647E+02  0.13017774125E+03  0.41800000000E+01 0. -1.
         -5    1    3    3    0  502  0.26147942642E+02 -0.22334199855E+02  0.71731356550E+02  0.79657964448E+02  0.41800000000E+01 0. -1.
        -11    1    1    2    0    0 -0.32126610033E+02  0.30121355429E+01 -0.15298012824E+03  0.15634612777E+03  0.00000000000E+00 0.  1.
         11    1    1    2    0    0 -0.41328879319E+02 -0.89919026173E+02 -0.15284842488E+03  0.18208829870E+03  0.00000000000E+00 0. -1.
</event>
<event>
 7    1  0.6506388E-006  0.9135660E+02  0.7561462E-02  0.1299599E+00
         -1   -1    0    0    0  501 -0.00000000000E+00  0.00000000000E+00  0.25017439136E+02  0.25017439136E+02  0.00000000000E+00 0.  1.
          1   -1    0    0  501    0  0.00000000000E+00 -0.00000000000E+00 -0.55324689971E+03  0.55324689971E+03  0.00000000000E+00 0. -1.
         23    2    1    2    0    0  0.26073337278E+02  0.27065451364E+02 -0.23764736048E+03  0.27118312777E+03  0.12510660763E+03 0.  0.
          5    1    3    3  502    0  0.42753621407E+02 -0.87277087104E+01 -0.17040410748E+02  0.47030766964E+02  0.41800000000E+01 0.  1.
         -5    1    3    3    0  502 -0.16680284129E+02  0.35793160074E+02 -0.22060694973E+03  0.22415236081E+03  0.41800000000E+01 0.  1.
        -11    1    1    2    0    0  0.31847344973E+02  0.60974274158E+01 -0.10262262419E+03  0.10762358012E+03  0.00000000000E+00 0.  1.
         11    1    1    2    0    0 -0.57920682251E+02 -0.33162878780E+02 -0.18795947590E+03  0.19945763094E+03  0.00000000000E+00 0. -1.
</event>
<event>
 7    1  0.6506388E-006  0.1172373E+03  0.7561462E-02  0.1247725E+00
          2   -1    0    0  501    0  0.00000000000E+00  0.00000000000E+00  0.39015331341E+03  0.39015331341E+03  0.00000000000E+00 0. -1.
         -2   -1    0    0    0  501 -0.00000000000E+00 -0.00000000000E+00 -0.44835936433E+02  0.44835936433E+02  0.00000000000E+00 0.  1.
         23    2    1    2    0    0  0.30342057780E+02 -0.68151542899E+02  0.17327390752E+03  0.22636153556E+03  0.12510165661E+03 0.  0.
          5    1    3    3  502    0  0.67430827417E+02 -0.68571214148E+01  0.11653622024E+03  0.13487809173E+03  0.41800000000E+01 0. -1.
         -5    1    3    3    0  502 -0.37088769637E+02 -0.61294421484E+02  0.56737687276E+02  0.91483443834E+02  0.41800000000E+01 0. -1.
        -11    1    1    2    0    0 -0.22471747756E+02 -0.34810697244E+01  0.70433383286E+00  0.22750678666E+02  0.00000000000E+00 0.  1.
         11    1    1    2    0    0 -0.78703100239E+01  0.71632612624E+02  0.17133913562E+03  0.18587703561E+03  0.00000000000E+00 0. -1.
</event>
<event>
 7    1  0.6506388E-006  0.2659442E+03  0.7561462E-02  0.1103624E+00
         -1   -1    0    0    0  501 -0.00000000000E+00  0.00000000000E+00  0.68268408577E+02  0.68268408577E+02  0.00000000000E+00 0.  1.
          1   -1    0    0  501    0  0.00000000000E+00 -0.00000000000E+00 -0.11938304683E+04  0.11938304683E+04  0.00000000000E+00 0. -1.
         23    2    1    2    0    0  0.17099753450E+03  0.19319868132E+03 -0.45406853624E+03  0.53702140396E+03  0.12509142835E+03 0.  0.
          5    1    3    3  502    0  0.10502782153E+03  0.16221763837E+03 -0.22513358176E+03  0.29672884512E+03  0.41800000000E+01 0. -1.
         -5    1    3    3    0  502  0.65969712975E+02  0.30981042948E+02 -0.22893495448E+03  0.24029255884E+03  0.41800000000E+01 0. -1.
        -11    1    1    2    0    0 -0.36465534131E+02 -0.86539321578E+02 -0.15980212933E+03  0.18535239383E+03  0.00000000000E+00 0.  1.
         11    1    1    2    0    0 -0.13453200037E+03 -0.10665935974E+03 -0.51169139416E+03  0.53972507909E+03  0.00000000000E+00 0. -1.
</event>
<event>
 7    1  0.6506388E-006  0.9417079E+02  0.7561462E-02  0.1293055E+00
          2   -1    0    0  501    0  0.00000000000E+00  0.00000000000E+00  0.57867256542E+03  0.57867256542E+03  0.00000000000E+00 0. -1.
         -2   -1    0    0    0  501 -0.00000000000E+00 -0.00000000000E+00 -0.27062058025E+02  0.27062058025E+02  0.00000000000E+00 0.  1.
         23    2    1    2    0    0 -0.23735070427E+02  0.14104289422E+02  0.18117265195E+03  0.22188006523E+03  0.12507977048E+03 0.  0.
          5    1    3    3  502    0  0.20534742700E+02  0.42346666038E+02  0.18245412379E+02  0.50648625402E+02  0.41800000000E+01 0. -1.
         -5    1    3    3    0  502 -0.44269813127E+02 -0.28242376615E+02  0.16292723957E+03  0.17123143983E+03  0.41800000000E+01 0. -1.
        -11    1    1    2    0    0 -0.68911358088E+01  0.32183740700E+02  0.59451060949E+02  0.67953731068E+02  0.00000000000E+00 0.  1.
         11    1    1    2    0    0  0.30626206235E+02 -0.46288030123E+02  0.31098679450E+03  0.31590082715E+03  0.00000000000E+00 0. -1.
</event>
<event>
 7    1  0.6506388E-006  0.9786962E+02  0.7561462E-02  0.1284841E+00
          3   -1    0    0  501    0  0.00000000000E+00  0.00000000000E+00  0.27329423548E+02  0.27329423548E+02  0.00000000000E+00 0. -1.
         -3   -1    0    0    0  501 -0.00000000000E+00 -0.00000000000E+00 -0.55876279574E+03  0.55876279574E+03  0.00000000000E+00 0.  1.
         23    2    1    2    0    0 -0.45217766678E+02 -0.25960472901E+01 -0.38731085059E+03  0.40952136621E+03  0.12508664401E+03 0.  0.
          5    1    3    3  502    0  0.13702323570E+02  0.44416878123E+02 -0.23426824785E+03  0.23887171680E+03  0.41800000000E+01 0.  1.
         -5    1    3    3    0  502 -0.58920090248E+02 -0.47012925413E+02 -0.15304260274E+03  0.17064964941E+03  0.41800000000E+01 0.  1.
        -11    1    1    2    0    0  0.44814549568E+02 -0.21340208864E+02 -0.14433381623E+03  0.15263026854E+03  0.00000000000E+00 0.  1.
         11    1    1    2    0    0  0.40321711014E+00  0.23936256155E+02  0.21129462864E+00  0.23940584541E+02  0.00000000000E+00 0. -1.
</event>
<event>
 7    1  0.6506388E-006  0.1153107E+03  0.7561462E-02  0.1251040E+00
         -1   -1    0    0    0  501 -0.00000000000E+00  0.00000000000E+00  0.12583007943E+03  0.12583007943E+03  0.00000000000E+00 0.  1.
          1   -1    0    0  501    0  0.00000000000E+00 -0.00000000000E+00 -0.13538421548E+03  0.13538421548E+03  0.00000000000E+00 0. -1.
         23    2    1    2    0    0  0.23058810702E+01 -0.59151864335E+02  0.39345136486E+02  0.14387597807E+03  0.12509195482E+03 0.  0.
          5    1    3    3  502    0  0.47903355387E+02  0.42513866168E+01 -0.12721585776E+02  0.49921106659E+02  0.41800000000E+01 0.  1.
         -5    1    3    3    0  502 -0.45597474316E+02 -0.63403250952E+02  0.52066722262E+02  0.93954871414E+02  0.41800000000E+01 0.  1.
        -11    1    1    2    0    0 -0.36635755316E+02  0.10462660444E+01 -0.54029910098E+01  0.37046802184E+02  0.00000000000E+00 0.  1.
         11    1    1    2    0    0  0.34329874246E+02  0.58105598291E+02 -0.43496281527E+02  0.80291514652E+02  0.00000000000E+00 0. -1.
</event>
<event>
 7    1  0.6506388E-006  0.1425283E+03  0.7561462E-02  0.1209967E+00
         -1   -1    0    0    0  501 -0.00000000000E+00  0.00000000000E+00  0.25891793478E+03  0.25891793478E+03  0.00000000000E+00 0.  1.
          1   -1    0    0  501    0  0.00000000000E+00 -0.00000000000E+00 -0.97009607887E+02  0.97009607887E+02  0.00000000000E+00 0. -1.
         23    2    1    2    0    0 -0.89045917909E+02  0.67388129522E+02  0.13290474140E+03  0.21356539226E+03  0.12440325955E+03 0.  0.
          5    1    3    3  502    0 -0.54467606752E+02 -0.29884967243E+02  0.36075381784E+02  0.71963442269E+02  0.41800000000E+01 0.  1.
         -5    1    3    3    0  502 -0.34578311158E+02  0.97273096765E+02  0.96829359615E+02  0.14160194999E+03  0.41800000000E+01 0.  1.
        -11    1    1    2    0    0  0.60621369005E+02 -0.67919274525E+02  0.52840296779E+02  0.10526193612E+03  0.00000000000E+00 0.  1.
         11    1    1    2    0    0  0.28424548904E+02  0.53114500341E+00 -0.23836711286E+02  0.37100214290E+02  0.00000000000E+00 0. -1.
</event>
<event>
 6    1  0.6506388E-006  0.5907336E+02  0.7561462E-02  0.1401762E+00
          2   -1    0    0  501    0  0.00000000000E+00  0.00000000000E+00  0.34171357305E+03  0.34171357305E+03  0.00000000000E+00 0. -1.
         -2   -1    0    0    0  501 -0.00000000000E+00 -0.00000000000E+00 -0.65592003043E+02  0.65592003043E+02  0.00000000000E+00 0.  1.
          5    1    1    2  502    0  0.46750297798E+02  0.52842593691E+01  0.15919116725E+03  0.16605063647E+03  0.41800000000E+01 0. -1.
         -5    1    1    2    0  502 -0.27690570303E+01  0.17470401654E+02 -0.56830025254E+02  0.59665792387E+02  0.41800000000E+01 0.  1.
        -11    1    1    2    0    0 -0.16706962280E+02 -0.18845345651E+02  0.81578660043E+02  0.85377675160E+02  0.00000000000E+00 0. -1.
         11    1    1    2    0    0 -0.27274278488E+02 -0.39093153718E+01  0.92181767965E+02  0.96211472075E+02  0.00000000000E+00 0.  1.
</event>
<event>
 7    1  0.6506388E-006  0.1520689E+03  0.7561462E-02  0.1197954E+00
         -2   -1    0    0    0  501 -0.00000000000E+00  0.00000000000E+00  0.35305843456E+03  0.35305843456E+03  0.00000000000E+00 0.  1.
          2   -1    0    0  501    0  0.00000000000E+00 -0.00000000000E+00 -0.84819507998E+02  0.84819507998E+02  0.00000000000E+00 0. -1.
         23    2    1    2    0    0 -0.12071685907E+03  0.46038486300E+02  0.18756575760E+03  0.25984965630E+03  0.12509527636E+03 0.  0.
          5    1    3    3  502    0 -0.68785457197E+02  0.67561934611E+02  0.44878763260E+02  0.10643133900E+03  0.41800000000E+01 0.  1.
         -5    1    3    3    0  502 -0.51931401878E+02 -0.21523448311E+02  0.14268699434E+03  0.15341831729E+03  0.41800000000E+01 0.  1.
        -11    1    1    2    0    0  0.98523694343E+01 -0.38942641428E+02  0.47251142812E+02  0.62018295703E+02  0.00000000000E+00 0.  1.
         11    1    1    2    0    0  0.11086448964E+03 -0.70958448714E+01  0.33422026156E+02  0.11600999056E+03  0.00000000000E+00 0. -1.
</event>
<event>
 7    1  0.6506388E-006  0.1833552E+03  0.7561462E-02  0.1164595E+00
         -2   -1    0    0    0  501 -0.00000000000E+00  0.00000000000E+00  0.11058497529E+03  0.11058497529E+03  0.00000000000E+00 0.  1.
          2   -1    0    0  501    0  0.00000000000E+00 -0.00000000000E+00 -0.40629202868E+03  0.40629202868E+03  0.00000000000E+00 0. -1.
         23    2    1    2    0    0  0.12951943921E+03  0.11604692607E+03 -0.21534452638E+03  0.30374861373E+03  0.12509109127E+03 0.  0.
          5    1    3    3  502    0  0.13465091347E+02 -0.10783572225E+02 -0.87982850156E+02  0.89755492514E+02  0.41800000000E+01 0.  1.
         -5    1    3    3    0  502  0.11605434786E+03  0.12683049830E+03 -0.12736167622E+03  0.21399312121E+03  0.41800000000E+01 0.  1.
        -11    1    1    2    0    0 -0.43775411504E+02 -0.61073570008E+02  0.11441442246E+02  0.76007724650E+02  0.00000000000E+00 0.  1.
         11    1    1    2    0    0 -0.85744027703E+02 -0.54973356064E+02 -0.91803969257E+02  0.13712066560E+03  0.00000000000E+00 0. -1.
</event>
<event>
 7    1  0.6506388E-006  0.1031250E+03  0.7561462E-02  0.1273858E+00
          1   -1    0    0  501    0  0.00000000000E+00  0.00000000000E+00  0.22494344104E+02  0.22494344104E+02  0.00000000000E+00 0. -1.
         -1   -1    0    0    0  501 -0.00000000000E+00 -0.00000000000E+00 -0.61733092998E+03  0.61733092998E+03  0.00000000000E+00 0.  1.
         23    2    1    2    0    0 -0.32534038349E+02 -0.32344692448E+02 -0.40843996998E+03  0.42662452532E+03  0.11437059826E+03 0.  0.
          5    1    3    3  502    0 -0.32972234566E+02  0.30956316765E+02 -0.27672557894E+03  0.28042820871E+03  0.41800000000E+01 0. -1.
         -5    1    3    3    0  502  0.43819621714E+00 -0.63301009213E+02 -0.13171439104E+03  0.14619631661E+03  0.41800000000E+01 0.  1.
        -11    1    1    2    0    0 -0.28208350740E+02 -0.74774113440E+00 -0.91615360291E+02  0.95862633020E+02  0.00000000000E+00 0.  1.
         11    1    1    2    0    0  0.60742389089E+02  0.33092433582E+02 -0.94781255611E+02  0.11733811575E+03  0.00000000000E+00 0. -1.
</event>
<event>
 7    1  0.6506388E-006  0.9712680E+02  0.7561462E-02  0.1286457E+00
         -1   -1    0    0    0  501 -0.00000000000E+00  0.00000000000E+00  0.50902318658E+03  0.50902318658E+03  0.00000000000E+00 0.  1.
          1   -1    0    0  501    0  0.00000000000E+00 -0.00000000000E+00 -0.37515170652E+02  0.37515170652E+02  0.00000000000E+00 0. -1.
         23    2    1    2    0    0 -0.19534283605E+02  0.11464627567E+02  0.41824318853E+03  0.43713612433E+03  0.12509036943E+03 0.  0.
          5    1    3    3  502    0  0.23316004575E+02 -0.30927052655E+02  0.47173487581E+02  0.61179481739E+02  0.41800000000E+01 0. -1.
         -5    1    3    3    0  502 -0.42850288180E+02  0.42391680222E+02  0.37106970095E+03  0.37595664259E+03  0.41800000000E+01 0. -1.
        -11    1    1    2    0    0 -0.18571427662E+02 -0.42079781457E+02  0.19306563650E+02  0.49883357273E+02  0.00000000000E+00 0. -1.
         11    1    1    2    0    0  0.38105711267E+02  0.30615153890E+02  0.33958263748E+02  0.59518875625E+02  0.00000000000E+00 0.  1.
</event>
<event>
 7    1  0.6506388E-006  0.9043280E+02  0.7561462E-02  0.1301807E+00
         -2   -1    0    0    0  501 -0.00000000000E+00  0.00000000000E+00  0.22846576013E+03  0.22846576013E+03  0.00000000000E+00 0.  1.
          2   -1    0    0  501    0  0.00000000000E+00 -0.00000000000E+00 -0.64665569444E+02  0.64665569444E+02  0.00000000000E+00 0. -1.
         23    2    1    2    0    0  0.53567263001E+02 -0.66549431658E+01  0.10102694998E+03  0.16960709777E+03  0.12508550299E+03 0.  0.
          5    1    3    3  502    0  0.85469332415E+02  0.24086166035E+01  0.29312397898E+02  0.90484790368E+02  0.41800000000E+01 0. -1.
         -5    1    3    3    0  502 -0.31902069413E+02 -0.90635597693E+01  0.71714552079E+02  0.79122307401E+02  0.41800000000E+01 0. -1.
        -11    1    1    2    0    0 -0.36326124939E+02 -0.10190867651E+02 -0.16122017616E+02  0.41028777567E+02  0.00000000000E+00 0. -1.
         11    1    1    2    0    0 -0.17241138062E+02  0.16845810817E+02  0.78895258321E+02  0.82495454234E+02  0.00000000000E+00 0.  1.
</event>
<event>
 7    1  0.6506388E-006  0.9615366E+02  0.7561462E-02  0.1288599E+00
          2   -1    0    0  501    0  0.00000000000E+00  0.00000000000E+00  0.22400286457E+03  0.22400286457E+03  0.00000000000E+00 0.  1.
         -2   -1    0    0    0  501 -0.00000000000E+00 -0.00000000000E+00 -0.60499613174E+02  0.60499613174E+02  0.00000000000E+00 0. -1.
         23    2    1    2    0    0  0.11220809061E+02 -0.37568073663E+02  0.81943990842E+02  0.15459572168E+03  0.12509097815E+03 0.  0.
          5    1    3    3  502    0 -0.36572425766E+02 -0.32214350074E+02 -0.10751444546E+02  0.50083656385E+02  0.41800000000E+01 0. -1.
         -5    1    3    3    0  502  0.47793234826E+02 -0.53537235897E+01  0.92695435388E+02  0.10451206530E+03  0.41800000000E+01 0. -1.
        -11    1    1    2    0    0  0.21012293345E+02  0.54712639666E+02  0.70664859318E+02  0.91806926499E+02  0.00000000000E+00 0.  1.
         11    1    1    2    0    0 -0.32233102406E+02 -0.17144566002E+02  0.10894401234E+02  0.38099829558E+02  0.00000000000E+00 0. -1.
</event>
<event>
 7    1  0.6506388E-006  0.2803151E+03  0.7561462E-02  0.1095517E+00
         -1   -1    0    0    0  501 -0.00000000000E+00  0.00000000000E+00  0.16749845271E+03  0.16749845271E+03  0.00000000000E+00 0.  1.
          1   -1    0    0  501    0  0.00000000000E+00 -0.00000000000E+00 -0.81270497622E+03  0.81270497622E+03  0.00000000000E+00 0. -1.
         23    2    1    2    0    0 -0.21104141364E+03 -0.15596731505E+03 -0.14358396673E+02  0.29106384076E+03  0.12509082384E+03 0.  0.
          5    1    3    3  502    0 -0.13512864468E+02 -0.64361171833E+02  0.23616092536E+02  0.70001072652E+02  0.41800000000E+01 0.  1.
         -5    1    3    3    0  502 -0.19752854917E+03 -0.91606143215E+02 -0.37974489209E+02  0.22106276811E+03  0.41800000000E+01 0.  1.
        -11    1    1    2    0    0  0.29118672705E+02  0.69857946345E+02 -0.18996349285E+03  0.20448510553E+03  0.00000000000E+00 0. -1.
         11    1    1    2    0    0  0.18192274094E+03  0.86109368702E+02 -0.44088463399E+03  0.48465448263E+03  0.00000000000E+00 0.  1.
</event>
<event>
 7    1  0.6506388E-006  0.1169672E+03  0.7561462E-02  0.1248186E+00
         -1   -1    0    0    0  501 -0.00000000000E+00  0.00000000000E+00  0.25753403358E+03  0.25753403358E+03  0.00000000000E+00 0.  1.
          1   -1    0    0  501    0  0.00000000000E+00 -0.00000000000E+00 -0.78006217350E+02  0.78006217350E+02  0.00000000000E+00 0. -1.
         23    2    1    2    0    0  0.75556095659E+02  0.32611264849E+02  0.14547528462E+03  0.20877175264E+03  0.12510143116E+03 0.  0.
          5    1    3    3  502    0 -0.25640521597E+02  0.40342044387E+02  0.51526366338E+02  0.70408491824E+02  0.41800000000E+01 0. -1.
         -5    1    3    3    0  502  0.10119661726E+03 -0.77307795375E+01  0.93948918287E+02  0.13836326082E+03  0.41800000000E+01 0. -1.
        -11    1    1    2    0    0 -0.40220171323E+02 -0.27373631519E+02 -0.27290006710E+02  0.55782814110E+02  0.00000000000E+00 0. -1.
         11    1    1    2    0    0 -0.35335924336E+02 -0.52376333305E+01  0.61342538316E+02  0.70985684181E+02  0.00000000000E+00 0.  1.
</event>
<event>
 7    1  0.6506388E-006  0.1257880E+03  0.7561462E-02  0.1233843E+00
          2   -1    0    0  501    0  0.00000000000E+00  0.00000000000E+00  0.38110482240E+03  0.38110482240E+03  0.00000000000E+00 0. -1.
         -2   -1    0    0    0  501 -0.00000000000E+00 -0.00000000000E+00 -0.53857355743E+02  0.53857355743E+02  0.00000000000E+00 0.  1.
         23    2    1    2    0    0  0.31747385277E+02 -0.59866969630E+02  0.81274959676E+02  0.16384140658E+03  0.12508571828E+03 0.  0.
          5    1    3    3  502    0 -0.47061491008E+02 -0.35964767508E+02  0.40300444292E+02  0.71762432010E+02  0.41800000000E+01 0.  1.
         -5    1    3    3    0  502  0.78808876285E+02 -0.23902202122E+02  0.40974515384E+02  0.92078974574E+02  0.41800000000E+01 0.  1.
        -11    1    1    2    0    0 -0.59432746273E+02  0.56226137484E+02  0.21140252091E+03  0.22668183808E+03  0.00000000000E+00 0. -1.
         11    1    1    2    0    0  0.27685360997E+02  0.36408321459E+01  0.34569986065E+02  0.44438933480E+02  0.00000000000E+00 0.  1.
</event>
<event>
 7    1  0.6506388E-006  0.9210410E+02  0.7561462E-02  0.1297835E+00
         -1   -1    0    0    0  501 -0.00000000000E+00  0.00000000000E+00  0.26795691832E+03  0.26795691832E+03  0.00000000000E+00 0.  1.
          1   -1    0    0  501    0  0.00000000000E+00 -0.00000000000E+00 -0.51252714299E+02  0.51252714299E+02  0.00000000000E+00 0. -1.
         23    2    1    2    0    0  0.77823629708E+01 -0.16114153896E+02  0.17737970197E+03  0.21778654911E+03  0.12508873320E+03 0.  0.
          5    1    3    3  502    0  0.12673019360E+02  0.52731666071E+02  0.55836957859E+02  0.77951730509E+02  0.41800000000E+01 0.  1.
         -5    1    3    3    0  502 -0.48906563892E+01 -0.68845819968E+02  0.12154274411E+03  0.13983481860E+03  0.41800000000E+01 0.  1.
        -11    1    1    2    0    0  0.25226481787E+02  0.41912048477E+01 -0.20020396294E+02  0.32477035721E+02  0.00000000000E+00 0. -1.
         11    1    1    2    0    0 -0.33008844758E+02  0.11922949048E+02  0.59344898347E+02  0.68946047792E+02  0.00000000000E+00 0.  1.
</event>
<event>
 7    1  0.6506388E-006  0.1150306E+03  0.7561462E-02  0.1251528E+00
         -2   -1    0    0    0  501 -0.00000000000E+00  0.00000000000E+00  0.39483092533E+02  0.39483092533E+02  0.00000000000E+00 0.  1.
          2   -1    0    0  501    0  0.00000000000E+00 -0.00000000000E+00 -0.44323955100E+03  0.44323955100E+03  0.00000000000E+00 0. -1.
         23    2    1    2    0    0  0.24635000682E+02  0.56121428905E+02 -0.14186217068E+03  0.19881566427E+03  0.12508515039E+03 0.  0.
          5    1    3    3  502    0 -0.18603710276E+02 -0.33627291917E+02 -0.50345200569E+02  0.63474439092E+02  0.41800000000E+01 0.  1.
         -5    1    3    3    0  502  0.43238710959E+02  0.89748720822E+02 -0.91516970113E+02  0.13534122518E+03  0.41800000000E+01 0.  1.
        -11    1    1    2    0    0 -0.39957267201E+02 -0.74200951120E+01 -0.19796191575E+03  0.20209047751E+03  0.00000000000E+00 0. -1.
         11    1    1    2    0    0  0.15322266518E+02 -0.48701333793E+02 -0.63932372033E+02  0.81816501748E+02  0.00000000000E+00 0.  1.
</event>
<event>
 7    1  0.6506388E-006  0.1105938E+03  0.7561462E-02  0.1259474E+00
          1   -1    0    0  501    0  0.00000000000E+00  0.00000000000E+00  0.30830459927E+03  0.30830459927E+03  0.00000000000E+00 0. -1.
         -1   -1    0    0    0  501 -0.00000000000E+00 -0.00000000000E+00 -0.56774760366E+02  0.56774760366E+02  0.00000000000E+00 0.  1.
         23    2    1    2    0    0 -0.20370531411E+02 -0.21029407461E+02  0.43909185327E+02  0.13575838447E+03  0.12508048557E+03 0.  0.
          5    1    3    3  502    0  0.29947498991E+02 -0.56387663103E+02  0.81615520016E+01  0.64501973436E+02  0.41800000000E+01 0.  1.
         -5    1    3    3    0  502 -0.50318030401E+02  0.35358255643E+02  0.35747633325E+02  0.71256411037E+02  0.41800000000E+01 0.  1.
        -11    1    1    2    0    0  0.94582918138E+01  0.57100102548E+02  0.14647037690E+03  0.15749111818E+03  0.00000000000E+00 0. -1.
         11    1    1    2    0    0  0.10912239597E+02 -0.36070695087E+02  0.61150276676E+02  0.71829856986E+02  0.00000000000E+00 0.  1.
</event>
<event>
 7    1  0.6506388E-006  0.7486587E+02  0.7561462E-02  0.1344287E+00
          2   -1    0    0  501    0  0.00000000000E+00  0.00000000000E+00  0.12220016653E+03  0.12220016653E+03  0.00000000000E+00 0.  1.
         -2   -1    0    0    0  501 -0.00000000000E+00 -0.00000000000E+00 -0.12836407936E+03  0.12836407936E+03  0.00000000000E+00 0. -1.
         23    2    1    2    0    0  0.90659162724E+01  0.14955653820E+02 -0.63501125875E+02  0.14137329583E+03  0.12509257919E+03 0.  0.
          5    1    3    3  502    0 -0.24241802913E+02 -0.10270693232E+02 -0.88552076414E+02  0.92477536652E+02  0.41800000000E+01 0.  1.
         -5    1    3    3    0  502  0.33307719185E+02  0.25226347052E+02  0.25050950539E+02  0.48895759180E+02  0.41800000000E+01 0.  1.
        -11    1    1    2    0    0  0.43066803835E+01 -0.46563842465E+02  0.58447756266E+02  0.74852382283E+02  0.00000000000E+00 0.  1.
         11    1    1    2    0    0 -0.13372596656E+02  0.31608188645E+02 -0.11105432181E+01  0.34338567777E+02  0.00000000000E+00 0. -1.
</event>
<event>
 7    1  0.6506388E-006  0.1053641E+03  0.7561462E-02  0.1269404E+00
         -1   -1    0    0    0  501 -0.00000000000E+00  0.00000000000E+00  0.80341932274E+02  0.80341932274E+02  0.00000000000E+00 0.  1.
          1   -1    0    0  501    0  0.00000000000E+00 -0.00000000000E+00 -0.23890422303E+03  0.23890422303E+03  0.00000000000E+00 0. -1.
         23    2    1    2    0    0  0.19404414543E+02  0.70845231318E+02 -0.31127853418E+02  0.14836464701E+03  0.12509015597E+03 0.  0.
          5    1    3    3  502    0 -0.71051146827E+01  0.96925780326E+02  0.35567307778E+01  0.97340702074E+02  0.41800000000E+01 0.  1.
         -5    1    3    3    0  502  0.26509529225E+02 -0.26080549008E+02 -0.34684584195E+02  0.51023944939E+02  0.41800000000E+01 0.  1.
        -11    1    1    2    0    0 -0.19507277731E+02 -0.34103765815E+02 -0.12824779470E+03  0.13413089716E+03  0.00000000000E+00 0. -1.
         11    1    1    2    0    0  0.10286318848E+00 -0.36741465503E+02  0.81335736440E+00  0.36750611129E+02  0.00000000000E+00 0.  1.
</event>
<event>
 6    1  0.6506388E-006  0.1897444E+03  0.7561462E-02  0.1158692E+00
          2   -1    0    0  501    0  0.00000000000E+00  0.00000000000E+00  0.11227730457E+04  0.11227730457E+04  0.00000000000E+00 0. -1.
         -2   -1    0    0    0  501 -0.00000000000E+00 -0.00000000000E+00 -0.41285778357E+02  0.41285778357E+02  0.00000000000E+00 0.  1.
          5    1    1    2  502    0  0.15783995201E+02  0.17899234567E+02  0.86549622368E+02  0.89876730218E+02  0.41800000000E+01 0. -1.
         -5    1    1    2    0  502 -0.17151391580E+03  0.11003948125E+02  0.22792530772E+03  0.28549173103E+03  0.41800000000E+01 0. -1.
        -11    1    1    2    0    0  0.99026921705E+02  0.28104271183E+02  0.45280821210E+03  0.46436134445E+03  0.00000000000E+00 0.  1.
         11    1    1    2    0    0  0.56702998896E+02 -0.57007453875E+02  0.31420412520E+03  0.32432901840E+03  0.00000000000E+00 0. -1.
</event>
<event>
 7    1  0.6506388E-006  0.9235120E+02  0.7561462E-02  0.1297256E+00
         -2   -1    0    0    0  501 -0.00000000000E+00  0.00000000000E+00  0.85697306608E+02  0.85697306608E+02  0.00000000000E+00 0.  1.
          2   -1    0    0  501    0  0.00000000000E+00 -0.00000000000E+00 -0.17975834762E+03  0.17975834762E+03  0.00000000000E+00 0. -1.
         23    2    1    2    0    0  0.65831173461E+02 -0.49431428859E+02 -0.20479921389E+02  0.13947411792E+03  0.11070859420E+03 0.  0.
          5    1    3    3  502    0  0.21298879386E+02 -0.23074043381E+02 -0.64206992200E+02  0.71596536148E+02  0.41800000000E+01 0. -1.
         -5    1    3    3    0  502  0.44532294076E+02 -0.26357385478E+02  0.43727070811E+02  0.67877581768E+02  0.41800000000E+01 0.  1.
        -11    1    1    2    0    0 -0.53171872876E+02  0.63074271952E+02 -0.52151075833E+02  0.97597881934E+02  0.00000000000E+00 0. -1.
         11    1    1    2    0    0 -0.12659300585E+02 -0.13642843094E+02 -0.21430043790E+02  0.28383654378E+02  0.00000000000E+00 0.  1.
</event>
<event>
 7    1  0.6506388E-006  0.6092589E+02  0.7561462E-02  0.1393987E+00
          1   -1    0    0  501    0  0.00000000000E+00  0.00000000000E+00  0.45258563022E+02  0.45258563022E+02  0.00000000000E+00 0. -1.
         -1   -1    0    0    0  501 -0.00000000000E+00 -0.00000000000E+00 -0.29670293735E+03  0.29670293735E+03  0.00000000000E+00 0.  1.
         23    2    1    2    0    0 -0.36156187424E+02 -0.76025919658E+01 -0.17358364521E+03  0.21712696077E+03  0.12509103052E+03 0.  0.
          5    1    3    3  502    0 -0.82447221992E+01  0.37498323036E+00 -0.18531017128E+03  0.18554096054E+03  0.41800000000E+01 0. -1.
         -5    1    3    3    0  502 -0.27911465224E+02 -0.79775751962E+01  0.11726526075E+02  0.31586000234E+02  0.41800000000E+01 0. -1.
        -11    1    1    2    0    0  0.59199025778E+02  0.64871408434E+00 -0.20538355933E+02  0.62663941366E+02  0.00000000000E+00 0. -1.
         11    1    1    2    0    0 -0.23042838355E+02  0.69538778815E+01 -0.57322373186E+02  0.62170598233E+02  0.00000000000E+00 0.  1.
</event>
<event>
 7    1  0.6506388E-006  0.9560575E+02  0.7561462E-02  0.1289818E+00
         -1   -1    0    0    0  501 -0.00000000000E+00  0.00000000000E+00  0.67627621322E+02  0.67627621322E+02  0.00000000000E+00 0.  1.
          1   -1    0    0  501    0  0.00000000000E+00 -0.00000000000E+00 -0.26379360409E+03  0.26379360409E+03  0.00000000000E+00 0. -1.
         23    2    1    2    0    0  0.36272072358E+02  0.62661495441E+02 -0.74476077961E+02  0.16259405014E+03  0.12509201696E+03 0.  0.
          5    1    3    3  502    0 -0.80605107760E+00  0.53205546897E+01  0.33819792552E+02  0.34499402731E+02  0.41800000000E+01 0. -1.
         -5    1    3    3    0  502  0.37078123436E+02  0.57340940752E+02 -0.10829587051E+03  0.12809464741E+03  0.41800000000E+01 0. -1.
        -11    1    1    2    0    0  0.30406968538E+02 -0.25276282404E+02 -0.31186725887E+02  0.50359567704E+02  0.00000000000E+00 0.  1.
         11    1    1    2    0    0 -0.66679040896E+02 -0.37385213037E+02 -0.90503178919E+02  0.11846760757E+03  0.00000000000E+00 0. -1.
</event>
<event>
 7    1  0.6506388E-006  0.9888474E+02  0.7561462E-02  0.1282659E+00
         -1   -1    0    0    0  501 -0.00000000000E+00  0.00000000000E+00  0.69085958503E+03  0.69085958503E+03  0.00000000000E+00 0.  1.
          1   -1    0    0  501    0  0.00000000000E+00 -0.00000000000E+00 -0.21405529573E+02  0.21405529573E+02  0.00000000000E+00 0. -1.
         23    2    1    2    0    0  0.43255085262E+02 -0.13179697812E+02  0.47273088761E+03  0.49108725117E+03  0.12508992496E+03 0.  0.
          5    1    3    3  502    0  0.39519753385E+02 -0.60916214715E+02  0.37717840411E+03  0.38412708451E+03  0.41800000000E+01 0.  1.
         -5    1    3    3    0  502  0.37353318770E+01  0.47736516903E+02  0.95552483502E+02  0.10696016667E+03  0.41800000000E+01 0.  1.
        -11    1    1    2    0    0  0.96725364456E+01  0.21329964929E+02  0.76057005922E+01  0.24624622772E+02  0.00000000000E+00 0. -1.
         11    1    1    2    0    0 -0.52927621707E+02 -0.81502671173E+01  0.18911746726E+03  0.19655324066E+03  0.00000000000E+00 0.  1.
</event>
<event>
 7    1  0.6506388E-006  0.8433771E+02  0.7561462E-02  0.1317174E+00
          2   -1    0    0  501    0  0.00000000000E+00  0.00000000000E+00  0.37601581284E+03  0.37601581284E+03  0.00000000000E+00 0. -1.
         -2   -1    0    0    0  501 -0.00000000000E+00 -0.00000000000E+00 -0.56661885577E+02  0.56661885577E+02  0.00000000000E+00 0.  1.
         23    2    1    2    0    0 -0.51313041041E+02 -0.43035903434E+02  0.68579494542E+02  0.15759311613E+03  0.12508927218E+03 0.  0.
          5    1    3    3  502    0 -0.65474335829E+01 -0.13483836406E+02 -0.36423510134E+02  0.39608423615E+02  0.41800000000E+01 0. -1.
         -5    1    3    3    0  502 -0.44765607459E+02 -0.29552067028E+02  0.10500300468E+03  0.11798469251E+03  0.41800000000E+01 0. -1.
        -11    1    1    2    0    0  0.13767929329E+02 -0.20981949743E+02  0.13675907740E+03  0.13904259543E+03  0.00000000000E+00 0. -1.
         11    1    1    2    0    0  0.37545111713E+02  0.64017853177E+02  0.11401535532E+03  0.13604198686E+03  0.00000000000E+00 0.  1.
</event>
<event>
 7    1  0.6506388E-006  0.1111464E+03  0.7561462E-02  0.1258461E+00
         -1   -1    0    0    0  501 -0.00000000000E+00  0.00000000000E+00  0.17048221389E+03  0.17048221389E+03  0.00000000000E+00 0.  1.
          1   -1    0    0  501    0  0.00000000000E+00 -0.00000000000E+00 -0.12497296540E+03  0.12497296540E+03  0.00000000000E+00 0. -1.
         23    2    1    2    0    0 -0.96068152731E+01  0.96691163736E+02  0.18104321637E+02  0.15940904566E+03  0.12506800283E+03 0.  0.
          5    1    3    3  502    0 -0.19209425593E+02  0.80167450386E+02  0.67277429556E+02  0.10648730939E+03  0.41800000000E+01 0. -1.
         -5    1    3    3    0  502  0.96026103202E+01  0.16523713350E+02 -0.49173107919E+02  0.52921736274E+02  0.41800000000E+01 0. -1.
        -11    1    1    2    0    0 -0.26822775899E+02 -0.70182477611E+02  0.45113628670E+02  0.87637212201E+02  0.00000000000E+00 0.  1.
         11    1    1    2    0    0  0.36429591172E+02 -0.26508686125E+02 -0.17708701820E+02  0.48408921421E+02  0.00000000000E+00 0. -1.
</event>
<event>
 7    1  0.6506388E-006  0.1022883E+03  0.7561462E-02  0.1275556E+00
          1   -1    0    0  501    0  0.00000000000E+00  0.00000000000E+00  0.33430410031E+02  0.33430410031E+02  0.00000000000E+00 0. -1.
         -1   -1    0    0    0  501 -0.00000000000E+00 -0.00000000000E+00 -0.38264185017E+03  0.38264185017E+03  0.00000000000E+00 0.  1.
         23    2    1    2    0    0 -0.59411743361E+01  0.19782663152E+02 -0.24456453110E+03  0.27547429631E+03  0.12509047423E+03 0.  0.
          5    1    3    3  502    0 -0.62752364759E+02  0.28680344346E+02 -0.13474118929E+03  0.15143672582E+03  0.41800000000E+01 0.  1.
         -5    1    3    3    0  502  0.56811190423E+02 -0.88976811943E+01 -0.10982334182E+03  0.12403757050E+03  0.41800000000E+01 0.  1.
        -11    1    1    2    0    0 -0.17210850967E+02  0.23253810323E+02 -0.46537926624E+01  0.29302062584E+02  0.00000000000E+00 0. -1.
         11    1    1    2    0    0  0.23152025303E+02 -0.43036473475E+02 -0.99993116369E+02  0.11129590130E+03  0.00000000000E+00 0.  1.
</event>
<event>
 7    1  0.6506388E-006  0.1344399E+03  0.7561462E-02  0.1221012E+00
          1   -1    0    0  501    0  0.00000000000E+00  0.00000000000E+00  0.69903708281E+03  0.69903708281E+03  0.00000000000E+00 0. -1.
         -1   -1    0    0    0  501 -0.00000000000E+00 -0.00000000000E+00 -0.75692268192E+02  0.75692268192E+02  0.00000000000E+00 0.  1.
         23    2    1    2    0    0 -0.10023312346E+03 -0.42375466779E+02  0.27768659223E+02  0.16268193094E+03  0.11769432015E+03 0.  0.
          5    1    3    3  502    0 -0.68042725011E+02  0.14808879431E+02 -0.29253167350E+02  0.75646120436E+02  0.41800000000E+01 0. -1.
         -5    1    3    3    0  502 -0.32190398447E+02 -0.57184346209E+02  0.57021826574E+02  0.87035810500E+02  0.41800000000E+01 0.  1.
        -11    1    1    2    0    0  0.41187635050E+02  0.59062526641E+02  0.41831930024E+03  0.42447124789E+03  0.00000000000E+00 0. -1.
         11    1    1    2    0    0  0.59045488408E+02 -0.16687059862E+02  0.17725685516E+03  0.18757617217E+03  0.00000000000E+00 0.  1.
</event>
<event>
 7    1  0.6506388E-006  0.1224759E+03  0.7561462E-02  0.1239068E+00
         -2   -1    0    0    0  501 -0.00000000000E+00  0.00000000000E+00  0.80192297336E+03  0.80192297336E+03  0.00000000000E+00 0.  1.
          2   -1    0    0  501    0  0.00000000000E+00 -0.00000000000E+00 -0.19709281944E+02  0.19709281944E+02  0.00000000000E+00 0. -1.
         23    2    1    2    0    0  0.57472959855E+02 -0.23587872662E+02  0.52100321161E+03  0.53939868273E+03  0.12508822316E+03 0.  0.
          5    1    3    3  502    0  0.96904401066E+02 -0.90024338884E+01  0.36543984974E+03  0.37820003033E+03  0.41800000000E+01 0.  1.
         -5    1    3    3    0  502 -0.39431441211E+02 -0.14585438774E+02  0.15556336186E+03  0.16119865240E+03  0.41800000000E+01 0.  1.
        -11    1    1    2    0    0  0.16947390968E+02 -0.13939601624E+02  0.76587753830E+02  0.79669383020E+02  0.00000000000E+00 0.  1.
         11    1    1    2    0    0 -0.74420350822E+02  0.37527474286E+02  0.18462272598E+03  0.20256418956E+03  0.00000000000E+00 0. -1.
</event>
<event>
 7    1  0.6506388E-006  0.1303866E+03  0.7561462E-02  0.1226883E+00
          1   -1    0    0  501    0  0.00000000000E+00  0.00000000000E+00  0.29964502270E+03  0.29964502270E+03  0.00000000000E+00 0. -1.
         -1   -1    0    0    0  501 -0.00000000000E+00 -0.00000000000E+00 -0.61081326588E+02  0.61081326588E+02  0.00000000000E+00 0.  1.
         23    2    1    2    0    0  0.67811949887E+02 -0.40413760386E+02  0.10790343362E+03  0.18309081715E+03  0.12508942306E+03 0.  0.
          5    1    3    3  502    0  0.59259134872E+02  0.36795903036E+02  0.56303458169E+02  0.89739263134E+02  0.41800000000E+01 0. -1.
         -5    1    3    3    0  502  0.85528150146E+01 -0.77209663422E+02  0.51599975447E+02  0.93351554013E+02  0.41800000000E+01 0. -1.
        -11    1    1    2    0    0  0.16361366066E+02  0.21168920065E+02  0.61291940626E+02  0.66876897820E+02  0.00000000000E+00 0. -1.
         11    1    1    2    0    0 -0.84173315953E+02  0.19244840322E+02  0.69368321866E+02  0.11075863432E+03  0.00000000000E+00 0.  1.
</event>
<event>
 7    1  0.6506388E-006  0.9933498E+02  0.7561462E-02  0.1281701E+00
         -1   -1    0    0    0  501 -0.00000000000E+00  0.00000000000E+00  0.43936441886E+03  0.43936441886E+03  0.00000000000E+00 0.  1.
          1   -1    0    0  501    0  0.00000000000E+00 -0.00000000000E+00 -0.36930646897E+02  0.36930646897E+02  0.00000000000E+00 0. -1.
         23    2    1    2    0    0  0.51457904826E+02  0.27785573980E+02  0.28128143729E+03  0.31334860627E+03  0.12509255773E+03 0.  0.
          5    1    3    3  502    0  0.64575451221E+02  0.23090162943E+01  0.27652128747E+03  0.28400143535E+03  0.41800000000E+01 0. -1.
         -5    1    3    3    0  502 -0.13117546395E+02  0.25476557686E+02  0.47601498218E+01  0.29347170925E+02  0.41800000000E+01 0. -1.
        -11    1    1    2    0    0 -0.75677191637E+02 -0.13593107850E+02  0.10628691368E+03  0.13118200309E+03  0.00000000000E+00 0.  1.
         11    1    1    2    0    0  0.24219286812E+02 -0.14192466130E+02  0.14865420985E+02  0.31764456387E+02  0.00000000000E+00 0. -1.
</event>
<event>
 7    1  0.6506388E-006  0.1136340E+03  0.7561462E-02  0.1253985E+00
         -2   -1    0    0    0  501 -0.00000000000E+00  0.00000000000E+00  0.50884491792E+02  0.50884491792E+02  0.00000000000E+00 0.  1.
          2   -1    0    0  501    0  0.00000000000E+00 -0.00000000000E+00 -0.49958172966E+03  0.49958172966E+03  0.00000000000E+00 0. -1.
         23    2    1    2    0    0  0.36074755300E+02 -0.90712424677E+01 -0.50067035569E+02  0.13978273553E+03  0.12509528245E+03 0.  0.
          5    1    3    3  502    0  0.82056471327E+02 -0.10650907828E+02 -0.41990637720E+02  0.92883757355E+02  0.41800000000E+01 0.  1.
         -5    1    3    3    0  502 -0.45981716028E+02  0.15796653599E+01 -0.80763978493E+01  0.46898978173E+02  0.41800000000E+01 0.  1.
        -11    1    1    2    0    0 -0.64397869523E+02 -0.83963436809E+01 -0.28331749444E+03  0.29066542079E+03  0.00000000000E+00 0.  1.
         11    1    1    2    0    0  0.28323114223E+02  0.17467586149E+02 -0.11531270785E+03  0.12001806513E+03  0.00000000000E+00 0. -1.
</event>
<event>
 7    1  0.6506388E-006  0.8092188E+02  0.7561462E-02  0.1326455E+00
         -1   -1    0    0    0  501 -0.00000000000E+00  0.00000000000E+00  0.50176691093E+02  0.50176691093E+02  0.00000000000E+00 0.  1.
          1   -1    0    0  501    0  0.00000000000E+00 -0.00000000000E+00 -0.23981090225E+03  0.23981090225E+03  0.00000000000E+00 0. -1.
         23    2    1    2    0    0 -0.12497345595E+02 -0.91512542703E+01 -0.93677841362E+02  0.15705782813E+03  0.12510673169E+03 0.  0.
          5    1    3    3  502    0 -0.31495023856E+02  0.18150843516E+02 -0.11271577606E+03  0.11850615267E+03  0.41800000000E+01 0. -1.
         -5    1    3    3    0  502  0.18997678260E+02 -0.27302097787E+02  0.19037934703E+02  0.38551675457E+02  0.41800000000E+01 0. -1.
        -11    1    1    2    0    0 -0.21425238160E+02  0.40322342790E+02 -0.42747655892E+02  0.62548335250E+02  0.00000000000E+00 0.  1.
         11    1    1    2    0    0  0.33922583756E+02 -0.31171088519E+02 -0.53208713907E+02  0.70381429964E+02  0.00000000000E+00 0. -1.
</event>
<event>
 7    1  0.6506388E-006  0.1030577E+03  0.7561462E-02  0.1273994E+00
          3   -1    0    0  501    0  0.00000000000E+00  0.00000000000E+00  0.29541849083E+03  0.29541849083E+03  0.00000000000E+00 0. -1.
         -3   -1    0    0    0  501 -0.00000000000E+00 -0.00000000000E+00 -0.11634095385E+03  0.11634095385E+03  0.00000000000E+00 0.  1.
         23    2    1    2    0    0  0.46399952914E+02  0.36686736777E+02 -0.58112110349E+02  0.15007674985E+03  0.12508853342E+03 0.  0.
          5    1    3    3  502    0 -0.77078099103E+01  0.72087108480E+02 -0.21894606618E+02  0.75847265881E+02  0.41800000000E+01 0. -1.
         -5    1    3    3    0  502  0.54107762824E+02 -0.35400371703E+02 -0.36217503731E+02  0.74229483974E+02  0.41800000000E+01 0. -1.
        -11    1    1    2    0    0 -0.63781249105E+01 -0.26703135613E+02  0.76973316803E+01  0.28512924156E+02  0.00000000000E+00 0.  1.
         11    1    1    2    0    0 -0.40021828003E+02 -0.99836011642E+01  0.22949231565E+03  0.23316977066E+03  0.00000000000E+00 0. -1.
</event>
<event>
 7    1  0.6506388E-006  0.1264363E+03  0.7561462E-02  0.1232842E+00
         -4   -1    0    0    0  501 -0.00000000000E+00  0.00000000000E+00  0.30632599072E+03  0.30632599072E+03  0.00000000000E+00 0. -1.
          4   -1    0    0  501    0  0.00000000000E+00 -0.00000000000E+00 -0.77262406382E+02  0.77262406382E+02  0.00000000000E+00 0.  1.
         23    2    1    2    0    0  0.19080108350E+02  0.77085225179E+02  0.21647271574E+03  0.26231788707E+03  0.12507619575E+03 0.  0.
          5    1    3    3  502    0 -0.64862965603E+01 -0.33097736217E+02  0.38009299591E+02  0.50987365505E+02  0.41800000000E+01 0.  1.
         -5    1    3    3    0  502  0.25566404910E+02  0.11018296140E+03  0.17846341615E+03  0.21133052157E+03  0.41800000000E+01 0.  1.
        -11    1    1    2    0    0 -0.25321617796E+02  0.28858283312E+01  0.29819971685E+02  0.39226815373E+02  0.00000000000E+00 0.  1.
         11    1    1    2    0    0  0.62415094463E+01 -0.79971053510E+02 -0.17229103090E+02  0.82043694657E+02  0.00000000000E+00 0. -1.
</event>
<event>
 7    1  0.6506388E-006  0.5055275E+02  0.7561462E-02  0.1442383E+00
         -2   -1    0    0    0  501 -0.00000000000E+00  0.00000000000E+00  0.21544844564E+03  0.21544844564E+03  0.00000000000E+00 0.  1.
          2   -1    0    0  501    0  0.00000000000E+00 -0.00000000000E+00 -0.54883429339E+02  0.54883429339E+02  0.00000000000E+00 0. -1.
         23    2    1    2    0    0  0.77060050597E+00 -0.11562915001E+02  0.10833309676E+03  0.16588092488E+03  0.12508447768E+03 0.  0.
          5    1    3    3  502    0 -0.34691487323E+01 -0.36287044450E+02 -0.15230935501E+02  0.39727048520E+02  0.41800000000E+01 0. -1.
         -5    1    3    3    0  502  0.42397492383E+01  0.24724129450E+02  0.12356403227E+03  0.12615387636E+03  0.41800000000E+01 0. -1.
        -11    1    1    2    0    0  0.25125493668E+01 -0.13487016787E+02  0.71420300517E+02  0.72726005335E+02  0.00000000000E+00 0.  1.
         11    1    1    2    0    0 -0.32831498728E+01  0.25049931788E+02 -0.19188380981E+02  0.31724944765E+02  0.00000000000E+00 0. -1.
</event>
<event>
 7    1  0.6506388E-006  0.1050737E+03  0.7561462E-02  0.1269975E+00
          1   -1    0    0  501    0  0.00000000000E+00  0.00000000000E+00  0.57955768029E+03  0.57955768029E+03  0.00000000000E+00 0. -1.
         -1   -1    0    0    0  501 -0.00000000000E+00 -0.00000000000E+00 -0.29213844109E+02  0.29213844109E+02  0.00000000000E+00 0.  1.
         23    2    1    2    0    0  0.27282216188E+02  0.57212392253E+02  0.22771294571E+03  0.26742920894E+03  0.12509044328E+03 0.  0.
          5    1    3    3  502    0 -0.27009872677E+02 -0.28088932647E+01  0.19305606568E+01  0.27543103817E+02  0.41800000000E+01 0.  1.
         -5    1    3    3    0  502  0.54292088865E+02  0.60021285517E+02  0.22578238506E+03  0.23988610512E+03  0.41800000000E+01 0.  1.
        -11    1    1    2    0    0  0.16471184148E+02 -0.55447121773E+02  0.24938602409E+03  0.25600600038E+03  0.00000000000E+00 0. -1.
         11    1    1    2    0    0 -0.43753400335E+02 -0.17652704800E+01  0.73244866382E+02  0.85336315084E+02  0.00000000000E+00 0.  1.
</event>
<event>
 7    1  0.6506388E-006  0.1496737E+03  0.7561462E-02  0.1200875E+00
         -3   -1    0    0    0  501 -0.00000000000E+00  0.00000000000E+00  0.77684165531E+02  0.77684165531E+02  0.00000000000E+00 0.  1.
          3   -1    0    0  501    0  0.00000000000E+00 -0.00000000000E+00 -0.36642683103E+03  0.36642683103E+03  0.00000000000E+00 0. -1.
         23    2    1    2    0    0 -0.95753210596E+02 -0.51161710113E+02 -0.61669861672E+02  0.17676208266E+03  0.12512179710E+03 0.  0.
          5    1    3    3  502    0 -0.78120690859E+02  0.23502170514E+02 -0.57351955105E+02  0.99809385899E+02  0.41800000000E+01 0. -1.
         -5    1    3    3    0  502 -0.17632519737E+02 -0.74663880626E+02 -0.43179065669E+01  0.76952696766E+02  0.41800000000E+01 0. -1.
        -11    1    1    2    0    0 -0.14286603119E+02  0.23277042543E+02 -0.37592677787E+02  0.46466516563E+02  0.00000000000E+00 0.  1.
         11    1    1    2    0    0  0.11003981371E+03  0.27884667569E+02 -0.18948012604E+03  0.22088239734E+03  0.00000000000E+00 0. -1.
</event>
<event>
 7    1  0.6506388E-006  0.6628650E+02  0.7561462E-02  0.1373197E+00
          4   -1    0    0  501    0  0.00000000000E+00  0.00000000000E+00  0.35512896310E+02  0.35512896310E+02  0.00000000000E+00 0. -1.
         -4   -1    0    0    0  501 -0.00000000000E+00 -0.00000000000E+00 -0.33473916309E+03  0.33473916309E+03  0.00000000000E+00 0.  1.
         23    2    1    2    0    0 -0.25843380628E+01 -0.10544976696E+02 -0.18497348887E+03  0.22356329056E+03  0.12508987954E+03 0.  0.
          5    1    3    3  502    0 -0.34571061717E+02  0.17383558076E+01 -0.18579219498E+03  0.18903542605E+03  0.41800000000E+01 0.  1.
         -5    1    3    3    0  502  0.31986723654E+02 -0.12283332504E+02  0.81870610513E+00  0.34527864504E+02  0.41800000000E+01 0.  1.
        -11    1    1    2    0    0  0.27967615492E+02  0.21762497569E+02 -0.11352542744E+03  0.11892777847E+03  0.00000000000E+00 0.  1.
         11    1    1    2    0    0 -0.25383277429E+02 -0.11217520873E+02 -0.72735046591E+00  0.27760990369E+02  0.00000000000E+00 0. -1.
</event>
<event>
 7    1  0.6506388E-006  0.1251823E+03  0.7561462E-02  0.1234785E+00
          1   -1    0    0  501    0  0.00000000000E+00  0.00000000000E+00  0.55703574297E+03  0.55703574297E+03  0.00000000000E+00 0. -1.
         -1   -1    0    0    0  501 -0.00000000000E+00 -0.00000000000E+00 -0.39599848501E+02  0.39599848501E+02  0.00000000000E+00 0.  1.
         23    2    1    2    0    0  0.76906051679E+02 -0.59870198327E+02  0.22608061590E+03  0.27615655313E+03  0.12510401879E+03 0.  0.
          5    1    3    3  502    0  0.15866353473E+02 -0.78977773242E+02  0.17989868394E+03  0.19715536696E+03  0.41800000000E+01 0. -1.
         -5    1    3    3    0  502  0.61039698206E+02  0.19107574915E+02  0.46181931963E+02  0.79001186169E+02  0.41800000000E+01 0. -1.
        -11    1    1    2    0    0 -0.65080131061E+02  0.26621673198E+02  0.27049686057E+03  0.27948647288E+03  0.00000000000E+00 0. -1.
         11    1    1    2    0    0 -0.11825920619E+02  0.33248525129E+02  0.20858417987E+02  0.40992565456E+02  0.00000000000E+00 0.  1.
</event>
<event>
 6    1  0.6506388E-006  0.1865695E+03  0.7561462E-02  0.1161592E+00
         -2   -1    0    0    0  501 -0.00000000000E+00  0.00000000000E+00  0.20255910841E+03  0.20255910841E+03  0.00000000000E+00 0.  1.
          2   -1    0    0  501    0  0.00000000000E+00 -0.00000000000E+00 -0.43922181161E+03  0.43922181161E+03  0.00000000000E+00 0. -1.
          5    1    1    2  502    0  0.56838320006E+02  0.80928252166E+02 -0.10385527551E+03  0.14346904638E+03  0.41800000000E+01 0. -1.
         -5    1    1    2    0  502 -0.10323053267E+03  0.45339957876E+02  0.14036055131E+03  0.18008556694E+03  0.41800000000E+01 0.  1.
        -11    1    1    2    0    0 -0.21435780808E+02 -0.44358582957E+01 -0.56213232863E+02  0.60324929230E+02  0.00000000000E+00 0.  1.
         11    1    1    2    0    0  0.67827993469E+02 -0.12183235175E+03 -0.21695474614E+03  0.25790137747E+03  0.00000000000E+00 0. -1.
</event>
<event>
 7    1  0.6506388E-006  0.9434903E+02  0.7561462E-02  0.1292649E+00
          2   -1    0    0  501    0  0.00000000000E+00  0.00000000000E+00  0.88809460178E+02  0.88809460178E+02  0.00000000000E+00 0. -1.
         -2   -1    0    0    0  501 -0.00000000000E+00 -0.00000000000E+00 -0.13848010104E+03  0.13848010104E+03  0.00000000000E+00 0.  1.
         23    2    1    2    0    0 -0.33283602355E+01  0.19819961719E+02 -0.40738449833E+02  0.13308128910E+03  0.12508836616E+03 0.  0.
          5    1    3    3  502    0  0.58110130858E+02  0.60542217010E+01 -0.11401298949E+01  0.58585093709E+02  0.41800000000E+01 0. -1.
         -5    1    3    3    0  502 -0.61438491093E+02  0.13765740018E+02 -0.39598319939E+02  0.74496195393E+02  0.41800000000E+01 0. -1.
        -11    1    1    2    0    0 -0.28000839016E+02 -0.22013229167E+02 -0.37524159333E+02  0.51736754610E+02  0.00000000000E+00 0.  1.
         11    1    1    2    0    0  0.31329199252E+02  0.21932674478E+01  0.28591968303E+02  0.42471517506E+02  0.00000000000E+00 0. -1.
</event>
<event>
 7    1  0.6506388E-006  0.1140297E+03  0.7561462E-02  0.1253284E+00
          2   -1    0    0  501    0  0.00000000000E+00  0.00000000000E+00  0.17899328565E+03  0.17899328565E+03  0.00000000000E+00 0. -1.
         -2   -1    0    0    0  501 -0.00000000000E+00 -0.00000000000E+00 -0.84737193353E+02  0.84737193353E+02  0.00000000000E+00 0.  1.
         23    2    1    2    0    0 -0.32990368580E+02  0.23599854154E+02  0.13209313087E+02  0.13216935100E+03  0.12509569880E+03 0.  0.
          5    1    3    3  502    0  0.21867757650E+02  0.56443563768E+02  0.27346189733E+02  0.66553446255E+02  0.41800000000E+01 0. -1.
         -5    1    3    3    0  502 -0.54858126230E+02 -0.32843709614E+02 -0.14136876646E+02  0.65615904749E+02  0.41800000000E+01 0. -1.
        -11    1    1    2    0    0  0.50056898879E+02 -0.50722559319E+02  0.51000026991E+02  0.87632607529E+02  0.00000000000E+00 0.  1.
         11    1    1    2    0    0 -0.17066530299E+02  0.27122705165E+02  0.30046752224E+02  0.43928520475E+02  0.00000000000E+00 0. -1.
</event>
<event>
 7    1  0.6506388E-006  0.1085827E+03  0.7561462E-02  0.1263217E+00
         -2   -1    0    0    0  501 -0.00000000000E+00  0.00000000000E+00  0.25073816844E+03  0.25073816844E+03  0.00000000000E+00 0.  1.
          2   -1    0    0  501    0  0.00000000000E+00 -0.00000000000E+00 -0.89046162605E+02  0.89046162605E+02  0.00000000000E+00 0. -1.
         23    2    1    2    0    0 -0.13257858738E+02 -0.16787786665E+02  0.20165742521E+03  0.23826643289E+03  0.12509026862E+03 0.  0.
          5    1    3    3  502    0 -0.59745588910E+02  0.22839194330E+02  0.12181329036E+03  0.13764851725E+03  0.41800000000E+01 0.  1.
         -5    1    3    3    0  502  0.46487730172E+02 -0.39626980996E+02  0.79844134843E+02  0.10061791564E+03  0.41800000000E+01 0.  1.
        -11    1    1    2    0    0 -0.13316115701E+01  0.52886517437E+02 -0.31833019944E+02  0.61742190395E+02  0.00000000000E+00 0. -1.
         11    1    1    2    0    0  0.14589470308E+02 -0.36098730771E+02 -0.81323994278E+01  0.39775707758E+02  0.00000000000E+00 0.  1.
</event>
<event>
 7    1  0.6506388E-006  0.7947950E+02  0.7561462E-02  0.1330535E+00
          2   -1    0    0  501    0  0.00000000000E+00  0.00000000000E+00  0.42175144203E+03  0.42175144203E+03  0.00000000000E+00 0. -1.
         -2   -1    0    0    0  501 -0.00000000000E+00 -0.00000000000E+00 -0.34600245191E+02  0.34600245191E+02  0.00000000000E+00 0.  1.
         23    2    1    2    0    0  0.77236990214E+01  0.47187679013E+02  0.17904347469E+03  0.22358869886E+03  0.12509599454E+03 0.  0.
          5    1    3    3  502    0 -0.31520734471E+02  0.30274634309E+02  0.48384097698E+01  0.44170044071E+02  0.41800000000E+01 0.  1.
         -5    1    3    3    0  502  0.39244433492E+02  0.16913044704E+02  0.17420506493E+03  0.17941865479E+03  0.41800000000E+01 0.  1.
        -11    1    1    2    0    0  0.23212622335E+02 -0.16030329287E+02  0.10127921626E+02  0.29972855873E+02  0.00000000000E+00 0.  1.
         11    1    1    2    0    0 -0.30936321356E+02 -0.31157349726E+02  0.19797980052E+03  0.20279013249E+03  0.00000000000E+00 0. -1.
</event>
<event>
 7    1  0.6506388E-006  0.1264317E+03  0.7561462E-02  0.1232849E+00
          1   -1    0    0  501    0  0.00000000000E+00  0.00000000000E+00  0.28747122374E+03  0.28747122374E+03  0.00000000000E+00 0. -1.
         -1   -1    0    0    0  501 -0.00000000000E+00 -0.00000000000E+00 -0.84144126034E+02  0.84144126034E+02  0.00000000000E+00 0.  1.
         23    2    1    2    0    0  0.69059874691E+02  0.84790369590E+02  0.87876131676E+02  0.18796155591E+03  0.12509459986E+03 0.  0.
          5    1    3    3  502    0 -0.16529585142E+02  0.15912957847E+02  0.73466873753E+02  0.77079850489E+02  0.41800000000E+01 0.  1.
         -5    1    3    3    0  502  0.85589459833E+02  0.68877411743E+02  0.14409257923E+02  0.11088170542E+03  0.41800000000E+01 0.  1.
        -11    1    1    2    0    0 -0.32344580024E+02 -0.74885288077E+02  0.24656001280E+02  0.85216762590E+02  0.00000000000E+00 0.  1.
         11    1    1    2    0    0 -0.36715294667E+02 -0.99050815134E+01  0.90794964749E+02  0.98437031274E+02  0.00000000000E+00 0. -1.
</event>
<event>
 7    1  0.6506388E-006  0.1101480E+03  0.7561462E-02  0.1260296E+00
          2   -1    0    0  501    0  0.00000000000E+00  0.00000000000E+00  0.25139180696E+03  0.25139180696E+03  0.00000000000E+00 0. -1.
         -2   -1    0    0    0  501 -0.00000000000E+00 -0.00000000000E+00 -0.51108227021E+02  0.51108227021E+02  0.00000000000E+00 0.  1.
         23    2    1    2    0    0  0.37803106331E+02 -0.27846656626E+01  0.88809149370E+02  0.15802290531E+03  0.12508934559E+03 0.  0.
          5    1    3    3  502    0 -0.20866035818E+01 -0.60000797572E+02  0.48978267344E+02  0.77593767120E+02  0.41800000000E+01 0. -1.
         -5    1    3    3    0  502  0.39889709913E+02  0.57216131910E+02  0.39830882026E+02  0.80429138194E+02  0.41800000000E+01 0. -1.
        -11    1    1    2    0    0 -0.19619498596E+02 -0.39558983500E+02  0.68288668488E+02  0.81321461771E+02  0.00000000000E+00 0. -1.
         11    1    1    2    0    0 -0.18183607736E+02  0.42343649163E+02  0.43185762082E+02  0.63155666898E+02  0.00000000000E+00 0.  1.
</event>
<event>
 7    1  0.6506388E-006  0.1110297E+03  0.7561462E-02  0.1258675E+00
         -1   -1    0    0    0  501 -0.00000000000E+00  0.00000000000E+00  0.58826955532E+02  0.58826955532E+02  0.00000000000E+00 0.  1.
          1   -1    0    0  501    0  0.00000000000E+00 -0.00000000000E+00 -0.31666988677E+03  0.31666988677E+03  0.00000000000E+00 0. -1.
         23    2    1    2    0    0 -0.58994596888E+02  0.37631142024E+02 -0.85374866836E+02  0.16683033641E+03  0.12508808076E+03 0.  0.
          5    1    3    3  502    0 -0.34330646563E+02 -0.45034022303E+02 -0.29783301744E+02  0.64118436670E+02  0.41800000000E+01 0. -1.
         -5    1    3    3    0  502 -0.24663950325E+02  0.82665164328E+02 -0.55591565092E+02  0.10271189974E+03  0.41800000000E+01 0. -1.
        -11    1    1    2    0    0  0.51742315579E+02 -0.13163074364E+02 -0.24905934812E+02  0.58913829761E+02  0.00000000000E+00 0.  1.
         11    1    1    2    0    0  0.72522813091E+01 -0.24468067660E+02 -0.14756212959E+03  0.14975267613E+03  0.00000000000E+00 0. -1.
</event>
<event>
 7    1  0.6506388E-006  0.1994283E+03  0.7561462E-02  0.1150222E+00
         -1   -1    0    0    0  501 -0.00000000000E+00  0.00000000000E+00  0.11938123227E+03  0.11938123227E+03  0.00000000000E+00 0.  1.
          1   -1    0    0  501    0  0.00000000000E+00 -0.00000000000E+00 -0.59565299805E+03  0.59565299805E+03  0.00000000000E+00 0. -1.
         23    2    1    2    0    0 -0.12835401479E+03  0.11204355758E+03 -0.11347392739E+02  0.21167982643E+03  0.12510425127E+03 0.  0.
          5    1    3    3  502    0 -0.70537716614E+01 -0.25396301116E+02 -0.94470922353E+01  0.28309852644E+02  0.41800000000E+01 0. -1.
         -5    1    3    3    0  502 -0.12130024313E+03  0.13743985870E+03 -0.19003005033E+01  0.18336997378E+03  0.41800000000E+01 0. -1.
        -11    1    1    2    0    0  0.21840138622E+02 -0.71631120738E+02 -0.13592053543E+03  0.15518505425E+03  0.00000000000E+00 0.  1.
         11    1    1    2    0    0  0.10651387617E+03 -0.40412436846E+02 -0.32900383761E+03  0.34816934964E+03  0.00000000000E+00 0. -1.
</event>
<event>
 7    1  0.7717553E-006  0.1680052E+03  0.7561462E-02  0.1179944E+00
          3   -1    0    0  501    0  0.00000000000E+00  0.00000000000E+00  0.76574239364E+03  0.76574239364E+03  0.00000000000E+00 0. -1.
         -3   -1    0    0    0  501 -0.00000000000E+00 -0.00000000000E+00 -0.41746831845E+02  0.41746831845E+02  0.00000000000E+00 0.  1.
         23    2    1    2    0    0  0.96089399413E+02 -0.10114980412E+03  0.32967977727E+03  0.37921056706E+03  0.12508974011E+03 0.  0.
          5    1    3    3  502    0  0.12598968705E+03 -0.77357077812E+02  0.27679255752E+03  0.31382974848E+03  0.41800000000E+01 0.  1.
         -5    1    3    3    0  502 -0.29900287642E+02 -0.23792726307E+02  0.52887219748E+02  0.65380818585E+02  0.41800000000E+01 0.  1.
        -11    1    1    2    0    0 -0.90750086736E+02  0.61417632015E+02  0.35725670782E+03  0.37368443779E+03  0.00000000000E+00 0.  1.
         11    1    1    2    0    0 -0.53393126767E+01  0.39732172104E+02  0.37059076711E+02  0.54594220634E+02  0.00000000000E+00 0. -1.
</event>
<event>
 7    1  0.6506388E-006  0.9563475E+02  0.7561462E-02  0.1289753E+00
          1   -1    0    0  501    0  0.00000000000E+00  0.00000000000E+00  0.31785663079E+02  0.31785663079E+02  0.00000000000E+00 0. -1.
         -1   -1    0    0    0  501 -0.00000000000E+00 -0.00000000000E+00 -0.60057148469E+03  0.60057148469E+03  0.00000000000E+00 0.  1.
         23    2    1    2    0    0 -0.62477276660E+02  0.11838550102E+01 -0.45151196355E+03  0.47267282994E+03  0.12510691157E+03 0.  0.
          5    1    3    3  502    0 -0.12638520189E+02 -0.49719133388E+02 -0.30937750180E+03  0.31362977447E+03  0.41800000000E+01 0. -1.
         -5    1    3    3    0  502 -0.49838756471E+02  0.50902988398E+02 -0.14213446175E+03  0.15904305547E+03  0.41800000000E+01 0. -1.
        -11    1    1    2    0    0  0.14666007676E+02  0.11879568611E+02 -0.10752750018E+03  0.10917132969E+03  0.00000000000E+00 0.  1.
         11    1    1    2    0    0  0.47811268985E+02 -0.13063423622E+02 -0.97463578799E+01  0.50512988137E+02  0.00000000000E+00 0. -1.
</event>
<event>
 7    1  0.6506388E-006  0.1283578E+03  0.7561462E-02  0.1229913E+00
          1   -1    0    0  501    0  0.00000000000E+00  0.00000000000E+00  0.14330628338E+03  0.14330628338E+03  0.00000000000E+00 0. -1.
         -1   -1    0    0    0  501 -0.00000000000E+00 -0.00000000000E+00 -0.38759195242E+03  0.38759195242E+03  0.00000000000E+00 0.  1.
         23    2    1    2    0    0  0.98268171378E+02 -0.75290016769E+02 -0.31550304435E+03  0.36128222579E+03  0.12512975483E+03 0.  0.
          5    1    3    3  502    0  0.52447467957E+02 -0.13776779123E+02 -0.23331012688E+02  0.59180614149E+02  0.41800000000E+01 0. -1.
         -5    1    3    3    0  502  0.45820703421E+02 -0.61513237646E+02 -0.29217203166E+03  0.30210161164E+03  0.41800000000E+01 0. -1.
        -11    1    1    2    0    0 -0.64703011739E+02  0.36780079547E+02 -0.85261811177E+01  0.74912947773E+02  0.00000000000E+00 0.  1.
         11    1    1    2    0    0 -0.33565159639E+02  0.38509937222E+02  0.79743556431E+02  0.94703062246E+02  0.00000000000E+00 0. -1.
</event>
<event>
 7    1  0.6506388E-006  0.1596880E+03  0.7561462E-02  0.1189049E+00
         -1   -1    0    0    0  501 -0.00000000000E+00  0.00000000000E+00  0.51985856814E+02  0.51985856814E+02  0.00000000000E+00 0.  1.
          1   -1    0    0  501    0  0.00000000000E+00 -0.00000000000E+00 -0.61195985863E+03  0.61195985863E+03  0.00000000000E+00 0. -1.
         23    2    1    2    0    0 -0.43175489733E+02 -0.13836254412E+03 -0.25287003881E+03  0.31717245832E+03  0.12508715066E+03 0.  0.
          5    1    3    3  502    0 -0.18527352581E+02 -0.13448303760E+03 -0.25780818125E+03  0.29139574622E+03  0.41800000000E+01 0. -1.
         -5    1    3    3    0  502 -0.24648137152E+02 -0.38795065144E+01  0.49381424379E+01  0.25776712099E+02  0.41800000000E+01 0. -1.
        -11    1    1    2    0    0  0.15288729813E+02 -0.17589821318E+01 -0.14461823248E+02  0.21118324013E+02  0.00000000000E+00 0.  1.
         11    1    1    2    0    0  0.27886759920E+02  0.14012152625E+03 -0.29264213975E+03  0.32565493311E+03  0.00000000000E+00 0. -1.
</event>
<event>
 6    1  0.6506388E-006  0.1845617E+03  0.7561462E-02  0.1163460E+00
          3   -1    0    0  501    0  0.00000000000E+00  0.00000000000E+00  0.57613869440E+03  0.57613869440E+03  0.00000000000E+00 0. -1.
         -3   -1    0    0    0  501 -0.00000000000E+00 -0.00000000000E+00 -0.78192170189E+02  0.78192170189E+02  0.00000000000E+00 0.  1.
          5    1    1    2  502    0 -0.47682066372E+02 -0.11446364723E+03  0.18213421206E+03  0.22037660855E+03  0.41800000000E+01 0. -1.
         -5    1    1    2    0  502  0.30717568631E+02 -0.55920361684E+02  0.81390423149E+00  0.63943652645E+02  0.41800000000E+01 0.  1.
        -11    1    1    2    0    0 -0.19973213160E+02  0.30655033760E+02  0.13112890351E+03  0.13613761300E+03  0.00000000000E+00 0. -1.
         11    1    1    2    0    0  0.36937710900E+02  0.13972897516E+03  0.18386950441E+03  0.23387299040E+03  0.00000000000E+00 0.  1.
</event>
<event>
 6    1  0.6506388E-006  0.1188533E+03  0.7561462E-02  0.1245001E+00
          1   -1    0    0  501    0  0.00000000000E+00  0.00000000000E+00  0.97594186283E+03  0.97594186283E+03  0.00000000000E+00 0. -1.
         -1   -1    0    0    0  501 -0.00000000000E+00 -0.00000000000E+00 -0.89934077849E+02  0.89934077849E+02  0.00000000000E+00 0.  1.
          5    1    1    2  502    0 -0.85749795548E+02  0.51283099831E+01  0.29167815768E+03  0.30409364851E+03  0.41800000000E+01 0. -1.
         -5    1    1    2    0  502 -0.13236880808E+02 -0.12687528876E+02 -0.75770680405E+02  0.78069563926E+02  0.41800000000E+01 0.  1.
        -11    1    1    2    0    0  0.11122899608E+03 -0.97936752368E+01  0.60555636589E+03  0.61576482354E+03  0.00000000000E+00 0. -1.
         11    1    1    2    0    0 -0.12242319727E+02  0.17352894130E+02  0.64543941819E+02  0.67947904695E+02  0.00000000000E+00 0.  1.
</event>
<event>
 7    1  0.6506388E-006  0.1350844E+03  0.7561462E-02  0.1220101E+00
         -2   -1    0    0    0  501 -0.00000000000E+00  0.00000000000E+00  0.21867128824E+03  0.21867128824E+03  0.00000000000E+00 0.  1.
          2   -1    0    0  501    0  0.00000000000E+00 -0.00000000000E+00 -0.11716112148E+03  0.11716112148E+03  0.00000000000E+00 0. -1.
         23    2    1    2    0    0  0.89379437572E+02  0.58768559798E+02  0.10310946223E+03  0.19421901724E+03  0.12508812085E+03 0.  0.
          5    1    3    3  502    0 -0.14281058735E+02  0.56341727250E+02  0.53861806222E+02  0.79353043026E+02  0.41800000000E+01 0.  1.
         -5    1    3    3    0  502  0.10366049631E+03  0.24268325482E+01  0.49247656006E+02  0.11486597422E+03  0.41800000000E+01 0.  1.
        -11    1    1    2    0    0 -0.18736267881E+02 -0.51390051717E+01  0.39378920486E+02  0.43910778710E+02  0.00000000000E+00 0.  1.
         11    1    1    2    0    0 -0.70643169690E+02 -0.53629554626E+02 -0.40978215957E+02  0.97702613764E+02  0.00000000000E+00 0. -1.
</event>
<event>
 7    1  0.6506388E-006  0.1107026E+03  0.7561462E-02  0.1259274E+00
          1   -1    0    0  501    0  0.00000000000E+00  0.00000000000E+00  0.47083098109E+02  0.47083098109E+02  0.00000000000E+00 0. -1.
         -1   -1    0    0    0  501 -0.00000000000E+00 -0.00000000000E+00 -0.35327064157E+03  0.35327064157E+03  0.00000000000E+00 0.  1.
         23    2    1    2    0    0 -0.65237328439E+02 -0.44688563789E+01 -0.21566901463E+03  0.25775292109E+03  0.12509022648E+03 0.  0.
          5    1    3    3  502    0  0.30305013921E+02 -0.15196164528E+02 -0.19704031445E+02  0.39433976978E+02  0.41800000000E+01 0. -1.
         -5    1    3    3    0  502 -0.95542342360E+02  0.10727308149E+02 -0.19596498319E+03  0.21831894412E+03  0.41800000000E+01 0. -1.
        -11    1    1    2    0    0 -0.55652889212E+01  0.18077537999E+02 -0.62415742148E+02  0.65218821584E+02  0.00000000000E+00 0.  1.
         11    1    1    2    0    0  0.70802617360E+02 -0.13608681620E+02 -0.28102786675E+02  0.77381996998E+02  0.00000000000E+00 0. -1.
</event>
<event>
 7    1  0.6506388E-006  0.1890527E+03  0.7561462E-02  0.1159319E+00
         -2   -1    0    0    0  501 -0.00000000000E+00  0.00000000000E+00  0.53593339194E+02  0.53593339194E+02  0.00000000000E+00 0.  1.
          2   -1    0    0  501    0  0.00000000000E+00 -0.00000000000E+00 -0.77584611122E+03  0.77584611122E+03  0.00000000000E+00 0. -1.
         23    2    1    2    0    0 -0.11237105392E+03  0.12632911017E+03 -0.30461926282E+03  0.37017041228E+03  0.12508773325E+03 0.  0.
          5    1    3    3  502    0 -0.87370132512E+02  0.11860065965E+02 -0.17076828492E+03  0.19223288156E+03  0.41800000000E+01 0. -1.
         -5    1    3    3    0  502 -0.25000921412E+02  0.11446904421E+03 -0.13385097790E+03  0.17793753072E+03  0.41800000000E+01 0. -1.
        -11    1    1    2    0    0  0.43696687341E+02 -0.25483286165E+02 -0.22970194683E+03  0.23520583058E+03  0.00000000000E+00 0. -1.
         11    1    1    2    0    0  0.68674366583E+02 -0.10084582401E+03 -0.18793156238E+03  0.22406320756E+03  0.00000000000E+00 0.  1.
</event>
<event>
 7    1  0.6506388E-006  0.2212402E+03  0.7561462E-02  0.1132962E+00
          1   -1    0    0  501    0  0.00000000000E+00  0.00000000000E+00  0.67158621034E+03  0.67158621034E+03  0.00000000000E+00 0.  1.
         -1   -1    0    0    0  501 -0.00000000000E+00 -0.00000000000E+00 -0.12939025211E+03  0.12939025211E+03  0.00000000000E+00 0. -1.
         23    2    1    2    0    0  0.41654918699E+02  0.19983481859E+03  0.29344405679E+02  0.24120045369E+03  0.12508987867E+03 0.  0.
          5    1    3    3  502    0 -0.94442589150E+00  0.18309663555E+03  0.51399046125E+02  0.19022251242E+03  0.41800000000E+01 0. -1.
         -5    1    3    3    0  502  0.42599344591E+02  0.16738183040E+02 -0.22054640446E+02  0.50977941271E+02  0.41800000000E+01 0. -1.
        -11    1    1    2    0    0 -0.58067011631E+02 -0.16346130335E+03  0.47109545172E+03  0.50201822692E+03  0.00000000000E+00 0. -1.
         11    1    1    2    0    0  0.16412092932E+02 -0.36373515243E+02  0.41756100831E+02  0.57757781832E+02  0.00000000000E+00 0.  1.
</event>
<event>
 7    1  0.6506388E-006  0.1559439E+03  0.7561462E-02  0.1193354E+00
          1   -1    0    0  501    0  0.00000000000E+00  0.00000000000E+00  0.72300222870E+03  0.72300222870E+03  0.00000000000E+00 0.  1.
         -1   -1    0    0    0  501 -0.00000000000E+00 -0.00000000000E+00 -0.35531553714E+02  0.35531553714E+02  0.00000000000E+00 0. -1.
         23    2    1    2    0    0  0.11423641859E+03  0.19324276703E+02  0.31595880281E+03  0.35902742120E+03  0.12508931647E+03 0.  0.
          5    1    3    3  502    0  0.79387612611E+02  0.68238699587E+02  0.24169989306E+03  0.26342973230E+03  0.41800000000E+01 0. -1.
         -5    1    3    3    0  502  0.34848805979E+02 -0.48914422884E+02  0.74258909756E+02  0.95597688897E+02  0.41800000000E+01 0. -1.
        -11    1    1    2    0    0  0.77619818192E+01 -0.23598424793E+02  0.62470611756E+02  0.67228798499E+02  0.00000000000E+00 0. -1.
         11    1    1    2    0    0 -0.12199840041E+03  0.42741480903E+01  0.30904126042E+03  0.33227756272E+03  0.00000000000E+00 0.  1.
</event>
<event>
 7    1  0.6506388E-006  0.7941360E+02  0.7561462E-02  0.1330724E+00
          4   -1    0    0  501    0  0.00000000000E+00  0.00000000000E+00  0.22721545290E+03  0.22721545290E+03  0.00000000000E+00 0. -1.
         -4   -1    0    0    0  501 -0.00000000000E+00 -0.00000000000E+00 -0.65139852175E+02  0.65139852175E+02  0.00000000000E+00 0.  1.
         23    2    1    2    0    0 -0.33401143087E+02  0.26716443404E+02  0.47990847457E+02  0.14057628474E+03  0.12501666163E+03 0.  0.
          5    1    3    3  502    0 -0.40303999882E+02  0.30985657752E+02 -0.31901530811E+02  0.60163971452E+02  0.41800000000E+01 0.  1.
         -5    1    3    3    0  502  0.69028567956E+01 -0.42692143482E+01  0.79892378268E+02  0.80412313288E+02  0.41800000000E+01 0.  1.
        -11    1    1    2    0    0  0.18765665029E+02  0.32587650843E+02  0.56234075497E+02  0.67648920305E+02  0.00000000000E+00 0.  1.
         11    1    1    2    0    0  0.14635478057E+02 -0.59304094247E+02  0.57850677772E+02  0.84130100030E+02  0.00000000000E+00 0. -1.
</event>
<event>
 7    1  0.6506388E-006  0.1016006E+03  0.7561462E-02  0.1276966E+00
          2   -1    0    0  501    0  0.00000000000E+00  0.00000000000E+00  0.11051527875E+03  0.11051527875E+03  0.00000000000E+00 0. -1.
         -2   -1    0    0    0  501 -0.00000000000E+00 -0.00000000000E+00 -0.14015950213E+03  0.14015950213E+03  0.00000000000E+00 0.  1.
         23    2    1    2    0    0 -0.37465016118E+02 -0.44100901914E+02 -0.29286512235E+02  0.14090248467E+03  0.12508914183E+03 0.  0.
          5    1    3    3  502    0 -0.81181451510E+02 -0.19099697144E+02 -0.21205897025E+01  0.83529610324E+02  0.41800000000E+01 0. -1.
         -5    1    3    3    0  502  0.43716435392E+02 -0.25001204770E+02 -0.27165922532E+02  0.57372874343E+02  0.41800000000E+01 0. -1.
        -11    1    1    2    0    0  0.14399844114E+02  0.43790750938E+02  0.41469739438E+02  0.62005843815E+02  0.00000000000E+00 0. -1.
         11    1    1    2    0    0  0.23065172004E+02  0.31015097696E+00 -0.41827450577E+02  0.47766452401E+02  0.00000000000E+00 0.  1.
</event>
<event>
 7    1  0.6506388E-006  0.9194303E+02  0.7561462E-02  0.1298213E+00
         -2   -1    0    0    0  501 -0.00000000000E+00  0.00000000000E+00  0.66163638942E+03  0.66163638942E+03  0.00000000000E+00 0. -1.
          2   -1    0    0  501    0  0.00000000000E+00 -0.00000000000E+00 -0.26902474455E+02  0.26902474455E+02  0.00000000000E+00 0.  1.
         23    2    1    2    0    0  0.51617494358E+02 -0.55256259703E+02  0.35569663643E+03  0.38455795743E+03  0.12508839072E+03 0.  0.
          5    1    3    3  502    0  0.20596836882E+02 -0.13101228035E+02  0.32025331996E+03  0.32120948493E+03  0.41800000000E+01 0. -1.
         -5    1    3    3    0  502  0.31020657476E+02 -0.42155031668E+02  0.35443316473E+02  0.63348472498E+02  0.41800000000E+01 0. -1.
        -11    1    1    2    0    0 -0.45721031405E+01  0.59226217035E+02  0.81323690895E+02  0.10070844856E+03  0.00000000000E+00 0.  1.
         11    1    1    2    0    0 -0.47045391217E+02 -0.39699573315E+01  0.19771358764E+03  0.20327245788E+03  0.00000000000E+00 0. -1.
</event>
<event>
 7    1  0.6506388E-006  0.8855904E+02  0.7561462E-02  0.1306379E+00
         -1   -1    0    0    0  501 -0.00000000000E+00  0.00000000000E+00  0.29861398307E+03  0.29861398307E+03  0.00000000000E+00 0.  1.
          1   -1    0    0  501    0  0.00000000000E+00 -0.00000000000E+00 -0.49678224278E+02  0.49678224278E+02  0.00000000000E+00 0. -1.
         23    2    1    2    0    0  0.52165948402E+02 -0.78232982725E+01  0.11686769647E+03  0.17913172584E+03  0.12509047348E+03 0.  0.
          5    1    3    3  502    0 -0.35440085753E+02  0.37196541495E+01  0.45591056312E+01  0.36167573174E+02  0.41800000000E+01 0. -1.
         -5    1    3    3    0  502  0.87606034155E+02 -0.11542952422E+02  0.11230859084E+03  0.14296415266E+03  0.41800000000E+01 0. -1.
        -11    1    1    2    0    0 -0.22535884544E+02  0.42362990388E+01  0.13700311239E+03  0.13890883747E+03  0.00000000000E+00 0.  1.
         11    1    1    2    0    0 -0.29630063858E+02  0.35869992338E+01 -0.49350500735E+01  0.30251644037E+02  0.00000000000E+00 0. -1.
</event>
<event>
 7    1  0.6506388E-006  0.1198555E+03  0.7561462E-02  0.1243336E+00
          2   -1    0    0  501    0  0.00000000000E+00  0.00000000000E+00  0.60452870421E+03  0.60452870421E+03  0.00000000000E+00 0.  1.
         -2   -1    0    0    0  501 -0.00000000000E+00 -0.00000000000E+00 -0.25493227137E+02  0.25493227137E+02  0.00000000000E+00 0. -1.
         23    2    1    2    0    0  0.38101481089E+02 -0.43652800525E+02  0.31682889369E+03  0.34552185239E+03  0.12509001858E+03 0.  0.
          5    1    3    3  502    0  0.70007419542E+02 -0.67152483758E+02  0.24183683405E+03  0.26060126932E+03  0.41800000000E+01 0. -1.
         -5    1    3    3    0  502 -0.31905938454E+02  0.23499683233E+02  0.74992059637E+02  0.84920583072E+02  0.41800000000E+01 0. -1.
        -11    1    1    2    0    0 -0.38330852651E+01 -0.25395429455E+02  0.28287689501E+02  0.38207509172E+02  0.00000000000E+00 0.  1.
         11    1    1    2    0    0 -0.34268395824E+02  0.69048229980E+02  0.23391889388E+03  0.24629256978E+03  0.00000000000E+00 0. -1.
</event>
<event>
 7    1  0.6506388E-006  0.1182199E+03  0.7561462E-02  0.1246063E+00
         -1   -1    0    0    0  501 -0.00000000000E+00  0.00000000000E+00  0.45721010547E+02  0.45721010547E+02  0.00000000000E+00 0.  1.
          1   -1    0    0  501    0  0.00000000000E+00 -0.00000000000E+00 -0.31294696118E+03  0.31294696118E+03  0.00000000000E+00 0. -1.
         23    2    1    2    0    0 -0.32464221103E+02  0.38654974687E+02 -0.15008915171E+03  0.20180484603E+03  0.12510119784E+03 0.  0.
          5    1    3    3  502    0 -0.47728021721E+02 -0.33456549177E+02 -0.46923214732E+02  0.74943747044E+02  0.41800000000E+01 0.  1.
         -5    1    3    3    0  502  0.15263800618E+02  0.72111523863E+02 -0.10316593697E+03  0.12686109898E+03  0.41800000000E+01 0.  1.
        -11    1    1    2    0    0 -0.29972456731E+01  0.28274261199E+02 -0.28236096559E+02  0.40071117740E+02  0.00000000000E+00 0. -1.
         11    1    1    2    0    0  0.35461466776E+02 -0.66929235886E+02 -0.88900702367E+02  0.11679200796E+03  0.00000000000E+00 0.  1.
</event>
<event>
 7    1  0.7192518E-006  0.9541541E+02  0.7561462E-02  0.1290243E+00
          1   -1    0    0  501    0  0.00000000000E+00  0.00000000000E+00  0.17313684790E+03  0.17313684790E+03  0.00000000000E+00 0. -1.
         -1   -1    0    0    0  501 -0.00000000000E+00 -0.00000000000E+00 -0.10098208296E+03  0.10098208296E+03  0.00000000000E+00 0.  1.
         23    2    1    2    0    0 -0.26511419995E+02 -0.45162541140E+02 -0.15932981321E+02  0.13654206604E+03  0.12508942958E+03 0.  0.
          5    1    3    3  502    0  0.36942081087E+02  0.91915859942E+01 -0.33708742747E+02  0.51019156654E+02  0.41800000000E+01 0.  1.
         -5    1    3    3    0  502 -0.63453501082E+02 -0.54354127135E+02  0.17775761425E+02  0.85522909389E+02  0.41800000000E+01 0.  1.
        -11    1    1    2    0    0  0.32467892462E+02  0.11120965013E+02  0.96148877489E+02  0.10209038420E+03  0.00000000000E+00 0.  1.
         11    1    1    2    0    0 -0.59564724671E+01  0.34041576128E+02 -0.80611312294E+01  0.35486480612E+02  0.00000000000E+00 0. -1.
</event>
<event>
 7    1  0.6506388E-006  0.1039301E+03  0.7561462E-02  0.1272242E+00
          1   -1    0    0  501    0  0.00000000000E+00  0.00000000000E+00  0.14881478588E+03  0.14881478588E+03  0.00000000000E+00 0. -1.
         -1   -1    0    0    0  501 -0.00000000000E+00 -0.00000000000E+00 -0.10031251377E+03  0.10031251377E+03  0.00000000000E+00 0.  1.
         23    2    1    2    0    0  0.46600253575E+02  0.24492490018E+02  0.10339923708E+02  0.13609751365E+03  0.12507659053E+03 0.  0.
          5    1    3    3  502    0 -0.24876944776E+02  0.47056296562E+02 -0.17263507211E+02  0.56112908575E+02  0.41800000000E+01 0.  1.
         -5    1    3    3    0  502  0.71477198351E+02 -0.22563806544E+02  0.27603430919E+02  0.79984605071E+02  0.41800000000E+01 0.  1.
        -11    1    1    2    0    0 -0.81734542543E+01  0.19406101059E+02 -0.21141742826E+02  0.29839158877E+02  0.00000000000E+00 0. -1.
         11    1    1    2    0    0 -0.38426799321E+02 -0.43898591076E+02  0.59304091232E+02  0.83190627124E+02  0.00000000000E+00 0.  1.
</event>
<event>
 7    1  0.6506388E-006  0.2534926E+03  0.7561462E-02  0.1111117E+00
         -2   -1    0    0    0  501 -0.00000000000E+00  0.00000000000E+00  0.10322385965E+03  0.10322385965E+03  0.00000000000E+00 0. -1.
          2   -1    0    0  501    0  0.00000000000E+00 -0.00000000000E+00 -0.74653024817E+03  0.74653024817E+03  0.00000000000E+00 0.  1.
         23    2    1    2    0    0 -0.20141136634E+03 -0.12808164581E+03 -0.19164291647E+03  0.33068209978E+03  0.12510874149E+03 0.  0.
          5    1    3    3  502    0 -0.68016996712E+02  0.17647185649E+02 -0.35542995488E+02  0.78857542007E+02  0.41800000000E+01 0. -1.
         -5    1    3    3    0  502 -0.13339436963E+03 -0.14572883146E+03 -0.15609992098E+03  0.25182455778E+03  0.41800000000E+01 0. -1.
        -11    1    1    2    0    0  0.11474600441E+03  0.79938210538E+02 -0.35078136004E+03  0.37762987909E+03  0.00000000000E+00 0.  1.
         11    1    1    2    0    0  0.86665361931E+02  0.48143435273E+02 -0.10088211201E+03  0.14144212895E+03  0.00000000000E+00 0. -1.
</event>
<event>
 7    1  0.6506388E-006  0.1885817E+03  0.7561462E-02  0.1159747E+00
         -2   -1    0    0    0  501 -0.00000000000E+00  0.00000000000E+00  0.12479330884E+03  0.12479330884E+03  0.00000000000E+00 0.  1.
          2   -1    0    0  501    0  0.00000000000E+00 -0.00000000000E+00 -0.36642707018E+03  0.36642707018E+03  0.00000000000E+00 0. -1.
         23    2    1    2    0    0  0.82139321991E+02 -0.13610418612E+03 -0.19195215817E+02  0.20319262787E+03  0.12509024748E+03 0.  0.
          5    1    3    3  502    0  0.55581915546E+02 -0.15730505088E+03 -0.76613945191E+01  0.16706405279E+03  0.41800000000E+01 0. -1.
         -5    1    3    3    0  502  0.26557406445E+02  0.21200864763E+02 -0.11533821298E+02  0.36128575083E+02  0.41800000000E+01 0. -1.
        -11    1    1    2    0    0 -0.94502473771E+02  0.98719216623E+02 -0.20138497526E+03  0.24337647696E+03  0.00000000000E+00 0. -1.
         11    1    1    2    0    0  0.12363151780E+02  0.37384969495E+02 -0.21053570266E+02  0.44651274193E+02  0.00000000000E+00 0.  1.
</event>
<event>
 7    1  0.6506388E-006  0.9452053E+02  0.7561462E-02  0.1292260E+00
          2   -1    0    0  501    0  0.00000000000E+00  0.00000000000E+00  0.99064559588E+02  0.99064559588E+02  0.00000000000E+00 0. -1.
         -2   -1    0    0    0  501 -0.00000000000E+00 -0.00000000000E+00 -0.16287840914E+03  0.16287840914E+03  0.00000000000E+00 0.  1.
         23    2    1    2    0    0 -0.27893599610E+02  0.47625297086E+02 -0.71724922711E+02  0.15439643873E+03  0.12509026314E+03 0.  0.
          5    1    3    3  502    0 -0.48058137658E+02  0.72357629329E+01  0.19495662286E+02  0.52530887184E+02  0.41800000000E+01 0.  1.
         -5    1    3    3    0  502  0.20164538048E+02  0.40389534153E+02 -0.91220584997E+02  0.10186555154E+03  0.41800000000E+01 0.  1.
        -11    1    1    2    0    0 -0.26794374427E+02 -0.10260921500E+02 -0.20718371990E+02  0.35390336942E+02  0.00000000000E+00 0.  1.
         11    1    1    2    0    0  0.54687974037E+02 -0.37364375586E+02  0.28629445148E+02  0.72156193059E+02  0.00000000000E+00 0. -1.
</event>
<event>
 7    1  0.6506388E-006  0.1786420E+03  0.7561462E-02  0.1169124E+00
          2   -1    0    0  501    0  0.00000000000E+00  0.00000000000E+00  0.19053034035E+03  0.19053034035E+03  0.00000000000E+00 0. -1.
         -2   -1    0    0    0  501 -0.00000000000E+00 -0.00000000000E+00 -0.18885574067E+03  0.18885574067E+03  0.00000000000E+00 0.  1.
         23    2    1    2    0    0 -0.10351835462E+03  0.11360311150E+03 -0.20913939861E+02  0.19926466324E+03  0.12508915401E+03 0.  0.
          5    1    3    3  502    0 -0.67157554132E+02  0.12354367152E+03  0.21560629385E+02  0.14232185001E+03  0.41800000000E+01 0. -1.
         -5    1    3    3    0  502 -0.36360800487E+02 -0.99405600276E+01 -0.42474569246E+02  0.56942813228E+02  0.41800000000E+01 0. -1.
        -11    1    1    2    0    0  0.64773031938E+02 -0.68768659870E+01  0.95571767576E+01  0.65834463466E+02  0.00000000000E+00 0. -1.
         11    1    1    2    0    0  0.38745322680E+02 -0.10672624551E+03  0.13031362784E+02  0.11428695431E+03  0.00000000000E+00 0.  1.
</event>
<event>
 7    1  0.6506388E-006  0.1605170E+03  0.7561462E-02  0.1188114E+00
          1   -1    0    0  501    0  0.00000000000E+00  0.00000000000E+00  0.38876465022E+03  0.38876465022E+03  0.00000000000E+00 0. -1.
         -1   -1    0    0    0  501 -0.00000000000E+00 -0.00000000000E+00 -0.17406860751E+03  0.17406860751E+03  0.00000000000E+00 0.  1.
         23    2    1    2    0    0  0.16901897160E+02 -0.13182911296E+03 -0.10086622203E+03  0.20852476098E+03  0.12507594511E+03 0.  0.
          5    1    3    3  502    0  0.59119725893E+02 -0.28825358643E+02 -0.62157165406E+02  0.90592653686E+02  0.41800000000E+01 0.  1.
         -5    1    3    3    0  502 -0.42217828733E+02 -0.10300375432E+03 -0.38709056623E+02  0.11793210730E+03  0.41800000000E+01 0.  1.
        -11    1    1    2    0    0  0.19243468117E+02  0.29658353542E+02  0.16531402467E+03  0.16905222788E+03  0.00000000000E+00 0. -1.
         11    1    1    2    0    0 -0.36145365278E+02  0.10217075942E+03  0.15024824007E+03  0.18525626887E+03  0.00000000000E+00 0.  1.
</event>
<event>
 7    1  0.6506388E-006  0.1041903E+03  0.7561462E-02  0.1271723E+00
         -1   -1    0    0    0  501 -0.00000000000E+00  0.00000000000E+00  0.18945050643E+02  0.18945050643E+02  0.00000000000E+00 0.  1.
          1   -1    0    0  501    0  0.00000000000E+00 -0.00000000000E+00 -0.82772470511E+03  0.82772470511E+03  0.00000000000E+00 0. -1.
         23    2    1    2    0    0 -0.10445193318E+02 -0.58857689580E+02 -0.35365541347E+03  0.37985973322E+03  0.12509170942E+03 0.  0.
          5    1    3    3  502    0 -0.48011497028E+02 -0.44738678416E+02 -0.81456918043E+02  0.10468693849E+03  0.41800000000E+01 0. -1.
         -5    1    3    3    0  502  0.37566303710E+02 -0.14119011164E+02 -0.27219849542E+03  0.27517279473E+03  0.41800000000E+01 0. -1.
        -11    1    1    2    0    0  0.35048040838E+02  0.67614796825E+02 -0.30077798168E+03  0.31027007619E+03  0.00000000000E+00 0.  1.
         11    1    1    2    0    0 -0.24602847520E+02 -0.87571072445E+01 -0.15434625932E+03  0.15653994634E+03  0.00000000000E+00 0. -1.
</event>
<event>
 7    1  0.6506388E-006  0.1721435E+03  0.7561462E-02  0.1175631E+00
          2   -1    0    0  501    0  0.00000000000E+00  0.00000000000E+00  0.40543679088E+03  0.40543679088E+03  0.00000000000E+00 0. -1.
         -2   -1    0    0    0  501 -0.00000000000E+00 -0.00000000000E+00 -0.10156831561E+03  0.10156831561E+03  0.00000000000E+00 0.  1.
         23    2    1    2    0    0 -0.13017927398E+03 -0.53933638950E+02  0.37778800533E+02  0.19217314949E+03  0.12509117007E+03 0.  0.
          5    1    3    3  502    0 -0.55640368596E+02 -0.80166997300E+02  0.53691856335E+02  0.11145800066E+03  0.41800000000E+01 0.  1.
         -5    1    3    3    0  502 -0.74538905381E+02  0.26233358350E+02 -0.15913055802E+02  0.80715148830E+02  0.41800000000E+01 0.  1.
        -11    1    1    2    0    0  0.82052286054E+02 -0.14998898577E+02  0.11729817362E+03  0.14393194968E+03  0.00000000000E+00 0.  1.
         11    1    1    2    0    0  0.48126987923E+02  0.68932537527E+02  0.14879150112E+03  0.17090000732E+03  0.00000000000E+00 0. -1.
</event>
<event>
 7    1  0.6506388E-006  0.1206383E+03  0.7561462E-02  0.1242048E+00
          2   -1    0    0  501    0  0.00000000000E+00  0.00000000000E+00  0.38716478842E+03  0.38716478842E+03  0.00000000000E+00 0. -1.
         -2   -1    0    0    0  501 -0.00000000000E+00 -0.00000000000E+00 -0.38756875362E+02  0.38756875362E+02  0.00000000000E+00 0.  1.
         23    2    1    2    0    0  0.10041816392E+02 -0.45121598285E+02  0.16503396275E+03  0.21217824947E+03  0.12508638606E+03 0.  0.
          5    1    3    3  502    0 -0.44679135422E+02 -0.60121238873E+02  0.10901442794E+03  0.13233444905E+03  0.41800000000E+01 0.  1.
         -5    1    3    3    0  502  0.54720951814E+02  0.14999640588E+02  0.56019534807E+02  0.79843800418E+02  0.41800000000E+01 0.  1.
        -11    1    1    2    0    0 -0.46145334962E+02  0.55132708475E+02  0.11105864996E+03  0.13229902197E+03  0.00000000000E+00 0. -1.
         11    1    1    2    0    0  0.36103518570E+02 -0.10011110190E+02  0.72315300353E+02  0.81444392352E+02  0.00000000000E+00 0.  1.
</event>
<event>
 7    1  0.6506388E-006  0.1528590E+03  0.7561462E-02  0.1197003E+00
          1   -1    0    0  501    0  0.00000000000E+00  0.00000000000E+00  0.32990811235E+03  0.32990811235E+03  0.00000000000E+00 0. -1.
         -1   -1    0    0    0  501 -0.00000000000E+00 -0.00000000000E+00 -0.83771421239E+02  0.83771421239E+02  0.00000000000E+00 0.  1.
         23    2    1    2    0    0  0.11286596114E+03 -0.31082717199E+01  0.63031681013E+02  0.17991625653E+03  0.12509388481E+03 0.  0.
          5    1    3    3  502    0  0.94085293712E+02  0.48061577486E+02  0.14326098682E+02  0.10669895607E+03  0.41800000000E+01 0. -1.
         -5    1    3    3    0  502  0.18780667429E+02 -0.51169849205E+02  0.48705582332E+02  0.73217300463E+02  0.41800000000E+01 0. -1.
        -11    1    1    2    0    0 -0.68850658387E+02 -0.43317108664E+02  0.10185869619E+03  0.13035328555E+03  0.00000000000E+00 0.  1.
         11    1    1    2    0    0 -0.44015302754E+02  0.46425380384E+02  0.81246313907E+02  0.10340999151E+03  0.00000000000E+00 0. -1.
</event>
<event>
 7    1  0.6506388E-006  0.1305930E+03  0.7561462E-02  0.1226578E+00
         -2   -1    0    0    0  501 -0.00000000000E+00  0.00000000000E+00  0.65883931654E+03  0.65883931654E+03  0.00000000000E+00 0.  1.
          2   -1    0    0  501    0  0.00000000000E+00 -0.00000000000E+00 -0.32569024106E+02  0.32569024106E+02  0.00000000000E+00 0. -1.
         23    2    1    2    0    0 -0.10666038969E+02  0.96078513580E+02  0.35723639518E+03  0.39065407017E+03  0.12509162778E+03 0.  0.
          5    1    3    3  502    0  0.49064127413E+02  0.30886693419E+02  0.75155185039E+02  0.95010792373E+02  0.41800000000E+01 0. -1.
         -5    1    3    3    0  502 -0.59730166382E+02  0.65191820161E+02  0.28208121014E+03  0.29564327779E+03  0.41800000000E+01 0. -1.
        -11    1    1    2    0    0  0.36012592078E+02 -0.46047110703E+02  0.21525420789E+03  0.22305070546E+03  0.00000000000E+00 0.  1.
         11    1    1    2    0    0 -0.25346553108E+02 -0.50031402876E+02  0.53779689370E+02  0.77703565021E+02  0.00000000000E+00 0. -1.
</event>
<event>
 7    1  0.6506388E-006  0.1269542E+03  0.7561462E-02  0.1232046E+00
         -1   -1    0    0    0  501 -0.00000000000E+00  0.00000000000E+00  0.61074452431E+02  0.61074452431E+02  0.00000000000E+00 0.  1.
          1   -1    0    0  501    0  0.00000000000E+00 -0.00000000000E+00 -0.46551322929E+03  0.46551322929E+03  0.00000000000E+00 0. -1.
         23    2    1    2    0    0  0.40138017604E+01  0.71896753992E+02 -0.50799995212E+02  0.15301520393E+03  0.12509100400E+03 0.  0.
          5    1    3    3  502    0  0.56945984522E+02  0.54951257366E+02 -0.25356437921E+01  0.79286743714E+02  0.41800000000E+01 0. -1.
         -5    1    3    3    0  502 -0.52932182762E+02  0.16945496626E+02 -0.48264351419E+02  0.73728460216E+02  0.41800000000E+01 0. -1.
        -11    1    1    2    0    0  0.51562582385E+01  0.23008634295E+02 -0.49324219458E+02  0.54670493653E+02  0.00000000000E+00 0.  1.
         11    1    1    2    0    0 -0.91700599989E+01 -0.94905388287E+02 -0.30431456219E+03  0.31890198414E+03  0.00000000000E+00 0. -1.
</event>
<event>
 7    1  0.6506388E-006  0.1248416E+03  0.7561462E-02  0.1235317E+00
         -1   -1    0    0    0  501 -0.00000000000E+00  0.00000000000E+00  0.49924385558E+02  0.49924385558E+02  0.00000000000E+00 0.  1.
          1   -1    0    0  501    0  0.00000000000E+00 -0.00000000000E+00 -0.37089571419E+03  0.37089571419E+03  0.00000000000E+00 0. -1.
         23    2    1    2    0    0 -0.43028207817E+02  0.63134140792E+02 -0.12236054428E+03  0.18872171722E+03  0.12168170509E+03 0.  0.
          5    1    3    3  502    0  0.33577575506E+02  0.35570099013E+02 -0.86928447904E+02  0.99833426144E+02  0.41800000000E+01 0. -1.
         -5    1    3    3    0  502 -0.76605783323E+02  0.27564041779E+02 -0.35432096375E+02  0.88888291081E+02  0.41800000000E+01 0.  1.
        -11    1    1    2    0    0 -0.27538550105E+02 -0.31192416605E+02 -0.55449146628E+02  0.69324933879E+02  0.00000000000E+00 0.  1.
         11    1    1    2    0    0  0.70566757922E+02 -0.31941724187E+02 -0.14316163773E+03  0.16277344865E+03  0.00000000000E+00 0. -1.
</event>
<event>
 7    1  0.6506388E-006  0.7209189E+02  0.7561462E-02  0.1353121E+00
         -2   -1    0    0    0  501 -0.00000000000E+00  0.00000000000E+00  0.29332786741E+02  0.29332786741E+02  0.00000000000E+00 0.  1.
          2   -1    0    0  501    0  0.00000000000E+00 -0.00000000000E+00 -0.48437336365E+03  0.48437336365E+03  0.00000000000E+00 0. -1.
         23    2    1    2    0    0 -0.29294018520E+02  0.39233266802E+02 -0.26822921145E+03  0.29998760854E+03  0.12509303201E+03 0.  0.
          5    1    3    3  502    0  0.95983942142E-01  0.25200280135E+01  0.13486563322E+02  0.14342926631E+02  0.41800000000E+01 0. -1.
         -5    1    3    3    0  502 -0.29390002462E+02  0.36713238788E+02 -0.28171577477E+03  0.28564468191E+03  0.41800000000E+01 0. -1.
        -11    1    1    2    0    0  0.56300954459E+02 -0.26989395408E+02 -0.72763645182E+02  0.95878949711E+02  0.00000000000E+00 0.  1.
         11    1    1    2    0    0 -0.27006935939E+02 -0.12243871394E+02 -0.11404772028E+03  0.11783959214E+03  0.00000000000E+00 0. -1.
</event>
<event>
 7    1  0.6506388E-006  0.9791498E+02  0.7561462E-02  0.1284743E+00
         -1   -1    0    0    0  501 -0.00000000000E+00  0.00000000000E+00  0.22094597127E+02  0.22094597127E+02  0.00000000000E+00 0.  1.
          1   -1    0    0  501    0  0.00000000000E+00 -0.00000000000E+00 -0.63016123671E+03  0.63016123671E+03  0.00000000000E+00 0. -1.
         23    2    1    2    0    0  0.28533253775E+02 -0.31446952381E+02 -0.36927887443E+03  0.39219823348E+03  0.12509800102E+03 0.  0.
          5    1    3    3  502    0  0.54620264807E+02  0.11428057414E+02 -0.74646930883E+02  0.93293142911E+02  0.41800000000E+01 0.  1.
         -5    1    3    3    0  502 -0.26087011032E+02 -0.42875009795E+02 -0.29463194355E+03  0.29890509057E+03  0.41800000000E+01 0.  1.
        -11    1    1    2    0    0 -0.76148876561E+01  0.56420639098E+02 -0.81401600080E+02  0.99335268288E+02  0.00000000000E+00 0. -1.
         11    1    1    2    0    0 -0.20918366119E+02 -0.24973686717E+02 -0.15738616507E+03  0.16072233207E+03  0.00000000000E+00 0.  1.
</event>
<event>
 7    1  0.6506388E-006  0.1595952E+03  0.7561462E-02  0.1189155E+00
         -1   -1    0    0    0  501 -0.00000000000E+00  0.00000000000E+00  0.44753362868E+03  0.44753362868E+03  0.00000000000E+00 0.  1.
          1   -1    0    0  501    0  0.00000000000E+00 -0.00000000000E+00 -0.12931230647E+03  0.12931230647E+03  0.00000000000E+00 0. -1.
         23    2    1    2    0    0 -0.26988869142E+02  0.13055585725E+03  0.36592362109E+03  0.40905122362E+03  0.12509826598E+03 0.  0.
          5    1    3    3  502    0  0.10713715028E+02 -0.19938090918E+02  0.22505529372E+02  0.32191340628E+02  0.41800000000E+01 0. -1.
         -5    1    3    3    0  502 -0.37702584169E+02  0.15049394817E+03  0.34341809172E+03  0.37685988299E+03  0.41800000000E+01 0. -1.
        -11    1    1    2    0    0  0.27134277211E+02 -0.30133876323E+02 -0.53587011150E+02  0.67200351681E+02  0.00000000000E+00 0. -1.
         11    1    1    2    0    0 -0.14540806939E+00 -0.10042198093E+03  0.58847122758E+01  0.10059435986E+03  0.00000000000E+00 0.  1.
</event>
<event>
 7    1  0.6506388E-006  0.2205570E+03  0.7561462E-02  0.1133469E+00
         -4   -1    0    0    0  501 -0.00000000000E+00  0.00000000000E+00  0.10019044806E+03  0.10019044806E+03  0.00000000000E+00 0. -1.
          4   -1    0    0  501    0  0.00000000000E+00 -0.00000000000E+00 -0.62638792533E+03  0.62638792533E+03  0.00000000000E+00 0.  1.
         23    2    1    2    0    0  0.18076048910E+03 -0.67063969951E+02 -0.10445483525E+03  0.25244928668E+03  0.12509156349E+03 0.  0.
          5    1    3    3  502    0  0.13260862633E+03 -0.10307761853E+03 -0.63658867931E+02  0.17966626585E+03  0.41800000000E+01 0. -1.
         -5    1    3    3    0  502  0.48151862768E+02  0.36013648579E+02 -0.40795967316E+02  0.72783020830E+02  0.41800000000E+01 0. -1.
        -11    1    1    2    0    0 -0.28094294844E+02 -0.22354753990E+02 -0.10960927046E+03  0.11533957083E+03  0.00000000000E+00 0.  1.
         11    1    1    2    0    0 -0.15266619426E+03  0.89418723941E+02 -0.31213337156E+03  0.35878951587E+03  0.00000000000E+00 0. -1.
</event>
<event>
 7    1  0.6506388E-006  0.5466705E+02  0.7561462E-02  0.1421680E+00
         -1   -1    0    0    0  501 -0.00000000000E+00  0.00000000000E+00  0.10006132975E+03  0.10006132975E+03  0.00000000000E+00 0.  1.
          1   -1    0    0  501    0  0.00000000000E+00 -0.00000000000E+00 -0.16614571800E+03  0.16614571800E+03  0.00000000000E+00 0. -1.
         23    2    1    2    0    0 -0.13400593458E+02 -0.24086115574E+02  0.27477870714E+02  0.13100594167E+03  0.12509119276E+03 0.  0.
          5    1    3    3  502    0  0.11065915528E+02 -0.12835682422E+02 -0.47831810053E+02  0.50917223831E+02  0.41800000000E+01 0.  1.
         -5    1    3    3    0  502 -0.24466508986E+02 -0.11250433152E+02  0.75309680767E+02  0.80088717840E+02  0.41800000000E+01 0.  1.
        -11    1    1    2    0    0  0.31326762266E+02  0.32222905959E+02 -0.58656767548E+01  0.45322046140E+02  0.00000000000E+00 0.  1.
         11    1    1    2    0    0 -0.17926168808E+02 -0.81367903845E+01 -0.87696582205E+02  0.89879059943E+02  0.00000000000E+00 0. -1.
</event>
<event>
 7    1  0.6506388E-006  0.9667612E+02  0.7561462E-02  0.1287445E+00
          2   -1    0    0  501    0  0.00000000000E+00  0.00000000000E+00  0.50215348352E+02  0.50215348352E+02  0.00000000000E+00 0. -1.
         -2   -1    0    0    0  501 -0.00000000000E+00 -0.00000000000E+00 -0.39986185107E+03  0.39986185107E+03  0.00000000000E+00 0.  1.
         23    2    1    2    0    0 -0.20189300856E+02 -0.50416091009E+02 -0.31352356995E+03  0.33869859543E+03  0.11606170570E+03 0.  0.
          5    1    3    3  502    0  0.27582528778E+01  0.33772226816E+02 -0.46088524950E+02  0.57356741497E+02  0.41800000000E+01 0. -1.
         -5    1    3    3    0  502 -0.22947553734E+02 -0.84188317825E+02 -0.26743504500E+03  0.28134185393E+03  0.41800000000E+01 0.  1.
        -11    1    1    2    0    0  0.32105635036E+02  0.16905280453E+02 -0.58874584663E+02  0.69157624508E+02  0.00000000000E+00 0.  1.
         11    1    1    2    0    0 -0.11916334180E+02  0.33510810556E+02  0.22751651897E+02  0.42220979482E+02  0.00000000000E+00 0. -1.
</event>
<event>
 7    1  0.6506388E-006  0.1541397E+03  0.7561462E-02  0.1195476E+00
          2   -1    0    0  501    0  0.00000000000E+00  0.00000000000E+00  0.59610607722E+02  0.59610607722E+02  0.00000000000E+00 0. -1.
         -2   -1    0    0    0  501 -0.00000000000E+00 -0.00000000000E+00 -0.42726457941E+03  0.42726457941E+03  0.00000000000E+00 0.  1.
         23    2    1    2    0    0 -0.11050792377E+03 -0.41386915775E+02 -0.19609993035E+03  0.26080674170E+03  0.12506036870E+03 0.  0.
          5    1    3    3  502    0  0.22848823657E+02 -0.11374311177E+02 -0.58698300858E+01  0.26521142556E+02  0.41800000000E+01 0.  1.
         -5    1    3    3    0  502 -0.13335674743E+03 -0.30012604598E+02 -0.19023010027E+03  0.23428559914E+03  0.41800000000E+01 0.  1.
        -11    1    1    2    0    0  0.43631185692E+02  0.61878562316E+02 -0.72660023702E+02  0.10493862913E+03  0.00000000000E+00 0.  1.
         11    1    1    2    0    0  0.66876738077E+02 -0.20491646541E+02 -0.98894017637E+02  0.12112981631E+03  0.00000000000E+00 0. -1.
</event>
<event>
 7    1  0.6506388E-006  0.8093927E+02  0.7561462E-02  0.1326407E+00
         -1   -1    0    0    0  501 -0.00000000000E+00  0.00000000000E+00  0.11182725950E+04  0.11182725950E+04  0.00000000000E+00 0.  1.
          1   -1    0    0  501    0  0.00000000000E+00 -0.00000000000E+00 -0.12703341831E+02  0.12703341831E+02  0.00000000000E+00 0. -1.
         23    2    1    2    0    0  0.20497725843E+02 -0.20516691699E+01  0.82436002640E+03  0.83405124213E+03  0.12509058823E+03 0.  0.
          5    1    3    3  502    0 -0.22400275012E+02 -0.10553606726E+02  0.72473489101E+03  0.72516983224E+03  0.41800000000E+01 0.  1.
         -5    1    3    3    0  502  0.42898000855E+02  0.85019375556E+01  0.99625135385E+02  0.10888140989E+03  0.41800000000E+01 0.  1.
        -11    1    1    2    0    0  0.32087499546E+02 -0.17719988054E+02  0.14551339378E+03  0.15005916625E+03  0.00000000000E+00 0.  1.
         11    1    1    2    0    0 -0.52585225389E+02  0.19771657224E+02  0.13569583299E+03  0.14686552846E+03  0.00000000000E+00 0. -1.
</event>
<event>
 7    1  0.6506388E-006  0.1377373E+03  0.7561462E-02  0.1216406E+00
         -1   -1    0    0    0  501 -0.00000000000E+00  0.00000000000E+00  0.93655374737E+02  0.93655374737E+02  0.00000000000E+00 0.  1.
          1   -1    0    0  501    0  0.00000000000E+00 -0.00000000000E+00 -0.28481846155E+03  0.28481846155E+03  0.00000000000E+00 0. -1.
         23    2    1    2    0    0  0.65849175752E+01  0.91196437672E+02 -0.10101830775E+02  0.15527147505E+03  0.12508809934E+03 0.  0.
          5    1    3    3  502    0  0.54601979582E+02  0.76094739055E+01 -0.18789249760E+02  0.58393394951E+02  0.41800000000E+01 0.  1.
         -5    1    3    3    0  502 -0.48017062006E+02  0.83586963767E+02  0.86874189847E+01  0.96878080101E+02  0.41800000000E+01 0.  1.
        -11    1    1    2    0    0  0.88127819657E+00  0.16109502919E+02 -0.50145190593E+01  0.16894914529E+02  0.00000000000E+00 0.  1.
         11    1    1    2    0    0 -0.74661957718E+01 -0.10730594059E+03 -0.17604673698E+03  0.20630744671E+03  0.00000000000E+00 0. -1.
</event>
<event>
 7    1  0.6506388E-006  0.5972471E+02  0.7561462E-02  0.1398991E+00
          2   -1    0    0  501    0  0.00000000000E+00  0.00000000000E+00  0.12231075909E+03  0.12231075909E+03  0.00000000000E+00 0. -1.
         -2   -1    0    0    0  501 -0.00000000000E+00 -0.00000000000E+00 -0.17414298326E+03  0.17414298326E+03  0.00000000000E+00 0.  1.
         23    2    1    2    0    0 -0.44871261721E+01  0.19650736986E+02 -0.12052608572E+03  0.17487362281E+03  0.12509180968E+03 0.  0.
          5    1    3    3  502    0  0.10113574237E+02  0.14763317115E+02  0.23575379451E+02  0.29891651550E+02  0.41800000000E+01 0.  1.
         -5    1    3    3    0  502 -0.14600700409E+02  0.48874198704E+01 -0.14410146517E+03  0.14498197126E+03  0.41800000000E+01 0.  1.
        -11    1    1    2    0    0  0.14759631156E+02 -0.50495199563E+02  0.86701629815E+01  0.53317760802E+02  0.00000000000E+00 0.  1.
         11    1    1    2    0    0 -0.10272504984E+02  0.30844462578E+02  0.60023698568E+02  0.68262358735E+02  0.00000000000E+00 0. -1.
</event>
<event>
 7    1  0.6506388E-006  0.1336841E+03  0.7561462E-02  0.1222089E+00
         -1   -1    0    0    0  501 -0.00000000000E+00  0.00000000000E+00  0.64319753751E+02  0.64319753751E+02  0.00000000000E+00 0.  1.
          1   -1    0    0  501    0  0.00000000000E+00 -0.00000000000E+00 -0.57736474025E+03  0.57736474025E+03  0.00000000000E+00 0. -1.
         23    2    1    2    0    0  0.10495818037E+03  0.59439019780E+02 -0.96879998873E+02  0.19895268096E+03  0.12508884196E+03 0.  0.
          5    1    3    3  502    0  0.11762564649E+03  0.60404089413E+02 -0.11577705054E+03  0.17580171945E+03  0.41800000000E+01 0. -1.
         -5    1    3    3    0  502 -0.12667466122E+02 -0.96506963313E+00  0.18897051666E+02  0.23150961514E+02  0.41800000000E+01 0. -1.
        -11    1    1    2    0    0 -0.29530265219E+02 -0.25380154414E+02 -0.33953118007E+02  0.51662394683E+02  0.00000000000E+00 0.  1.
         11    1    1    2    0    0 -0.75427915149E+02 -0.34058865366E+02 -0.38221186962E+03  0.39106941835E+03  0.00000000000E+00 0. -1.
</event>
<event>
 7    1  0.6506388E-006  0.1184933E+03  0.7561462E-02  0.1245604E+00
         -1   -1    0    0    0  501 -0.00000000000E+00  0.00000000000E+00  0.25379260483E+02  0.25379260483E+02  0.00000000000E+00 0.  1.
          1   -1    0    0  501    0  0.00000000000E+00 -0.00000000000E+00 -0.82217250289E+03  0.82217250289E+03  0.00000000000E+00 0. -1.
         23    2    1    2    0    0 -0.94682681483E+02 -0.97919101016E+01 -0.38554634560E+03  0.41635804893E+03  0.12508936257E+03 0.  0.
          5    1    3    3  502    0 -0.68168882098E+01 -0.18489709397E+02 -0.27062524917E+03  0.27137398035E+03  0.41800000000E+01 0.  1.
         -5    1    3    3    0  502 -0.87865793273E+02  0.86977992958E+01 -0.11492109643E+03  0.14498406859E+03  0.41800000000E+01 0.  1.
        -11    1    1    2    0    0  0.87592606544E+01  0.37232408402E+02 -0.15059164219E+03  0.15537316236E+03  0.00000000000E+00 0.  1.
         11    1    1    2    0    0  0.85923420829E+02 -0.27440498300E+02 -0.26065525462E+03  0.27582055208E+03  0.00000000000E+00 0. -1.
</event>
<event>
 7    1  0.6506388E-006  0.1216543E+03  0.7561462E-02  0.1240393E+00
          1   -1    0    0  501    0  0.00000000000E+00  0.00000000000E+00  0.89914407093E+03  0.89914407093E+03  0.00000000000E+00 0. -1.
         -1   -1    0    0    0  501 -0.00000000000E+00 -0.00000000000E+00 -0.27420195039E+02  0.27420195039E+02  0.00000000000E+00 0.  1.
         23    2    1    2    0    0 -0.67403404107E+02  0.34637087579E+02  0.24080197764E+03  0.28173758040E+03  0.12509006777E+03 0.  0.
          5    1    3    3  502    0 -0.19042464154E+02 -0.26019725046E+02  0.42925857657E+01  0.32795429942E+02  0.41800000000E+01 0. -1.
         -5    1    3    3    0  502 -0.48360939953E+02  0.60656812625E+02  0.23650939187E+03  0.24894215046E+03  0.41800000000E+01 0. -1.
        -11    1    1    2    0    0 -0.22560476184E+02 -0.36745177991E+02  0.21504186071E+03  0.21932210342E+03  0.00000000000E+00 0. -1.
         11    1    1    2    0    0  0.89963880291E+02  0.21080904125E+01  0.41588003754E+03  0.42550458214E+03  0.00000000000E+00 0.  1.
</event>
<event>
 7    1  0.6506388E-006  0.1178863E+03  0.7561462E-02  0.1246625E+00
          1   -1    0    0  501    0  0.00000000000E+00  0.00000000000E+00  0.35148205478E+03  0.35148205478E+03  0.00000000000E+00 0. -1.
         -1   -1    0    0    0  501 -0.00000000000E+00 -0.00000000000E+00 -0.46218789572E+02  0.46218789572E+02  0.00000000000E+00 0.  1.
         23    2    1    2    0    0  0.37882430269E+02  0.36118885851E+02  0.13192830168E+03  0.18918765340E+03  0.12508892428E+03 0.  0.
          5    1    3    3  502    0 -0.31315444037E+02 -0.22652834336E+02  0.16393687329E+02  0.42190441132E+02  0.41800000000E+01 0.  1.
         -5    1    3    3    0  502  0.69197874306E+02  0.58771720186E+02  0.11553461435E+03  0.14699721227E+03  0.41800000000E+01 0.  1.
        -11    1    1    2    0    0  0.21891748716E+02 -0.40542780756E+02  0.35354526160E+02  0.58076744514E+02  0.00000000000E+00 0.  1.
         11    1    1    2    0    0 -0.59774178986E+02  0.44238949055E+01  0.13798043736E+03  0.15043644643E+03  0.00000000000E+00 0. -1.
</event>
<event>
 7    1  0.6506388E-006  0.6665704E+02  0.7561462E-02  0.1371845E+00
         -2   -1    0    0    0  501 -0.00000000000E+00  0.00000000000E+00  0.21211502095E+03  0.21211502095E+03  0.00000000000E+00 0.  1.
          2   -1    0    0  501    0  0.00000000000E+00 -0.00000000000E+00 -0.62022649842E+02  0.62022649842E+02  0.00000000000E+00 0. -1.
         23    2    1    2    0    0 -0.36849477813E+02  0.13996490866E+02  0.84599780021E+02  0.15607850967E+03  0.12509833184E+03 0.  0.
          5    1    3    3  502    0 -0.37561741319E+01  0.13327775413E+02  0.11198522355E+03  0.11291546012E+03  0.41800000000E+01 0.  1.
         -5    1    3    3    0  502 -0.33093303681E+02  0.66871545298E+00 -0.27385443527E+02  0.43163049545E+02  0.41800000000E+01 0.  1.
        -11    1    1    2    0    0 -0.44792325095E+01 -0.37618231122E+02  0.99516712282E+00  0.37897034109E+02  0.00000000000E+00 0.  1.
         11    1    1    2    0    0  0.41328710322E+02  0.23621740256E+02  0.64497423962E+02  0.80162127014E+02  0.00000000000E+00 0. -1.
</event>
<event>
 7    1  0.6506388E-006  0.1601412E+03  0.7561462E-02  0.1188537E+00
          1   -1    0    0  501    0  0.00000000000E+00  0.00000000000E+00  0.33364318109E+02  0.33364318109E+02  0.00000000000E+00 0. -1.
         -1   -1    0    0    0  501 -0.00000000000E+00 -0.00000000000E+00 -0.80436589168E+03  0.80436589168E+03  0.00000000000E+00 0.  1.
         23    2    1    2    0    0  0.12204796280E+03  0.55046275008E+01 -0.40145212456E+03  0.43787878652E+03  0.12509203501E+03 0.  0.
          5    1    3    3  502    0  0.52684498271E+02  0.59506460290E+02 -0.25383044885E+03  0.26601512051E+03  0.41800000000E+01 0.  1.
         -5    1    3    3    0  502  0.69363464526E+02 -0.54001832789E+02 -0.14762167571E+03  0.17186366601E+03  0.41800000000E+01 0.  1.
        -11    1    1    2    0    0 -0.95798334304E+02  0.37030892044E+02 -0.24794046223E+03  0.26837116207E+03  0.00000000000E+00 0. -1.
         11    1    1    2    0    0 -0.26249628493E+02 -0.42535519545E+02 -0.12160898679E+03  0.13148026120E+03  0.00000000000E+00 0.  1.
</event>
<event>
 7    1  0.6506388E-006  0.6805178E+02  0.7561462E-02  0.1366846E+00
         -2   -1    0    0    0  501 -0.00000000000E+00  0.00000000000E+00  0.14407107642E+02  0.14407107642E+02  0.00000000000E+00 0.  1.
          2   -1    0    0  501    0  0.00000000000E+00 -0.00000000000E+00 -0.81082561813E+03  0.81082561813E+03  0.00000000000E+00 0. -1.
         23    2    1    2    0    0 -0.10295701915E+02  0.53101004355E+01 -0.40943465485E+03  0.42827148683E+03  0.12508209782E+03 0.  0.
          5    1    3    3  502    0 -0.23620063977E+02 -0.11268383697E+02 -0.40534798883E+03  0.40621342708E+03  0.41800000000E+01 0. -1.
         -5    1    3    3    0  502  0.13324362062E+02  0.16578484133E+02 -0.40866660146E+01  0.22058059743E+02  0.41800000000E+01 0. -1.
        -11    1    1    2    0    0  0.19491182633E+02 -0.44017941985E+02 -0.19036970560E+03  0.19636219144E+03  0.00000000000E+00 0.  1.
         11    1    1    2    0    0 -0.91954807183E+01  0.38707841550E+02 -0.19661415005E+03  0.20059904751E+03  0.00000000000E+00 0. -1.
</event>
<event>
 7    1  0.6506388E-006  0.1126289E+03  0.7561462E-02  0.1255778E+00
          1   -1    0    0  501    0  0.00000000000E+00  0.00000000000E+00  0.99447555661E+03  0.99447555661E+03  0.00000000000E+00 0. -1.
         -1   -1    0    0    0  501 -0.00000000000E+00 -0.00000000000E+00 -0.14943689733E+02  0.14943689733E+02  0.00000000000E+00 0.  1.
         23    2    1    2    0    0  0.34811522816E+02 -0.26575213335E+02  0.40258874264E+03  0.42383015266E+03  0.12504486602E+03 0.  0.
          5    1    3    3  502    0 -0.31018555322E+02  0.25973983958E+02  0.72411573996E+02  0.83052435639E+02  0.41800000000E+01 0.  1.
         -5    1    3    3    0  502  0.65830078138E+02 -0.52549197293E+02  0.33017716865E+03  0.34077771702E+03  0.41800000000E+01 0.  1.
        -11    1    1    2    0    0 -0.40472000323E+02 -0.25520978828E+02  0.27863973290E+03  0.28271788752E+03  0.00000000000E+00 0.  1.
         11    1    1    2    0    0  0.56604775072E+01  0.52096192163E+02  0.29830339133E+03  0.30287120616E+03  0.00000000000E+00 0. -1.
</event>
<event>
 7    1  0.6506388E-006  0.8743758E+02  0.7561462E-02  0.1309178E+00
         -3   -1    0    0    0  501 -0.00000000000E+00  0.00000000000E+00  0.29336536584E+03  0.29336536584E+03  0.00000000000E+00 0.  1.
          3   -1    0    0  501    0  0.00000000000E+00 -0.00000000000E+00 -0.54748728180E+02  0.54748728180E+02  0.00000000000E+00 0. -1.
         23    2    1    2    0    0 -0.62290494458E+02  0.74027767117E+01  0.15815095037E+03  0.21117390031E+03  0.12509111186E+03 0.  0.
          5    1    3    3  502    0 -0.60927320118E+02  0.34364773531E+02  0.16808356521E+03  0.18210610448E+03  0.41800000000E+01 0. -1.
         -5    1    3    3    0  502 -0.13631743404E+01 -0.26961996819E+02 -0.99326148379E+01  0.29067795827E+02  0.41800000000E+01 0. -1.
        -11    1    1    2    0    0  0.12790720656E+02  0.17812869171E+02  0.78335475401E+02  0.81347080767E+02  0.00000000000E+00 0.  1.
         11    1    1    2    0    0  0.49499773802E+02 -0.25215645883E+02  0.21302118860E+01  0.55593112940E+02  0.00000000000E+00 0. -1.
</event>
<event>
 7    1  0.6506388E-006  0.1606135E+03  0.7561462E-02  0.1188006E+00
         -1   -1    0    0    0  501 -0.00000000000E+00  0.00000000000E+00  0.52220334399E+02  0.52220334399E+02  0.00000000000E+00 0.  1.
          1   -1    0    0  501    0  0.00000000000E+00 -0.00000000000E+00 -0.66571037252E+03  0.66571037252E+03  0.00000000000E+00 0. -1.
         23    2    1    2    0    0  0.13702440341E+03  0.90244494913E+01 -0.20096505830E+03  0.27366350870E+03  0.12509050131E+03 0.  0.
          5    1    3    3  502    0  0.94820654115E+02  0.49317518736E+02 -0.63797040274E+02  0.12454199633E+03  0.41800000000E+01 0. -1.
         -5    1    3    3    0  502  0.42203749298E+02 -0.40293069245E+02 -0.13716801802E+03  0.14912151237E+03  0.41800000000E+01 0. -1.
        -11    1    1    2    0    0 -0.11948768022E+03 -0.34925568830E+02 -0.25619352749E+03  0.28483718966E+03  0.00000000000E+00 0.  1.
         11    1    1    2    0    0 -0.17536723197E+02  0.25901119339E+02 -0.15633145233E+03  0.15943000857E+03  0.00000000000E+00 0. -1.
</event>
<event>
 7    1  0.6506388E-006  0.9998458E+02  0.7561462E-02  0.1280328E+00
         -1   -1    0    0    0  501 -0.00000000000E+00  0.00000000000E+00  0.37415364908E+02  0.37415364908E+02  0.00000000000E+00 0.  1.
          1   -1    0    0  501    0  0.00000000000E+00 -0.00000000000E+00 -0.32753364520E+03  0.32753364520E+03  0.00000000000E+00 0. -1.
         23    2    1    2    0    0  0.25060188322E+01 -0.28002725391E+02 -0.18416626707E+03  0.21825595462E+03  0.11370142937E+03 0.  0.
          5    1    3    3  502    0 -0.47265337355E+02 -0.43043807839E+02 -0.87942706499E+02  0.10880337097E+03  0.41800000000E+01 0. -1.
         -5    1    3    3    0  502  0.49771356188E+02  0.15041082448E+02 -0.96223560568E+02  0.10945258364E+03  0.41800000000E+01 0.  1.
        -11    1    1    2    0    0 -0.34817684050E+01  0.55809816273E+02 -0.25298276486E+02  0.61374759444E+02  0.00000000000E+00 0.  1.
         11    1    1    2    0    0  0.97574957280E+00 -0.27807090882E+02 -0.80653736744E+02  0.85318296053E+02  0.00000000000E+00 0. -1.
</event>
<event>
 7    1  0.6506388E-006  0.8843711E+02  0.7561462E-02  0.1306681E+00
          1   -1    0    0  501    0  0.00000000000E+00  0.00000000000E+00  0.31828972005E+03  0.31828972005E+03  0.00000000000E+00 0. -1.
         -1   -1    0    0    0  501 -0.00000000000E+00 -0.00000000000E+00 -0.59465159971E+02  0.59465159971E+02  0.00000000000E+00 0.  1.
         23    2    1    2    0    0 -0.61125780073E+02  0.22622418162E+02  0.70147501648E+02  0.15753456909E+03  0.12509329990E+03 0.  0.
          5    1    3    3  502    0 -0.75060843030E+02  0.37785824937E+02 -0.17529441701E+00  0.84139181424E+02  0.41800000000E+01 0. -1.
         -5    1    3    3    0  502  0.13935062957E+02 -0.15163406775E+02  0.70322796065E+02  0.73395387669E+02  0.41800000000E+01 0. -1.
        -11    1    1    2    0    0  0.53618640261E+02 -0.29792931515E+02  0.19736866481E+03  0.20668083414E+03  0.00000000000E+00 0. -1.
         11    1    1    2    0    0  0.75071398120E+01  0.71705133535E+01 -0.86916063876E+01  0.13539476781E+02  0.00000000000E+00 0.  1.
</event>
<event>
 7    1  0.6506388E-006  0.8120335E+02  0.7561462E-02  0.1325671E+00
          1   -1    0    0  501    0  0.00000000000E+00  0.00000000000E+00  0.37379141293E+03  0.37379141293E+03  0.00000000000E+00 0. -1.
         -1   -1    0    0    0  501 -0.00000000000E+00 -0.00000000000E+00 -0.37991245563E+02  0.37991245563E+02  0.00000000000E+00 0.  1.
         23    2    1    2    0    0  0.91771187705E-01  0.52072034452E+02  0.18105440840E+03  0.22613513968E+03  0.12507956430E+03 0.  0.
          5    1    3    3  502    0  0.19843454324E+02  0.72771354845E+02  0.18215571459E+03  0.19719941562E+03  0.41800000000E+01 0. -1.
         -5    1    3    3    0  502 -0.19751683137E+02 -0.20699320394E+02 -0.11013061914E+01  0.28935724059E+02  0.41800000000E+01 0. -1.
        -11    1    1    2    0    0  0.12045471187E+02 -0.16998633420E+02 -0.51829493309E+01  0.21468811752E+02  0.00000000000E+00 0.  1.
         11    1    1    2    0    0 -0.12137242375E+02 -0.35073401032E+02  0.15992870830E+03  0.16417870705E+03  0.00000000000E+00 0. -1.
</event>
<event>
 6    1  0.6506388E-006  0.1041206E+03  0.7561462E-02  0.1271862E+00
          1   -1    0    0  501    0  0.00000000000E+00  0.00000000000E+00  0.12582368086E+03  0.12582368086E+03  0.00000000000E+00 0. -1.
         -1   -1    0    0    0  501 -0.00000000000E+00 -0.00000000000E+00 -0.27179992070E+03  0.27179992070E+03  0.00000000000E+00 0.  1.
          5    1    1    2  502    0 -0.15593988603E+02 -0.66388594441E+02 -0.38955468344E+02  0.78648705433E+02  0.41800000000E+01 0. -1.
         -5    1    1    2    0  502 -0.15772939770E+02  0.76358616501E+02 -0.17872788927E+03  0.19503987989E+03  0.41800000000E+01 0.  1.
        -11    1    1    2    0    0  0.14159266825E+02 -0.31344803409E+02 -0.11542431141E+02  0.36279598322E+02  0.00000000000E+00 0. -1.
         11    1    1    2    0    0  0.17207661547E+02  0.21374781350E+02  0.83249548921E+02  0.87655417912E+02  0.00000000000E+00 0.  1.
</event>
<event>
 7    1  0.6506388E-006  0.2033485E+03  0.7561462E-02  0.1146944E+00
          2   -1    0    0  501    0  0.00000000000E+00  0.00000000000E+00  0.61057070598E+03  0.61057070598E+03  0.00000000000E+00 0. -1.
         -2   -1    0    0    0  501 -0.00000000000E+00 -0.00000000000E+00 -0.93744094760E+02  0.93744094760E+02  0.00000000000E+00 0.  1.
         23    2    1    2    0    0  0.17705406257E+03  0.67500623194E+02  0.12321230296E+03  0.25832895375E+03  0.12509237203E+03 0.  0.
          5    1    3    3  502    0  0.10027204606E+03  0.92058064323E+01 -0.13171224726E+01  0.10078907334E+03  0.41800000000E+01 0.  1.
         -5    1    3    3    0  502  0.76782016507E+02  0.58294816761E+02  0.12452942544E+03  0.15753988041E+03  0.41800000000E+01 0.  1.
        -11    1    1    2    0    0 -0.11638946993E+03  0.29814744468E+01  0.20750655716E+03  0.23793774221E+03  0.00000000000E+00 0.  1.
         11    1    1    2    0    0 -0.60664592637E+02 -0.70482097640E+02  0.18610775110E+03  0.20804810479E+03  0.00000000000E+00 0. -1.
</event>
<event>
 6    1  0.6506388E-006  0.2837503E+03  0.7561462E-02  0.1093658E+00
          2   -1    0    0  501    0  0.00000000000E+00  0.00000000000E+00  0.21350511121E+04  0.21350511121E+04  0.00000000000E+00 0. -1.
         -2   -1    0    0    0  501 -0.00000000000E+00 -0.00000000000E+00 -0.38459777450E+02  0.38459777450E+02  0.00000000000E+00 0.  1.
          5    1    1    2  502    0 -0.60411903257E+02 -0.14169160669E+02  0.22870425721E+03  0.23700943617E+03  0.41800000000E+01 0. -1.
         -5    1    1    2    0  502 -0.37080944099E+02 -0.22696255366E+03  0.71032314918E+03  0.74663474728E+03  0.41800000000E+01 0.  1.
        -11    1    1    2    0    0  0.11365892036E+03  0.22683805465E+03  0.10738368642E+04  0.11034035817E+04  0.00000000000E+00 0. -1.
         11    1    1    2    0    0 -0.16166073000E+02  0.14293659683E+02  0.83727064079E+02  0.86463124409E+02  0.00000000000E+00 0.  1.
</event>
<event>
 7    1  0.6506388E-006  0.8072761E+02  0.7561462E-02  0.1326999E+00
         -1   -1    0    0    0  501 -0.00000000000E+00  0.00000000000E+00  0.91073682393E+02  0.91073682393E+02  0.00000000000E+00 0.  1.
          1   -1    0    0  501    0  0.00000000000E+00 -0.00000000000E+00 -0.21358244696E+03  0.21358244696E+03  0.00000000000E+00 0. -1.
         23    2    1    2    0    0  0.97500146291E+01  0.51450729334E+02  0.10486227696E+02  0.13601569603E+03  0.12509223901E+03 0.  0.
          5    1    3    3  502    0 -0.22323855153E+02  0.16949736665E+02  0.60729490220E+02  0.67016352215E+02  0.41800000000E+01 0.  1.
         -5    1    3    3    0  502  0.32073869782E+02  0.34500992669E+02 -0.50243262524E+02  0.68999343816E+02  0.41800000000E+01 0.  1.
        -11    1    1    2    0    0  0.25767637719E+02 -0.41654145473E+02 -0.25944599266E+02  0.55427080203E+02  0.00000000000E+00 0.  1.
         11    1    1    2    0    0 -0.35517652348E+02 -0.97965838610E+01 -0.10705039299E+03  0.11321335312E+03  0.00000000000E+00 0. -1.
</event>
<event>
 7    1  0.6506388E-006  0.1158012E+03  0.7561462E-02  0.1250189E+00
          2   -1    0    0  501    0  0.00000000000E+00  0.00000000000E+00  0.66697094909E+03  0.66697094909E+03  0.00000000000E+00 0. -1.
         -2   -1    0    0    0  501 -0.00000000000E+00 -0.00000000000E+00 -0.49420506245E+02  0.49420506245E+02  0.00000000000E+00 0.  1.
         23    2    1    2    0    0 -0.56051418188E+02 -0.46444849519E+02  0.90309023227E+02  0.17059349695E+03  0.12509011152E+03 0.  0.
          5    1    3    3  502    0 -0.67041932078E+02 -0.13043875754E+02 -0.53058500016E+01  0.68632264975E+02  0.41800000000E+01 0.  1.
         -5    1    3    3    0  502  0.10990513890E+02 -0.33400973765E+02  0.95614873229E+02  0.10196123198E+03  0.41800000000E+01 0.  1.
        -11    1    1    2    0    0  0.76190199003E+02  0.65174503830E+02  0.48595293266E+03  0.49618838674E+03  0.00000000000E+00 0. -1.
         11    1    1    2    0    0 -0.20138780815E+02 -0.18729654312E+02  0.41288486958E+02  0.49609571644E+02  0.00000000000E+00 0.  1.
</event>
<event>
 7    1  0.6506388E-006  0.1127678E+03  0.7561462E-02  0.1255529E+00
         -2   -1    0    0    0  501 -0.00000000000E+00  0.00000000000E+00  0.17154483719E+03  0.17154483719E+03  0.00000000000E+00 0.  1.
          2   -1    0    0  501    0  0.00000000000E+00 -0.00000000000E+00 -0.11862679254E+03  0.11862679254E+03  0.00000000000E+00 0. -1.
         23    2    1    2    0    0  0.55418369698E+02 -0.43950773797E+01  0.11268254867E+03  0.17730336828E+03  0.12509442523E+03 0.  0.
          5    1    3    3  502    0 -0.18395053855E+02 -0.42585045601E+02  0.14889159866E+02  0.48898093999E+02  0.41800000000E+01 0.  1.
         -5    1    3    3    0  502  0.73813423553E+02  0.38189968221E+02  0.97793388807E+02  0.12840527428E+03  0.41800000000E+01 0.  1.
        -11    1    1    2    0    0 -0.43664223329E+01 -0.32478536268E+02 -0.20359116204E+02  0.38579976345E+02  0.00000000000E+00 0.  1.
         11    1    1    2    0    0 -0.51051947365E+02  0.36873613648E+02 -0.39405387818E+02  0.74288285095E+02  0.00000000000E+00 0. -1.
</event>
<event>
 7    1  0.6506388E-006  0.1326152E+03  0.7561462E-02  0.1223626E+00
          1   -1    0    0  501    0  0.00000000000E+00  0.00000000000E+00  0.53008408822E+02  0.53008408822E+02  0.00000000000E+00 0. -1.
         -1   -1    0    0    0  501 -0.00000000000E+00 -0.00000000000E+00 -0.54397213593E+03  0.54397213593E+03  0.00000000000E+00 0.  1.
         23    2    1    2    0    0  0.16692085982E+02  0.11715793918E+03 -0.35875579029E+03  0.39794193135E+03  0.12508978857E+03 0.  0.
          5    1    3    3  502    0  0.40440910953E+02  0.68926969787E+02 -0.32412150530E+03  0.33385418530E+03  0.41800000000E+01 0. -1.
         -5    1    3    3    0  502 -0.23748824971E+02  0.48230969394E+02 -0.34634284990E+02  0.64087746044E+02  0.41800000000E+01 0. -1.
        -11    1    1    2    0    0 -0.36561669953E+02 -0.93462958724E+02 -0.13474341300E+03  0.16801151065E+03  0.00000000000E+00 0.  1.
         11    1    1    2    0    0  0.19869583972E+02 -0.23694980457E+02  0.25354761864E+01  0.31027102758E+02  0.00000000000E+00 0. -1.
</event>
<event>
 7    1  0.6506388E-006  0.1413885E+03  0.7561462E-02  0.1211473E+00
         -1   -1    0    0    0  501 -0.00000000000E+00  0.00000000000E+00  0.63891688756E+03  0.63891688756E+03  0.00000000000E+00 0.  1.
          1   -1    0    0  501    0  0.00000000000E+00 -0.00000000000E+00 -0.31417396065E+02  0.31417396065E+02  0.00000000000E+00 0. -1.
         23    2    1    2    0    0  0.87998889333E+02 -0.21089893044E+02  0.31473052699E+03  0.35056002677E+03  0.12509372341E+03 0.  0.
          5    1    3    3  502    0 -0.27629765192E+02 -0.26540579318E+02  0.81074920323E+02  0.89768710476E+02  0.41800000000E+01 0. -1.
         -5    1    3    3    0  502  0.11562865452E+03  0.54506862741E+01  0.23365560667E+03  0.26079131630E+03  0.41800000000E+01 0. -1.
        -11    1    1    2    0    0 -0.29750579531E+02 -0.36096748415E+02  0.11557899188E+03  0.12468590775E+03  0.00000000000E+00 0. -1.
         11    1    1    2    0    0 -0.58248309802E+02  0.57186641458E+02  0.17718997263E+03  0.19508834910E+03  0.00000000000E+00 0.  1.
</event>
<event>
 7    1  0.6506388E-006  0.1127511E+03  0.7561462E-02  0.1255558E+00
          4   -1    0    0  501    0  0.00000000000E+00  0.00000000000E+00  0.14684560371E+03  0.14684560371E+03  0.00000000000E+00 0. -1.
         -4   -1    0    0    0  501 -0.00000000000E+00 -0.00000000000E+00 -0.10688479584E+03  0.10688479584E+03  0.00000000000E+00 0.  1.
         23    2    1    2    0    0 -0.12443153064E+02 -0.54627957695E+02  0.40590496686E+02  0.14295021443E+03  0.12509248404E+03 0.  0.
          5    1    3    3  502    0 -0.63072554283E+00 -0.94539921185E+02  0.34240513016E+02  0.10063836070E+03  0.41800000000E+01 0. -1.
         -5    1    3    3    0  502 -0.11812427521E+02  0.39911963490E+02  0.63499836705E+01  0.42311853731E+02  0.41800000000E+01 0. -1.
        -11    1    1    2    0    0  0.10259075230E+02 -0.15655667460E+02  0.28966709168E+02  0.34487951349E+02  0.00000000000E+00 0. -1.
         11    1    1    2    0    0  0.21840778335E+01  0.70283625156E+02 -0.29596397981E+02  0.76292233776E+02  0.00000000000E+00 0.  1.
</event>
<event>
 6    1  0.6506388E-006  0.1045966E+03  0.7561462E-02  0.1270916E+00
         -3   -1    0    0    0  501 -0.00000000000E+00  0.00000000000E+00  0.74608177243E+02  0.74608177243E+02  0.00000000000E+00 0.  1.
          3   -1    0    0  501    0  0.00000000000E+00 -0.00000000000E+00 -0.37073746064E+03  0.37073746064E+03  0.00000000000E+00 0. -1.
          5    1    1    2  502    0 -0.10973822380E+02 -0.21986673747E+02 -0.79978432913E+02  0.83772672939E+02  0.41800000000E+01 0. -1.
         -5    1    1    2    0  502  0.38004912434E+02  0.89119394650E+02  0.23801531851E+02  0.99853017934E+02  0.41800000000E+01 0.  1.
        -11    1    1    2    0    0  0.22324336177E+01 -0.55903937050E+02 -0.21348963161E+03  0.22069901845E+03  0.00000000000E+00 0. -1.
         11    1    1    2    0    0 -0.29263523672E+02 -0.11228783853E+02 -0.26462750725E+02  0.41020928566E+02  0.00000000000E+00 0.  1.
</event>
<event>
 7    1  0.6506388E-006  0.1638795E+03  0.7561462E-02  0.1184385E+00
         -1   -1    0    0    0  501 -0.00000000000E+00  0.00000000000E+00  0.69972673939E+02  0.69972673939E+02  0.00000000000E+00 0.  1.
          1   -1    0    0  501    0  0.00000000000E+00 -0.00000000000E+00 -0.55564333852E+03  0.55564333852E+03  0.00000000000E+00 0. -1.
         23    2    1    2    0    0 -0.12501890627E+03  0.75961167760E+02 -0.13462274184E+03  0.23488419962E+03  0.12508988240E+03 0.  0.
          5    1    3    3  502    0  0.19256377292E+02  0.11264402990E+02  0.57409183680E+01  0.23412077756E+02  0.41800000000E+01 0.  1.
         -5    1    3    3    0  502 -0.14427528356E+03  0.64696764770E+02 -0.14036366020E+03  0.21147212186E+03  0.41800000000E+01 0.  1.
        -11    1    1    2    0    0  0.36701647510E+02 -0.15395901389E+02 -0.20945345260E+03  0.21320129811E+03  0.00000000000E+00 0. -1.
         11    1    1    2    0    0  0.88317258762E+02 -0.60565266371E+02 -0.14159447015E+03  0.17753051473E+03  0.00000000000E+00 0.  1.
</event>
<event>
 6    1  0.6506388E-006  0.1259857E+03  0.7561462E-02  0.1233537E+00
         -2   -1    0    0    0  501 -0.00000000000E+00  0.00000000000E+00  0.59660548463E+02  0.59660548463E+02  0.00000000000E+00 0.  1.
          2   -1    0    0  501    0  0.00000000000E+00 -0.00000000000E+00 -0.40135834273E+03  0.40135834273E+03  0.00000000000E+00 0. -1.
          5    1    1    2  502    0  0.59264251470E+02  0.11751516960E+02 -0.45565230616E+02  0.75789262394E+02  0.41800000000E+01 0. -1.
         -5    1    1    2    0  502 -0.78060935690E+02  0.45753349285E+02 -0.26140936114E+02  0.94274596750E+02  0.41800000000E+01 0.  1.
        -11    1    1    2    0    0 -0.25667011591E+02  0.28951202002E+01 -0.30363407643E+02  0.39863689351E+02  0.00000000000E+00 0.  1.
         11    1    1    2    0    0  0.44463695811E+02 -0.60399986445E+02 -0.23962821990E+03  0.25109134270E+03  0.00000000000E+00 0. -1.
</event>
<event>
 7    1  0.6506388E-006  0.1125840E+03  0.7561462E-02  0.1255858E+00
          1   -1    0    0  501    0  0.00000000000E+00  0.00000000000E+00  0.66535375119E+03  0.66535375119E+03  0.00000000000E+00 0. -1.
         -1   -1    0    0    0  501 -0.00000000000E+00 -0.00000000000E+00 -0.21659120874E+02  0.21659120874E+02  0.00000000000E+00 0.  1.
         23    2    1    2    0    0 -0.48714037415E+02  0.14138757653E+02  0.35317149811E+03  0.37808843853E+03  0.12509116021E+03 0.  0.
          5    1    3    3  502    0  0.87376931947E+01  0.59994624155E+02  0.17735437511E+03  0.18747732925E+03  0.41800000000E+01 0. -1.
         -5    1    3    3    0  502 -0.57451730610E+02 -0.45855866502E+02  0.17581712299E+03  0.19061110928E+03  0.41800000000E+01 0. -1.
        -11    1    1    2    0    0  0.67002330969E+02  0.10285049423E+01  0.26777000904E+03  0.27602744052E+03  0.00000000000E+00 0. -1.
         11    1    1    2    0    0 -0.18288293553E+02 -0.15167262595E+02  0.22753123166E+02  0.32896993016E+02  0.00000000000E+00 0.  1.
</event>
<event>
 7    1  0.6506388E-006  0.1177610E+03  0.7561462E-02  0.1246837E+00
         -2   -1    0    0    0  501 -0.00000000000E+00  0.00000000000E+00  0.35383123778E+02  0.35383123778E+02  0.00000000000E+00 0. -1.
          2   -1    0    0  501    0  0.00000000000E+00 -0.00000000000E+00 -0.49852375681E+03  0.49852375681E+03  0.00000000000E+00 0.  1.
         23    2    1    2    0    0  0.48178864528E+02  0.21284576123E+02 -0.14058100660E+03  0.19540821735E+03  0.12508843201E+03 0.  0.
          5    1    3    3  502    0  0.37608950519E+02 -0.49718899379E+02 -0.79102735790E+02  0.10080236765E+03  0.41800000000E+01 0.  1.
         -5    1    3    3    0  502  0.10569914010E+02  0.71003475502E+02 -0.61478270806E+02  0.94605849697E+02  0.41800000000E+01 0.  1.
        -11    1    1    2    0    0 -0.16502328995E+02 -0.53479778185E+02 -0.20680744319E+03  0.21424689519E+03  0.00000000000E+00 0.  1.
         11    1    1    2    0    0 -0.31676535533E+02  0.32195202063E+02 -0.11575218324E+03  0.12425176805E+03  0.00000000000E+00 0. -1.
</event>
<event>
 7    1  0.6506388E-006  0.1217889E+03  0.7561462E-02  0.1240175E+00
         -1   -1    0    0    0  501 -0.00000000000E+00  0.00000000000E+00  0.34135264748E+02  0.34135264748E+02  0.00000000000E+00 0.  1.
          1   -1    0    0  501    0  0.00000000000E+00 -0.00000000000E+00 -0.69754541158E+03  0.69754541158E+03  0.00000000000E+00 0. -1.
         23    2    1    2    0    0 -0.81469442983E+01 -0.69542572683E+02 -0.12371496501E+03  0.17991566415E+03  0.11028015017E+03 0.  0.
          5    1    3    3  502    0  0.17425895013E+02 -0.93322873486E+02 -0.96606521670E+02  0.13551056402E+03  0.41800000000E+01 0. -1.
         -5    1    3    3    0  502 -0.25572839312E+02  0.23780300803E+02 -0.27108443337E+02  0.44405100122E+02  0.41800000000E+01 0.  1.
        -11    1    1    2    0    0 -0.31201121405E+02  0.67048293637E+02 -0.30910172530E+03  0.31782520391E+03  0.00000000000E+00 0.  1.
         11    1    1    2    0    0  0.39348065703E+02  0.24942790466E+01 -0.23059345653E+03  0.23393980828E+03  0.00000000000E+00 0. -1.
</event>
<event>
 7    1  0.6506388E-006  0.1017128E+03  0.7561462E-02  0.1276735E+00
         -2   -1    0    0    0  501 -0.00000000000E+00  0.00000000000E+00  0.60581582625E+02  0.60581582625E+02  0.00000000000E+00 0.  1.
          2   -1    0    0  501    0  0.00000000000E+00 -0.00000000000E+00 -0.29060661789E+03  0.29060661789E+03  0.00000000000E+00 0. -1.
         23    2    1    2    0    0 -0.14501982576E+02 -0.68254519835E+02 -0.89241987414E+02  0.16876074712E+03  0.12508825075E+03 0.  0.
          5    1    3    3  502    0 -0.67297699344E+01 -0.78232338214E+02 -0.10354153216E+00  0.78632510241E+02  0.41800000000E+01 0.  1.
         -5    1    3    3    0  502 -0.77722126419E+01  0.99778183794E+01 -0.89138445882E+02  0.90128236881E+02  0.41800000000E+01 0.  1.
        -11    1    1    2    0    0  0.47394296745E+02  0.16566310150E+02 -0.89107009233E+02  0.10227766663E+03  0.00000000000E+00 0.  1.
         11    1    1    2    0    0 -0.32892314169E+02  0.51688209685E+02 -0.51676038621E+02  0.80149786771E+02  0.00000000000E+00 0. -1.
</event>
<event>
 7    1  0.6506388E-006  0.1095915E+03  0.7561462E-02  0.1261328E+00
          2   -1    0    0  501    0  0.00000000000E+00  0.00000000000E+00  0.17851444751E+03  0.17851444751E+03  0.00000000000E+00 0. -1.
         -2   -1    0    0    0  501 -0.00000000000E+00 -0.00000000000E+00 -0.87952993337E+02  0.87952993337E+02  0.00000000000E+00 0.  1.
         23    2    1    2    0    0  0.58658615197E+02 -0.21142487609E+02  0.46256452487E+02  0.14722490701E+03  0.12509067083E+03 0.  0.
          5    1    3    3  502    0  0.82885834748E+01 -0.58172727789E+02 -0.13724547982E+02  0.60486382697E+02  0.41800000000E+01 0.  1.
         -5    1    3    3    0  502  0.50370031722E+02  0.37030240179E+02  0.59981000469E+02  0.86738524317E+02  0.41800000000E+01 0.  1.
        -11    1    1    2    0    0 -0.53406285670E+02 -0.19336736569E+02  0.52799451344E+02  0.77549486087E+02  0.00000000000E+00 0. -1.
         11    1    1    2    0    0 -0.52523295271E+01  0.40479224178E+02 -0.84944496562E+01  0.41693047748E+02  0.00000000000E+00 0.  1.
</event>
<event>
 7    1  0.6506388E-006  0.1178902E+03  0.7561462E-02  0.1246619E+00
          2   -1    0    0  501    0  0.00000000000E+00  0.00000000000E+00  0.96598844090E+02  0.96598844090E+02  0.00000000000E+00 0. -1.
         -2   -1    0    0    0  501 -0.00000000000E+00 -0.00000000000E+00 -0.23210824439E+03  0.23210824439E+03  0.00000000000E+00 0.  1.
         23    2    1    2    0    0 -0.10082024393E+03  0.69081586040E+00 -0.96345291659E+02  0.18732683853E+03  0.12507489915E+03 0.  0.
          5    1    3    3  502    0 -0.51344889649E+02 -0.20284709314E+02 -0.11713168415E+03  0.12955721113E+03  0.41800000000E+01 0. -1.
         -5    1    3    3    0  502 -0.49475354277E+02  0.20975525174E+02  0.20786392489E+02  0.57769627400E+02  0.41800000000E+01 0. -1.
        -11    1    1    2    0    0  0.93820065164E+01  0.28918695907E+02 -0.33296530843E+02  0.45088490609E+02  0.00000000000E+00 0. -1.
         11    1    1    2    0    0  0.91438237410E+02 -0.29609511767E+02 -0.58675778012E+01  0.96291759341E+02  0.00000000000E+00 0.  1.
</event>
<event>
 7    1  0.6506388E-006  0.1277151E+03  0.7561462E-02  0.1230886E+00
         -1   -1    0    0    0  501 -0.00000000000E+00  0.00000000000E+00  0.26241901284E+03  0.26241901284E+03  0.00000000000E+00 0.  1.
          1   -1    0    0  501    0  0.00000000000E+00 -0.00000000000E+00 -0.89468483018E+02  0.89468483018E+02  0.00000000000E+00 0. -1.
         23    2    1    2    0    0  0.80288449005E+02 -0.38085173297E+02  0.15877291241E+03  0.22080323256E+03  0.12509402193E+03 0.  0.
          5    1    3    3  502    0  0.44718770543E+02  0.26230213848E+02  0.74745785907E+01  0.52546496387E+02  0.41800000000E+01 0.  1.
         -5    1    3    3    0  502  0.35569678462E+02 -0.64315387146E+02  0.15129833382E+03  0.16825673617E+03  0.41800000000E+01 0.  1.
        -11    1    1    2    0    0 -0.10028650950E+03  0.43147142853E+02  0.16145504968E+02  0.11036184692E+03  0.00000000000E+00 0.  1.
         11    1    1    2    0    0  0.19998060497E+02 -0.50619695561E+01 -0.19678875549E+01  0.20722416385E+02  0.00000000000E+00 0. -1.
</event>
<event>
 7    1  0.6506388E-006  0.1496043E+03  0.7561462E-02  0.1200960E+00
         -2   -1    0    0    0  501 -0.00000000000E+00  0.00000000000E+00  0.22450379220E+02  0.22450379220E+02  0.00000000000E+00 0.  1.
          2   -1    0    0  501    0  0.00000000000E+00 -0.00000000000E+00 -0.13250590030E+04  0.13250590030E+04  0.00000000000E+00 0. -1.
         23    2    1    2    0    0 -0.10142885702E+03  0.72226291517E+02 -0.60553587555E+03  0.63073376761E+03  0.12508772445E+03 0.  0.
          5    1    3    3  502    0 -0.23434732156E+02  0.72365753272E+02 -0.14673364953E+03  0.16533065421E+03  0.41800000000E+01 0. -1.
         -5    1    3    3    0  502 -0.77994124867E+02 -0.13946175508E+00 -0.45880222601E+03  0.46540311340E+03  0.41800000000E+01 0. -1.
        -11    1    1    2    0    0  0.26349706305E+02  0.14610055815E+02 -0.41815945607E+02  0.51539635818E+02  0.00000000000E+00 0. -1.
         11    1    1    2    0    0  0.75079150718E+02 -0.86836347332E+02 -0.65525680264E+03  0.66523597880E+03  0.00000000000E+00 0.  1.
</event>
<event>
 7    1  0.6506388E-006  0.1282998E+03  0.7561462E-02  0.1230001E+00
          1   -1    0    0  501    0  0.00000000000E+00  0.00000000000E+00  0.34839347143E+02  0.34839347143E+02  0.00000000000E+00 0. -1.
         -1   -1    0    0    0  501 -0.00000000000E+00 -0.00000000000E+00 -0.85532320918E+03  0.85532320918E+03  0.00000000000E+00 0.  1.
         23    2    1    2    0    0  0.70118535897E+02  0.97197966967E+02 -0.58844962686E+03  0.61341979626E+03  0.12508728647E+03 0.  0.
          5    1    3    3  502    0  0.39266879824E+02  0.80903269599E+02 -0.56269817540E+03  0.56985431110E+03  0.41800000000E+01 0. -1.
         -5    1    3    3    0  502  0.30851656073E+02  0.16294697368E+02 -0.25751451453E+02  0.43565485154E+02  0.41800000000E+01 0. -1.
        -11    1    1    2    0    0 -0.39222372280E+02 -0.12327010238E+02 -0.14718427955E+03  0.15281872207E+03  0.00000000000E+00 0.  1.
         11    1    1    2    0    0 -0.30896163616E+02 -0.84870956729E+02 -0.84849955634E+02  0.12392403800E+03  0.00000000000E+00 0. -1.
</event>
<event>
 7    1  0.6506388E-006  0.1066986E+03  0.7561462E-02  0.1266809E+00
         -1   -1    0    0    0  501 -0.00000000000E+00  0.00000000000E+00  0.83367949792E+02  0.83367949792E+02  0.00000000000E+00 0.  1.
          1   -1    0    0  501    0  0.00000000000E+00 -0.00000000000E+00 -0.18869887237E+03  0.18869887237E+03  0.00000000000E+00 0. -1.
         23    2    1    2    0    0  0.53886915657E+02 -0.19095700139E+02 -0.32864800701E+02  0.14140760524E+03  0.12509024843E+03 0.  0.
          5    1    3    3  502    0  0.50221649175E+02  0.35888766078E+02 -0.54117388810E+02  0.82197212532E+02  0.41800000000E+01 0. -1.
         -5    1    3    3    0  502  0.36652664826E+01 -0.54984466216E+02  0.21252588109E+02  0.59210392709E+02  0.41800000000E+01 0. -1.
        -11    1    1    2    0    0  0.55808009982E+01 -0.22830568570E+02  0.53718896558E+01  0.24108865578E+02  0.00000000000E+00 0. -1.
         11    1    1    2    0    0 -0.59467716656E+02  0.41926268708E+02 -0.77838011536E+02  0.10655035135E+03  0.00000000000E+00 0.  1.
</event>
<event>
 7    1  0.6506388E-006  0.3533921E+03  0.7561462E-02  0.1061231E+00
         -1   -1    0    0    0  501 -0.00000000000E+00  0.00000000000E+00  0.68439708114E+03  0.68439708114E+03  0.00000000000E+00 0.  1.
          1   -1    0    0  501    0  0.00000000000E+00 -0.00000000000E+00 -0.20099464288E+03  0.20099464288E+03  0.00000000000E+00 0. -1.
         23    2    1    2    0    0 -0.24696860594E+02  0.34339312367E+03  0.34450718052E+03  0.50285372124E+03  0.12509154736E+03 0.  0.
          5    1    3    3  502    0  0.21629688304E+02  0.14740343911E+03  0.76324074470E+02  0.16744686925E+03  0.41800000000E+01 0. -1.
         -5    1    3    3    0  502 -0.46326548899E+02  0.19598968456E+03  0.26818310605E+03  0.33540685199E+03  0.41800000000E+01 0. -1.
        -11    1    1    2    0    0  0.52002761901E+02 -0.11404325513E+03  0.44099541346E+02  0.13287182106E+03  0.00000000000E+00 0.  1.
         11    1    1    2    0    0 -0.27305901306E+02 -0.22934986854E+03  0.94795716388E+02  0.24966618172E+03  0.00000000000E+00 0. -1.
</event>
<event>
 7    1  0.6506388E-006  0.9975853E+02  0.7561462E-02  0.1280805E+00
         -1   -1    0    0    0  501 -0.00000000000E+00  0.00000000000E+00  0.49828288837E+02  0.49828288837E+02  0.00000000000E+00 0.  1.
          1   -1    0    0  501    0  0.00000000000E+00 -0.00000000000E+00 -0.25626728123E+03  0.25626728123E+03  0.00000000000E+00 0. -1.
         23    2    1    2    0    0 -0.13769435862E+02 -0.53767475953E+02 -0.11808255536E+03  0.18075314408E+03  0.12509064866E+03 0.  0.
          5    1    3    3  502    0  0.19681756836E+02 -0.76141404048E+02 -0.11603976638E+03  0.14024116637E+03  0.41800000000E+01 0.  1.
         -5    1    3    3    0  502 -0.33451192698E+02  0.22373928095E+02 -0.20427889710E+01  0.40511977712E+02  0.41800000000E+01 0.  1.
        -11    1    1    2    0    0  0.22569213051E+02 -0.30787828813E+01 -0.38279820835E+01  0.23097656344E+02  0.00000000000E+00 0.  1.
         11    1    1    2    0    0 -0.87997771883E+01  0.56846258834E+02 -0.84528454954E+02  0.10224476964E+03  0.00000000000E+00 0. -1.
</event>
<event>
 7    1  0.6506388E-006  0.1012987E+03  0.7561462E-02  0.1277588E+00
          3   -1    0    0  501    0  0.00000000000E+00  0.00000000000E+00  0.66069469539E+02  0.66069469539E+02  0.00000000000E+00 0. -1.
         -3   -1    0    0    0  501 -0.00000000000E+00 -0.00000000000E+00 -0.21396172462E+03  0.21396172462E+03  0.00000000000E+00 0.  1.
         23    2    1    2    0    0 -0.39282679489E+02 -0.27974015620E+02 -0.96475076947E+02  0.16516770569E+03  0.12508899261E+03 0.  0.
          5    1    3    3  502    0 -0.35342196729E+02 -0.61784480772E+02 -0.98215966128E+01  0.71974503082E+02  0.41800000000E+01 0. -1.
         -5    1    3    3    0  502 -0.39404827600E+01  0.33810465152E+02 -0.86653480335E+02  0.93193202608E+02  0.41800000000E+01 0. -1.
        -11    1    1    2    0    0 -0.24674277520E+02  0.21482455490E+02 -0.36216497614E+02  0.48805230913E+02  0.00000000000E+00 0.  1.
         11    1    1    2    0    0  0.63956957009E+02  0.64915601292E+01 -0.15200680517E+02  0.66058257553E+02  0.00000000000E+00 0. -1.
</event>
<event>
 7    1  0.6506388E-006  0.1576216E+03  0.7561462E-02  0.1191408E+00
         -1   -1    0    0    0  501 -0.00000000000E+00  0.00000000000E+00  0.13197032117E+04  0.13197032117E+04  0.00000000000E+00 0.  1.
          1   -1    0    0  501    0  0.00000000000E+00 -0.00000000000E+00 -0.31519003570E+02  0.31519003570E+02  0.00000000000E+00 0. -1.
         23    2    1    2    0    0  0.98551174978E+02  0.69213714897E+02  0.10832118399E+04  0.10970400801E+04  0.12508467105E+03 0.  0.
          5    1    3    3  502    0  0.85345311193E+02 -0.15121894159E+02  0.61501962637E+03  0.62111118734E+03  0.41800000000E+01 0.  1.
         -5    1    3    3    0  502  0.13205863785E+02  0.84335609056E+02  0.46819221351E+03  0.47592889278E+03  0.41800000000E+01 0.  1.
        -11    1    1    2    0    0 -0.11181926699E+03 -0.60619168438E+02  0.14843778922E+03  0.19547892296E+03  0.00000000000E+00 0. -1.
         11    1    1    2    0    0  0.13268092013E+02 -0.85945464593E+01  0.56534579053E+02  0.58703212205E+02  0.00000000000E+00 0.  1.
</event>
<event>
 7    1  0.6506388E-006  0.1374415E+03  0.7561462E-02  0.1216814E+00
         -2   -1    0    0    0  501 -0.00000000000E+00  0.00000000000E+00  0.34490217875E+02  0.34490217875E+02  0.00000000000E+00 0.  1.
          2   -1    0    0  501    0  0.00000000000E+00 -0.00000000000E+00 -0.66513407027E+03  0.66513407027E+03  0.00000000000E+00 0. -1.
         23    2    1    2    0    0 -0.63084244982E+02  0.83427953025E+02 -0.30669608300E+03  0.34734719759E+03  0.12509093907E+03 0.  0.
          5    1    3    3  502    0  0.46120962483E+01  0.67583472036E+02 -0.58625514075E+02  0.89684003171E+02  0.41800000000E+01 0.  1.
         -5    1    3    3    0  502 -0.67696341231E+02  0.15844480989E+02 -0.24807056892E+03  0.25766319442E+03  0.41800000000E+01 0.  1.
        -11    1    1    2    0    0  0.57655891528E+02 -0.10246163455E+03 -0.26023018950E+03  0.28555619397E+03  0.00000000000E+00 0.  1.
         11    1    1    2    0    0  0.54283534548E+01  0.19033681530E+02 -0.63717579894E+02  0.66720896586E+02  0.00000000000E+00 0. -1.
</event>
<event>
 7    1  0.6506388E-006  0.1064048E+03  0.7561462E-02  0.1267376E+00
          1   -1    0    0  501    0  0.00000000000E+00  0.00000000000E+00  0.34068191510E+03  0.34068191510E+03  0.00000000000E+00 0. -1.
         -1   -1    0    0    0  501 -0.00000000000E+00 -0.00000000000E+00 -0.46231573321E+02  0.46231573321E+02  0.00000000000E+00 0.  1.
         23    2    1    2    0    0  0.14724206526E+02  0.54277744674E+02  0.12052972757E+03  0.18258821891E+03  0.12509263220E+03 0.  0.
          5    1    3    3  502    0 -0.32139807293E+02 -0.25697401641E+02  0.55775907037E+02  0.69438806655E+02  0.41800000000E+01 0. -1.
         -5    1    3    3    0  502  0.46864013818E+02  0.79975146315E+02  0.64753820533E+02  0.11314941225E+03  0.41800000000E+01 0. -1.
        -11    1    1    2    0    0 -0.34840514475E+02 -0.43833735638E+02  0.17278464180E+03  0.18163091772E+03  0.00000000000E+00 0. -1.
         11    1    1    2    0    0  0.20116307950E+02 -0.10444009035E+02  0.11359724122E+01  0.22694351799E+02  0.00000000000E+00 0.  1.
</event>
<event>
 7    1  0.6506388E-006  0.1222174E+03  0.7561462E-02  0.1239483E+00
          2   -1    0    0  501    0  0.00000000000E+00  0.00000000000E+00  0.10763451255E+03  0.10763451255E+03  0.00000000000E+00 0. -1.
         -2   -1    0    0    0  501 -0.00000000000E+00 -0.00000000000E+00 -0.21828415576E+03  0.21828415576E+03  0.00000000000E+00 0.  1.
         23    2    1    2    0    0  0.31079207385E+02 -0.83255643963E+02 -0.12484834539E+03  0.19782989400E+03  0.12510850582E+03 0.  0.
          5    1    3    3  502    0  0.79561420802E+02 -0.46728754189E+02 -0.69711065860E+02  0.11571819758E+03  0.41800000000E+01 0.  1.
         -5    1    3    3    0  502 -0.48482213417E+02 -0.36526889774E+02 -0.55137279531E+02  0.82111696417E+02  0.41800000000E+01 0.  1.
        -11    1    1    2    0    0 -0.21469798676E+02  0.28765870114E+02 -0.37822347860E+02  0.52143624119E+02  0.00000000000E+00 0.  1.
         11    1    1    2    0    0 -0.96094087089E+01  0.54489773849E+02  0.52021050049E+02  0.75945150194E+02  0.00000000000E+00 0. -1.
</event>
<event>
 7    1  0.7492067E-006  0.1636125E+03  0.7561462E-02  0.1184678E+00
         -1   -1    0    0    0  501 -0.00000000000E+00  0.00000000000E+00  0.34199670522E+03  0.34199670522E+03  0.00000000000E+00 0.  1.
          1   -1    0    0  501    0  0.00000000000E+00 -0.00000000000E+00 -0.12280650364E+03  0.12280650364E+03  0.00000000000E+00 0. -1.
         23    2    1    2    0    0 -0.13964960009E+03 -0.10518624286E+02  0.23000509289E+03  0.29692196406E+03  0.12509059806E+03 0.  0.
          5    1    3    3  502    0 -0.15975484847E+02 -0.30324265666E+02  0.13585994893E+03  0.14017908306E+03  0.41800000000E+01 0.  1.
         -5    1    3    3    0  502 -0.12367411525E+03  0.19805641379E+02  0.94145143954E+02  0.15674288099E+03  0.41800000000E+01 0.  1.
        -11    1    1    2    0    0  0.81251707895E+02 -0.39629839483E+02 -0.22281308967E+01  0.90428583869E+02  0.00000000000E+00 0.  1.
         11    1    1    2    0    0  0.58397892198E+02  0.50148463769E+02 -0.85867604132E+01  0.77452660936E+02  0.00000000000E+00 0. -1.
</event>
<event>
 6    1  0.6506388E-006  0.1358415E+03  0.7561462E-02  0.1219037E+00
         -1   -1    0    0    0  501 -0.00000000000E+00  0.00000000000E+00  0.20907011852E+02  0.20907011852E+02  0.00000000000E+00 0.  1.
          1   -1    0    0  501    0  0.00000000000E+00 -0.00000000000E+00 -0.94949642067E+03  0.94949642067E+03  0.00000000000E+00 0. -1.
          5    1    1    2  502    0  0.12850019007E+02 -0.54611253823E+02 -0.11273343164E+03  0.12599131336E+03  0.41800000000E+01 0. -1.
         -5    1    1    2    0  502  0.54325620677E+02  0.80990737365E+02 -0.31699515723E+03  0.33168384752E+03  0.41800000000E+01 0.  1.
        -11    1    1    2    0    0 -0.86649178139E+02 -0.38561163875E+02 -0.37902249181E+03  0.39070844978E+03  0.00000000000E+00 0. -1.
         11    1    1    2    0    0  0.19473538454E+02  0.12181680333E+02 -0.11983832813E+03  0.12201982185E+03  0.00000000000E+00 0.  1.
</event>
<event>
 7    1  0.6506388E-006  0.8049495E+02  0.7561462E-02  0.1327653E+00
         -2   -1    0    0    0  501 -0.00000000000E+00  0.00000000000E+00  0.73282690609E+03  0.73282690609E+03  0.00000000000E+00 0.  1.
          2   -1    0    0  501    0  0.00000000000E+00 -0.00000000000E+00 -0.39936831557E+02  0.39936831557E+02  0.00000000000E+00 0. -1.
         23    2    1    2    0    0 -0.44880295425E+02 -0.33216288628E+02  0.63692721375E+03  0.65149153297E+03  0.12508948467E+03 0.  0.
          5    1    3    3  502    0 -0.23997065990E+02 -0.16683509894E+02  0.61763151378E+03  0.61833676738E+03  0.41800000000E+01 0. -1.
         -5    1    3    3    0  502 -0.20883229435E+02 -0.16532778734E+02  0.19295699967E+02  0.33154765593E+02  0.41800000000E+01 0. -1.
        -11    1    1    2    0    0  0.37096789470E+02  0.63333208483E+02  0.51917493574E+02  0.89903799835E+02  0.00000000000E+00 0.  1.
         11    1    1    2    0    0  0.77835059547E+01 -0.30116919855E+02  0.40453672157E+01  0.31368404843E+02  0.00000000000E+00 0. -1.
</event>
<event>
 7    1  0.6506388E-006  0.1190044E+03  0.7561462E-02  0.1244749E+00
          1   -1    0    0  501    0  0.00000000000E+00  0.00000000000E+00  0.27763323017E+03  0.27763323017E+03  0.00000000000E+00 0. -1.
         -1   -1    0    0    0  501 -0.00000000000E+00 -0.00000000000E+00 -0.77697949304E+02  0.77697949304E+02  0.00000000000E+00 0.  1.
         23    2    1    2    0    0  0.99168743790E+02  0.37749841169E+01  0.95747910981E+02  0.18617877448E+03  0.12508470473E+03 0.  0.
          5    1    3    3  502    0  0.10257695006E+03 -0.83655279079E+01  0.12023376379E+03  0.15832132862E+03  0.41800000000E+01 0.  1.
         -5    1    3    3    0  502 -0.34082062659E+01  0.12140512025E+02 -0.24485852808E+02  0.27857445861E+02  0.41800000000E+01 0.  1.
        -11    1    1    2    0    0 -0.71759989055E+02  0.30382800466E+02  0.31008651077E+02  0.83869821956E+02  0.00000000000E+00 0.  1.
         11    1    1    2    0    0 -0.27408754735E+02 -0.34157784583E+02  0.73178718805E+02  0.85282583039E+02  0.00000000000E+00 0. -1.
</event>
<event>
 7    1  0.6506388E-006  0.1258515E+03  0.7561462E-02  0.1233745E+00
          2   -1    0    0  501    0  0.00000000000E+00  0.00000000000E+00  0.36817365602E+03  0.36817365602E+03  0.00000000000E+00 0. -1.
         -2   -1    0    0    0  501 -0.00000000000E+00 -0.00000000000E+00 -0.13528617444E+03  0.13528617444E+03  0.00000000000E+00 0.  1.
         23    2    1    2    0    0  0.11095773829E+03  0.39178128554E+02 -0.55508677248E+02  0.18048676600E+03  0.12509082303E+03 0.  0.
          5    1    3    3  502    0  0.32392303096E+02  0.33659461802E+02  0.36405728311E+02  0.59372300970E+02  0.41800000000E+01 0. -1.
         -5    1    3    3    0  502  0.78565435194E+02  0.55186667525E+01 -0.91914405559E+02  0.12111446503E+03  0.41800000000E+01 0. -1.
        -11    1    1    2    0    0 -0.53541911810E+02  0.45872702427E+01  0.48287613022E+02  0.72245919884E+02  0.00000000000E+00 0.  1.
         11    1    1    2    0    0 -0.57415826479E+02 -0.43765398797E+02  0.24010854580E+03  0.25072714458E+03  0.00000000000E+00 0. -1.
</event>
<event>
 7    1  0.6506388E-006  0.1065854E+03  0.7561462E-02  0.1267027E+00
         -2   -1    0    0    0  501 -0.00000000000E+00  0.00000000000E+00  0.31274727666E+02  0.31274727666E+02  0.00000000000E+00 0.  1.
          2   -1    0    0  501    0  0.00000000000E+00 -0.00000000000E+00 -0.46454384775E+03  0.46454384775E+03  0.00000000000E+00 0. -1.
         23    2    1    2    0    0 -0.62558927624E+01  0.69894931795E+02 -0.16755015497E+03  0.22055579195E+03  0.12508942900E+03 0.  0.
          5    1    3    3  502    0 -0.42251032823E+02  0.91344984893E+02 -0.10876157056E+03  0.14824172041E+03  0.41800000000E+01 0.  1.
         -5    1    3    3    0  502  0.35995140060E+02 -0.21450053097E+02 -0.58788584408E+02  0.72314071539E+02  0.41800000000E+01 0.  1.
        -11    1    1    2    0    0  0.41697207016E+01 -0.22049815514E+02 -0.60439760572E+02  0.64471277271E+02  0.00000000000E+00 0.  1.
         11    1    1    2    0    0  0.20861720607E+01 -0.47845116282E+02 -0.20527920454E+03  0.21079150619E+03  0.00000000000E+00 0. -1.
</event>
<event>
 6    1  0.6506388E-006  0.1139530E+03  0.7561462E-02  0.1253420E+00
          1   -1    0    0  501    0  0.00000000000E+00  0.00000000000E+00  0.32462113379E+03  0.32462113379E+03  0.00000000000E+00 0. -1.
         -1   -1    0    0    0  501 -0.00000000000E+00 -0.00000000000E+00 -0.48296141923E+02  0.48296141923E+02  0.00000000000E+00 0.  1.
          5    1    1    2  502    0 -0.11626527429E+02  0.45587873906E+02  0.67590943355E+02  0.82458707308E+02  0.41800000000E+01 0. -1.
         -5    1    1    2    0  502  0.23314062763E+01 -0.82093347487E+02  0.32973224866E+02  0.88597173290E+02  0.41800000000E+01 0.  1.
        -11    1    1    2    0    0  0.45341647663E+01  0.67213342350E+02  0.13190999328E+03  0.14811630014E+03  0.00000000000E+00 0. -1.
         11    1    1    2    0    0  0.47609563867E+01 -0.30707868768E+02  0.43850830357E+02  0.53745094967E+02  0.00000000000E+00 0.  1.
</event>
<event>
 7    1  0.6506388E-006  0.1200880E+03  0.7561462E-02  0.1242952E+00
          3   -1    0    0  501    0  0.00000000000E+00  0.00000000000E+00  0.94499140554E+02  0.94499140554E+02  0.00000000000E+00 0. -1.
         -3   -1    0    0    0  501 -0.00000000000E+00 -0.00000000000E+00 -0.17287547029E+03  0.17287547029E+03  0.00000000000E+00 0.  1.
         23    2    1    2    0    0 -0.61129780322E+02  0.35520120082E+02 -0.76887033144E+02  0.15295392180E+03  0.11173521090E+03 0.  0.
          5    1    3    3  502    0 -0.52207591617E+02  0.72375846388E+02 -0.34090377038E+02  0.95621765145E+02  0.41800000000E+01 0. -1.
         -5    1    3    3    0  502 -0.89221887052E+01 -0.36855726307E+02 -0.42796656106E+02  0.57332156655E+02  0.41800000000E+01 0.  1.
        -11    1    1    2    0    0  0.61103117681E+02  0.14392204719E+02 -0.10657073834E+02  0.63673383526E+02  0.00000000000E+00 0.  1.
         11    1    1    2    0    0  0.26662641411E-01 -0.49912324800E+02  0.91677772398E+01  0.50747305519E+02  0.00000000000E+00 0. -1.
</event>
<event>
 7    1  0.6506388E-006  0.1067801E+03  0.7561462E-02  0.1266652E+00
         -2   -1    0    0    0  501 -0.00000000000E+00  0.00000000000E+00  0.56679279774E+03  0.56679279774E+03  0.00000000000E+00 0.  1.
          2   -1    0    0  501    0  0.00000000000E+00 -0.00000000000E+00 -0.34719115416E+02  0.34719115416E+02  0.00000000000E+00 0. -1.
         23    2    1    2    0    0 -0.45338865581E+02  0.16944561137E+02  0.45402134858E+03  0.47341926336E+03  0.12509069937E+03 0.  0.
          5    1    3    3  502    0 -0.80463756600E+02  0.34704416683E+02  0.23480894860E+03  0.25066217785E+03  0.41800000000E+01 0. -1.
         -5    1    3    3    0  502  0.35124891019E+02 -0.17759855546E+02  0.21921239998E+03  0.22275708551E+03  0.41800000000E+01 0. -1.
        -11    1    1    2    0    0 -0.11731499001E+02  0.16391876182E+02 -0.61259804145E+01  0.21067731478E+02  0.00000000000E+00 0. -1.
         11    1    1    2    0    0  0.57070364582E+02 -0.33336437320E+02  0.84178314158E+02  0.10702491832E+03  0.00000000000E+00 0.  1.
</event>
<event>
 7    1  0.6506388E-006  0.1029754E+03  0.7561462E-02  0.1274161E+00
          1   -1    0    0  501    0  0.00000000000E+00  0.00000000000E+00  0.25217040903E+02  0.25217040903E+02  0.00000000000E+00 0. -1.
         -1   -1    0    0    0  501 -0.00000000000E+00 -0.00000000000E+00 -0.50802170683E+03  0.50802170683E+03  0.00000000000E+00 0.  1.
         23    2    1    2    0    0  0.12317085004E+02 -0.30303022365E+02 -0.25901863627E+03  0.28949636413E+03  0.12508999624E+03 0.  0.
          5    1    3    3  502    0 -0.14648037041E+02  0.42714460017E+02 -0.56205037245E+02  0.72218894311E+02  0.41800000000E+01 0. -1.
         -5    1    3    3    0  502  0.26965122044E+02 -0.73017482382E+02 -0.20281359903E+03  0.21727746982E+03  0.41800000000E+01 0. -1.
        -11    1    1    2    0    0 -0.21344204540E+01 -0.25670785299E+02 -0.14073800986E+03  0.14307596719E+03  0.00000000000E+00 0. -1.
         11    1    1    2    0    0 -0.10182664550E+02  0.55973807664E+02 -0.83048019800E+02  0.10066641642E+03  0.00000000000E+00 0.  1.
</event>
<event>
 7    1  0.6506388E-006  0.6321176E+02  0.7561462E-02  0.1384827E+00
          1   -1    0    0  501    0  0.00000000000E+00  0.00000000000E+00  0.78677996771E+02  0.78677996771E+02  0.00000000000E+00 0. -1.
         -1   -1    0    0    0  501 -0.00000000000E+00 -0.00000000000E+00 -0.34073628889E+03  0.34073628889E+03  0.00000000000E+00 0.  1.
         23    2    1    2    0    0 -0.13429364776E+02  0.74494861047E+01 -0.29997250385E+03  0.32000337063E+03  0.11037577391E+03 0.  0.
          5    1    3    3  502    0  0.18573691564E+01 -0.19206231649E+02 -0.13656676519E+01  0.19790568524E+02  0.41800000000E+01 0. -1.
         -5    1    3    3    0  502 -0.15286733932E+02  0.26655717754E+02 -0.29860683620E+03  0.30021280211E+03  0.41800000000E+01 0.  1.
        -11    1    1    2    0    0  0.42515762201E+02 -0.15881509342E+02  0.49343756319E+02  0.67041917202E+02  0.00000000000E+00 0. -1.
         11    1    1    2    0    0 -0.29086397425E+02  0.84320232377E+01 -0.11429544587E+02  0.32368997830E+02  0.00000000000E+00 0.  1.
</event>
<event>
 7    1  0.6506388E-006  0.1697661E+03  0.7561462E-02  0.1178092E+00
         -1   -1    0    0    0  501 -0.00000000000E+00  0.00000000000E+00  0.49569431023E+02  0.49569431023E+02  0.00000000000E+00 0.  1.
          1   -1    0    0  501    0  0.00000000000E+00 -0.00000000000E+00 -0.65349657077E+03  0.65349657077E+03  0.00000000000E+00 0. -1.
         23    2    1    2    0    0  0.11484842052E+03 -0.62573268732E+02 -0.20494617243E+03  0.27341567557E+03  0.12509046485E+03 0.  0.
          5    1    3    3  502    0  0.11689827408E+03 -0.93296675375E+02 -0.17525316565E+03  0.23043571899E+03  0.41800000000E+01 0. -1.
         -5    1    3    3    0  502 -0.20498535593E+01  0.30723406642E+02 -0.29693006778E+02  0.42979956571E+02  0.41800000000E+01 0. -1.
        -11    1    1    2    0    0 -0.45346566956E+02  0.75567528076E+02 -0.20299904037E+03  0.22130380210E+03  0.00000000000E+00 0.  1.
         11    1    1    2    0    0 -0.69501853561E+02 -0.12994259343E+02 -0.19598192695E+03  0.20834652412E+03  0.00000000000E+00 0. -1.
</event>
<event>
 7    1  0.6506388E-006  0.1079139E+03  0.7561462E-02  0.1264483E+00
          2   -1    0    0  501    0  0.00000000000E+00  0.00000000000E+00  0.37704632203E+03  0.37704632203E+03  0.00000000000E+00 0. -1.
         -2   -1    0    0    0  501 -0.00000000000E+00 -0.00000000000E+00 -0.94464341157E+02  0.94464341157E+02  0.00000000000E+00 0.  1.
         23    2    1    2    0    0 -0.28629832723E+02  0.92581852239E+02 -0.25969500969E-01  0.15823785750E+03  0.12509257447E+03 0.  0.
          5    1    3    3  502    0 -0.49600208157E+02  0.78872732371E+02  0.47263862142E+02  0.10455827861E+03  0.41800000000E+01 0.  1.
         -5    1    3    3    0  502  0.20970375434E+02  0.13709119868E+02 -0.47289831643E+02  0.53679578894E+02  0.41800000000E+01 0.  1.
        -11    1    1    2    0    0  0.16733499916E+02 -0.42254565182E+02  0.27812365883E+02  0.53282135788E+02  0.00000000000E+00 0.  1.
         11    1    1    2    0    0  0.11896332807E+02 -0.50327287057E+02  0.25479558449E+03  0.25999066990E+03  0.00000000000E+00 0. -1.
</event>
<event>
 7    1  0.6506388E-006  0.8196453E+02  0.7561462E-02  0.1323567E+00
          2   -1    0    0  501    0  0.00000000000E+00  0.00000000000E+00  0.38951566574E+03  0.38951566574E+03  0.00000000000E+00 0. -1.
         -2   -1    0    0    0  501 -0.00000000000E+00 -0.00000000000E+00 -0.35864284149E+02  0.35864284149E+02  0.00000000000E+00 0.  1.
         23    2    1    2    0    0  0.16350906461E+01  0.46352596021E+02  0.19620642229E+03  0.23726672548E+03  0.12508917695E+03 0.  0.
          5    1    3    3  502    0  0.94115802630E+01 -0.17538481202E+02 -0.89426325368E+01  0.22217543577E+02  0.41800000000E+01 0.  1.
         -5    1    3    3    0  502 -0.77764896169E+01  0.63891077222E+02  0.20514905483E+03  0.21504918190E+03  0.41800000000E+01 0.  1.
        -11    1    1    2    0    0 -0.25153229893E+02 -0.49343745344E+02  0.15461725997E+03  0.16423759393E+03  0.00000000000E+00 0. -1.
         11    1    1    2    0    0  0.23518139247E+02  0.29911493228E+01  0.28276993405E+01  0.23875630493E+02  0.00000000000E+00 0.  1.
</event>
<event>
 7    1  0.6506388E-006  0.9891154E+02  0.7561462E-02  0.1282602E+00
          2   -1    0    0  501    0  0.00000000000E+00  0.00000000000E+00  0.55785375119E+03  0.55785375119E+03  0.00000000000E+00 0. -1.
         -2   -1    0    0    0  501 -0.00000000000E+00 -0.00000000000E+00 -0.21065995580E+02  0.21065995580E+02  0.00000000000E+00 0.  1.
         23    2    1    2    0    0  0.82519324932E+01  0.94494847471E+01  0.30477472226E+03  0.32968510329E+03  0.12508896373E+03 0.  0.
          5    1    3    3  502    0  0.55501572984E+02  0.19315301233E+02  0.77761234530E+02  0.97559148525E+02  0.41800000000E+01 0.  1.
         -5    1    3    3    0  502 -0.47249640490E+02 -0.98658164858E+01  0.22701348773E+03  0.23212595476E+03  0.41800000000E+01 0.  1.
        -11    1    1    2    0    0  0.40855963950E+02 -0.42856287903E+01  0.11947209841E+03  0.12633747941E+03  0.00000000000E+00 0. -1.
         11    1    1    2    0    0 -0.49107896444E+02 -0.51638559567E+01  0.11254093493E+03  0.12289716407E+03  0.00000000000E+00 0.  1.
</event>
<event>
 7    1  0.6506388E-006  0.1400156E+03  0.7561462E-02  0.1213308E+00
          1   -1    0    0  501    0  0.00000000000E+00  0.00000000000E+00  0.80024391955E+02  0.80024391955E+02  0.00000000000E+00 0. -1.
         -1   -1    0    0    0  501 -0.00000000000E+00 -0.00000000000E+00 -0.35963970372E+03  0.35963970372E+03  0.00000000000E+00 0.  1.
         23    2    1    2    0    0 -0.42993867633E+01 -0.12340245777E+03 -0.19114419877E+03  0.25967089559E+03  0.12508484313E+03 0.  0.
          5    1    3    3  502    0 -0.15115219699E+02 -0.10354784375E+03 -0.20683270041E+03  0.23183585609E+03  0.41800000000E+01 0. -1.
         -5    1    3    3    0  502  0.10815832936E+02 -0.19854614020E+02  0.15688501639E+02  0.27835039495E+02  0.41800000000E+01 0. -1.
        -11    1    1    2    0    0  0.32686086058E+02  0.82514756811E+01 -0.38837642468E+02  0.51427906288E+02  0.00000000000E+00 0.  1.
         11    1    1    2    0    0 -0.28386699295E+02  0.11515098209E+03 -0.49633470532E+02  0.12856529380E+03  0.00000000000E+00 0. -1.
</event>
<event>
 7    1  0.6506388E-006  0.1416953E+03  0.7561462E-02  0.1211066E+00
          2   -1    0    0  501    0  0.00000000000E+00  0.00000000000E+00  0.85016850041E+03  0.85016850041E+03  0.00000000000E+00 0. -1.
         -2   -1    0    0    0  501 -0.00000000000E+00 -0.00000000000E+00 -0.26843910093E+02  0.26843910093E+02  0.00000000000E+00 0.  1.
         23    2    1    2    0    0 -0.71865001779E+02  0.90913445333E+02  0.40859977820E+03  0.44275469171E+03  0.12509238689E+03 0.  0.
          5    1    3    3  502    0 -0.92117144527E+02  0.96872760809E+02  0.25780566983E+03  0.29043267017E+03  0.41800000000E+01 0. -1.
         -5    1    3    3    0  502  0.20252142748E+02 -0.59593154763E+01  0.15079410837E+03  0.15232202154E+03  0.41800000000E+01 0. -1.
        -11    1    1    2    0    0 -0.81946239313E+01 -0.18261830157E+02  0.82104047155E+02  0.84508702874E+02  0.00000000000E+00 0.  1.
         11    1    1    2    0    0  0.80059625710E+02 -0.72651615176E+02  0.33262076496E+03  0.34974901592E+03  0.00000000000E+00 0. -1.
</event>
<event>
 7    1  0.6506388E-006  0.1195056E+03  0.7561462E-02  0.1243915E+00
          1   -1    0    0  501    0  0.00000000000E+00  0.00000000000E+00  0.29686788543E+03  0.29686788543E+03  0.00000000000E+00 0. -1.
         -1   -1    0    0    0  501 -0.00000000000E+00 -0.00000000000E+00 -0.85707229314E+02  0.85707229314E+02  0.00000000000E+00 0.  1.
         23    2    1    2    0    0  0.54677924346E+01  0.11703163795E+03  0.10892754373E+03  0.20307349774E+03  0.12508930676E+03 0.  0.
          5    1    3    3  502    0  0.39399346920E+01  0.96478623005E+02  0.47193710362E+01  0.96764624969E+02  0.41800000000E+01 0.  1.
         -5    1    3    3    0  502  0.15278577426E+01  0.20553014944E+02  0.10420817270E+03  0.10630887277E+03  0.41800000000E+01 0.  1.
        -11    1    1    2    0    0 -0.13605525547E+02 -0.21424876981E+02 -0.13836143477E+02  0.28906306325E+02  0.00000000000E+00 0.  1.
         11    1    1    2    0    0  0.81377331121E+01 -0.95606760969E+02  0.11606925586E+03  0.15059531068E+03  0.00000000000E+00 0. -1.
</event>
<event>
 7    1  0.6506388E-006  0.1634212E+03  0.7561462E-02  0.1184888E+00
         -1   -1    0    0    0  501 -0.00000000000E+00  0.00000000000E+00  0.95078501824E+02  0.95078501824E+02  0.00000000000E+00 0.  1.
          1   -1    0    0  501    0  0.00000000000E+00 -0.00000000000E+00 -0.62433198705E+03  0.62433198705E+03  0.00000000000E+00 0. -1.
         23    2    1    2    0    0  0.11556294333E+03  0.10108313433E+03 -0.37642267674E+02  0.19841809748E+03  0.11991750153E+03 0.  0.
          5    1    3    3  502    0  0.81956595830E+02  0.88836343064E+02 -0.78324593065E+02  0.14408675764E+03  0.41800000000E+01 0. -1.
         -5    1    3    3    0  502  0.33606347502E+02  0.12246791268E+02  0.40682325391E+02  0.54331339833E+02  0.41800000000E+01 0.  1.
        -11    1    1    2    0    0  0.10003933456E+02 -0.26699030861E+01 -0.13812276079E+02  0.17262272086E+02  0.00000000000E+00 0.  1.
         11    1    1    2    0    0 -0.12556687679E+03 -0.98413231246E+02 -0.47779894147E+03  0.50373011931E+03  0.00000000000E+00 0. -1.
</event>
<event>
 7    1  0.6506388E-006  0.8782066E+02  0.7561462E-02  0.1308217E+00
         -4   -1    0    0    0  501 -0.00000000000E+00  0.00000000000E+00  0.15225492906E+02  0.15225492906E+02  0.00000000000E+00 0.  1.
          4   -1    0    0  501    0  0.00000000000E+00 -0.00000000000E+00 -0.82857819515E+03  0.82857819515E+03  0.00000000000E+00 0. -1.
         23    2    1    2    0    0 -0.19980968581E+02  0.19453955399E+02 -0.45793963611E+03  0.47553531368E+03  0.12508968281E+03 0.  0.
          5    1    3    3  502    0  0.20319596516E+02 -0.15347551071E+02 -0.15963666274E+02  0.30343769828E+02  0.41800000000E+01 0.  1.
         -5    1    3    3    0  502 -0.40300565097E+02  0.34801506470E+02 -0.44197596984E+03  0.44519154385E+03  0.41800000000E+01 0.  1.
        -11    1    1    2    0    0  0.27866252913E+02  0.33108309930E+02 -0.15511746326E+03  0.16104072667E+03  0.00000000000E+00 0. -1.
         11    1    1    2    0    0 -0.78852843323E+01 -0.52562265329E+02 -0.20029560287E+03  0.20722764771E+03  0.00000000000E+00 0.  1.
</event>
<event>
 7    1  0.6506388E-006  0.8862433E+02  0.7561462E-02  0.1306218E+00
          1   -1    0    0  501    0  0.00000000000E+00  0.00000000000E+00  0.33986005262E+02  0.33986005262E+02  0.00000000000E+00 0. -1.
         -1   -1    0    0    0  501 -0.00000000000E+00 -0.00000000000E+00 -0.44336252017E+03  0.44336252017E+03  0.00000000000E+00 0.  1.
         23    2    1    2    0    0  0.22527028260E+01 -0.42547113535E+02 -0.29967041954E+03  0.32751510949E+03  0.12509378505E+03 0.  0.
          5    1    3    3  502    0  0.53213712768E+02  0.75996827903E+01 -0.80063552600E+02  0.96525122430E+02  0.41800000000E+01 0.  1.
         -5    1    3    3    0  502 -0.50961009942E+02 -0.50146796325E+02 -0.21960686694E+03  0.23098998706E+03  0.41800000000E+01 0.  1.
        -11    1    1    2    0    0 -0.15422035071E+02  0.16869134297E+02 -0.11769190905E+03  0.11989075157E+03  0.00000000000E+00 0.  1.
         11    1    1    2    0    0  0.13169332245E+02  0.25677979238E+02  0.79858136752E+01  0.29942664370E+02  0.00000000000E+00 0. -1.
</event>
<event>
 7    1  0.6506388E-006  0.8879645E+02  0.7561462E-02  0.1305793E+00
          2   -1    0    0  501    0  0.00000000000E+00  0.00000000000E+00  0.13084269231E+03  0.13084269231E+03  0.00000000000E+00 0. -1.
         -2   -1    0    0    0  501 -0.00000000000E+00 -0.00000000000E+00 -0.13769098850E+03  0.13769098850E+03  0.00000000000E+00 0.  1.
         23    2    1    2    0    0 -0.46453484620E+02  0.44680162516E+02 -0.48526964145E+02  0.14885055329E+03  0.12508947922E+03 0.  0.
          5    1    3    3  502    0 -0.34368188945E+02  0.36222302479E+02  0.36792684062E+02  0.62164311375E+02  0.41800000000E+01 0. -1.
         -5    1    3    3    0  502 -0.12085295674E+02  0.84578600363E+01 -0.85319648207E+02  0.86686241919E+02  0.41800000000E+01 0. -1.
        -11    1    1    2    0    0  0.42866376848E+02 -0.72434988957E+02  0.29936941946E+02  0.89334060595E+02  0.00000000000E+00 0.  1.
         11    1    1    2    0    0  0.35871077711E+01  0.27754826441E+02  0.11741726011E+02  0.30349066916E+02  0.00000000000E+00 0. -1.
</event>
<event>
 7    1  0.6506388E-006  0.1089035E+03  0.7561462E-02  0.1262614E+00
          1   -1    0    0  501    0  0.00000000000E+00  0.00000000000E+00  0.71112533554E+02  0.71112533554E+02  0.00000000000E+00 0. -1.
         -1   -1    0    0    0  501 -0.00000000000E+00 -0.00000000000E+00 -0.26071133497E+03  0.26071133497E+03  0.00000000000E+00 0.  1.
         23    2    1    2    0    0 -0.18167278054E+02 -0.50280993234E+02 -0.17832703504E+03  0.22429014581E+03  0.12508920740E+03 0.  0.
          5    1    3    3  502    0 -0.49493118620E+02 -0.79002321593E+02 -0.12368685394E+03  0.15494142714E+03  0.41800000000E+01 0. -1.
         -5    1    3    3    0  502  0.31325840566E+02  0.28721328358E+02 -0.54640181106E+02  0.69348718670E+02  0.41800000000E+01 0. -1.
        -11    1    1    2    0    0 -0.22259727072E+02  0.27498458963E+02 -0.39650322805E+02  0.53139521951E+02  0.00000000000E+00 0.  1.
         11    1    1    2    0    0  0.40427005126E+02  0.22782534272E+02  0.28378556432E+02  0.54394200762E+02  0.00000000000E+00 0. -1.
</event>
<event>
 7    1  0.6506388E-006  0.2137453E+03  0.7561462E-02  0.1138634E+00
         -1   -1    0    0    0  501 -0.00000000000E+00  0.00000000000E+00  0.16535716865E+03  0.16535716865E+03  0.00000000000E+00 0.  1.
          1   -1    0    0  501    0  0.00000000000E+00 -0.00000000000E+00 -0.34534494503E+03  0.34534494503E+03  0.00000000000E+00 0. -1.
         23    2    1    2    0    0  0.21228156016E+03 -0.25222815826E+01 -0.89156589951E+02  0.26203876158E+03  0.12508234228E+03 0.  0.
          5    1    3    3  502    0  0.27702471399E+02  0.50820928223E+01  0.30634760814E+02  0.41823624415E+02  0.41800000000E+01 0. -1.
         -5    1    3    3    0  502  0.18457908876E+03 -0.76043744049E+01 -0.11979135076E+03  0.22021513716E+03  0.41800000000E+01 0. -1.
        -11    1    1    2    0    0 -0.16840625615E+03 -0.97096942140E+01 -0.10765028005E+03  0.20010879058E+03  0.00000000000E+00 0. -1.
         11    1    1    2    0    0 -0.43875304015E+02  0.12231975797E+02  0.16819093623E+02  0.48554561522E+02  0.00000000000E+00 0.  1.
</event>
<event>
 7    1  0.6506388E-006  0.9094184E+02  0.7561462E-02  0.1300587E+00
         -1   -1    0    0    0  501 -0.00000000000E+00  0.00000000000E+00  0.35983606640E+02  0.35983606640E+02  0.00000000000E+00 0.  1.
          1   -1    0    0  501    0  0.00000000000E+00 -0.00000000000E+00 -0.37823572505E+03  0.37823572505E+03  0.00000000000E+00 0. -1.
         23    2    1    2    0    0  0.12137559730E+02 -0.19786331211E+01 -0.11896493362E+03  0.17306770224E+03  0.12509411970E+03 0.  0.
          5    1    3    3  502    0 -0.29464313071E+02 -0.29245386800E+02  0.24460709749E+01  0.41795861722E+02  0.41800000000E+01 0. -1.
         -5    1    3    3    0  502  0.41601872801E+02  0.27266753679E+02 -0.12141100459E+03  0.13127184052E+03  0.41800000000E+01 0. -1.
        -11    1    1    2    0    0  0.35251834651E+02 -0.17071349516E+02 -0.80942853698E+02  0.89921456757E+02  0.00000000000E+00 0.  1.
         11    1    1    2    0    0 -0.47389394381E+02  0.19049982637E+02 -0.14234433109E+03  0.15123017269E+03  0.00000000000E+00 0. -1.
</event>
<event>
 7    1  0.6506388E-006  0.1028753E+03  0.7561462E-02  0.1274363E+00
          4   -1    0    0  501    0  0.00000000000E+00  0.00000000000E+00  0.12190653345E+03  0.12190653345E+03  0.00000000000E+00 0. -1.
         -4   -1    0    0    0  501 -0.00000000000E+00 -0.00000000000E+00 -0.92397803813E+02  0.92397803813E+02  0.00000000000E+00 0.  1.
         23    2    1    2    0    0  0.37687753087E+01 -0.10243185571E+02  0.78946137071E+01  0.12581438488E+03  0.12509119872E+03 0.  0.
          5    1    3    3  502    0  0.41989323869E+02  0.41507642472E+02 -0.71256690713E+01  0.59617407376E+02  0.41800000000E+01 0.  1.
         -5    1    3    3    0  502 -0.38220548560E+02 -0.51750828043E+02  0.15020282778E+02  0.66196977500E+02  0.41800000000E+01 0.  1.
        -11    1    1    2    0    0  0.38628326533E+02  0.71190151326E+00  0.23091317666E+02  0.45009591934E+02  0.00000000000E+00 0.  1.
         11    1    1    2    0    0 -0.42397101841E+02  0.95312840577E+01 -0.14772017336E+01  0.43480360455E+02  0.00000000000E+00 0. -1.
</event>
<event>
 7    1  0.6506388E-006  0.2602149E+03  0.7561462E-02  0.1107014E+00
         -3   -1    0    0    0  501 -0.00000000000E+00  0.00000000000E+00  0.39468452292E+03  0.39468452292E+03  0.00000000000E+00 0.  1.
          3   -1    0    0  501    0  0.00000000000E+00 -0.00000000000E+00 -0.18028288612E+03  0.18028288612E+03  0.00000000000E+00 0. -1.
         23    2    1    2    0    0  0.20399154696E+03  0.13135287515E+03  0.12230345748E+03  0.29912138566E+03  0.12509731653E+03 0.  0.
          5    1    3    3  502    0  0.16352348722E+03  0.14491757075E+03  0.65882532909E+02  0.22825208373E+03  0.41800000000E+01 0. -1.
         -5    1    3    3    0  502  0.40468059745E+02 -0.13564695597E+02  0.56420924576E+02  0.70869301931E+02  0.41800000000E+01 0. -1.
        -11    1    1    2    0    0 -0.10064128587E+03 -0.12358342761E+02  0.47988781411E+02  0.11217985647E+03  0.00000000000E+00 0.  1.
         11    1    1    2    0    0 -0.10335026109E+03 -0.11899453239E+03  0.44109397903E+02  0.16366616691E+03  0.00000000000E+00 0. -1.
</event>
<event>
 7    1  0.6506388E-006  0.2289867E+03  0.7561462E-02  0.1127355E+00
         -2   -1    0    0    0  501 -0.00000000000E+00  0.00000000000E+00  0.35805674648E+02  0.35805674648E+02  0.00000000000E+00 0.  1.
          2   -1    0    0  501    0  0.00000000000E+00 -0.00000000000E+00 -0.16690119818E+04  0.16690119818E+04  0.00000000000E+00 0. -1.
         23    2    1    2    0    0 -0.20959899129E+03  0.39079110545E+02 -0.99081415935E+03  0.10211843013E+04  0.12508303161E+03 0.  0.
          5    1    3    3  502    0 -0.16627827750E+03 -0.14409189480E+02 -0.54284023931E+03  0.56793405262E+03  0.41800000000E+01 0. -1.
         -5    1    3    3    0  502 -0.43320713791E+02  0.53488300025E+02 -0.44797392004E+03  0.45325024867E+03  0.41800000000E+01 0. -1.
        -11    1    1    2    0    0  0.15405416998E+03 -0.56126407886E+02 -0.36370377031E+03  0.39895274594E+03  0.00000000000E+00 0.  1.
         11    1    1    2    0    0  0.55544821307E+02  0.17047297341E+02 -0.27868837749E+03  0.28468060922E+03  0.00000000000E+00 0. -1.
</event>
<event>
 7    1  0.6506388E-006  0.1155459E+03  0.7561462E-02  0.1250631E+00
          1   -1    0    0  501    0  0.00000000000E+00  0.00000000000E+00  0.22893761088E+03  0.22893761088E+03  0.00000000000E+00 0. -1.
         -1   -1    0    0    0  501 -0.00000000000E+00 -0.00000000000E+00 -0.65450301052E+02  0.65450301052E+02  0.00000000000E+00 0.  1.
         23    2    1    2    0    0  0.94205331952E+01 -0.55952912992E+02  0.80144968361E+02  0.15903153860E+03  0.12509332275E+03 0.  0.
          5    1    3    3  502    0  0.19281348537E+02  0.31154852825E+02  0.57642419986E+02  0.68428913756E+02  0.41800000000E+01 0.  1.
         -5    1    3    3    0  502 -0.98608153418E+01 -0.87107765817E+02  0.22502548374E+02  0.90602624842E+02  0.41800000000E+01 0.  1.
        -11    1    1    2    0    0 -0.47822324709E+02  0.14562393298E+02  0.34972630721E+02  0.61009203721E+02  0.00000000000E+00 0.  1.
         11    1    1    2    0    0  0.38401791514E+02  0.41390519695E+02  0.48369710750E+02  0.74347169617E+02  0.00000000000E+00 0. -1.
</event>
<event>
 7    1  0.6506388E-006  0.1366239E+03  0.7561462E-02  0.1217945E+00
         -2   -1    0    0    0  501 -0.00000000000E+00  0.00000000000E+00  0.16449573434E+03  0.16449573434E+03  0.00000000000E+00 0.  1.
          2   -1    0    0  501    0  0.00000000000E+00 -0.00000000000E+00 -0.12133362789E+03  0.12133362789E+03  0.00000000000E+00 0. -1.
         23    2    1    2    0    0  0.73110315218E+02  0.50917354458E+02  0.41779082153E+02  0.15915000752E+03  0.12508212507E+03 0.  0.
          5    1    3    3  502    0  0.37517338325E+02 -0.39051386273E+02  0.28689331564E+02  0.61425659056E+02  0.41800000000E+01 0.  1.
         -5    1    3    3    0  502  0.35592976893E+02  0.89968740730E+02  0.13089750588E+02  0.97724348466E+02  0.41800000000E+01 0.  1.
        -11    1    1    2    0    0 -0.13808987984E+02 -0.60467747737E+02 -0.16177598357E+02  0.64099542542E+02  0.00000000000E+00 0. -1.
         11    1    1    2    0    0 -0.59301327234E+02  0.95503932790E+01  0.17560622655E+02  0.62579812172E+02  0.00000000000E+00 0.  1.
</event>
<event>
 7    1  0.6506388E-006  0.9265459E+02  0.7561462E-02  0.1296548E+00
          1   -1    0    0  501    0  0.00000000000E+00  0.00000000000E+00  0.91554532130E+02  0.91554532130E+02  0.00000000000E+00 0.  1.
         -1   -1    0    0    0  501 -0.00000000000E+00 -0.00000000000E+00 -0.16998209305E+03  0.16998209305E+03  0.00000000000E+00 0. -1.
         23    2    1    2    0    0  0.81312530391E+01  0.46351377948E+02 -0.79875637370E+02  0.15569543879E+03  0.12508550956E+03 0.  0.
          5    1    3    3  502    0  0.17056157686E+02  0.88566958606E+02 -0.53472866139E+02  0.10493730740E+03  0.41800000000E+01 0.  1.
         -5    1    3    3    0  502 -0.89249046472E+01 -0.42215580658E+02 -0.26402771232E+02  0.50758131387E+02  0.41800000000E+01 0.  1.
        -11    1    1    2    0    0 -0.13614847018E+02 -0.16861450991E+02 -0.45346034653E+02  0.50258685295E+02  0.00000000000E+00 0. -1.
         11    1    1    2    0    0  0.54835939784E+01 -0.29489926957E+02  0.46794111100E+02  0.55582501100E+02  0.00000000000E+00 0.  1.
</event>
<event>
 7    1  0.6506388E-006  0.9830303E+02  0.7561462E-02  0.1283905E+00
         -3   -1    0    0    0  501 -0.00000000000E+00  0.00000000000E+00  0.80717361023E+03  0.80717361023E+03  0.00000000000E+00 0.  1.
          3   -1    0    0  501    0  0.00000000000E+00 -0.00000000000E+00 -0.16861977230E+02  0.16861977230E+02  0.00000000000E+00 0. -1.
         23    2    1    2    0    0  0.24352798796E+00  0.76136808759E+01  0.60028770300E+03  0.61322946870E+03  0.12508807880E+03 0.  0.
          5    1    3    3  502    0  0.48599556924E+02  0.33265744269E+02  0.18157440257E+03  0.19093261310E+03  0.41800000000E+01 0. -1.
         -5    1    3    3    0  502 -0.48356028936E+02 -0.25652063393E+02  0.41871330043E+03  0.42229685560E+03  0.41800000000E+01 0. -1.
        -11    1    1    2    0    0 -0.14001821409E+02 -0.42721838113E+02  0.57313455600E+02  0.72842560687E+02  0.00000000000E+00 0. -1.
         11    1    1    2    0    0  0.13758293421E+02  0.35108157238E+02  0.13271047440E+03  0.13796355808E+03  0.00000000000E+00 0.  1.
</event>
<event>
 6    1  0.6506388E-006  0.1689300E+03  0.7561462E-02  0.1178968E+00
          2   -1    0    0  501    0  0.00000000000E+00  0.00000000000E+00  0.21895707023E+03  0.21895707023E+03  0.00000000000E+00 0. -1.
         -2   -1    0    0    0  501 -0.00000000000E+00 -0.00000000000E+00 -0.28800029451E+03  0.28800029451E+03  0.00000000000E+00 0.  1.
          5    1    1    2  502    0 -0.42613836028E+02  0.87750561742E+02 -0.13579516470E+03  0.16725399625E+03  0.41800000000E+01 0. -1.
         -5    1    1    2    0  502 -0.68064526583E+02 -0.72062595493E+02 -0.84568676620E+02  0.13036537467E+03  0.41800000000E+01 0.  1.
        -11    1    1    2    0    0  0.50761072032E+02 -0.50589281302E+02  0.53495832158E+02  0.89430229088E+02  0.00000000000E+00 0. -1.
         11    1    1    2    0    0  0.59917290579E+02  0.34901315053E+02  0.97824784883E+02  0.11990776472E+03  0.00000000000E+00 0.  1.
</event>
<event>
 7    1  0.6506388E-006  0.2617113E+03  0.7561462E-02  0.1106119E+00
          2   -1    0    0  501    0  0.00000000000E+00  0.00000000000E+00  0.83120159227E+03  0.83120159227E+03  0.00000000000E+00 0. -1.
         -2   -1    0    0    0  501 -0.00000000000E+00 -0.00000000000E+00 -0.88202613514E+02  0.88202613514E+02  0.00000000000E+00 0.  1.
         23    2    1    2    0    0  0.11247616604E+03 -0.22054216062E+03  0.38801601613E+03  0.47696348810E+03  0.12509199683E+03 0.  0.
          5    1    3    3  502    0  0.12046529512E+03 -0.12996823683E+03  0.30991527413E+03  0.35702742115E+03  0.41800000000E+01 0.  1.
         -5    1    3    3    0  502 -0.79891290820E+01 -0.90573923797E+02  0.78100741992E+02  0.11993606695E+03  0.41800000000E+01 0.  1.
        -11    1    1    2    0    0 -0.26202194954E+02  0.11921526476E+03  0.11330036502E+03  0.16654070699E+03  0.00000000000E+00 0. -1.
         11    1    1    2    0    0 -0.86273971085E+02  0.10132689587E+03  0.24168259762E+03  0.27590001070E+03  0.00000000000E+00 0.  1.
</event>
<event>
 7    1  0.6506388E-006  0.1205834E+03  0.7561462E-02  0.1242138E+00
         -2   -1    0    0    0  501 -0.00000000000E+00  0.00000000000E+00  0.63798102434E+03  0.63798102434E+03  0.00000000000E+00 0.  1.
          2   -1    0    0  501    0  0.00000000000E+00 -0.00000000000E+00 -0.33221150902E+02  0.33221150902E+02  0.00000000000E+00 0. -1.
         23    2    1    2    0    0 -0.40671497819E+02  0.78270195778E+02  0.42194029311E+03  0.44884482754E+03  0.12509066305E+03 0.  0.
          5    1    3    3  502    0 -0.67887260014E+02 -0.11575208996E+01  0.16389574041E+03  0.17745226415E+03  0.41800000000E+01 0. -1.
         -5    1    3    3    0  502  0.27215762195E+02  0.79427716678E+02  0.25804455270E+03  0.27139256340E+03  0.41800000000E+01 0. -1.
        -11    1    1    2    0    0  0.17223932576E+02 -0.46520721067E+02  0.17529283186E+03  0.18217688724E+03  0.00000000000E+00 0.  1.
         11    1    1    2    0    0  0.23447565243E+02 -0.31749474711E+02  0.75267484678E+01  0.40180460460E+02  0.00000000000E+00 0. -1.
</event>
<event>
 7    1  0.6506388E-006  0.1042492E+03  0.7561462E-02  0.1271606E+00
         -1   -1    0    0    0  501 -0.00000000000E+00  0.00000000000E+00  0.52562348739E+02  0.52562348739E+02  0.00000000000E+00 0.  1.
          1   -1    0    0  501    0  0.00000000000E+00 -0.00000000000E+00 -0.32604796090E+03  0.32604796090E+03  0.00000000000E+00 0. -1.
         23    2    1    2    0    0  0.47745604825E+01 -0.16184201365E+02 -0.48384188012E+02  0.13517732344E+03  0.12508858590E+03 0.  0.
          5    1    3    3  502    0  0.61255470090E+02 -0.28524069091E+02 -0.19725267463E+02  0.70515343791E+02  0.41800000000E+01 0. -1.
         -5    1    3    3    0  502 -0.56480909608E+02  0.12339867726E+02 -0.28658920549E+02  0.64661979653E+02  0.41800000000E+01 0. -1.
        -11    1    1    2    0    0  0.30551143167E+02 -0.16487349537E+02 -0.43990427461E+02  0.56038939602E+02  0.00000000000E+00 0.  1.
         11    1    1    2    0    0 -0.35325703650E+02  0.32671550902E+02 -0.18111099669E+03  0.18739404659E+03  0.00000000000E+00 0. -1.
</event>
<event>
 7    1  0.8615803E-006  0.2087701E+03  0.7561462E-02  0.1142544E+00
         -1   -1    0    0    0  501 -0.00000000000E+00  0.00000000000E+00  0.47361481897E+02  0.47361481897E+02  0.00000000000E+00 0.  1.
          1   -1    0    0  501    0  0.00000000000E+00 -0.00000000000E+00 -0.97887132191E+03  0.97887132191E+03  0.00000000000E+00 0. -1.
         23    2    1    2    0    0  0.73586071198E+02 -0.17139857291E+03 -0.50636206652E+03  0.55393344183E+03  0.12508930768E+03 0.  0.
          5    1    3    3  502    0  0.99791431708E+02 -0.12071817314E+03 -0.43570954563E+03  0.46302428416E+03  0.41800000000E+01 0. -1.
         -5    1    3    3    0  502 -0.26205360510E+02 -0.50680399767E+02 -0.70652520890E+02  0.90909157669E+02  0.41800000000E+01 0. -1.
        -11    1    1    2    0    0 -0.87517598419E+02  0.10935342367E+03 -0.25988984792E+03  0.29522912179E+03  0.00000000000E+00 0.  1.
         11    1    1    2    0    0  0.13931527221E+02  0.62045149244E+02 -0.16525792558E+03  0.17707024019E+03  0.00000000000E+00 0. -1.
</event>
<event>
 7    1  0.6506388E-006  0.1454182E+03  0.7561462E-02  0.1206219E+00
         -1   -1    0    0    0  501 -0.00000000000E+00  0.00000000000E+00  0.93418065145E+02  0.93418065145E+02  0.00000000000E+00 0.  1.
          1   -1    0    0  501    0  0.00000000000E+00 -0.00000000000E+00 -0.29922140760E+03  0.29922140760E+03  0.00000000000E+00 0. -1.
         23    2    1    2    0    0 -0.30595368610E+02  0.92568615738E+02 -0.15603894551E+02  0.15930950792E+03  0.12502404804E+03 0.  0.
          5    1    3    3  502    0 -0.39360514499E+02 -0.18902657306E+02  0.89164166482E+01  0.44760869525E+02  0.41800000000E+01 0.  1.
         -5    1    3    3    0  502  0.87651458880E+01  0.11147127304E+03 -0.24520311199E+02  0.11454863839E+03  0.41800000000E+01 0.  1.
        -11    1    1    2    0    0  0.45922970537E+02 -0.50173501407E+01 -0.61356378911E+02  0.76802983395E+02  0.00000000000E+00 0.  1.
         11    1    1    2    0    0 -0.15327601926E+02 -0.87551265597E+02 -0.12884306899E+03  0.15652698143E+03  0.00000000000E+00 0. -1.
</event>
<event>
 7    1  0.6506388E-006  0.1316512E+03  0.7561462E-02  0.1225026E+00
         -1   -1    0    0    0  501 -0.00000000000E+00  0.00000000000E+00  0.23400411438E+02  0.23400411438E+02  0.00000000000E+00 0. -1.
          1   -1    0    0  501    0  0.00000000000E+00 -0.00000000000E+00 -0.74805338757E+03  0.74805338757E+03  0.00000000000E+00 0.  1.
         23    2    1    2    0    0  0.38461916617E+02  0.65934303066E+02 -0.40232105093E+03  0.42817745214E+03  0.12508817351E+03 0.  0.
          5    1    3    3  502    0  0.83356690072E+02  0.31605737497E+02 -0.26492959339E+03  0.27955754735E+03  0.41800000000E+01 0. -1.
         -5    1    3    3    0  502 -0.44894773456E+02  0.34328565569E+02 -0.13739145754E+03  0.14861990480E+03  0.41800000000E+01 0. -1.
        -11    1    1    2    0    0  0.19516292943E+02  0.99362335612E+01 -0.75726288352E+02  0.78829468952E+02  0.00000000000E+00 0.  1.
         11    1    1    2    0    0 -0.57978209560E+02 -0.75870536627E+02 -0.24660563685E+03  0.26444687791E+03  0.00000000000E+00 0. -1.
</event>
<event>
 7    1  0.6506388E-006  0.1050568E+03  0.7561462E-02  0.1270008E+00
         -2   -1    0    0    0  501 -0.00000000000E+00  0.00000000000E+00  0.29514521568E+02  0.29514521568E+02  0.00000000000E+00 0.  1.
          2   -1    0    0  501    0  0.00000000000E+00 -0.00000000000E+00 -0.47693624798E+03  0.47693624798E+03  0.00000000000E+00 0. -1.
         23    2    1    2    0    0  0.38363163702E+02 -0.29180021461E+02 -0.26073406745E+03  0.29317626297E+03  0.12508741447E+03 0.  0.
          5    1    3    3  502    0 -0.15635920088E+02 -0.65013701637E+02 -0.15825500933E+03  0.17185279682E+03  0.41800000000E+01 0.  1.
         -5    1    3    3    0  502  0.53999083790E+02  0.35833680176E+02 -0.10247905812E+03  0.12132346615E+03  0.41800000000E+01 0.  1.
        -11    1    1    2    0    0 -0.14686930329E+02 -0.19281479832E+02 -0.63671676954E+01  0.25060371336E+02  0.00000000000E+00 0.  1.
         11    1    1    2    0    0 -0.23676233373E+02  0.48461501293E+02 -0.18032049127E+03  0.18821413524E+03  0.00000000000E+00 0. -1.
</event>
<event>
 7    1  0.6506388E-006  0.1128311E+03  0.7561462E-02  0.1255415E+00
          2   -1    0    0  501    0  0.00000000000E+00  0.00000000000E+00  0.64886172815E+02  0.64886172815E+02  0.00000000000E+00 0. -1.
         -2   -1    0    0    0  501 -0.00000000000E+00 -0.00000000000E+00 -0.22548442920E+03  0.22548442920E+03  0.00000000000E+00 0.  1.
         23    2    1    2    0    0  0.30301464003E+02 -0.68523178301E+01 -0.14044313934E+03  0.19062102795E+03  0.12508784086E+03 0.  0.
          5    1    3    3  502    0  0.79315350806E+02 -0.40410802382E+01 -0.83277173981E+02  0.11515127142E+03  0.41800000000E+01 0.  1.
         -5    1    3    3    0  502 -0.49013886803E+02 -0.28112375919E+01 -0.57165965358E+02  0.75469756536E+02  0.41800000000E+01 0.  1.
        -11    1    1    2    0    0 -0.60346721673E+02  0.20674294187E+02 -0.19378185431E+02  0.66668338268E+02  0.00000000000E+00 0.  1.
         11    1    1    2    0    0  0.30045257670E+02 -0.13821976357E+02 -0.77693161568E+00  0.33081235793E+02  0.00000000000E+00 0. -1.
</event>
<event>
 7    1  0.6506388E-006  0.8962411E+02  0.7561462E-02  0.1303765E+00
         -2   -1    0    0    0  501 -0.00000000000E+00  0.00000000000E+00  0.79562352919E+02  0.79562352919E+02  0.00000000000E+00 0.  1.
          2   -1    0    0  501    0  0.00000000000E+00 -0.00000000000E+00 -0.17718657191E+03  0.17718657191E+03  0.00000000000E+00 0. -1.
         23    2    1    2    0    0  0.16976107112E+02 -0.49051392917E+01 -0.61971880671E+01  0.12648394225E+03  0.12509010314E+03 0.  0.
          5    1    3    3  502    0  0.21048478881E+02 -0.45941113649E+02 -0.46406559990E+02  0.68736202954E+02  0.41800000000E+01 0. -1.
         -5    1    3    3    0  502 -0.40723717696E+01  0.41035974357E+02  0.40209371923E+02  0.57747739295E+02  0.41800000000E+01 0. -1.
        -11    1    1    2    0    0 -0.42600953694E+02 -0.23650778623E+02 -0.72833399650E+02  0.87629359747E+02  0.00000000000E+00 0. -1.
         11    1    1    2    0    0  0.25624846582E+02  0.28555917915E+02 -0.18593631274E+02  0.42635622832E+02  0.00000000000E+00 0.  1.
</event>
<event>
 7    1  0.6506388E-006  0.8657497E+02  0.7561462E-02  0.1311364E+00
          2   -1    0    0  501    0  0.00000000000E+00  0.00000000000E+00  0.29657678482E+03  0.29657678482E+03  0.00000000000E+00 0. -1.
         -2   -1    0    0    0  501 -0.00000000000E+00 -0.00000000000E+00 -0.44831527875E+02  0.44831527875E+02  0.00000000000E+00 0.  1.
         23    2    1    2    0    0  0.34591091390E+01  0.36167338837E+02  0.12199103459E+03  0.17846548437E+03  0.12509226497E+03 0.  0.
          5    1    3    3  502    0  0.15957552829E+02  0.51859492842E+02 -0.34909785990E+00  0.54420995576E+02  0.41800000000E+01 0. -1.
         -5    1    3    3    0  502 -0.12498443690E+02 -0.15692154006E+02  0.12234013245E+03  0.12404448880E+03  0.41800000000E+01 0. -1.
        -11    1    1    2    0    0 -0.30487566198E+02  0.19614965869E+02  0.41634596717E+02  0.55205780698E+02  0.00000000000E+00 0. -1.
         11    1    1    2    0    0  0.27028457059E+02 -0.55782304705E+02  0.88119625635E+02  0.10773704763E+03  0.00000000000E+00 0.  1.
</event>
<event>
 7    1  0.6506388E-006  0.9749922E+02  0.7561462E-02  0.1285644E+00
         -2   -1    0    0    0  501 -0.00000000000E+00  0.00000000000E+00  0.27715377235E+03  0.27715377235E+03  0.00000000000E+00 0.  1.
          2   -1    0    0  501    0  0.00000000000E+00 -0.00000000000E+00 -0.59913604054E+02  0.59913604054E+02  0.00000000000E+00 0. -1.
         23    2    1    2    0    0  0.61221069119E+02  0.33223337151E+02  0.12568072889E+03  0.19050656245E+03  0.12508115480E+03 0.  0.
          5    1    3    3  502    0 -0.31048363087E+01  0.47961859805E+02 -0.27950115377E+00  0.48244486994E+02  0.41800000000E+01 0.  1.
         -5    1    3    3    0  502  0.64325905427E+02 -0.14738522653E+02  0.12596023004E+03  0.14226207545E+03  0.41800000000E+01 0.  1.
        -11    1    1    2    0    0 -0.60475490475E+02 -0.14890450598E+02  0.10142641959E+02  0.63102168370E+02  0.00000000000E+00 0. -1.
         11    1    1    2    0    0 -0.74557864409E+00 -0.18332886554E+02  0.81416797442E+02  0.83458645583E+02  0.00000000000E+00 0.  1.
</event>
<event>
 7    1  0.6506388E-006  0.8296077E+02  0.7561462E-02  0.1320853E+00
          2   -1    0    0  501    0  0.00000000000E+00  0.00000000000E+00  0.29420218870E+03  0.29420218870E+03  0.00000000000E+00 0.  1.
         -2   -1    0    0    0  501 -0.00000000000E+00 -0.00000000000E+00 -0.46312769590E+02  0.46312769590E+02  0.00000000000E+00 0. -1.
         23    2    1    2    0    0  0.52603594842E+02  0.18924313371E+02  0.12915746068E+03  0.18171906520E+03  0.11495608370E+03 0.  0.
          5    1    3    3  502    0  0.30787634319E+02 -0.72436795728E+01  0.14164512572E+03  0.14519353760E+03  0.41800000000E+01 0.  1.
         -5    1    3    3    0  502  0.21815960523E+02  0.26167992944E+02 -0.12487665036E+02  0.36525527598E+02  0.41800000000E+01 0. -1.
        -11    1    1    2    0    0 -0.70954721863E+02 -0.31308167706E+02  0.11086898524E+03  0.13530227570E+03  0.00000000000E+00 0. -1.
         11    1    1    2    0    0  0.18351127021E+02  0.12383854334E+02  0.78629731852E+01  0.23493617398E+02  0.00000000000E+00 0.  1.
</event>
<event>
 7    1  0.6506388E-006  0.1716541E+03  0.7561462E-02  0.1176134E+00
         -1   -1    0    0    0  501 -0.00000000000E+00  0.00000000000E+00  0.23450293867E+03  0.23450293867E+03  0.00000000000E+00 0.  1.
          1   -1    0    0  501    0  0.00000000000E+00 -0.00000000000E+00 -0.17511925300E+03  0.17511925300E+03  0.00000000000E+00 0. -1.
         23    2    1    2    0    0  0.12302729509E+03 -0.10249103015E+03  0.90059490297E+02  0.22225020973E+03  0.12507724546E+03 0.  0.
          5    1    3    3  502    0  0.10030324213E+03 -0.58953306936E+02  0.11785779707E+03  0.16566280666E+03  0.41800000000E+01 0.  1.
         -5    1    3    3    0  502  0.22724052966E+02 -0.43537723215E+02 -0.27798306777E+02  0.56587403065E+02  0.41800000000E+01 0.  1.
        -11    1    1    2    0    0 -0.14641850698E+02  0.59039773741E+02 -0.35631702102E+02  0.70496076982E+02  0.00000000000E+00 0. -1.
         11    1    1    2    0    0 -0.10838544439E+03  0.43451256410E+02  0.49558974797E+01  0.11687590496E+03  0.00000000000E+00 0.  1.
</event>
<event>
 7    1  0.6506388E-006  0.9411573E+02  0.7561462E-02  0.1293180E+00
          1   -1    0    0  501    0  0.00000000000E+00  0.00000000000E+00  0.46848894235E+03  0.46848894235E+03  0.00000000000E+00 0. -1.
         -1   -1    0    0    0  501 -0.00000000000E+00 -0.00000000000E+00 -0.26586904773E+02  0.26586904773E+02  0.00000000000E+00 0.  1.
         23    2    1    2    0    0  0.28607893715E+01 -0.24785792378E+02  0.28035366399E+03  0.30801024498E+03  0.12509841918E+03 0.  0.
          5    1    3    3  502    0 -0.45131776206E+02 -0.53127504688E+01  0.23390422329E+03  0.23831441546E+03  0.41800000000E+01 0. -1.
         -5    1    3    3    0  502  0.47992565578E+02 -0.19473041910E+02  0.46449440700E+02  0.69695829526E+02  0.41800000000E+01 0. -1.
        -11    1    1    2    0    0  0.20431004657E+02 -0.26996189498E+02  0.87010607777E+02  0.93365229419E+02  0.00000000000E+00 0. -1.
         11    1    1    2    0    0 -0.23291794029E+02  0.51781981877E+02  0.74537765802E+02  0.93700372715E+02  0.00000000000E+00 0.  1.
</event>
<event>
 7    1  0.6506388E-006  0.9122827E+02  0.7561462E-02  0.1299904E+00
         -1   -1    0    0    0  501 -0.00000000000E+00  0.00000000000E+00  0.16957312602E+02  0.16957312602E+02  0.00000000000E+00 0.  1.
          1   -1    0    0  501    0  0.00000000000E+00 -0.00000000000E+00 -0.78336495725E+03  0.78336495725E+03  0.00000000000E+00 0. -1.
         23    2    1    2    0    0 -0.22893613955E+02 -0.14822951037E+02 -0.33585025749E+03  0.35942268703E+03  0.12508171354E+03 0.  0.
          5    1    3    3  502    0 -0.55428975142E+02 -0.47019103435E+00 -0.62119271559E+02  0.83359874424E+02  0.41800000000E+01 0.  1.
         -5    1    3    3    0  502  0.32535361187E+02 -0.14352760003E+02 -0.27373098593E+03  0.27606281261E+03  0.41800000000E+01 0.  1.
        -11    1    1    2    0    0 -0.25506698414E+02  0.30895182991E+02 -0.12958479881E+03  0.13563673573E+03  0.00000000000E+00 0.  1.
         11    1    1    2    0    0  0.48400312369E+02 -0.16072231954E+02 -0.30097258834E+03  0.30526284708E+03  0.00000000000E+00 0. -1.
</event>
<event>
 7    1  0.6506388E-006  0.9600874E+02  0.7561462E-02  0.1288920E+00
         -1   -1    0    0    0  501 -0.00000000000E+00  0.00000000000E+00  0.44177797097E+02  0.44177797097E+02  0.00000000000E+00 0.  1.
          1   -1    0    0  501    0  0.00000000000E+00 -0.00000000000E+00 -0.39642200228E+03  0.39642200228E+03  0.00000000000E+00 0. -1.
         23    2    1    2    0    0 -0.20136056892E+02  0.14950626354E+02 -0.62006334759E+02  0.13519861936E+03  0.11749425139E+03 0.  0.
          5    1    3    3  502    0  0.39819076609E+02 -0.25323340863E+02 -0.30105782715E+02  0.56130749214E+02  0.41800000000E+01 0. -1.
         -5    1    3    3    0  502 -0.59955133500E+02  0.40273967217E+02 -0.31900552045E+02  0.79067870145E+02  0.41800000000E+01 0.  1.
        -11    1    1    2    0    0  0.41450415758E+02 -0.25342493912E+02 -0.26966920321E+03  0.27401068980E+03  0.00000000000E+00 0. -1.
         11    1    1    2    0    0 -0.21314358866E+02  0.10391867558E+02 -0.20568667210E+02  0.31390490216E+02  0.00000000000E+00 0.  1.
</event>
<event>
 6    1  0.6506388E-006  0.1075201E+03  0.7561462E-02  0.1265232E+00
          3   -1    0    0  501    0  0.00000000000E+00  0.00000000000E+00  0.10189453770E+03  0.10189453770E+03  0.00000000000E+00 0. -1.
         -3   -1    0    0    0  501 -0.00000000000E+00 -0.00000000000E+00 -0.14554670539E+03  0.14554670539E+03  0.00000000000E+00 0.  1.
          5    1    1    2  502    0 -0.59866532196E+01 -0.69944809702E+02 -0.48076431029E+02  0.85187628454E+02  0.41800000000E+01 0. -1.
         -5    1    1    2    0  502  0.28242193605E+02  0.56410217053E+02 -0.10486489187E+02  0.64087229172E+02  0.41800000000E+01 0.  1.
        -11    1    1    2    0    0 -0.50425188115E+02  0.16761468353E+02 -0.16701996297E+02  0.55701015234E+02  0.00000000000E+00 0. -1.
         11    1    1    2    0    0  0.28169647730E+02 -0.32268757034E+01  0.31612748827E+02  0.42465370226E+02  0.00000000000E+00 0.  1.
</event>
<event>
 6    1  0.6506388E-006  0.2768889E+03  0.7561462E-02  0.1097400E+00
         -1   -1    0    0    0  501 -0.00000000000E+00  0.00000000000E+00  0.29300548891E+03  0.29300548891E+03  0.00000000000E+00 0.  1.
          1   -1    0    0  501    0  0.00000000000E+00 -0.00000000000E+00 -0.36397724292E+03  0.36397724292E+03  0.00000000000E+00 0. -1.
          5    1    1    2  502    0  0.22158183582E+03 -0.23406936010E+02  0.98302809669E+02  0.24357197993E+03  0.41800000000E+01 0. -1.
         -5    1    1    2    0  502 -0.24630975661E+03  0.76704289277E+01 -0.35940990735E+02  0.24907139317E+03  0.41800000000E+01 0.  1.
        -11    1    1    2    0    0  0.40717768528E+02 -0.19958754419E+02 -0.31392478419E+02  0.55152300524E+02  0.00000000000E+00 0.  1.
         11    1    1    2    0    0 -0.15989847738E+02  0.35695261502E+02 -0.10194109453E+03  0.10918705820E+03  0.00000000000E+00 0. -1.
</event>
<event>
 7    1  0.6506388E-006  0.1547958E+03  0.7561462E-02  0.1194701E+00
         -2   -1    0    0    0  501 -0.00000000000E+00  0.00000000000E+00  0.20896484784E+02  0.20896484784E+02  0.00000000000E+00 0.  1.
          2   -1    0    0  501    0  0.00000000000E+00 -0.00000000000E+00 -0.15509045084E+04  0.15509045084E+04  0.00000000000E+00 0. -1.
         23    2    1    2    0    0 -0.12862901421E+03  0.59249244532E+02 -0.71193078772E+03  0.73657838350E+03  0.12508545984E+03 0.  0.
          5    1    3    3  502    0 -0.11348294554E+03  0.42836972831E+02 -0.70088259588E+03  0.71131376394E+03  0.41800000000E+01 0. -1.
         -5    1    3    3    0  502 -0.15146068669E+02  0.16412271700E+02 -0.11048191844E+02  0.25264619560E+02  0.41800000000E+01 0. -1.
        -11    1    1    2    0    0  0.55135223044E+02  0.18840036087E+02 -0.21870660680E+03  0.22633475128E+03  0.00000000000E+00 0.  1.
         11    1    1    2    0    0  0.73493791163E+02 -0.78089280619E+02 -0.59937062912E+03  0.60888785842E+03  0.00000000000E+00 0. -1.
</event>
<event>
 7    1  0.6506388E-006  0.1015368E+03  0.7561462E-02  0.1277097E+00
          1   -1    0    0  501    0  0.00000000000E+00  0.00000000000E+00  0.39926404149E+02  0.39926404149E+02  0.00000000000E+00 0. -1.
         -1   -1    0    0    0  501 -0.00000000000E+00 -0.00000000000E+00 -0.32863535359E+03  0.32863535359E+03  0.00000000000E+00 0.  1.
         23    2    1    2    0    0  0.18788786721E+02  0.18824267295E+02 -0.18696222614E+03  0.22652506085E+03  0.12510538616E+03 0.  0.
          5    1    3    3  502    0 -0.34441279184E+02 -0.26133705809E+02 -0.12795032473E+03  0.13512190900E+03  0.41800000000E+01 0.  1.
         -5    1    3    3    0  502  0.53230065905E+02  0.44957973104E+02 -0.59011901407E+02  0.91403151858E+02  0.41800000000E+01 0.  1.
        -11    1    1    2    0    0 -0.52734942925E+02 -0.42853623156E+01 -0.28713598200E+02  0.60198083500E+02  0.00000000000E+00 0. -1.
         11    1    1    2    0    0  0.33946156204E+02 -0.14538904980E+02 -0.73033125099E+02  0.81838613385E+02  0.00000000000E+00 0.  1.
</event>
<event>
 7    1  0.6506388E-006  0.1445780E+03  0.7561462E-02  0.1207298E+00
          1   -1    0    0  501    0  0.00000000000E+00  0.00000000000E+00  0.26662047954E+03  0.26662047954E+03  0.00000000000E+00 0. -1.
         -1   -1    0    0    0  501 -0.00000000000E+00 -0.00000000000E+00 -0.10560488608E+03  0.10560488608E+03  0.00000000000E+00 0.  1.
         23    2    1    2    0    0  0.70546517444E+02 -0.10593265890E+03  0.93670772589E+02  0.20154753472E+03  0.12509458730E+03 0.  0.
          5    1    3    3  502    0  0.63496350474E+02 -0.12346484650E+03  0.10923964833E+03  0.17670916222E+03  0.41800000000E+01 0. -1.
         -5    1    3    3    0  502  0.70501669697E+01  0.17532187605E+02 -0.15568875745E+02  0.24838372501E+02  0.41800000000E+01 0. -1.
        -11    1    1    2    0    0 -0.31494628600E+02  0.74121877513E+02 -0.70417718103E+01  0.80842754202E+02  0.00000000000E+00 0.  1.
         11    1    1    2    0    0 -0.39051888843E+02  0.31810781385E+02  0.74386592677E+02  0.89835076694E+02  0.00000000000E+00 0. -1.
</event>
<event>
 7    1  0.6506388E-006  0.1173536E+03  0.7561462E-02  0.1247528E+00
         -1   -1    0    0    0  501 -0.00000000000E+00  0.00000000000E+00  0.30890902117E+03  0.30890902117E+03  0.00000000000E+00 0.  1.
          1   -1    0    0  501    0  0.00000000000E+00 -0.00000000000E+00 -0.47278264897E+02  0.47278264897E+02  0.00000000000E+00 0. -1.
         23    2    1    2    0    0 -0.17989640335E+02  0.48750238324E+02  0.12575743001E+03  0.18483229762E+03  0.12509130324E+03 0.  0.
          5    1    3    3  502    0 -0.32903066648E+02  0.86755650642E+02  0.99488096542E+02  0.13610477018E+03  0.41800000000E+01 0.  1.
         -5    1    3    3    0  502  0.14913426313E+02 -0.38005412317E+02  0.26269333464E+02  0.48727527440E+02  0.41800000000E+01 0.  1.
        -11    1    1    2    0    0 -0.24241561756E+02  0.11802891495E+02  0.18514334940E+02  0.32706913065E+02  0.00000000000E+00 0.  1.
         11    1    1    2    0    0  0.42231202091E+02 -0.60553129819E+02  0.11735899133E+03  0.13864807538E+03  0.00000000000E+00 0. -1.
</event>
<event>
 7    1  0.6506388E-006  0.9381769E+02  0.7561462E-02  0.1293861E+00
         -2   -1    0    0    0  501 -0.00000000000E+00  0.00000000000E+00  0.41485211219E+03  0.41485211219E+03  0.00000000000E+00 0.  1.
          2   -1    0    0  501    0  0.00000000000E+00 -0.00000000000E+00 -0.61382653436E+02  0.61382653436E+02  0.00000000000E+00 0. -1.
         23    2    1    2    0    0  0.14950398762E+01 -0.35986815660E+02  0.35536885789E+03  0.37845627198E+03  0.12507932922E+03 0.  0.
          5    1    3    3  502    0  0.51173712617E+02 -0.48522875570E+02  0.13727910839E+03  0.15438991002E+03  0.41800000000E+01 0. -1.
         -5    1    3    3    0  502 -0.49678672741E+02  0.12536059910E+02  0.21808974950E+03  0.22406636196E+03  0.41800000000E+01 0. -1.
        -11    1    1    2    0    0  0.24701188939E+02  0.53483026254E+01 -0.36675237685E+02  0.44540163170E+02  0.00000000000E+00 0. -1.
         11    1    1    2    0    0 -0.26196228816E+02  0.30638513035E+02  0.34775838549E+02  0.53238330476E+02  0.00000000000E+00 0.  1.
</event>
<event>
 7    1  0.6506388E-006  0.1669793E+03  0.7561462E-02  0.1181035E+00
          2   -1    0    0  501    0  0.00000000000E+00  0.00000000000E+00  0.54163791084E+03  0.54163791084E+03  0.00000000000E+00 0.  1.
         -2   -1    0    0    0  501 -0.00000000000E+00 -0.00000000000E+00 -0.52000167701E+02  0.52000167701E+02  0.00000000000E+00 0. -1.
         23    2    1    2    0    0  0.28300820937E+02  0.12601995721E+03  0.23921456358E+03  0.29924689695E+03  0.12507250629E+03 0.  0.
          5    1    3    3  502    0 -0.33600128888E+01 -0.24636402923E+02  0.25863324463E+02  0.36119606697E+02  0.41800000000E+01 0.  1.
         -5    1    3    3    0  502  0.31660833826E+02  0.15065636013E+03  0.21335123911E+03  0.26312729026E+03  0.41800000000E+01 0.  1.
        -11    1    1    2    0    0 -0.44615967684E+02 -0.22546366441E+02  0.83668897148E+02  0.97464904258E+02  0.00000000000E+00 0.  1.
         11    1    1    2    0    0  0.16315146747E+02 -0.10347359077E+03  0.16675428241E+03  0.19692627733E+03  0.00000000000E+00 0. -1.
</event>
<event>
 7    1  0.6506388E-006  0.1086569E+03  0.7561462E-02  0.1263078E+00
          2   -1    0    0  501    0  0.00000000000E+00  0.00000000000E+00  0.47174847030E+03  0.47174847030E+03  0.00000000000E+00 0. -1.
         -2   -1    0    0    0  501 -0.00000000000E+00 -0.00000000000E+00 -0.55254191520E+02  0.55254191520E+02  0.00000000000E+00 0.  1.
         23    2    1    2    0    0  0.48212570229E+02  0.62697772239E+02  0.66489529930E+02  0.15562974127E+03  0.11637996480E+03 0.  0.
          5    1    3    3  502    0  0.76321380798E+01  0.60658481026E+02  0.89712149393E+02  0.10864365145E+03  0.41800000000E+01 0. -1.
         -5    1    3    3    0  502  0.40580432149E+02  0.20392912130E+01 -0.23222619463E+02  0.46986089822E+02  0.41800000000E+01 0.  1.
        -11    1    1    2    0    0 -0.59889287799E+02 -0.93952927044E+01  0.11371695266E+03  0.12886637901E+03  0.00000000000E+00 0.  1.
         11    1    1    2    0    0  0.11676717570E+02 -0.53302479535E+02  0.23628779619E+03  0.24250654154E+03  0.00000000000E+00 0. -1.
</event>
<event>
 7    1  0.6506388E-006  0.1315158E+03  0.7561462E-02  0.1225224E+00
         -1   -1    0    0    0  501 -0.00000000000E+00  0.00000000000E+00  0.30342440712E+02  0.30342440712E+02  0.00000000000E+00 0.  1.
          1   -1    0    0  501    0  0.00000000000E+00 -0.00000000000E+00 -0.73266802519E+03  0.73266802519E+03  0.00000000000E+00 0. -1.
         23    2    1    2    0    0  0.23942060241E+02 -0.40246590613E+02 -0.26748254367E+03  0.29898005153E+03  0.12509656166E+03 0.  0.
          5    1    3    3  502    0  0.34034944244E+02 -0.76893559787E+02 -0.11979272726E+03  0.14641983087E+03  0.41800000000E+01 0.  1.
         -5    1    3    3    0  502 -0.10092884004E+02  0.36646969175E+02 -0.14768981641E+03  0.15256022066E+03  0.41800000000E+01 0.  1.
        -11    1    1    2    0    0  0.34498390246E+02 -0.32424005734E+02 -0.53452842655E+02  0.71404912053E+02  0.00000000000E+00 0.  1.
         11    1    1    2    0    0 -0.58440450486E+02  0.72670596347E+02 -0.38139019814E+03  0.39262550231E+03  0.00000000000E+00 0. -1.
</event>
<event>
 7    1  0.6506388E-006  0.1192127E+03  0.7561462E-02  0.1244402E+00
          4   -1    0    0  501    0  0.00000000000E+00  0.00000000000E+00  0.42306507789E+02  0.42306507789E+02  0.00000000000E+00 0. -1.
         -4   -1    0    0    0  501 -0.00000000000E+00 -0.00000000000E+00 -0.36426850211E+03  0.36426850211E+03  0.00000000000E+00 0.  1.
         23    2    1    2    0    0  0.43636618156E+02  0.31543647619E+02 -0.21501766020E+03  0.25451775977E+03  0.12509012627E+03 0.  0.
          5    1    3    3  502    0 -0.42598761592E+02 -0.33093322170E+01 -0.62408720678E+02  0.75749105510E+02  0.41800000000E+01 0. -1.
         -5    1    3    3    0  502  0.86235379747E+02  0.34852979836E+02 -0.15260893952E+03  0.17876865426E+03  0.41800000000E+01 0. -1.
        -11    1    1    2    0    0 -0.68775416500E+02 -0.10435266759E+02 -0.93609907442E+02  0.11662661565E+03  0.00000000000E+00 0.  1.
         11    1    1    2    0    0  0.25138798344E+02 -0.21108380860E+02 -0.13334426681E+02  0.35430634480E+02  0.00000000000E+00 0. -1.
</event>
<event>
 6    1  0.6506388E-006  0.7037962E+02  0.7561462E-02  0.1358807E+00
          2   -1    0    0  501    0  0.00000000000E+00  0.00000000000E+00  0.33362081282E+03  0.33362081282E+03  0.00000000000E+00 0. -1.
         -2   -1    0    0    0  501 -0.00000000000E+00 -0.00000000000E+00 -0.26602094968E+02  0.26602094968E+02  0.00000000000E+00 0.  1.
          5    1    1    2  502    0 -0.30901336781E+02  0.29511973480E+02  0.18594080806E+03  0.19083318814E+03  0.41800000000E+01 0. -1.
         -5    1    1    2    0  502  0.59665045701E+02 -0.12383054559E+02  0.29778609516E+02  0.67952157460E+02  0.41800000000E+01 0.  1.
        -11    1    1    2    0    0 -0.60320243579E+01 -0.12017431112E+02  0.64675196010E+02  0.66058193643E+02  0.00000000000E+00 0.  1.
         11    1    1    2    0    0 -0.22731684563E+02 -0.51114878094E+01  0.26624104267E+02  0.35379368546E+02  0.00000000000E+00 0. -1.
</event>
<event>
 7    1  0.6506388E-006  0.9406677E+02  0.7561462E-02  0.1293292E+00
          1   -1    0    0  501    0  0.00000000000E+00  0.00000000000E+00  0.37758272006E+03  0.37758272006E+03  0.00000000000E+00 0. -1.
         -1   -1    0    0    0  501 -0.00000000000E+00 -0.00000000000E+00 -0.34052059532E+02  0.34052059532E+02  0.00000000000E+00 0.  1.
         23    2    1    2    0    0  0.12619296882E+01  0.26418551001E+02  0.23157051390E+03  0.26452001739E+03  0.12508558826E+03 0.  0.
          5    1    3    3  502    0 -0.14463865046E+02  0.63111172936E+02  0.60189191987E+02  0.88501043912E+02  0.41800000000E+01 0.  1.
         -5    1    3    3    0  502  0.15725794735E+02 -0.36692621935E+02  0.17138132191E+03  0.17601897348E+03  0.41800000000E+01 0.  1.
        -11    1    1    2    0    0  0.35403628653E+02 -0.29821133539E+02  0.24842341579E+02  0.52534358876E+02  0.00000000000E+00 0.  1.
         11    1    1    2    0    0 -0.36665558341E+02  0.34025825382E+01  0.87117805051E+02  0.94580403326E+02  0.00000000000E+00 0. -1.
</event>
<event>
 7    1  0.6506388E-006  0.9796891E+02  0.7561462E-02  0.1284626E+00
          1   -1    0    0  501    0  0.00000000000E+00  0.00000000000E+00  0.59575234236E+02  0.59575234236E+02  0.00000000000E+00 0. -1.
         -1   -1    0    0    0  501 -0.00000000000E+00 -0.00000000000E+00 -0.34484005941E+03  0.34484005941E+03  0.00000000000E+00 0.  1.
         23    2    1    2    0    0 -0.74609812219E+01  0.40418873677E+02 -0.27212700675E+03  0.30223226509E+03  0.12490749646E+03 0.  0.
          5    1    3    3  502    0  0.34258058699E+02 -0.41483745797E+01 -0.14886129940E+02  0.37813924182E+02  0.41800000000E+01 0.  1.
         -5    1    3    3    0  502 -0.41719039920E+02  0.44567248256E+02 -0.25724087681E+03  0.26441834091E+03  0.41800000000E+01 0.  1.
        -11    1    1    2    0    0 -0.37964775510E+02 -0.39163295511E+02 -0.15421610202E+02  0.56682571889E+02  0.00000000000E+00 0.  1.
         11    1    1    2    0    0  0.45425756732E+02 -0.12555781660E+01  0.22837917826E+01  0.45500456658E+02  0.00000000000E+00 0. -1.
</event>
<event>
 7    1  0.6506388E-006  0.1330243E+03  0.7561462E-02  0.1223036E+00
          1   -1    0    0  501    0  0.00000000000E+00  0.00000000000E+00  0.12921997860E+02  0.12921997860E+02  0.00000000000E+00 0. -1.
         -1   -1    0    0    0  501 -0.00000000000E+00 -0.00000000000E+00 -0.14929525949E+04  0.14929525949E+04  0.00000000000E+00 0.  1.
         23    2    1    2    0    0  0.64361717540E+02 -0.49236534128E+02 -0.86882643866E+03  0.88151752163E+03  0.12508834256E+03 0.  0.
          5    1    3    3  502    0 -0.11387220037E+02 -0.69032418631E+02 -0.44798355987E+03  0.45343344155E+03  0.41800000000E+01 0.  1.
         -5    1    3    3    0  502  0.75748937577E+02  0.19795884503E+02 -0.42084287879E+03  0.42808408008E+03  0.41800000000E+01 0.  1.
        -11    1    1    2    0    0  0.15078041302E+02 -0.10317316941E+02 -0.33265814023E+02  0.37952717175E+02  0.00000000000E+00 0.  1.
         11    1    1    2    0    0 -0.79439758842E+02  0.59553851069E+02 -0.57793834433E+03  0.58640435393E+03  0.00000000000E+00 0. -1.
</event>
<event>
 7    1  0.6506388E-006  0.1035480E+03  0.7561462E-02  0.1273007E+00
         -3   -1    0    0    0  501 -0.00000000000E+00  0.00000000000E+00  0.19513794552E+03  0.19513794552E+03  0.00000000000E+00 0.  1.
          3   -1    0    0  501    0  0.00000000000E+00 -0.00000000000E+00 -0.70363087689E+02  0.70363087689E+02  0.00000000000E+00 0. -1.
         23    2    1    2    0    0  0.39941331539E+02  0.18038730675E+02  0.94940369995E+02  0.16304236938E+03  0.12509370323E+03 0.  0.
          5    1    3    3  502    0  0.22347658398E+02  0.72031189270E+02  0.56829007781E+02  0.94524698301E+02  0.41800000000E+01 0.  1.
         -5    1    3    3    0  502  0.17593673141E+02 -0.53992458595E+02  0.38111362214E+02  0.68517671075E+02  0.41800000000E+01 0.  1.
        -11    1    1    2    0    0 -0.25974480504E+02 -0.40534589959E+02 -0.14968372721E+02  0.50416056991E+02  0.00000000000E+00 0. -1.
         11    1    1    2    0    0 -0.13966851035E+02  0.22495859284E+02  0.44802860561E+02  0.52042606845E+02  0.00000000000E+00 0.  1.
</event>
<event>
 7    1  0.6506388E-006  0.1397033E+03  0.7561462E-02  0.1213729E+00
          2   -1    0    0  501    0  0.00000000000E+00  0.00000000000E+00  0.26086629214E+03  0.26086629214E+03  0.00000000000E+00 0. -1.
         -2   -1    0    0    0  501 -0.00000000000E+00 -0.00000000000E+00 -0.13128295322E+03  0.13128295322E+03  0.00000000000E+00 0.  1.
         23    2    1    2    0    0 -0.35909474955E+02 -0.85500647655E+02 -0.55776816283E+02  0.16540362146E+03  0.12508978223E+03 0.  0.
          5    1    3    3  502    0  0.44548568575E+02 -0.19808570376E+02 -0.32892813733E+02  0.58960698924E+02  0.41800000000E+01 0.  1.
         -5    1    3    3    0  502 -0.80458043530E+02 -0.65692077279E+02 -0.22884002550E+02  0.10644292254E+03  0.41800000000E+01 0.  1.
        -11    1    1    2    0    0  0.62658805994E+02  0.41932361433E+02  0.81753948911E+02  0.11121221635E+03  0.00000000000E+00 0. -1.
         11    1    1    2    0    0 -0.26749331039E+02  0.43568286222E+02  0.10360620630E+03  0.11553340754E+03  0.00000000000E+00 0.  1.
</event>
<event>
 7    1  0.6506388E-006  0.1122681E+03  0.7561462E-02  0.1256426E+00
          2   -1    0    0  501    0  0.00000000000E+00  0.00000000000E+00  0.71669013198E+03  0.71669013198E+03  0.00000000000E+00 0.  1.
         -2   -1    0    0    0  501 -0.00000000000E+00 -0.00000000000E+00 -0.20423040535E+02  0.20423040535E+02  0.00000000000E+00 0. -1.
         23    2    1    2    0    0 -0.50196522422E+02 -0.10615470522E+02  0.34170514038E+03  0.36748057175E+03  0.12508872282E+03 0.  0.
          5    1    3    3  502    0 -0.35835517510E+02  0.50131908933E+02  0.24212616252E+03  0.24987985830E+03  0.41800000000E+01 0. -1.
         -5    1    3    3    0  502 -0.14361004912E+02 -0.60747379456E+02  0.99578977859E+02  0.11760071345E+03  0.41800000000E+01 0. -1.
        -11    1    1    2    0    0  0.21401125229E+02 -0.38054618965E+02  0.20813977981E+03  0.21266953267E+03  0.00000000000E+00 0.  1.
         11    1    1    2    0    0  0.28795397193E+02  0.48670089487E+02  0.14642217126E+03  0.15696306809E+03  0.00000000000E+00 0. -1.
</event>
<event>
 7    1  0.6506388E-006  0.1487158E+03  0.7561462E-02  0.1202060E+00
          2   -1    0    0  501    0  0.00000000000E+00  0.00000000000E+00  0.19160137552E+03  0.19160137552E+03  0.00000000000E+00 0. -1.
         -2   -1    0    0    0  501 -0.00000000000E+00 -0.00000000000E+00 -0.13010967087E+03  0.13010967087E+03  0.00000000000E+00 0.  1.
         23    2    1    2    0    0 -0.11530479334E+03 -0.40305328413E+01  0.36617224742E+02  0.17406901941E+03  0.12509101410E+03 0.  0.
          5    1    3    3  502    0  0.20593020482E+02  0.91417145346E+01 -0.15717899763E+02  0.27787914822E+02  0.41800000000E+01 0. -1.
         -5    1    3    3    0  502 -0.13589781382E+03 -0.13172247376E+02  0.52335124505E+02  0.14628110459E+03  0.41800000000E+01 0. -1.
        -11    1    1    2    0    0  0.11990451430E+03  0.19766720926E+02  0.46563384604E+01  0.12161207709E+03  0.00000000000E+00 0.  1.
         11    1    1    2    0    0 -0.45997209585E+01 -0.15736188085E+02  0.20218141448E+02  0.26029949903E+02  0.00000000000E+00 0. -1.
</event>
<event>
 7    1  0.6506388E-006  0.2160075E+03  0.7561462E-02  0.1136895E+00
         -2   -1    0    0    0  501 -0.00000000000E+00  0.00000000000E+00  0.65310955857E+02  0.65310955857E+02  0.00000000000E+00 0.  1.
          2   -1    0    0  501    0  0.00000000000E+00 -0.00000000000E+00 -0.76991451326E+03  0.76991451326E+03  0.00000000000E+00 0. -1.
         23    2    1    2    0    0  0.19258589041E+03  0.13115306121E+02 -0.30360179411E+03  0.38089691731E+03  0.12508827198E+03 0.  0.
          5    1    3    3  502    0  0.19101724622E+03 -0.20852118153E+02 -0.23014898616E+03  0.29984734018E+03  0.41800000000E+01 0. -1.
         -5    1    3    3    0  502  0.15686441963E+01  0.33967424274E+02 -0.73452807954E+02  0.81049577129E+02  0.41800000000E+01 0. -1.
        -11    1    1    2    0    0 -0.69222526254E+02  0.29213565543E+02 -0.21007803692E+03  0.22310977601E+03  0.00000000000E+00 0. -1.
         11    1    1    2    0    0 -0.12336336416E+03 -0.42328871665E+02 -0.19092372637E+03  0.23121877580E+03  0.00000000000E+00 0.  1.
</event>
<event>
 7    1  0.6506388E-006  0.9059232E+02  0.7561462E-02  0.1301424E+00
          2   -1    0    0  501    0  0.00000000000E+00  0.00000000000E+00  0.66383727292E+02  0.66383727292E+02  0.00000000000E+00 0. -1.
         -2   -1    0    0    0  501 -0.00000000000E+00 -0.00000000000E+00 -0.22569222638E+03  0.22569222638E+03  0.00000000000E+00 0.  1.
         23    2    1    2    0    0  0.34039119339E+02  0.37966485722E+02 -0.11432557687E+03  0.17696853705E+03  0.12508960746E+03 0.  0.
          5    1    3    3  502    0 -0.72521026489E+01  0.46460653460E+02 -0.12471462108E+03  0.13335064464E+03  0.41800000000E+01 0.  1.
         -5    1    3    3    0  502  0.41291221988E+02 -0.84941677374E+01  0.10389044210E+02  0.43617892411E+02  0.41800000000E+01 0.  1.
        -11    1    1    2    0    0 -0.23226699257E+02 -0.61486433618E+02 -0.56595435886E+02  0.86735831353E+02  0.00000000000E+00 0.  1.
         11    1    1    2    0    0 -0.10812420081E+02  0.23519947895E+02  0.11612513672E+02  0.28371585271E+02  0.00000000000E+00 0. -1.
</event>
<event>
 7    1  0.6506388E-006  0.8711200E+02  0.7561462E-02  0.1310000E+00
         -2   -1    0    0    0  501 -0.00000000000E+00  0.00000000000E+00  0.85143940110E+02  0.85143940110E+02  0.00000000000E+00 0.  1.
          2   -1    0    0  501    0  0.00000000000E+00 -0.00000000000E+00 -0.15617511169E+03  0.15617511169E+03  0.00000000000E+00 0. -1.
         23    2    1    2    0    0  0.62162562218E+01 -0.35394897830E+02 -0.22417905018E+02  0.13206530624E+03  0.12508893641E+03 0.  0.
          5    1    3    3  502    0 -0.51990618536E+02 -0.16972895334E+02 -0.40581968395E+02  0.68231020442E+02  0.41800000000E+01 0. -1.
         -5    1    3    3    0  502  0.58206874757E+02 -0.18422002497E+02  0.18164063377E+02  0.63834285798E+02  0.41800000000E+01 0. -1.
        -11    1    1    2    0    0 -0.17821919256E+02  0.41427385397E+02 -0.70538780285E+02  0.83723166393E+02  0.00000000000E+00 0. -1.
         11    1    1    2    0    0  0.11605663034E+02 -0.60324875669E+01  0.21925513721E+02  0.25530579168E+02  0.00000000000E+00 0.  1.
</event>
<event>
 7    1  0.6506388E-006  0.1191859E+03  0.7561462E-02  0.1244446E+00
         -2   -1    0    0    0  501 -0.00000000000E+00  0.00000000000E+00  0.77444049985E+02  0.77444049985E+02  0.00000000000E+00 0.  1.
          2   -1    0    0  501    0  0.00000000000E+00 -0.00000000000E+00 -0.19508142306E+03  0.19508142306E+03  0.00000000000E+00 0. -1.
         23    2    1    2    0    0  0.47139360726E+02 -0.32385815965E+02 -0.52261716546E+02  0.14717500069E+03  0.12513286301E+03 0.  0.
          5    1    3    3  502    0  0.73538071556E+01 -0.74575766855E+02 -0.10942683746E+02  0.75847466730E+02  0.41800000000E+01 0. -1.
         -5    1    3    3    0  502  0.39785553570E+02  0.42189950890E+02 -0.41319032799E+02  0.71327533957E+02  0.41800000000E+01 0. -1.
        -11    1    1    2    0    0  0.25240560635E+02 -0.14432022688E+01 -0.26050500407E+02  0.36301478006E+02  0.00000000000E+00 0.  1.
         11    1    1    2    0    0 -0.72379921360E+02  0.33829018234E+02 -0.39325156121E+02  0.89048994350E+02  0.00000000000E+00 0. -1.
</event>
<event>
 7    1  0.6506388E-006  0.9702581E+02  0.7561462E-02  0.1286678E+00
          1   -1    0    0  501    0  0.00000000000E+00  0.00000000000E+00  0.55142992919E+02  0.55142992919E+02  0.00000000000E+00 0. -1.
         -1   -1    0    0    0  501 -0.00000000000E+00 -0.00000000000E+00 -0.25064575214E+03  0.25064575214E+03  0.00000000000E+00 0.  1.
         23    2    1    2    0    0  0.98279717165E+01 -0.42086217413E+02 -0.14186884737E+03  0.19402033221E+03  0.12509708523E+03 0.  0.
          5    1    3    3  502    0 -0.56017533175E+02 -0.74113039305E+01 -0.48754732937E+02  0.74748831648E+02  0.41800000000E+01 0. -1.
         -5    1    3    3    0  502  0.65845504891E+02 -0.34674913482E+02 -0.93114114431E+02  0.11927150056E+03  0.41800000000E+01 0. -1.
        -11    1    1    2    0    0  0.17122272301E+02  0.67235878845E+01 -0.63597278069E+02  0.66204173740E+02  0.00000000000E+00 0.  1.
         11    1    1    2    0    0 -0.26950244017E+02  0.35362629528E+02  0.99633662135E+01  0.45564239114E+02  0.00000000000E+00 0. -1.
</event>
<event>
 7    1  0.6506388E-006  0.1816310E+03  0.7561462E-02  0.1166234E+00
         -1   -1    0    0    0  501 -0.00000000000E+00  0.00000000000E+00  0.39123848736E+02  0.39123848736E+02  0.00000000000E+00 0.  1.
          1   -1    0    0  501    0  0.00000000000E+00 -0.00000000000E+00 -0.10694510436E+04  0.10694510436E+04  0.00000000000E+00 0. -1.
         23    2    1    2    0    0  0.17344365456E+03  0.10429904372E+02 -0.49267740654E+03  0.53718721384E+03  0.12509033371E+03 0.  0.
          5    1    3    3  502    0  0.70770001815E+02  0.37910915461E+02 -0.35062382852E+03  0.35972235432E+03  0.41800000000E+01 0.  1.
         -5    1    3    3    0  502  0.10267365275E+03 -0.27481011089E+02 -0.14205357801E+03  0.17746485952E+03  0.41800000000E+01 0.  1.
        -11    1    1    2    0    0 -0.34437012170E+02  0.10324107225E+02 -0.37851290890E+02  0.52203593931E+02  0.00000000000E+00 0.  1.
         11    1    1    2    0    0 -0.13900664239E+03 -0.20754011597E+02 -0.49979849744E+03  0.51918408457E+03  0.00000000000E+00 0. -1.
</event>
<event>
 7    1  0.6506388E-006  0.1329552E+03  0.7561462E-02  0.1223135E+00
          1   -1    0    0  501    0  0.00000000000E+00  0.00000000000E+00  0.25148030123E+03  0.25148030123E+03  0.00000000000E+00 0. -1.
         -1   -1    0    0    0  501 -0.00000000000E+00 -0.00000000000E+00 -0.98796352998E+02  0.98796352998E+02  0.00000000000E+00 0.  1.
         23    2    1    2    0    0 -0.35522601042E+00  0.10442374999E+03  0.45243480114E+02  0.16911209355E+03  0.12508989546E+03 0.  0.
          5    1    3    3  502    0  0.34840775488E+02 -0.12484848518E+02 -0.38698713104E+01  0.37445952826E+02  0.41800000000E+01 0. -1.
         -5    1    3    3    0  502 -0.35196001498E+02  0.11690859850E+03  0.49113351425E+02  0.13166614073E+03  0.41800000000E+01 0. -1.
        -11    1    1    2    0    0  0.77643271311E+01 -0.89539062433E+02  0.19890500028E+02  0.92049771692E+02  0.00000000000E+00 0.  1.
         11    1    1    2    0    0 -0.74091011207E+01 -0.14884687553E+02  0.87549968094E+02  0.89114788987E+02  0.00000000000E+00 0. -1.
</event>
<event>
 7    1  0.6506388E-006  0.1716232E+03  0.7561462E-02  0.1176166E+00
          1   -1    0    0  501    0  0.00000000000E+00  0.00000000000E+00  0.90618707154E+03  0.90618707154E+03  0.00000000000E+00 0. -1.
         -1   -1    0    0    0  501 -0.00000000000E+00 -0.00000000000E+00 -0.65092061605E+02  0.65092061605E+02  0.00000000000E+00 0.  1.
         23    2    1    2    0    0 -0.76537317910E+02  0.11675249320E+03  0.10178423291E+03  0.21330183490E+03  0.12509411258E+03 0.  0.
          5    1    3    3  502    0 -0.41084260055E+02 -0.19498025707E+02  0.16024252626E+02  0.48397711753E+02  0.41800000000E+01 0.  1.
         -5    1    3    3    0  502 -0.35453057855E+02  0.13625051891E+03  0.85759980283E+02  0.16490412315E+03  0.41800000000E+01 0.  1.
        -11    1    1    2    0    0  0.17481210267E+02 -0.90374050297E+02  0.55650779171E+03  0.56406913044E+03  0.00000000000E+00 0. -1.
         11    1    1    2    0    0  0.59056107643E+02 -0.26378442903E+02  0.18280298531E+03  0.19390816780E+03  0.00000000000E+00 0.  1.
</event>
<event>
 6    1  0.6506388E-006  0.2379121E+03  0.7561462E-02  0.1121192E+00
         -1   -1    0    0    0  501 -0.00000000000E+00  0.00000000000E+00  0.10194445154E+03  0.10194445154E+03  0.00000000000E+00 0.  1.
          1   -1    0    0  501    0  0.00000000000E+00 -0.00000000000E+00 -0.91375858122E+03  0.91375858122E+03  0.00000000000E+00 0. -1.
          5    1    1    2  502    0  0.37334475786E+02 -0.73154471914E+02 -0.76446619544E+02  0.11228088832E+03  0.41800000000E+01 0. -1.
         -5    1    1    2    0  502  0.10708840240E+03  0.17334292641E+03 -0.80045935313E+02  0.21895323753E+03  0.41800000000E+01 0.  1.
        -11    1    1    2    0    0 -0.30454754239E+02  0.92064118521E+01 -0.53374911081E+02  0.62138001318E+02  0.00000000000E+00 0.  1.
         11    1    1    2    0    0 -0.11396812394E+03 -0.10939486635E+03 -0.60194666374E+03  0.62233090559E+03  0.00000000000E+00 0. -1.
</event>
<event>
 7    1  0.7222297E-006  0.1482264E+03  0.7561462E-02  0.1202669E+00
         -1   -1    0    0    0  501 -0.00000000000E+00  0.00000000000E+00  0.51860767559E+02  0.51860767559E+02  0.00000000000E+00 0.  1.
          1   -1    0    0  501    0  0.00000000000E+00 -0.00000000000E+00 -0.55930748487E+03  0.55930748487E+03  0.00000000000E+00 0. -1.
         23    2    1    2    0    0 -0.11714998976E+03  0.56679018233E+02 -0.25617894490E+03  0.31338710738E+03  0.12508875270E+03 0.  0.
          5    1    3    3  502    0  0.19313790512E+02  0.56102400152E+01 -0.23434931373E+01  0.20675145877E+02  0.41800000000E+01 0.  1.
         -5    1    3    3    0  502 -0.13646378027E+03  0.51068778217E+02 -0.25383545176E+03  0.29271196150E+03  0.41800000000E+01 0.  1.
        -11    1    1    2    0    0  0.40976004889E+02 -0.19309452375E+02 -0.16596481837E+02  0.48242420514E+02  0.00000000000E+00 0.  1.
         11    1    1    2    0    0  0.76173984870E+02 -0.37369565857E+02 -0.23467129057E+03  0.24953872453E+03  0.00000000000E+00 0. -1.
</event>
<event>
 7    1  0.6506388E-006  0.1807010E+03  0.7561462E-02  0.1167126E+00
          2   -1    0    0  501    0  0.00000000000E+00  0.00000000000E+00  0.57887059162E+03  0.57887059162E+03  0.00000000000E+00 0. -1.
         -2   -1    0    0    0  501 -0.00000000000E+00 -0.00000000000E+00 -0.75492769426E+02  0.75492769426E+02  0.00000000000E+00 0.  1.
         23    2    1    2    0    0  0.39954466405E+02  0.16757934556E+03  0.19070354067E+03  0.28582418175E+03  0.12509366893E+03 0.  0.
          5    1    3    3  502    0  0.15947736902E+02  0.68884436087E+02  0.16705607598E+03  0.18145137301E+03  0.41800000000E+01 0.  1.
         -5    1    3    3    0  502  0.24006729503E+02  0.98694909477E+02  0.23647464691E+02  0.10437280874E+03  0.41800000000E+01 0.  1.
        -11    1    1    2    0    0 -0.50914121344E+02 -0.51856671855E+02  0.77724469338E+02  0.10640702656E+03  0.00000000000E+00 0.  1.
         11    1    1    2    0    0  0.10959654939E+02 -0.11572267371E+03  0.23494981219E+03  0.26213215273E+03  0.00000000000E+00 0. -1.
</event>
<event>
 7    1  0.6506388E-006  0.1087358E+03  0.7561462E-02  0.1262929E+00
         -1   -1    0    0    0  501 -0.00000000000E+00  0.00000000000E+00  0.29299555173E+02  0.29299555173E+02  0.00000000000E+00 0.  1.
          1   -1    0    0  501    0  0.00000000000E+00 -0.00000000000E+00 -0.62535386526E+03  0.62535386526E+03  0.00000000000E+00 0. -1.
         23    2    1    2    0    0 -0.72766987952E+01  0.80104557194E+02 -0.28555944308E+03  0.32196407674E+03  0.12508789209E+03 0.  0.
          5    1    3    3  502    0 -0.47958636028E+02  0.46475064827E+02 -0.58713263618E+02  0.89020683805E+02  0.41800000000E+01 0. -1.
         -5    1    3    3    0  502  0.40681937233E+02  0.33629492367E+02 -0.22684617946E+03  0.23294339293E+03  0.41800000000E+01 0. -1.
        -11    1    1    2    0    0  0.26013570104E+02 -0.15361479434E+02 -0.24606857446E+02  0.38963807737E+02  0.00000000000E+00 0.  1.
         11    1    1    2    0    0 -0.18736871309E+02 -0.64743077760E+02 -0.28588800955E+03  0.29372553595E+03  0.00000000000E+00 0. -1.
</event>
<event>
 7    1  0.6506388E-006  0.1207629E+03  0.7561462E-02  0.1241844E+00
         -2   -1    0    0    0  501 -0.00000000000E+00  0.00000000000E+00  0.46924930762E+02  0.46924930762E+02  0.00000000000E+00 0. -1.
          2   -1    0    0  501    0  0.00000000000E+00 -0.00000000000E+00 -0.46760619559E+03  0.46760619559E+03  0.00000000000E+00 0.  1.
         23    2    1    2    0    0 -0.81832454915E+02  0.40655122152E+02 -0.15314259660E+03  0.21783068634E+03  0.12509261922E+03 0.  0.
          5    1    3    3  502    0 -0.15048501765E+02  0.43948492810E+02  0.41888796546E+01  0.46828907081E+02  0.41800000000E+01 0. -1.
         -5    1    3    3    0  502 -0.66783953150E+02 -0.32933706576E+01 -0.15733147625E+03  0.17100177926E+03  0.41800000000E+01 0. -1.
        -11    1    1    2    0    0  0.54363359257E+02  0.22640822753E+02 -0.13470627835E+03  0.14701620017E+03  0.00000000000E+00 0. -1.
         11    1    1    2    0    0  0.27469095657E+02 -0.63295944905E+02 -0.13283238988E+03  0.14968423985E+03  0.00000000000E+00 0.  1.
</event>
<event>
 7    1  0.6506388E-006  0.1847194E+03  0.7561462E-02  0.1163312E+00
         -2   -1    0    0    0  501 -0.00000000000E+00  0.00000000000E+00  0.38439380277E+02  0.38439380277E+02  0.00000000000E+00 0.  1.
          2   -1    0    0  501    0  0.00000000000E+00 -0.00000000000E+00 -0.98304777981E+03  0.98304777981E+03  0.00000000000E+00 0. -1.
         23    2    1    2    0    0 -0.63215818965E+02  0.13663829950E+03 -0.34598122530E+03  0.39750908114E+03  0.12507676312E+03 0.  0.
          5    1    3    3  502    0  0.29636538639E+02  0.81615076807E+02 -0.13671264026E+03  0.16200976388E+03  0.41800000000E+01 0.  1.
         -5    1    3    3    0  502 -0.92852357604E+02  0.55023222696E+02 -0.20926858504E+03  0.23549931727E+03  0.41800000000E+01 0.  1.
        -11    1    1    2    0    0 -0.46471419025E+01 -0.94502747666E+02 -0.28292052569E+03  0.29832262586E+03  0.00000000000E+00 0.  1.
         11    1    1    2    0    0  0.67862960868E+02 -0.42135551838E+02 -0.31570664854E+03  0.32565545308E+03  0.00000000000E+00 0. -1.
</event>
<event>
 7    1  0.6506388E-006  0.1286703E+03  0.7561462E-02  0.1229442E+00
          1   -1    0    0  501    0  0.00000000000E+00  0.00000000000E+00  0.26785213288E+03  0.26785213288E+03  0.00000000000E+00 0. -1.
         -1   -1    0    0    0  501 -0.00000000000E+00 -0.00000000000E+00 -0.13743052495E+03  0.13743052495E+03  0.00000000000E+00 0.  1.
         23    2    1    2    0    0  0.10733396241E+02 -0.12406912684E+03 -0.32628668188E+02  0.17950218524E+03  0.12509216798E+03 0.  0.
          5    1    3    3  502    0  0.23209919530E+02 -0.10740251881E+03 -0.74315395010E+02  0.13271869403E+03  0.41800000000E+01 0. -1.
         -5    1    3    3    0  502 -0.12476523289E+02 -0.16666608030E+02  0.41686726822E+02  0.46783491210E+02  0.41800000000E+01 0. -1.
        -11    1    1    2    0    0 -0.14171612738E+02  0.49296108713E+02  0.57944008813E+01  0.51618950236E+02  0.00000000000E+00 0.  1.
         11    1    1    2    0    0  0.34382164971E+01  0.74773018123E+02  0.15725587524E+03  0.17416152235E+03  0.00000000000E+00 0. -1.
</event>
<event>
 7    1  0.6506388E-006  0.1667370E+03  0.7561462E-02  0.1181294E+00
          2   -1    0    0  501    0  0.00000000000E+00  0.00000000000E+00  0.16340634686E+03  0.16340634686E+03  0.00000000000E+00 0. -1.
         -2   -1    0    0    0  501 -0.00000000000E+00 -0.00000000000E+00 -0.17579053232E+03  0.17579053232E+03  0.00000000000E+00 0.  1.
         23    2    1    2    0    0 -0.72513725674E+02 -0.10559128402E+03 -0.29496445249E+02  0.18145355677E+03  0.12509034060E+03 0.  0.
          5    1    3    3  502    0  0.27721786276E+02 -0.63130183662E+02 -0.20940897919E+02  0.72179714112E+02  0.41800000000E+01 0.  1.
         -5    1    3    3    0  502 -0.10023551195E+03 -0.42461100356E+02 -0.85555473303E+01  0.10927384266E+03  0.41800000000E+01 0.  1.
        -11    1    1    2    0    0 -0.14074260159E+02  0.51447233530E+02  0.15739052013E+02  0.55611333333E+02  0.00000000000E+00 0.  1.
         11    1    1    2    0    0  0.86587985832E+02  0.54144050489E+02  0.13732077744E+01  0.10213198908E+03  0.00000000000E+00 0. -1.
</event>
<event>
 7    1  0.6506388E-006  0.9612013E+02  0.7561462E-02  0.1288673E+00
          1   -1    0    0  501    0  0.00000000000E+00  0.00000000000E+00  0.35747535573E+03  0.35747535573E+03  0.00000000000E+00 0. -1.
         -1   -1    0    0    0  501 -0.00000000000E+00 -0.00000000000E+00 -0.49447932867E+02  0.49447932867E+02  0.00000000000E+00 0.  1.
         23    2    1    2    0    0 -0.17531557088E+02  0.37011972923E+02  0.71396705730E+02  0.14974119631E+03  0.12509074566E+03 0.  0.
          5    1    3    3  502    0  0.16496067386E+02 -0.28386969349E+02  0.68229376933E+02  0.75833109818E+02  0.41800000000E+01 0.  1.
         -5    1    3    3    0  502 -0.34027624474E+02  0.65398942271E+02  0.31673287975E+01  0.73908086494E+02  0.41800000000E+01 0.  1.
        -11    1    1    2    0    0  0.42595553066E+02 -0.41919545785E+02  0.88012219401E+02  0.10638505639E+03  0.00000000000E+00 0.  1.
         11    1    1    2    0    0 -0.25063995978E+02  0.49075728620E+01  0.14861849773E+03  0.15079703589E+03  0.00000000000E+00 0. -1.
</event>
<event>
 7    1  0.6506388E-006  0.1040516E+03  0.7561462E-02  0.1272000E+00
          1   -1    0    0  501    0  0.00000000000E+00  0.00000000000E+00  0.78928916467E+02  0.78928916467E+02  0.00000000000E+00 0. -1.
         -1   -1    0    0    0  501 -0.00000000000E+00 -0.00000000000E+00 -0.40814608516E+03  0.40814608516E+03  0.00000000000E+00 0.  1.
         23    2    1    2    0    0 -0.30271496437E+02  0.14927946253E+02 -0.36139122917E+03  0.38391441151E+03  0.12508975884E+03 0.  0.
          5    1    3    3  502    0  0.48625396053E+02  0.69317246616E+01 -0.11752529255E+03  0.12744467324E+03  0.41800000000E+01 0.  1.
         -5    1    3    3    0  502 -0.78896892490E+02  0.79962215918E+01 -0.24386593661E+03  0.25646973826E+03  0.41800000000E+01 0.  1.
        -11    1    1    2    0    0  0.37178519296E+02 -0.39280039142E+02  0.48824286915E+02  0.72862711758E+02  0.00000000000E+00 0. -1.
         11    1    1    2    0    0 -0.69070228588E+01  0.24352092888E+02 -0.16650226444E+02  0.30297878365E+02  0.00000000000E+00 0.  1.
</event>
<event>
 7    1  0.6506388E-006  0.1007970E+03  0.7561462E-02  0.1278629E+00
          1   -1    0    0  501    0  0.00000000000E+00  0.00000000000E+00  0.50903655873E+03  0.50903655873E+03  0.00000000000E+00 0. -1.
         -1   -1    0    0    0  501 -0.00000000000E+00 -0.00000000000E+00 -0.29620595572E+02  0.29620595572E+02  0.00000000000E+00 0.  1.
         23    2    1    2    0    0 -0.80048600400E+01 -0.24394703508E+02  0.14418807677E+03  0.19260575411E+03  0.12509035010E+03 0.  0.
          5    1    3    3  502    0 -0.36380104442E+02 -0.61073152689E+02  0.48401984461E+02  0.86102650820E+02  0.41800000000E+01 0.  1.
         -5    1    3    3    0  502  0.28375244402E+02  0.36678449181E+02  0.95786092313E+02  0.10650310329E+03  0.41800000000E+01 0.  1.
        -11    1    1    2    0    0 -0.36085747901E+02  0.10100900010E+02  0.11333323633E+03  0.11936763313E+03  0.00000000000E+00 0.  1.
         11    1    1    2    0    0  0.44090607941E+02  0.14293803498E+02  0.22189465005E+03  0.22668376706E+03  0.00000000000E+00 0. -1.
</event>
<event>
 7    1  0.6506388E-006  0.1359917E+03  0.7561462E-02  0.1218826E+00
         -2   -1    0    0    0  501 -0.00000000000E+00  0.00000000000E+00  0.79473449424E+02  0.79473449424E+02  0.00000000000E+00 0.  1.
          2   -1    0    0  501    0  0.00000000000E+00 -0.00000000000E+00 -0.28310580229E+03  0.28310580229E+03  0.00000000000E+00 0. -1.
         23    2    1    2    0    0 -0.16894568245E+02  0.10188533027E+03 -0.11191173413E+03  0.19707486054E+03  0.12509283537E+03 0.  0.
          5    1    3    3  502    0 -0.60320571361E+02  0.16178048001E+02 -0.24835132022E+02  0.67339117525E+02  0.41800000000E+01 0. -1.
         -5    1    3    3    0  502  0.43426003117E+02  0.85707282269E+02 -0.87076602106E+02  0.12973574301E+03  0.41800000000E+01 0. -1.
        -11    1    1    2    0    0 -0.14688017701E+02 -0.16040855776E+02 -0.67449099615E+02  0.70869090278E+02  0.00000000000E+00 0. -1.
         11    1    1    2    0    0  0.31582585946E+02 -0.85844474494E+02 -0.24271519127E+02  0.94635300903E+02  0.00000000000E+00 0.  1.
</event>
<event>
 7    1  0.6506388E-006  0.1198906E+03  0.7561462E-02  0.1243278E+00
         -1   -1    0    0    0  501 -0.00000000000E+00  0.00000000000E+00  0.12642507345E+03  0.12642507345E+03  0.00000000000E+00 0.  1.
          1   -1    0    0  501    0  0.00000000000E+00 -0.00000000000E+00 -0.14237233948E+03  0.14237233948E+03  0.00000000000E+00 0. -1.
         23    2    1    2    0    0  0.75271225746E+02  0.13174298580E+02 -0.29659048157E+01  0.14662811252E+03  0.12510670335E+03 0.  0.
          5    1    3    3  502    0  0.99476796094E+02  0.51649429231E+01  0.30582822181E+02  0.10428370443E+03  0.41800000000E+01 0. -1.
         -5    1    3    3    0  502 -0.24205570348E+02  0.80093556572E+01 -0.33548726997E+02  0.42344408096E+02  0.41800000000E+01 0. -1.
        -11    1    1    2    0    0  0.18041397518E+02  0.59434434519E+01 -0.18819962548E+02  0.26739624806E+02  0.00000000000E+00 0. -1.
         11    1    1    2    0    0 -0.93312623264E+02 -0.19117742032E+02  0.58386013318E+01  0.95429675607E+02  0.00000000000E+00 0.  1.
</event>
<event>
 7    1  0.6506388E-006  0.1167428E+03  0.7561462E-02  0.1248569E+00
          3   -1    0    0  501    0  0.00000000000E+00  0.00000000000E+00  0.10767363778E+04  0.10767363778E+04  0.00000000000E+00 0. -1.
         -3   -1    0    0    0  501 -0.00000000000E+00 -0.00000000000E+00 -0.15120163866E+02  0.15120163866E+02  0.00000000000E+00 0.  1.
         23    2    1    2    0    0 -0.56085812515E+02  0.34460013533E+02  0.54180983733E+03  0.55994556076E+03  0.12509204725E+03 0.  0.
          5    1    3    3  502    0  0.40380207870E+01 -0.31082548017E+02  0.31023884955E+03  0.31184619057E+03  0.41800000000E+01 0. -1.
         -5    1    3    3    0  502 -0.60123833302E+02  0.65542561550E+02  0.23157098778E+03  0.24809937019E+03  0.41800000000E+01 0. -1.
        -11    1    1    2    0    0  0.52867333282E+02 -0.64055197464E+02  0.38506436598E+03  0.39391952122E+03  0.00000000000E+00 0. -1.
         11    1    1    2    0    0  0.32184792325E+01  0.29595183931E+02  0.13474201064E+03  0.13799145970E+03  0.00000000000E+00 0.  1.
</event>
<event>
 7    1  0.1068615E-005  0.2225960E+03  0.7561462E-02  0.1131962E+00
          1   -1    0    0  501    0  0.00000000000E+00  0.00000000000E+00  0.43934742224E+03  0.43934742224E+03  0.00000000000E+00 0. -1.
         -1   -1    0    0    0  501 -0.00000000000E+00 -0.00000000000E+00 -0.15044164149E+03  0.15044164149E+03  0.00000000000E+00 0.  1.
         23    2    1    2    0    0 -0.10776993780E+03 -0.18508900526E+03  0.44057846393E+02  0.25191538539E+03  0.12509183909E+03 0.  0.
          5    1    3    3  502    0 -0.77632092251E+02 -0.53911816781E+02 -0.28688669311E+02  0.98862216659E+02  0.41800000000E+01 0. -1.
         -5    1    3    3    0  502 -0.30137845550E+02 -0.13117718848E+03  0.72746515704E+02  0.15305316873E+03  0.41800000000E+01 0. -1.
        -11    1    1    2    0    0  0.52106865444E+02  0.11626835461E+03  0.20369630564E+03  0.24026160876E+03  0.00000000000E+00 0.  1.
         11    1    1    2    0    0  0.55663072356E+02  0.68820650650E+02  0.41151628712E+02  0.97612069570E+02  0.00000000000E+00 0. -1.
</event>
<event>
 7    1  0.6506388E-006  0.9148633E+02  0.7561462E-02  0.1299292E+00
          2   -1    0    0  501    0  0.00000000000E+00  0.00000000000E+00  0.13474265270E+03  0.13474265270E+03  0.00000000000E+00 0.  1.
         -2   -1    0    0    0  501 -0.00000000000E+00 -0.00000000000E+00 -0.10045282223E+03  0.10045282223E+03  0.00000000000E+00 0. -1.
         23    2    1    2    0    0 -0.85809264990E+01  0.42297109184E+02  0.35289054182E+02  0.13695232728E+03  0.12509174576E+03 0.  0.
          5    1    3    3  502    0 -0.25219300666E+02  0.56965189639E+02 -0.28979451291E+02  0.68835506491E+02  0.41800000000E+01 0. -1.
         -5    1    3    3    0  502  0.16638374167E+02 -0.14668080455E+02  0.64268505473E+02  0.68116820793E+02  0.41800000000E+01 0. -1.
        -11    1    1    2    0    0  0.36746873453E+02 -0.55732852394E+02 -0.41023924826E+01  0.66882831643E+02  0.00000000000E+00 0.  1.
         11    1    1    2    0    0 -0.28165946954E+02  0.13435743210E+02  0.31031687671E+01  0.31360316003E+02  0.00000000000E+00 0. -1.
</event>
<event>
 7    1  0.6506388E-006  0.1570485E+03  0.7561462E-02  0.1192070E+00
          4   -1    0    0  501    0  0.00000000000E+00  0.00000000000E+00  0.25244448687E+02  0.25244448687E+02  0.00000000000E+00 0. -1.
         -4   -1    0    0    0  501 -0.00000000000E+00 -0.00000000000E+00 -0.11217162116E+04  0.11217162116E+04  0.00000000000E+00 0.  1.
         23    2    1    2    0    0  0.10871911068E+03 -0.45274866422E+02 -0.75786370090E+03  0.77709339415E+03  0.12508835091E+03 0.  0.
          5    1    3    3  502    0  0.12217635876E+03  0.85301542949E+00 -0.49752821665E+03  0.51232761885E+03  0.41800000000E+01 0. -1.
         -5    1    3    3    0  502 -0.13457248079E+02 -0.46127881851E+02 -0.26033548426E+03  0.26476577531E+03  0.41800000000E+01 0. -1.
        -11    1    1    2    0    0 -0.10951142996E+02  0.44515861445E+02 -0.66867949374E+02  0.81073498176E+02  0.00000000000E+00 0. -1.
         11    1    1    2    0    0 -0.97767967685E+02  0.75900497677E+00 -0.27174011261E+03  0.28879376793E+03  0.00000000000E+00 0.  1.
</event>
<event>
 7    1  0.6506388E-006  0.7789268E+02  0.7561462E-02  0.1335140E+00
         -1   -1    0    0    0  501 -0.00000000000E+00  0.00000000000E+00  0.51159768516E+02  0.51159768516E+02  0.00000000000E+00 0.  1.
          1   -1    0    0  501    0  0.00000000000E+00 -0.00000000000E+00 -0.20900274194E+03  0.20900274194E+03  0.00000000000E+00 0. -1.
         23    2    1    2    0    0 -0.13869105684E+02  0.16814433377E+02 -0.84509345571E+02  0.15252581783E+03  0.12508884185E+03 0.  0.
          5    1    3    3  502    0  0.28171397475E+02  0.21356484729E+02  0.19202740148E+02  0.40446813284E+02  0.41800000000E+01 0. -1.
         -5    1    3    3    0  502 -0.42040503159E+02 -0.45420513523E+01 -0.10371208572E+03  0.11207900455E+03  0.41800000000E+01 0. -1.
        -11    1    1    2    0    0 -0.14828203057E+02 -0.38805419895E+02 -0.30225055011E+02  0.51374022322E+02  0.00000000000E+00 0.  1.
         11    1    1    2    0    0  0.28697308742E+02  0.21990986518E+02 -0.43108572844E+02  0.56262670304E+02  0.00000000000E+00 0. -1.
</event>
<event>
 7    1  0.6506388E-006  0.7052307E+02  0.7561462E-02  0.1358323E+00
          2   -1    0    0  501    0  0.00000000000E+00  0.00000000000E+00  0.19141383433E+03  0.19141383433E+03  0.00000000000E+00 0. -1.
         -2   -1    0    0    0  501 -0.00000000000E+00 -0.00000000000E+00 -0.77867947150E+02  0.77867947150E+02  0.00000000000E+00 0.  1.
         23    2    1    2    0    0 -0.78802600236E+01  0.33006462683E+02  0.18060485023E+02  0.13086276134E+03  0.12508939247E+03 0.  0.
          5    1    3    3  502    0 -0.31061775785E+02  0.45774047169E+01 -0.46634729361E+02  0.56374257702E+02  0.41800000000E+01 0. -1.
         -5    1    3    3    0  502  0.23181515761E+02  0.28429057966E+02  0.64695214383E+02  0.74488503636E+02  0.41800000000E+01 0. -1.
        -11    1    1    2    0    0  0.14742478193E+02  0.16698851524E+02  0.84055354228E+02  0.86956856428E+02  0.00000000000E+00 0. -1.
         11    1    1    2    0    0 -0.68622181692E+01 -0.49705314207E+02  0.11430047930E+02  0.51462163715E+02  0.00000000000E+00 0.  1.
</event>
<event>
 7    1  0.6506388E-006  0.1285611E+03  0.7561462E-02  0.1229607E+00
          2   -1    0    0  501    0  0.00000000000E+00  0.00000000000E+00  0.16886919212E+03  0.16886919212E+03  0.00000000000E+00 0. -1.
         -2   -1    0    0    0  501 -0.00000000000E+00 -0.00000000000E+00 -0.13265884813E+03  0.13265884813E+03  0.00000000000E+00 0.  1.
         23    2    1    2    0    0  0.12326819369E+01 -0.94674888735E+02 -0.20031905731E+02  0.15815584060E+03  0.12508852308E+03 0.  0.
          5    1    3    3  502    0 -0.50679467841E+02 -0.25803795353E+02 -0.39846002971E+02  0.69565944743E+02  0.41800000000E+01 0.  1.
         -5    1    3    3    0  502  0.51912149778E+02 -0.68871093381E+02  0.19814097240E+02  0.88589895855E+02  0.41800000000E+01 0.  1.
        -11    1    1    2    0    0 -0.20973177656E+02  0.45105614627E+01 -0.15502591988E+02  0.26467899502E+02  0.00000000000E+00 0. -1.
         11    1    1    2    0    0  0.19740495719E+02  0.90164327272E+02  0.71744841705E+02  0.11690430016E+03  0.00000000000E+00 0.  1.
</event>
<event>
 7    1  0.6506388E-006  0.1584022E+03  0.7561462E-02  0.1190513E+00
         -1   -1    0    0    0  501 -0.00000000000E+00  0.00000000000E+00  0.42187573857E+03  0.42187573857E+03  0.00000000000E+00 0.  1.
          1   -1    0    0  501    0  0.00000000000E+00 -0.00000000000E+00 -0.82224212826E+02  0.82224212826E+02  0.00000000000E+00 0. -1.
         23    2    1    2    0    0  0.12338080798E+03 -0.31294035010E+02  0.29296201846E+03  0.34175300236E+03  0.12151637733E+03 0.  0.
          5    1    3    3  502    0 -0.47350931177E+01 -0.46368589016E+02  0.72605956510E+02  0.86380347736E+02  0.41800000000E+01 0. -1.
         -5    1    3    3    0  502  0.12811590110E+03  0.15074554006E+02  0.22035606195E+03  0.25537265463E+03  0.41800000000E+01 0.  1.
        -11    1    1    2    0    0 -0.97874204868E+01  0.25369902195E+02 -0.16914847064E+02  0.32024015806E+02  0.00000000000E+00 0.  1.
         11    1    1    2    0    0 -0.11359338750E+03  0.59241328153E+01  0.63604354346E+02  0.13032293322E+03  0.00000000000E+00 0. -1.
</event>
<event>
 7    1  0.6506388E-006  0.1292728E+03  0.7561462E-02  0.1228539E+00
         -1   -1    0    0    0  501 -0.00000000000E+00  0.00000000000E+00  0.10259095857E+03  0.10259095857E+03  0.00000000000E+00 0.  1.
          1   -1    0    0  501    0  0.00000000000E+00 -0.00000000000E+00 -0.22858474388E+03  0.22858474388E+03  0.00000000000E+00 0. -1.
         23    2    1    2    0    0  0.74161316921E+02 -0.48327342795E+02  0.70057858551E+01  0.15341066914E+03  0.12510123653E+03 0.  0.
          5    1    3    3  502    0  0.10207511822E+03 -0.63939731303E+02  0.10448938004E+02  0.12097219393E+03  0.41800000000E+01 0. -1.
         -5    1    3    3    0  502 -0.27913801295E+02  0.15612388507E+02 -0.34431521493E+01  0.32438475217E+02  0.41800000000E+01 0. -1.
        -11    1    1    2    0    0 -0.60799640869E+02  0.61871314617E+02 -0.68535806338E+02  0.11055230731E+03  0.00000000000E+00 0.  1.
         11    1    1    2    0    0 -0.13361676052E+02 -0.13543971822E+02 -0.64463764826E+02  0.67212725991E+02  0.00000000000E+00 0. -1.
</event>
<event>
 7    1  0.6506388E-006  0.1073121E+03  0.7561462E-02  0.1265630E+00
         -2   -1    0    0    0  501 -0.00000000000E+00  0.00000000000E+00  0.81094357825E+02  0.81094357825E+02  0.00000000000E+00 0.  1.
          2   -1    0    0  501    0  0.00000000000E+00 -0.00000000000E+00 -0.15560873012E+03  0.15560873012E+03  0.00000000000E+00 0. -1.
         23    2    1    2    0    0  0.24519204941E+02 -0.12240631289E+02 -0.24488905117E+02  0.13038147595E+03  0.12509435771E+03 0.  0.
          5    1    3    3  502    0  0.66322454965E+02  0.25524802956E+02 -0.18648491719E+02  0.73589552532E+02  0.41800000000E+01 0. -1.
         -5    1    3    3    0  502 -0.41803250024E+02 -0.37765434245E+02 -0.58404133978E+01  0.56791923413E+02  0.41800000000E+01 0. -1.
        -11    1    1    2    0    0 -0.22919471998E+02 -0.33821567871E+02 -0.43659216360E+02  0.59794045047E+02  0.00000000000E+00 0. -1.
         11    1    1    2    0    0 -0.15997329429E+01  0.46062199160E+02 -0.63662508187E+01  0.46527566952E+02  0.00000000000E+00 0.  1.
</event>
<event>
 6    1  0.6506388E-006  0.1122063E+03  0.7561462E-02  0.1256538E+00
         -3   -1    0    0    0  501 -0.00000000000E+00  0.00000000000E+00  0.61901265017E+03  0.61901265017E+03  0.00000000000E+00 0.  1.
          3   -1    0    0  501    0  0.00000000000E+00 -0.00000000000E+00 -0.59975107750E+02  0.59975107750E+02  0.00000000000E+00 0. -1.
          5    1    1    2  502    0 -0.10591276675E+02 -0.38881856212E+02  0.41980382575E+02  0.58342084341E+02  0.41800000000E+01 0. -1.
         -5    1    1    2    0  502 -0.26043972877E+02  0.10218808957E+03  0.48459576632E+03  0.49595486016E+03  0.41800000000E+01 0.  1.
        -11    1    1    2    0    0  0.40542442056E+02 -0.49352410217E+02  0.63730646670E+02  0.90227187294E+02  0.00000000000E+00 0.  1.
         11    1    1    2    0    0 -0.39071925051E+01 -0.13953823145E+02 -0.31269253147E+02  0.34463626130E+02  0.00000000000E+00 0. -1.
</event>
<event>
 7    1  0.6506388E-006  0.9302275E+02  0.7561462E-02  0.1295692E+00
          2   -1    0    0  501    0  0.00000000000E+00  0.00000000000E+00  0.38056331089E+03  0.38056331089E+03  0.00000000000E+00 0. -1.
         -2   -1    0    0    0  501 -0.00000000000E+00 -0.00000000000E+00 -0.32044878369E+02  0.32044878369E+02  0.00000000000E+00 0.  1.
         23    2    1    2    0    0  0.24272039939E+01 -0.19912767330E+02  0.17919405504E+03  0.21945481175E+03  0.12508994931E+03 0.  0.
          5    1    3    3  502    0  0.39054023940E+00 -0.72191822828E+02  0.84765807950E+02  0.11142049364E+03  0.41800000000E+01 0. -1.
         -5    1    3    3    0  502  0.20366637545E+01  0.52279055498E+02  0.94428247088E+02  0.10803431812E+03  0.41800000000E+01 0. -1.
        -11    1    1    2    0    0  0.22755379620E+02  0.26781880227E+02  0.17794832426E+02  0.39392035632E+02  0.00000000000E+00 0.  1.
         11    1    1    2    0    0 -0.25182583614E+02 -0.68691128968E+01  0.15152954506E+03  0.15376134187E+03  0.00000000000E+00 0. -1.
</event>
<event>
 7    1  0.6506388E-006  0.1288376E+03  0.7561462E-02  0.1229191E+00
         -2   -1    0    0    0  501 -0.00000000000E+00  0.00000000000E+00  0.44283749637E+02  0.44283749637E+02  0.00000000000E+00 0. -1.
          2   -1    0    0  501    0  0.00000000000E+00 -0.00000000000E+00 -0.41488269434E+03  0.41488269434E+03  0.00000000000E+00 0.  1.
         23    2    1    2    0    0  0.57562237696E+02  0.48912560305E+02 -0.17143219046E+03  0.22527227149E+03  0.12511095321E+03 0.  0.
          5    1    3    3  502    0  0.29282358708E+02 -0.35331686503E+02 -0.10364621782E+03  0.11342748993E+03  0.41800000000E+01 0.  1.
         -5    1    3    3    0  502  0.28279878988E+02  0.84244246808E+02 -0.67785972636E+02  0.11184478156E+03  0.41800000000E+01 0.  1.
        -11    1    1    2    0    0 -0.12830019111E+01 -0.64281202821E+02 -0.10434726968E+03  0.12256456184E+03  0.00000000000E+00 0.  1.
         11    1    1    2    0    0 -0.56279235785E+02  0.15368642516E+02 -0.94819484561E+02  0.11132961064E+03  0.00000000000E+00 0. -1.
</event>
<event>
 6    1  0.6506388E-006  0.1046553E+03  0.7561462E-02  0.1270800E+00
          4   -1    0    0  501    0  0.00000000000E+00  0.00000000000E+00  0.69666641336E+02  0.69666641336E+02  0.00000000000E+00 0. -1.
         -4   -1    0    0    0  501 -0.00000000000E+00 -0.00000000000E+00 -0.29045225868E+03  0.29045225868E+03  0.00000000000E+00 0.  1.
          5    1    1    2  502    0  0.80222941787E+02 -0.14561709681E+02 -0.15117522640E+01  0.81654893134E+02  0.41800000000E+01 0. -1.
         -5    1    1    2    0  502 -0.80278476762E+02  0.13139046920E+02 -0.17768213218E+03  0.19546273528E+03  0.41800000000E+01 0.  1.
        -11    1    1    2    0    0 -0.15021700398E+02 -0.16818450454E+02 -0.52353593540E+02  0.57003600896E+02  0.00000000000E+00 0. -1.
         11    1    1    2    0    0  0.15077235372E+02  0.18241113214E+02  0.10761860643E+02  0.25997670708E+02  0.00000000000E+00 0.  1.
</event>
<event>
 7    1  0.6506388E-006  0.1351322E+03  0.7561462E-02  0.1220033E+00
         -1   -1    0    0    0  501 -0.00000000000E+00  0.00000000000E+00  0.15698406492E+03  0.15698406492E+03  0.00000000000E+00 0.  1.
          1   -1    0    0  501    0  0.00000000000E+00 -0.00000000000E+00 -0.11892309201E+03  0.11892309201E+03  0.00000000000E+00 0. -1.
         23    2    1    2    0    0 -0.23730030377E+02 -0.78419213438E+02  0.37260305913E+02  0.15410348626E+03  0.12508743623E+03 0.  0.
          5    1    3    3  502    0 -0.52786913530E+02 -0.99402391136E+02  0.35037904392E+02  0.11795092517E+03  0.41800000000E+01 0.  1.
         -5    1    3    3    0  502  0.29056883153E+02  0.20983177698E+02  0.22224015211E+01  0.36152561090E+02  0.41800000000E+01 0.  1.
        -11    1    1    2    0    0 -0.13476349133E+02 -0.15496300725E+02  0.30492365305E+01  0.20761627237E+02  0.00000000000E+00 0.  1.
         11    1    1    2    0    0  0.37206379510E+02  0.93915514163E+02 -0.22485695350E+01  0.10104204344E+03  0.00000000000E+00 0. -1.
</event>
<event>
 7    1  0.6506388E-006  0.1499529E+03  0.7561462E-02  0.1200531E+00
         -2   -1    0    0    0  501 -0.00000000000E+00  0.00000000000E+00  0.41327658738E+02  0.41327658738E+02  0.00000000000E+00 0.  1.
          2   -1    0    0  501    0  0.00000000000E+00 -0.00000000000E+00 -0.71921652714E+03  0.71921652714E+03  0.00000000000E+00 0. -1.
         23    2    1    2    0    0  0.88979242157E+02  0.73635581097E+02 -0.21096416319E+03  0.27109336400E+03  0.12508488925E+03 0.  0.
          5    1    3    3  502    0  0.10925465046E+03  0.32672072628E+02 -0.18762887506E+03  0.21960444015E+03  0.41800000000E+01 0.  1.
         -5    1    3    3    0  502 -0.20275408303E+02  0.40963508469E+02 -0.23335288130E+02  0.51488923858E+02  0.41800000000E+01 0.  1.
        -11    1    1    2    0    0 -0.71267056649E+02 -0.77680603200E+01 -0.31276845951E+03  0.32087917569E+03  0.00000000000E+00 0. -1.
         11    1    1    2    0    0 -0.17712185508E+02 -0.65867520777E+02 -0.15415624570E+03  0.16857164619E+03  0.00000000000E+00 0.  1.
</event>
<event>
 6    1  0.6506388E-006  0.1536496E+03  0.7561462E-02  0.1196059E+00
          2   -1    0    0  501    0  0.00000000000E+00  0.00000000000E+00  0.49038508510E+03  0.49038508510E+03  0.00000000000E+00 0. -1.
         -2   -1    0    0    0  501 -0.00000000000E+00 -0.00000000000E+00 -0.59217894802E+02  0.59217894802E+02  0.00000000000E+00 0.  1.
          5    1    1    2  502    0 -0.49682963181E+02  0.12961749589E+03  0.20741425397E+03  0.24961417673E+03  0.41800000000E+01 0. -1.
         -5    1    1    2    0  502  0.12064047838E+01 -0.54891284358E+02  0.15650212752E+02  0.57244301640E+02  0.41800000000E+01 0.  1.
        -11    1    1    2    0    0  0.55322046894E+02 -0.20960055794E+02  0.56743559356E+02  0.81973680775E+02  0.00000000000E+00 0.  1.
         11    1    1    2    0    0 -0.68454884968E+01 -0.53766155739E+02  0.15135916421E+03  0.16077082076E+03  0.00000000000E+00 0. -1.
</event>
<event>
 7    1  0.6506388E-006  0.1988837E+03  0.7561462E-02  0.1150684E+00
          1   -1    0    0  501    0  0.00000000000E+00  0.00000000000E+00  0.95280628861E+03  0.95280628861E+03  0.00000000000E+00 0. -1.
         -1   -1    0    0    0  501 -0.00000000000E+00 -0.00000000000E+00 -0.86536761579E+02  0.86536761579E+02  0.00000000000E+00 0.  1.
         23    2    1    2    0    0 -0.13792180445E+03 -0.12340493064E+03  0.98258236435E+02  0.24403736616E+03  0.12509338116E+03 0.  0.
          5    1    3    3  502    0 -0.83367903121E+02 -0.24502565526E+02 -0.99512760170E+01  0.87561882589E+02  0.41800000000E+01 0. -1.
         -5    1    3    3    0  502 -0.54553901325E+02 -0.98902365115E+02  0.10820951245E+03  0.15647548358E+03  0.41800000000E+01 0. -1.
        -11    1    1    2    0    0  0.54870219378E+02  0.78321613281E+01  0.12507093139E+03  0.13680212573E+03  0.00000000000E+00 0. -1.
         11    1    1    2    0    0  0.83051585067E+02  0.11557276931E+03  0.64294035921E+03  0.65850355830E+03  0.00000000000E+00 0.  1.
</event>
<event>
 7    1  0.6506388E-006  0.1696008E+03  0.7561462E-02  0.1178265E+00
          2   -1    0    0  501    0  0.00000000000E+00  0.00000000000E+00  0.47016502217E+02  0.47016502217E+02  0.00000000000E+00 0. -1.
         -2   -1    0    0    0  501 -0.00000000000E+00 -0.00000000000E+00 -0.70837338173E+03  0.70837338173E+03  0.00000000000E+00 0.  1.
         23    2    1    2    0    0  0.11350143944E+03  0.91627675742E+02 -0.32710810063E+03  0.37937515923E+03  0.12509034427E+03 0.  0.
          5    1    3    3  502    0  0.79457198458E+02 -0.89327098422E+01 -0.18794241614E+03  0.20428671978E+03  0.41800000000E+01 0.  1.
         -5    1    3    3    0  502  0.34044240979E+02  0.10056038558E+03 -0.13916568449E+03  0.17508843946E+03  0.41800000000E+01 0.  1.
        -11    1    1    2    0    0 -0.70307620689E+01 -0.27961023127E+02 -0.12964248386E+02  0.31612057285E+02  0.00000000000E+00 0.  1.
         11    1    1    2    0    0 -0.10647067737E+03 -0.63666652615E+02 -0.32128453050E+03  0.34440266743E+03  0.00000000000E+00 0. -1.
</event>
<event>
 7    1  0.6506388E-006  0.1007753E+03  0.7561462E-02  0.1278674E+00
         -2   -1    0    0    0  501 -0.00000000000E+00  0.00000000000E+00  0.15181909441E+03  0.15181909441E+03  0.00000000000E+00 0.  1.
          2   -1    0    0  501    0  0.00000000000E+00 -0.00000000000E+00 -0.82437139049E+02  0.82437139049E+02  0.00000000000E+00 0. -1.
         23    2    1    2    0    0  0.15666556872E+02  0.18178900480E+02  0.62697040109E+02  0.14196820000E+03  0.12509251594E+03 0.  0.
          5    1    3    3  502    0 -0.19289863878E+02 -0.45989283909E+02  0.81927837808E+01  0.50712002415E+02  0.41800000000E+01 0. -1.
         -5    1    3    3    0  502  0.34956420749E+02  0.64168184389E+02  0.54504256328E+02  0.91256197583E+02  0.41800000000E+01 0. -1.
        -11    1    1    2    0    0 -0.49613008713E+01 -0.47158988216E+02 -0.20000425268E+02  0.51464567294E+02  0.00000000000E+00 0. -1.
         11    1    1    2    0    0 -0.10705256000E+02  0.28980087736E+02  0.26685340520E+02  0.40823466167E+02  0.00000000000E+00 0.  1.
</event>
<event>
 7    1  0.6506388E-006  0.2111725E+03  0.7561462E-02  0.1140641E+00
         -2   -1    0    0    0  501 -0.00000000000E+00  0.00000000000E+00  0.12485602549E+03  0.12485602549E+03  0.00000000000E+00 0.  1.
          2   -1    0    0  501    0  0.00000000000E+00 -0.00000000000E+00 -0.48943751663E+03  0.48943751663E+03  0.00000000000E+00 0. -1.
         23    2    1    2    0    0 -0.10837663031E+03  0.17051404101E+03 -0.73456068109E+02  0.24872261065E+03  0.12508641384E+03 0.  0.
          5    1    3    3  502    0 -0.55422039869E+02  0.44870702858E+02  0.30042695485E+02  0.77492053982E+02  0.41800000000E+01 0. -1.
         -5    1    3    3    0  502 -0.52954590443E+02  0.12564333816E+03 -0.10349876359E+03  0.17123055667E+03  0.41800000000E+01 0. -1.
        -11    1    1    2    0    0  0.75192321423E+02 -0.51977115687E+02 -0.81444482577E+02  0.12242838518E+03  0.00000000000E+00 0.  1.
         11    1    1    2    0    0  0.33184308889E+02 -0.11853692533E+03 -0.20968094046E+03  0.24314254629E+03  0.00000000000E+00 0. -1.
</event>
<event>
 6    1  0.6506388E-006  0.1398103E+03  0.7561462E-02  0.1213584E+00
         -1   -1    0    0    0  501 -0.00000000000E+00  0.00000000000E+00  0.38470651195E+03  0.38470651195E+03  0.00000000000E+00 0.  1.
          1   -1    0    0  501    0  0.00000000000E+00 -0.00000000000E+00 -0.51876885897E+02  0.51876885897E+02  0.00000000000E+00 0. -1.
          5    1    1    2  502    0  0.21351503046E+02 -0.70379166839E+02  0.11216166546E+03  0.13418951302E+03  0.41800000000E+01 0. -1.
         -5    1    1    2    0  502 -0.69313919288E+02  0.75152771243E+02  0.11760572174E+03  0.15588757686E+03  0.41800000000E+01 0.  1.
        -11    1    1    2    0    0  0.75721417899E+02 -0.21752485276E+01  0.81434724076E+02  0.11122085740E+03  0.00000000000E+00 0. -1.
         11    1    1    2    0    0 -0.27759001658E+02 -0.25983558765E+01  0.21627514778E+02  0.35285450568E+02  0.00000000000E+00 0.  1.
</event>
<event>
 7    1  0.6506388E-006  0.1401817E+03  0.7561462E-02  0.1213085E+00
         -2   -1    0    0    0  501 -0.00000000000E+00  0.00000000000E+00  0.67541061114E+02  0.67541061114E+02  0.00000000000E+00 0.  1.
          2   -1    0    0  501    0  0.00000000000E+00 -0.00000000000E+00 -0.51440038750E+03  0.51440038750E+03  0.00000000000E+00 0. -1.
         23    2    1    2    0    0  0.87085410909E+02 -0.99549318124E+02 -0.12113428749E+03  0.21865819615E+03  0.12507579945E+03 0.  0.
          5    1    3    3  502    0  0.21534152425E+02 -0.70560623848E+02  0.44216062972E+01  0.74023944509E+02  0.41800000000E+01 0.  1.
         -5    1    3    3    0  502  0.65551258484E+02 -0.28988694276E+02 -0.12555589378E+03  0.14463425164E+03  0.41800000000E+01 0.  1.
        -11    1    1    2    0    0 -0.14215966793E+02  0.33235800812E+02 -0.20156319574E+03  0.20477898829E+03  0.00000000000E+00 0. -1.
         11    1    1    2    0    0 -0.72869444117E+02  0.66313517312E+02 -0.12416184316E+03  0.15850426417E+03  0.00000000000E+00 0.  1.
</event>
<event>
 7    1  0.6506388E-006  0.8823538E+02  0.7561462E-02  0.1307182E+00
         -1   -1    0    0    0  501 -0.00000000000E+00  0.00000000000E+00  0.44030426254E+02  0.44030426254E+02  0.00000000000E+00 0.  1.
          1   -1    0    0  501    0  0.00000000000E+00 -0.00000000000E+00 -0.27125975759E+03  0.27125975759E+03  0.00000000000E+00 0. -1.
         23    2    1    2    0    0 -0.21439169932E+01  0.12107296078E+02 -0.12087199959E+03  0.17438295402E+03  0.12509273108E+03 0.  0.
          5    1    3    3  502    0 -0.15921564437E+02  0.52293007200E+02 -0.11972560602E+03  0.13168047674E+03  0.41800000000E+01 0.  1.
         -5    1    3    3    0  502  0.13777647444E+02 -0.40185711123E+02 -0.11463935652E+01  0.42702477278E+02  0.41800000000E+01 0.  1.
        -11    1    1    2    0    0 -0.60940002431E+01 -0.44817233849E+02 -0.95166725443E+02  0.10536805455E+03  0.00000000000E+00 0. -1.
         11    1    1    2    0    0  0.82379172363E+01  0.32709937771E+02 -0.11190606299E+02  0.35539175268E+02  0.00000000000E+00 0.  1.
</event>
<event>
 7    1  0.6506388E-006  0.1168304E+03  0.7561462E-02  0.1248419E+00
          1   -1    0    0  501    0  0.00000000000E+00  0.00000000000E+00  0.10703417998E+03  0.10703417998E+03  0.00000000000E+00 0. -1.
         -1   -1    0    0    0  501 -0.00000000000E+00 -0.00000000000E+00 -0.15383100071E+03  0.15383100071E+03  0.00000000000E+00 0.  1.
         23    2    1    2    0    0  0.48711514758E+02 -0.24460566041E+02 -0.68887386575E+02  0.15285451169E+03  0.12509156149E+03 0.  0.
          5    1    3    3  502    0  0.66423126104E+02  0.31895045997E+02 -0.54958276142E+02  0.92017444852E+02  0.41800000000E+01 0. -1.
         -5    1    3    3    0  502 -0.17711611346E+02 -0.56355612038E+02 -0.13929110433E+02  0.60837066843E+02  0.41800000000E+01 0. -1.
        -11    1    1    2    0    0 -0.63875321754E+02  0.42763730109E+02  0.20096900650E+01  0.76894942592E+02  0.00000000000E+00 0.  1.
         11    1    1    2    0    0  0.15163806996E+02 -0.18303164068E+02  0.20080875778E+02  0.31115726402E+02  0.00000000000E+00 0. -1.
</event>
<event>
 7    1  0.6506388E-006  0.2958175E+03  0.7561462E-02  0.1087350E+00
         -1   -1    0    0    0  501 -0.00000000000E+00  0.00000000000E+00  0.32096071713E+04  0.32096071713E+04  0.00000000000E+00 0.  1.
          1   -1    0    0  501    0  0.00000000000E+00 -0.00000000000E+00 -0.29683581228E+02  0.29683581228E+02  0.00000000000E+00 0. -1.
         23    2    1    2    0    0  0.24013456281E+03  0.14893993262E+03  0.19831448822E+04  0.20070788300E+04  0.12511632203E+03 0.  0.
          5    1    3    3  502    0  0.18967687225E+03  0.47379918571E+02  0.12504347783E+04  0.12656329562E+04  0.41800000000E+01 0.  1.
         -5    1    3    3    0  502  0.50457690560E+02  0.10156001405E+03  0.73271010387E+03  0.74144587375E+03  0.41800000000E+01 0.  1.
        -11    1    1    2    0    0 -0.13163625320E+03 -0.84101358158E+02  0.49244018007E+03  0.51662217582E+03  0.00000000000E+00 0.  1.
         11    1    1    2    0    0 -0.10849830960E+03 -0.64838574459E+02  0.70433852775E+03  0.71558974671E+03  0.00000000000E+00 0. -1.
</event>
<event>
 7    1  0.6506388E-006  0.2140921E+03  0.7561462E-02  0.1138366E+00
          2   -1    0    0  501    0  0.00000000000E+00  0.00000000000E+00  0.49792985055E+02  0.49792985055E+02  0.00000000000E+00 0. -1.
         -2   -1    0    0    0  501 -0.00000000000E+00 -0.00000000000E+00 -0.10265033388E+04  0.10265033388E+04  0.00000000000E+00 0.  1.
         23    2    1    2    0    0 -0.12725744128E+03  0.13925623251E+03 -0.63987747238E+03  0.67873297914E+03  0.12509405525E+03 0.  0.
          5    1    3    3  502    0  0.17843146629E+02 -0.76196885558E+01 -0.56391789073E+02  0.59782470760E+02  0.41800000000E+01 0. -1.
         -5    1    3    3    0  502 -0.14510058791E+03  0.14687592106E+03 -0.58348568331E+03  0.61895050838E+03  0.41800000000E+01 0. -1.
        -11    1    1    2    0    0  0.24100564720E+02  0.48754939245E+01 -0.92501673717E+02  0.95713986967E+02  0.00000000000E+00 0.  1.
         11    1    1    2    0    0  0.10315687656E+03 -0.14413172643E+03 -0.24433120769E+03  0.30184935779E+03  0.00000000000E+00 0. -1.
</event>
<event>
 7    1  0.6506388E-006  0.1113462E+03  0.7561462E-02  0.1258097E+00
          1   -1    0    0  501    0  0.00000000000E+00  0.00000000000E+00  0.69654327487E+03  0.69654327487E+03  0.00000000000E+00 0. -1.
         -1   -1    0    0    0  501 -0.00000000000E+00 -0.00000000000E+00 -0.30682258607E+02  0.30682258607E+02  0.00000000000E+00 0.  1.
         23    2    1    2    0    0  0.34109078611E+02  0.88668275410E+02  0.38862994976E+03  0.41917380515E+03  0.12509176138E+03 0.  0.
          5    1    3    3  502    0 -0.17936166903E+02  0.69452503805E+02  0.33237674714E+03  0.34005459975E+03  0.41800000000E+01 0. -1.
         -5    1    3    3    0  502  0.52045245514E+02  0.19215771605E+02  0.56253202620E+02  0.79119205406E+02  0.41800000000E+01 0. -1.
        -11    1    1    2    0    0 -0.19698369466E+02 -0.59369015924E+02  0.26640851046E+03  0.27365343093E+03  0.00000000000E+00 0. -1.
         11    1    1    2    0    0 -0.14410709145E+02 -0.29299259486E+02  0.10822556034E+02  0.34398297394E+02  0.00000000000E+00 0.  1.
</event>
<event>
 7    1  0.6506388E-006  0.1562163E+03  0.7561462E-02  0.1193036E+00
          2   -1    0    0  501    0  0.00000000000E+00  0.00000000000E+00  0.87903082767E+03  0.87903082767E+03  0.00000000000E+00 0. -1.
         -2   -1    0    0    0  501 -0.00000000000E+00 -0.00000000000E+00 -0.52234458884E+02  0.52234458884E+02  0.00000000000E+00 0.  1.
         23    2    1    2    0    0 -0.13915822780E+03  0.56228918311E+02  0.20865887370E+03  0.28584983569E+03  0.12507957215E+03 0.  0.
          5    1    3    3  502    0 -0.65569816049E+02  0.58959186540E+02  0.19039446986E+03  0.20986451108E+03  0.41800000000E+01 0.  1.
         -5    1    3    3    0  502 -0.73588411754E+02 -0.27302682288E+01  0.18264403841E+02  0.75985324614E+02  0.41800000000E+01 0.  1.
        -11    1    1    2    0    0  0.46395963153E+02 -0.13901991054E+02  0.55710831141E+02  0.73821050240E+02  0.00000000000E+00 0.  1.
         11    1    1    2    0    0  0.92762264649E+02 -0.42326927257E+02  0.56242666394E+03  0.57159440063E+03  0.00000000000E+00 0. -1.
</event>
<event>
 7    1  0.6506388E-006  0.8954652E+02  0.7561462E-02  0.1303954E+00
         -2   -1    0    0    0  501 -0.00000000000E+00  0.00000000000E+00  0.38895933029E+03  0.38895933029E+03  0.00000000000E+00 0.  1.
          2   -1    0    0  501    0  0.00000000000E+00 -0.00000000000E+00 -0.32943063948E+02  0.32943063948E+02  0.00000000000E+00 0. -1.
         23    2    1    2    0    0  0.11491323562E+02  0.30634550281E+02  0.22957707539E+03  0.26348372556E+03  0.12509002319E+03 0.  0.
          5    1    3    3  502    0  0.64169336796E+02  0.18340406443E+02  0.79401950943E+02  0.10380855700E+03  0.41800000000E+01 0.  1.
         -5    1    3    3    0  502 -0.52678013234E+02  0.12294143838E+02  0.15017512445E+03  0.15967516856E+03  0.41800000000E+01 0.  1.
        -11    1    1    2    0    0 -0.12677625748E+02 -0.43366427500E+02  0.13544271084E+03  0.14277989056E+03  0.00000000000E+00 0.  1.
         11    1    1    2    0    0  0.11863021860E+01  0.12731877219E+02 -0.90035198942E+01  0.15638778113E+02  0.00000000000E+00 0. -1.
</event>
<event>
 7    1  0.1803234E-005  0.1410392E+03  0.7561462E-02  0.1211937E+00
          1   -1    0    0  501    0  0.00000000000E+00  0.00000000000E+00  0.12621844256E+04  0.12621844256E+04  0.00000000000E+00 0. -1.
         -1   -1    0    0    0  501 -0.00000000000E+00 -0.00000000000E+00 -0.21488695504E+02  0.21488695504E+02  0.00000000000E+00 0.  1.
         23    2    1    2    0    0  0.84586201186E+02  0.88528497757E+02  0.61304904778E+03  0.63754924169E+03  0.12509108777E+03 0.  0.
          5    1    3    3  502    0  0.22703152809E+01  0.39486461349E+02  0.39562222434E+02  0.56097921577E+02  0.41800000000E+01 0.  1.
         -5    1    3    3    0  502  0.82315885905E+02  0.49042036409E+02  0.57348682535E+03  0.58145132011E+03  0.41800000000E+01 0.  1.
        -11    1    1    2    0    0 -0.10777273636E+01 -0.57193707382E+02  0.34583405067E+03  0.35053312578E+03  0.00000000000E+00 0. -1.
         11    1    1    2    0    0 -0.83508473822E+02 -0.31334790375E+02  0.28181263165E+03  0.29559075365E+03  0.00000000000E+00 0.  1.
</event>
<event>
 7    1  0.6506388E-006  0.1364437E+03  0.7561462E-02  0.1218196E+00
          1   -1    0    0  501    0  0.00000000000E+00  0.00000000000E+00  0.41492511408E+03  0.41492511408E+03  0.00000000000E+00 0. -1.
         -1   -1    0    0    0  501 -0.00000000000E+00 -0.00000000000E+00 -0.63659721697E+02  0.63659721697E+02  0.00000000000E+00 0.  1.
         23    2    1    2    0    0 -0.79879515937E+02 -0.72947889819E+02  0.10968104702E+03  0.19844355606E+03  0.12509109149E+03 0.  0.
          5    1    3    3  502    0 -0.88716562782E+02  0.19762105741E+01  0.69979103638E+02  0.11308882025E+03  0.41800000000E+01 0. -1.
         -5    1    3    3    0  502  0.88370468447E+01 -0.74924100393E+02  0.39701943379E+02  0.85354735807E+02  0.41800000000E+01 0. -1.
        -11    1    1    2    0    0  0.31263088527E+02  0.23186521263E+02  0.12737916848E+02  0.40954242736E+02  0.00000000000E+00 0.  1.
         11    1    1    2    0    0  0.48616427410E+02  0.49761368556E+02  0.22884642852E+03  0.23918703698E+03  0.00000000000E+00 0. -1.
</event>
<event>
 7    1  0.6506388E-006  0.1008186E+03  0.7561462E-02  0.1278584E+00
          2   -1    0    0  501    0  0.00000000000E+00  0.00000000000E+00  0.94266218955E+02  0.94266218955E+02  0.00000000000E+00 0. -1.
         -2   -1    0    0    0  501 -0.00000000000E+00 -0.00000000000E+00 -0.14929719930E+03  0.14929719930E+03  0.00000000000E+00 0.  1.
         23    2    1    2    0    0 -0.17076562970E+02 -0.10858544749E+02 -0.74683543498E+02  0.14708906508E+03  0.12509214364E+03 0.  0.
          5    1    3    3  502    0 -0.64112314820E+02  0.22048457431E+02 -0.50580169427E+02  0.84689723851E+02  0.41800000000E+01 0.  1.
         -5    1    3    3    0  502  0.47035751850E+02 -0.32907002180E+02 -0.24103374071E+02  0.62399341232E+02  0.41800000000E+01 0.  1.
        -11    1    1    2    0    0  0.39716091523E+02  0.27283432849E+02 -0.16350640778E+02  0.50883170967E+02  0.00000000000E+00 0.  1.
         11    1    1    2    0    0 -0.22639528552E+02 -0.16424888099E+02  0.36003203927E+02  0.45591182208E+02  0.00000000000E+00 0. -1.
</event>
<event>
 7    1  0.6506388E-006  0.1139974E+03  0.7561462E-02  0.1253341E+00
         -2   -1    0    0    0  501 -0.00000000000E+00  0.00000000000E+00  0.32230672077E+02  0.32230672077E+02  0.00000000000E+00 0.  1.
          2   -1    0    0  501    0  0.00000000000E+00 -0.00000000000E+00 -0.73137334634E+03  0.73137334634E+03  0.00000000000E+00 0. -1.
         23    2    1    2    0    0  0.10403607490E+03  0.29917997399E+02 -0.37178714183E+03  0.40692970067E+03  0.12509001162E+03 0.  0.
          5    1    3    3  502    0  0.38561303544E+02 -0.13102967568E+02 -0.18306438675E+02  0.44847073339E+02  0.41800000000E+01 0.  1.
         -5    1    3    3    0  502  0.65474771353E+02  0.43020964967E+02 -0.35348070316E+03  0.36208262733E+03  0.41800000000E+01 0.  1.
        -11    1    1    2    0    0 -0.85963712722E+02 -0.28078447309E+02 -0.32616484672E+03  0.33846959442E+03  0.00000000000E+00 0. -1.
         11    1    1    2    0    0 -0.18072362175E+02 -0.18395500896E+01 -0.11906857105E+01  0.18204723331E+02  0.00000000000E+00 0.  1.
</event>
<event>
 7    1  0.6506388E-006  0.1137695E+03  0.7561462E-02  0.1253744E+00
         -2   -1    0    0    0  501 -0.00000000000E+00  0.00000000000E+00  0.18356169925E+02  0.18356169925E+02  0.00000000000E+00 0.  1.
          2   -1    0    0  501    0  0.00000000000E+00 -0.00000000000E+00 -0.83917902649E+03  0.83917902649E+03  0.00000000000E+00 0. -1.
         23    2    1    2    0    0 -0.42198309645E+02  0.39827219610E+02 -0.43679973127E+03  0.45804866244E+03  0.12509063579E+03 0.  0.
          5    1    3    3  502    0  0.79475438130E+01  0.61879546247E+02 -0.34840721119E+03  0.35397358504E+03  0.41800000000E+01 0. -1.
         -5    1    3    3    0  502 -0.50145853458E+02 -0.22052326637E+02 -0.88392520085E+02  0.10407507740E+03  0.41800000000E+01 0. -1.
        -11    1    1    2    0    0  0.67771277177E+02 -0.65270875223E+01 -0.23756731491E+03  0.24713109476E+03  0.00000000000E+00 0.  1.
         11    1    1    2    0    0 -0.25572967533E+02 -0.33300132088E+02 -0.14645581038E+03  0.15235543922E+03  0.00000000000E+00 0. -1.
</event>
<event>
 6    1  0.6506388E-006  0.1143519E+03  0.7561462E-02  0.1252717E+00
         -2   -1    0    0    0  501 -0.00000000000E+00  0.00000000000E+00  0.23056407423E+02  0.23056407423E+02  0.00000000000E+00 0.  1.
          2   -1    0    0  501    0  0.00000000000E+00 -0.00000000000E+00 -0.71545690605E+03  0.71545690605E+03  0.00000000000E+00 0. -1.
          5    1    1    2  502    0  0.47633207812E+02 -0.40536281357E+02 -0.33635862939E+03  0.34215013161E+03  0.41800000000E+01 0. -1.
         -5    1    1    2    0  502  0.36285423133E+00  0.59288083303E+02 -0.74381749903E+02  0.95212003464E+02  0.41800000000E+01 0.  1.
        -11    1    1    2    0    0 -0.31279355390E+02  0.36957620716E+02 -0.12753629643E+03  0.13641763343E+03  0.00000000000E+00 0.  1.
         11    1    1    2    0    0 -0.16716706653E+02 -0.55709422661E+02 -0.15412382290E+03  0.16473354498E+03  0.00000000000E+00 0. -1.
</event>
<event>
 7    1  0.6506388E-006  0.1687339E+03  0.7561462E-02  0.1179175E+00
          3   -1    0    0  501    0  0.00000000000E+00  0.00000000000E+00  0.20765785362E+02  0.20765785362E+02  0.00000000000E+00 0. -1.
         -3   -1    0    0    0  501 -0.00000000000E+00 -0.00000000000E+00 -0.19154533546E+04  0.19154533546E+04  0.00000000000E+00 0.  1.
         23    2    1    2    0    0 -0.46932572698E+02  0.12241060102E+03 -0.14993319658E+04  0.15102420186E+04  0.12509032415E+03 0.  0.
          5    1    3    3  502    0 -0.30228101300E+02 -0.20556826490E+02 -0.26627461388E+03  0.26880469419E+03  0.41800000000E+01 0.  1.
         -5    1    3    3    0  502 -0.16704471398E+02  0.14296742751E+03 -0.12330573520E+04  0.12414373244E+04  0.41800000000E+01 0.  1.
        -11    1    1    2    0    0  0.33773515630E+02 -0.21811299851E+00 -0.11522797359E+03  0.12007574205E+03  0.00000000000E+00 0.  1.
         11    1    1    2    0    0  0.13159057068E+02 -0.12219248803E+03 -0.28012762985E+03  0.30590137940E+03  0.00000000000E+00 0. -1.
</event>
<event>
 7    1  0.6506388E-006  0.1132694E+03  0.7561462E-02  0.1254633E+00
         -4   -1    0    0    0  501 -0.00000000000E+00  0.00000000000E+00  0.35285436064E+02  0.35285436064E+02  0.00000000000E+00 0.  1.
          4   -1    0    0  501    0  0.00000000000E+00 -0.00000000000E+00 -0.44823221143E+03  0.44823221143E+03  0.00000000000E+00 0. -1.
         23    2    1    2    0    0  0.47423497040E+02  0.16216119026E+02 -0.15475815052E+03  0.20520539602E+03  0.12508884369E+03 0.  0.
          5    1    3    3  502    0  0.71834482255E+02 -0.28761337450E+02 -0.62228513202E+02  0.99384443592E+02  0.41800000000E+01 0. -1.
         -5    1    3    3    0  502 -0.24410985216E+02  0.44977456476E+02 -0.92529637321E+02  0.10582095243E+03  0.41800000000E+01 0. -1.
        -11    1    1    2    0    0 -0.51889502169E+01 -0.45828169157E+02 -0.75419418930E+02  0.88403818042E+02  0.00000000000E+00 0.  1.
         11    1    1    2    0    0 -0.42234546823E+02  0.29612050130E+02 -0.18276920591E+03  0.18990843343E+03  0.00000000000E+00 0. -1.
</event>
<event>
 7    1  0.6506388E-006  0.9347420E+02  0.7561462E-02  0.1294650E+00
          2   -1    0    0  501    0  0.00000000000E+00  0.00000000000E+00  0.67596816738E+03  0.67596816738E+03  0.00000000000E+00 0. -1.
         -2   -1    0    0    0  501 -0.00000000000E+00 -0.00000000000E+00 -0.22989922164E+02  0.22989922164E+02  0.00000000000E+00 0.  1.
         23    2    1    2    0    0 -0.39296838855E+02 -0.43357594713E+02  0.30355408914E+03  0.33349269908E+03  0.12509265663E+03 0.  0.
          5    1    3    3  502    0 -0.19105341242E+02  0.14183224576E+02  0.32152492105E+00  0.24160995460E+02  0.41800000000E+01 0. -1.
         -5    1    3    3    0  502 -0.20191497613E+02 -0.57540819290E+02  0.30323256422E+03  0.30933170362E+03  0.41800000000E+01 0. -1.
        -11    1    1    2    0    0  0.65581438178E+02  0.32975031292E+02  0.29669117336E+03  0.30563692525E+03  0.00000000000E+00 0. -1.
         11    1    1    2    0    0 -0.26284599323E+02  0.10382563422E+02  0.52732982713E+02  0.59828465220E+02  0.00000000000E+00 0.  1.
</event>
<event>
 7    1  0.6506388E-006  0.9171676E+02  0.7561462E-02  0.1298747E+00
          1   -1    0    0  501    0  0.00000000000E+00  0.00000000000E+00  0.46683058875E+03  0.46683058875E+03  0.00000000000E+00 0. -1.
         -1   -1    0    0    0  501 -0.00000000000E+00 -0.00000000000E+00 -0.33156019255E+02  0.33156019255E+02  0.00000000000E+00 0.  1.
         23    2    1    2    0    0 -0.22561171313E+02  0.36713045411E+02  0.15325865640E+03  0.20245453259E+03  0.12507105121E+03 0.  0.
          5    1    3    3  502    0  0.31427709220E+02  0.35175768907E+01 -0.46635459497E+01  0.32238103462E+02  0.41800000000E+01 0.  1.
         -5    1    3    3    0  502 -0.53988880532E+02  0.33195468521E+02  0.15792220235E+03  0.17021642913E+03  0.41800000000E+01 0.  1.
        -11    1    1    2    0    0 -0.28600379658E+02 -0.99606789347E+01  0.39382794580E+02  0.49680995868E+02  0.00000000000E+00 0. -1.
         11    1    1    2    0    0  0.51161550971E+02 -0.26752366477E+02  0.24103311852E+03  0.24785107955E+03  0.00000000000E+00 0.  1.
</event>
<event>
 7    1  0.6506388E-006  0.8168859E+02  0.7561462E-02  0.1324327E+00
          1   -1    0    0  501    0  0.00000000000E+00  0.00000000000E+00  0.36518917750E+03  0.36518917750E+03  0.00000000000E+00 0. -1.
         -1   -1    0    0    0  501 -0.00000000000E+00 -0.00000000000E+00 -0.32945510021E+02  0.32945510021E+02  0.00000000000E+00 0.  1.
         23    2    1    2    0    0  0.10386409758E+02 -0.17259423599E+01  0.18472950751E+03  0.22334745601E+03  0.12509292058E+03 0.  0.
          5    1    3    3  502    0  0.54755474809E+01 -0.49958478126E+02  0.24839805649E+02  0.56216719057E+02  0.41800000000E+01 0.  1.
         -5    1    3    3    0  502  0.49108622775E+01  0.48232535766E+02  0.15988970186E+03  0.16713073695E+03  0.41800000000E+01 0.  1.
        -11    1    1    2    0    0  0.26370181096E+02  0.66593897741E+01  0.13168464236E+03  0.13446404336E+03  0.00000000000E+00 0. -1.
         11    1    1    2    0    0 -0.36756590855E+02 -0.49334474142E+01  0.15829517611E+02  0.40323188148E+02  0.00000000000E+00 0.  1.
</event>
<event>
 6    1  0.6506388E-006  0.1385963E+03  0.7561462E-02  0.1215230E+00
         -1   -1    0    0    0  501 -0.00000000000E+00  0.00000000000E+00  0.59237533766E+02  0.59237533766E+02  0.00000000000E+00 0.  1.
          1   -1    0    0  501    0  0.00000000000E+00 -0.00000000000E+00 -0.33599474381E+03  0.33599474381E+03  0.00000000000E+00 0. -1.
          5    1    1    2  502    0 -0.36820287883E+02 -0.62494439334E+02 -0.90215435293E+02  0.11583430283E+03  0.41800000000E+01 0. -1.
         -5    1    1    2    0  502  0.40750983520E+02  0.10122374578E+03 -0.88742657033E+02  0.14071112588E+03  0.41800000000E+01 0.  1.
        -11    1    1    2    0    0 -0.71300107885E+01 -0.66753196523E+02 -0.83262195883E+02  0.10695522223E+03  0.00000000000E+00 0. -1.
         11    1    1    2    0    0  0.31993151512E+01  0.28023890073E+02 -0.14536921832E+02  0.31731626630E+02  0.00000000000E+00 0.  1.
</event>
<event>
 7    1  0.6506388E-006  0.1263211E+03  0.7561462E-02  0.1233019E+00
          3   -1    0    0  501    0  0.00000000000E+00  0.00000000000E+00  0.10737289219E+03  0.10737289219E+03  0.00000000000E+00 0. -1.
         -3   -1    0    0    0  501 -0.00000000000E+00 -0.00000000000E+00 -0.20369480728E+03  0.20369480728E+03  0.00000000000E+00 0.  1.
         23    2    1    2    0    0 -0.80602698263E+02 -0.24114135265E+02 -0.12018605673E+03  0.18435078779E+03  0.11163439542E+03 0.  0.
          5    1    3    3  502    0  0.58708170874E+01 -0.45863937082E+02 -0.21132978979E+02  0.51010218765E+02  0.41800000000E+01 0. -1.
         -5    1    3    3    0  502 -0.86473515351E+02  0.21749801816E+02 -0.99053077756E+02  0.13334056903E+03  0.41800000000E+01 0.  1.
        -11    1    1    2    0    0  0.35884982335E+02  0.52787412030E+02 -0.86835751110E+01  0.64417756114E+02  0.00000000000E+00 0.  1.
         11    1    1    2    0    0  0.44717715928E+02 -0.28673276765E+02  0.32547716757E+02  0.62299155567E+02  0.00000000000E+00 0. -1.
</event>
<event>
 7    1  0.6506388E-006  0.1090680E+03  0.7561462E-02  0.1262306E+00
         -1   -1    0    0    0  501 -0.00000000000E+00  0.00000000000E+00  0.61513288842E+02  0.61513288842E+02  0.00000000000E+00 0.  1.
          1   -1    0    0  501    0  0.00000000000E+00 -0.00000000000E+00 -0.24595659134E+03  0.24595659134E+03  0.00000000000E+00 0. -1.
         23    2    1    2    0    0  0.56749340296E+02 -0.27768294931E+00 -0.87035767052E+02  0.16261141313E+03  0.12508669874E+03 0.  0.
          5    1    3    3  502    0  0.25232248450E+02  0.47675034685E+02  0.47215382535E+01  0.54307832010E+02  0.41800000000E+01 0. -1.
         -5    1    3    3    0  502  0.31517091846E+02 -0.47952717635E+02 -0.91757305305E+02  0.10830358112E+03  0.41800000000E+01 0. -1.
        -11    1    1    2    0    0 -0.91405066114E+01 -0.41905388919E+02 -0.31138304646E+02  0.53001929190E+02  0.00000000000E+00 0. -1.
         11    1    1    2    0    0 -0.47608833685E+02  0.42183071868E+02 -0.66269230802E+02  0.91856537863E+02  0.00000000000E+00 0.  1.
</event>
<event>
 7    1  0.6506388E-006  0.4376453E+02  0.7561462E-02  0.1482205E+00
         -1   -1    0    0    0  501 -0.00000000000E+00  0.00000000000E+00  0.47864436986E+02  0.47864436986E+02  0.00000000000E+00 0.  1.
          1   -1    0    0  501    0  0.00000000000E+00 -0.00000000000E+00 -0.23607308811E+03  0.23607308811E+03  0.00000000000E+00 0. -1.
         23    2    1    2    0    0 -0.13419038654E+02 -0.13737482013E+02 -0.95336361297E+02  0.15845730606E+03  0.12510358527E+03 0.  0.
          5    1    3    3  502    0 -0.83109333268E+01  0.17487483628E+02  0.26174725855E+02  0.32824874256E+02  0.41800000000E+01 0.  1.
         -5    1    3    3    0  502 -0.51081053271E+01 -0.31224965641E+02 -0.12151108715E+03  0.12563243180E+03  0.41800000000E+01 0.  1.
        -11    1    1    2    0    0  0.19371312251E+02 -0.15178692423E+01 -0.10392363853E+03  0.10572452085E+03  0.00000000000E+00 0. -1.
         11    1    1    2    0    0 -0.59522735971E+01  0.15255351255E+02  0.11051348696E+02  0.19755698188E+02  0.00000000000E+00 0.  1.
</event>
<event>
 7    1  0.6506388E-006  0.9660598E+02  0.7561462E-02  0.1287599E+00
         -1   -1    0    0    0  501 -0.00000000000E+00  0.00000000000E+00  0.53740424050E+02  0.53740424050E+02  0.00000000000E+00 0.  1.
          1   -1    0    0  501    0  0.00000000000E+00 -0.00000000000E+00 -0.27411253408E+03  0.27411253408E+03  0.00000000000E+00 0. -1.
         23    2    1    2    0    0  0.73858694853E+01 -0.26985539362E+02 -0.63156329864E+02  0.14289357861E+03  0.12508829842E+03 0.  0.
          5    1    3    3  502    0 -0.43929890475E+02 -0.20822673827E+02 -0.75215652886E+02  0.89656488117E+02  0.41800000000E+01 0. -1.
         -5    1    3    3    0  502  0.51315759960E+02 -0.61628655358E+01  0.12059323022E+02  0.53237090488E+02  0.41800000000E+01 0. -1.
        -11    1    1    2    0    0  0.25433200424E+02 -0.21981752822E+02 -0.31316330617E+02  0.45942983188E+02  0.00000000000E+00 0.  1.
         11    1    1    2    0    0 -0.32819069909E+02  0.48967292185E+02 -0.12589944955E+03  0.13901639634E+03  0.00000000000E+00 0. -1.
</event>
<event>
 7    1  0.6506388E-006  0.1076215E+03  0.7561462E-02  0.1265039E+00
          1   -1    0    0  501    0  0.00000000000E+00  0.00000000000E+00  0.65856599936E+03  0.65856599936E+03  0.00000000000E+00 0. -1.
         -1   -1    0    0    0  501 -0.00000000000E+00 -0.00000000000E+00 -0.25891018798E+02  0.25891018798E+02  0.00000000000E+00 0.  1.
         23    2    1    2    0    0 -0.47399217312E+01 -0.17831349921E+02  0.16412893130E+03  0.20718569746E+03  0.12508870149E+03 0.  0.
          5    1    3    3  502    0  0.52800316000E+02 -0.36404939643E+02  0.68176376535E+02  0.93694630142E+02  0.41800000000E+01 0.  1.
         -5    1    3    3    0  502 -0.57540237731E+02  0.18573589722E+02  0.95952554768E+02  0.11349106731E+03  0.41800000000E+01 0.  1.
        -11    1    1    2    0    0 -0.92519807244E+01 -0.34746412768E+02  0.21089526237E+03  0.21393859875E+03  0.00000000000E+00 0.  1.
         11    1    1    2    0    0  0.13991902456E+02  0.52577762689E+02  0.25765078690E+03  0.26333272195E+03  0.00000000000E+00 0. -1.
</event>
<event>
 7    1  0.6506388E-006  0.1297958E+03  0.7561462E-02  0.1227759E+00
         -2   -1    0    0    0  501 -0.00000000000E+00  0.00000000000E+00  0.58074593404E+02  0.58074593404E+02  0.00000000000E+00 0.  1.
          2   -1    0    0  501    0  0.00000000000E+00 -0.00000000000E+00 -0.44495816146E+03  0.44495816146E+03  0.00000000000E+00 0. -1.
         23    2    1    2    0    0  0.52689327511E+02 -0.96720786318E+02 -0.10393338291E+03  0.18843628254E+03  0.11213834649E+03 0.  0.
          5    1    3    3  502    0 -0.11254220723E+02 -0.39371200181E+01 -0.69349385977E+02  0.70490908162E+02  0.41800000000E+01 0. -1.
         -5    1    3    3    0  502  0.63943548234E+02 -0.92783666300E+02 -0.34583996933E+02  0.11794537438E+03  0.41800000000E+01 0.  1.
        -11    1    1    2    0    0 -0.51984056464E+02  0.17321950328E+02 -0.82977998518E+02  0.99437117454E+02  0.00000000000E+00 0.  1.
         11    1    1    2    0    0 -0.70527104723E+00  0.79398835990E+02 -0.19997218663E+03  0.21515935487E+03  0.00000000000E+00 0. -1.
</event>
<event>
 7    1  0.6506388E-006  0.1164853E+03  0.7561462E-02  0.1249010E+00
         -2   -1    0    0    0  501 -0.00000000000E+00  0.00000000000E+00  0.47900006384E+02  0.47900006384E+02  0.00000000000E+00 0.  1.
          2   -1    0    0  501    0  0.00000000000E+00 -0.00000000000E+00 -0.38844301223E+03  0.38844301223E+03  0.00000000000E+00 0. -1.
         23    2    1    2    0    0 -0.46494993180E+02 -0.63999074832E+02 -0.14619341621E+03  0.20803206721E+03  0.12508860889E+03 0.  0.
          5    1    3    3  502    0 -0.87821389384E+02 -0.57500886281E+02 -0.11442470508E+03  0.15533651821E+03  0.41800000000E+01 0. -1.
         -5    1    3    3    0  502  0.41326396203E+02 -0.64981885512E+01 -0.31768711127E+02  0.52695548999E+02  0.41800000000E+01 0. -1.
        -11    1    1    2    0    0  0.15259354487E+02  0.48812265328E+02 -0.18556773788E+03  0.19248602673E+03  0.00000000000E+00 0. -1.
         11    1    1    2    0    0  0.31235638694E+02  0.15186809504E+02 -0.87818517580E+01  0.35824924673E+02  0.00000000000E+00 0.  1.
</event>
<event>
 7    1  0.6506388E-006  0.1083062E+03  0.7561462E-02  0.1263739E+00
          2   -1    0    0  501    0  0.00000000000E+00  0.00000000000E+00  0.36542555632E+03  0.36542555632E+03  0.00000000000E+00 0. -1.
         -2   -1    0    0    0  501 -0.00000000000E+00 -0.00000000000E+00 -0.66424661345E+02  0.66424661345E+02  0.00000000000E+00 0.  1.
         23    2    1    2    0    0  0.84912188050E+02  0.34600157932E+02  0.73281710749E+02  0.17153805463E+03  0.12509134441E+03 0.  0.
          5    1    3    3  502    0  0.15789178537E+02  0.19405631457E+02  0.94251822637E+02  0.97605098030E+02  0.41800000000E+01 0. -1.
         -5    1    3    3    0  502  0.69123009513E+02  0.15194526475E+02 -0.20970111888E+02  0.73932956599E+02  0.41800000000E+01 0. -1.
        -11    1    1    2    0    0 -0.35205338710E+02 -0.56069859709E+02  0.17083309685E+03  0.18321351484E+03  0.00000000000E+00 0.  1.
         11    1    1    2    0    0 -0.49706849340E+02  0.21469701777E+02  0.54886087372E+02  0.77098648190E+02  0.00000000000E+00 0. -1.
</event>
<event>
 7    1  0.6506388E-006  0.1316752E+03  0.7561462E-02  0.1224991E+00
         -1   -1    0    0    0  501 -0.00000000000E+00  0.00000000000E+00  0.22566706871E+02  0.22566706871E+02  0.00000000000E+00 0.  1.
          1   -1    0    0  501    0  0.00000000000E+00 -0.00000000000E+00 -0.11369157108E+04  0.11369157108E+04  0.00000000000E+00 0. -1.
         23    2    1    2    0    0  0.10176087948E+03 -0.58929457083E+02 -0.60938277219E+03  0.63310578328E+03  0.12509041642E+03 0.  0.
          5    1    3    3  502    0  0.95525139461E+02 -0.33883879266E+02 -0.59435191242E+03  0.60294679512E+03  0.41800000000E+01 0.  1.
         -5    1    3    3    0  502  0.62357400198E+01 -0.25045577817E+02 -0.15030859765E+02  0.30158988164E+02  0.41800000000E+01 0.  1.
        -11    1    1    2    0    0 -0.29458083410E+02  0.56146053801E+02 -0.34540263430E+03  0.35117394239E+03  0.00000000000E+00 0.  1.
         11    1    1    2    0    0 -0.72302796071E+02  0.27834032821E+01 -0.15956359743E+03  0.17520269198E+03  0.00000000000E+00 0. -1.
</event>
<event>
 7    1  0.6506388E-006  0.8185138E+02  0.7561462E-02  0.1323878E+00
         -1   -1    0    0    0  501 -0.00000000000E+00  0.00000000000E+00  0.20833174274E+02  0.20833174274E+02  0.00000000000E+00 0.  1.
          1   -1    0    0  501    0  0.00000000000E+00 -0.00000000000E+00 -0.74017685992E+03  0.74017685992E+03  0.00000000000E+00 0. -1.
         23    2    1    2    0    0  0.38967955464E+02 -0.45071739966E+02 -0.43392091433E+03  0.45550507842E+03  0.12509018055E+03 0.  0.
          5    1    3    3  502    0  0.42905059642E+02 -0.69367614126E+01 -0.38513150719E+02  0.58221112838E+02  0.41800000000E+01 0. -1.
         -5    1    3    3    0  502 -0.39371041779E+01 -0.38134978553E+02 -0.39540776361E+03  0.39728396558E+03  0.41800000000E+01 0. -1.
        -11    1    1    2    0    0 -0.12668059310E+02  0.52612038926E+02 -0.26721738114E+03  0.27264195413E+03  0.00000000000E+00 0. -1.
         11    1    1    2    0    0 -0.26299896155E+02 -0.75402989602E+01 -0.18205390171E+02  0.32863001650E+02  0.00000000000E+00 0.  1.
</event>
<event>
 7    1  0.6506388E-006  0.1310392E+03  0.7561462E-02  0.1225922E+00
          2   -1    0    0  501    0  0.00000000000E+00  0.00000000000E+00  0.45244857138E+03  0.45244857138E+03  0.00000000000E+00 0. -1.
         -2   -1    0    0    0  501 -0.00000000000E+00 -0.00000000000E+00 -0.44635030991E+02  0.44635030991E+02  0.00000000000E+00 0.  1.
         23    2    1    2    0    0 -0.51254974648E+02 -0.81488301347E+02  0.18765504223E+03  0.24521373423E+03  0.12509174593E+03 0.  0.
          5    1    3    3  502    0  0.31209761825E+02  0.83097463912E+01  0.21260986571E+02  0.38892198038E+02  0.41800000000E+01 0. -1.
         -5    1    3    3    0  502 -0.82464736473E+02 -0.89798047738E+02  0.16639405566E+03  0.20632153620E+03  0.41800000000E+01 0. -1.
        -11    1    1    2    0    0 -0.59671178671E+01  0.29863553361E+02  0.17665215779E+02  0.35206507403E+02  0.00000000000E+00 0.  1.
         11    1    1    2    0    0  0.57222092515E+02  0.51624747986E+02  0.20249328238E+03  0.21666336074E+03  0.00000000000E+00 0. -1.
</event>
<event>
 6    1  0.6506388E-006  0.1089602E+03  0.7561462E-02  0.1262508E+00
          2   -1    0    0  501    0  0.00000000000E+00  0.00000000000E+00  0.64894718762E+03  0.64894718762E+03  0.00000000000E+00 0. -1.
         -2   -1    0    0    0  501 -0.00000000000E+00 -0.00000000000E+00 -0.31388810069E+02  0.31388810069E+02  0.00000000000E+00 0.  1.
          5    1    1    2  502    0 -0.70938636328E+02 -0.16655196171E+02  0.32935062816E+03  0.33734106533E+03  0.41800000000E+01 0. -1.
         -5    1    1    2    0  502  0.48230879788E+02  0.43206928899E+02  0.39391672586E+02  0.75909371880E+02  0.41800000000E+01 0.  1.
        -11    1    1    2    0    0  0.31372994903E+02 -0.47755226884E+02  0.23129169969E+03  0.23824499333E+03  0.00000000000E+00 0. -1.
         11    1    1    2    0    0 -0.86652383636E+01  0.21203494155E+02  0.17524377111E+02  0.28840567148E+02  0.00000000000E+00 0.  1.
</event>
<event>
 7    1  0.6506388E-006  0.3604690E+03  0.7561462E-02  0.1058398E+00
         -1   -1    0    0    0  501 -0.00000000000E+00  0.00000000000E+00  0.24910096543E+03  0.24910096543E+03  0.00000000000E+00 0.  1.
          1   -1    0    0  501    0  0.00000000000E+00 -0.00000000000E+00 -0.54732979582E+03  0.54732979582E+03  0.00000000000E+00 0. -1.
         23    2    1    2    0    0  0.34794954635E+03  0.33204753515E+02 -0.12049524946E+03  0.39030495836E+03  0.12508961954E+03 0.  0.
          5    1    3    3  502    0  0.73330391477E+02  0.40076219333E+02 -0.73921974752E+02  0.11164846807E+03  0.41800000000E+01 0. -1.
         -5    1    3    3    0  502  0.27461915487E+03 -0.68714658185E+01 -0.46573274703E+02  0.27865649029E+03  0.41800000000E+01 0. -1.
        -11    1    1    2    0    0 -0.17781745096E+03 -0.65239942138E+02 -0.11715099589E+03  0.22270979268E+03  0.00000000000E+00 0.  1.
         11    1    1    2    0    0 -0.17013209539E+03  0.32035188623E+02 -0.60582585046E+02  0.18341601022E+03  0.00000000000E+00 0. -1.
</event>
<event>
 7    1  0.6506388E-006  0.1615185E+03  0.7561462E-02  0.1186993E+00
         -1   -1    0    0    0  501 -0.00000000000E+00  0.00000000000E+00  0.81851888722E+02  0.81851888722E+02  0.00000000000E+00 0.  1.
          1   -1    0    0  501    0  0.00000000000E+00 -0.00000000000E+00 -0.33353698157E+03  0.33353698157E+03  0.00000000000E+00 0. -1.
         23    2    1    2    0    0  0.17495247792E+02  0.12254067673E+03 -0.11987971837E+03  0.21293511045E+03  0.12509161937E+03 0.  0.
          5    1    3    3  502    0  0.61692165019E+02  0.11477888351E+03 -0.96203654202E+02  0.16202694469E+03  0.41800000000E+01 0. -1.
         -5    1    3    3    0  502 -0.44196917227E+02  0.77617932232E+01 -0.23676064171E+02  0.50908165760E+02  0.41800000000E+01 0. -1.
        -11    1    1    2    0    0  0.31655189108E+02 -0.62005593946E+02 -0.34317381033E+02  0.77617184431E+02  0.00000000000E+00 0.  1.
         11    1    1    2    0    0 -0.49150436900E+02 -0.60535082783E+02 -0.97487993441E+02  0.12483657541E+03  0.00000000000E+00 0. -1.
</event>
<event>
 7    1  0.6506388E-006  0.1186560E+03  0.7561462E-02  0.1245331E+00
          2   -1    0    0  501    0  0.00000000000E+00  0.00000000000E+00  0.31146677151E+03  0.31146677151E+03  0.00000000000E+00 0.  1.
         -2   -1    0    0    0  501 -0.00000000000E+00 -0.00000000000E+00 -0.51943440121E+02  0.51943440121E+02  0.00000000000E+00 0. -1.
         23    2    1    2    0    0  0.40058559059E+02 -0.53442268038E+02  0.12829192432E+03  0.19123283216E+03  0.12510161502E+03 0.  0.
          5    1    3    3  502    0  0.84310000258E+02 -0.36673620219E+02  0.10014879096E+03  0.13601611410E+03  0.41800000000E+01 0. -1.
         -5    1    3    3    0  502 -0.44251441199E+02 -0.16768647820E+02  0.28143133365E+02  0.55216718062E+02  0.41800000000E+01 0. -1.
        -11    1    1    2    0    0 -0.19648610576E+02 -0.16032132688E+02  0.38452191052E+01  0.25649227787E+02  0.00000000000E+00 0. -1.
         11    1    1    2    0    0 -0.20409948482E+02  0.69474400726E+02  0.12738618796E+03  0.14652815168E+03  0.00000000000E+00 0.  1.
</event>
<event>
 7    1  0.6506388E-006  0.1479696E+03  0.7561462E-02  0.1202990E+00
          3   -1    0    0  501    0  0.00000000000E+00  0.00000000000E+00  0.10632178358E+03  0.10632178358E+03  0.00000000000E+00 0. -1.
         -3   -1    0    0    0  501 -0.00000000000E+00 -0.00000000000E+00 -0.24891525603E+03  0.24891525603E+03  0.00000000000E+00 0.  1.
         23    2    1    2    0    0 -0.37177650469E+01  0.10445150899E+03 -0.14419806002E+03  0.21763012280E+03  0.12508337352E+03 0.  0.
          5    1    3    3  502    0 -0.31239911870E+02 -0.16527160775E+02 -0.51935036116E+02  0.62958712767E+02  0.41800000000E+01 0. -1.
         -5    1    3    3    0  502  0.27522146823E+02  0.12097866976E+03 -0.92263023900E+02  0.15467141003E+03  0.41800000000E+01 0. -1.
        -11    1    1    2    0    0  0.43844347224E+02 -0.73296843111E+02  0.10433623820E+02  0.86044258957E+02  0.00000000000E+00 0.  1.
         11    1    1    2    0    0 -0.40126582177E+02 -0.31154665874E+02 -0.88290362547E+01  0.51562657846E+02  0.00000000000E+00 0. -1.
</event>
<event>
 7    1  0.6506388E-006  0.1038441E+03  0.7561462E-02  0.1272414E+00
         -1   -1    0    0    0  501 -0.00000000000E+00  0.00000000000E+00  0.28459523622E+02  0.28459523622E+02  0.00000000000E+00 0.  1.
          1   -1    0    0  501    0  0.00000000000E+00 -0.00000000000E+00 -0.55701186594E+03  0.55701186594E+03  0.00000000000E+00 0. -1.
         23    2    1    2    0    0 -0.46997845147E+02  0.36336545017E+01 -0.14897335802E+03  0.19177567046E+03  0.11118833341E+03 0.  0.
          5    1    3    3  502    0  0.28241785083E+02 -0.10977798860E+02 -0.89768711527E+02  0.94836725279E+02  0.41800000000E+01 0. -1.
         -5    1    3    3    0  502 -0.75239630230E+02  0.14611453362E+02 -0.59204646492E+02  0.96938945181E+02  0.41800000000E+01 0.  1.
        -11    1    1    2    0    0  0.41468783143E+02  0.39252778249E+02 -0.15959767683E+03  0.16950474632E+03  0.00000000000E+00 0.  1.
         11    1    1    2    0    0  0.55290620031E+01 -0.42886432751E+02 -0.21998130747E+03  0.22419097278E+03  0.00000000000E+00 0. -1.
</event>
<event>
 7    1  0.6506388E-006  0.1852842E+03  0.7561462E-02  0.1162785E+00
          4   -1    0    0  501    0  0.00000000000E+00  0.00000000000E+00  0.99273083563E+03  0.99273083563E+03  0.00000000000E+00 0.  1.
         -4   -1    0    0    0  501 -0.00000000000E+00 -0.00000000000E+00 -0.69427856284E+02  0.69427856284E+02  0.00000000000E+00 0. -1.
         23    2    1    2    0    0  0.15929836066E+03  0.82285932354E+02  0.15522070267E+03  0.26811809952E+03  0.12508759482E+03 0.  0.
          5    1    3    3  502    0  0.29003158748E+02  0.34303214026E+02 -0.15788854889E+02  0.47798054862E+02  0.41800000000E+01 0.  1.
         -5    1    3    3    0  502  0.13029520192E+03  0.47982718328E+02  0.17100955756E+03  0.22032004465E+03  0.41800000000E+01 0.  1.
        -11    1    1    2    0    0 -0.12639934924E+03 -0.39214924802E+02  0.65991541245E+03  0.67305494382E+03  0.00000000000E+00 0.  1.
         11    1    1    2    0    0 -0.32899011425E+02 -0.43071007552E+02  0.10816686423E+03  0.12098564858E+03  0.00000000000E+00 0. -1.
</event>
<event>
 7    1  0.6506388E-006  0.1715996E+03  0.7561462E-02  0.1176190E+00
         -2   -1    0    0    0  501 -0.00000000000E+00  0.00000000000E+00  0.10735542954E+03  0.10735542954E+03  0.00000000000E+00 0.  1.
          2   -1    0    0  501    0  0.00000000000E+00 -0.00000000000E+00 -0.32660616406E+03  0.32660616406E+03  0.00000000000E+00 0. -1.
         23    2    1    2    0    0  0.12959207930E+03  0.57455683489E+02 -0.49888605630E+02  0.19553195349E+03  0.12509440148E+03 0.  0.
          5    1    3    3  502    0  0.64324341476E+02 -0.35633652452E+02 -0.71419823823E+01  0.73999043276E+02  0.41800000000E+01 0. -1.
         -5    1    3    3    0  502  0.65267737824E+02  0.93089335942E+02 -0.42746623248E+02  0.12153291022E+03  0.41800000000E+01 0. -1.
        -11    1    1    2    0    0 -0.10724011389E+03 -0.15654930438E+02 -0.71918719375E+02  0.13006852452E+03  0.00000000000E+00 0.  1.
         11    1    1    2    0    0 -0.22351965412E+02 -0.41800753052E+02 -0.97443409516E+02  0.10836111559E+03  0.00000000000E+00 0. -1.
</event>
<event>
 7    1  0.6506388E-006  0.1344935E+03  0.7561462E-02  0.1220936E+00
          2   -1    0    0  501    0  0.00000000000E+00  0.00000000000E+00  0.40765451105E+03  0.40765451105E+03  0.00000000000E+00 0. -1.
         -2   -1    0    0    0  501 -0.00000000000E+00 -0.00000000000E+00 -0.58807177495E+02  0.58807177495E+02  0.00000000000E+00 0.  1.
         23    2    1    2    0    0 -0.20730472580E+02  0.10401206104E+03  0.14115281882E+03  0.21638012251E+03  0.12509187752E+03 0.  0.
          5    1    3    3  502    0 -0.32089149148E+02  0.12510460118E+03  0.83616936883E+02  0.15391601367E+03  0.41800000000E+01 0. -1.
         -5    1    3    3    0  502  0.11358676568E+02 -0.21092540141E+02  0.57535881935E+02  0.62464108838E+02  0.41800000000E+01 0. -1.
        -11    1    1    2    0    0 -0.14372164038E+02 -0.38985224543E+02  0.15804119074E+02  0.44454212528E+02  0.00000000000E+00 0.  1.
         11    1    1    2    0    0  0.35102636618E+02 -0.65026836502E+02  0.19189039567E+03  0.20562735351E+03  0.00000000000E+00 0. -1.
</event>
<event>
 7    1  0.6506388E-006  0.1107559E+03  0.7561462E-02  0.1259177E+00
         -2   -1    0    0    0  501 -0.00000000000E+00  0.00000000000E+00  0.15705448614E+03  0.15705448614E+03  0.00000000000E+00 0.  1.
          2   -1    0    0  501    0  0.00000000000E+00 -0.00000000000E+00 -0.87921275568E+02  0.87921275568E+02  0.00000000000E+00 0. -1.
         23    2    1    2    0    0 -0.51952422988E+01  0.32813863253E+02  0.69496334957E+02  0.14686059394E+03  0.12503820742E+03 0.  0.
          5    1    3    3  502    0  0.56386759108E+02  0.88832066070E+01  0.54394396947E+02  0.78959488230E+02  0.41800000000E+01 0.  1.
         -5    1    3    3    0  502 -0.61582001406E+02  0.23930656646E+02  0.15101938010E+02  0.67901105708E+02  0.41800000000E+01 0.  1.
        -11    1    1    2    0    0  0.65469802997E+01  0.32295732140E+02  0.11713960044E+01  0.32973465607E+02  0.00000000000E+00 0.  1.
         11    1    1    2    0    0 -0.13517380009E+01 -0.65109595393E+02 -0.15345203902E+01  0.65141702163E+02  0.00000000000E+00 0. -1.
</event>
<event>
 7    1  0.6506388E-006  0.1280251E+03  0.7561462E-02  0.1230416E+00
         -1   -1    0    0    0  501 -0.00000000000E+00  0.00000000000E+00  0.14971448186E+03  0.14971448186E+03  0.00000000000E+00 0.  1.
          1   -1    0    0  501    0  0.00000000000E+00 -0.00000000000E+00 -0.11550919651E+03  0.11550919651E+03  0.00000000000E+00 0. -1.
         23    2    1    2    0    0  0.47209373615E+02  0.48543667759E+02  0.41497101664E+02  0.14817182312E+03  0.12509063548E+03 0.  0.
          5    1    3    3  502    0 -0.41145678817E+02  0.87285042062E+01 -0.97408938124E+00  0.42279722339E+02  0.41800000000E+01 0. -1.
         -5    1    3    3    0  502  0.88355052432E+02  0.39815163553E+02  0.42471191046E+02  0.10589210078E+03  0.41800000000E+01 0. -1.
        -11    1    1    2    0    0  0.84404511064E+01  0.23947478650E+02 -0.29206159900E+01  0.25558813476E+02  0.00000000000E+00 0.  1.
         11    1    1    2    0    0 -0.55649824721E+02 -0.72491146409E+02 -0.43712003229E+01  0.91493041765E+02  0.00000000000E+00 0. -1.
</event>
<event>
 7    1  0.6506388E-006  0.1137832E+03  0.7561462E-02  0.1253720E+00
         -2   -1    0    0    0  501 -0.00000000000E+00  0.00000000000E+00  0.33464679068E+02  0.33464679068E+02  0.00000000000E+00 0. -1.
          2   -1    0    0  501    0  0.00000000000E+00 -0.00000000000E+00 -0.91423700299E+03  0.91423700299E+03  0.00000000000E+00 0.  1.
         23    2    1    2    0    0 -0.91099744505E+02  0.30668214660E+02 -0.20312370223E+03  0.25718180163E+03  0.12507412939E+03 0.  0.
          5    1    3    3  502    0 -0.10921737721E+02  0.83319756751E+00 -0.16154884476E+03  0.16197370223E+03  0.41800000000E+01 0. -1.
         -5    1    3    3    0  502 -0.80178006784E+02  0.29835017092E+02 -0.41574857475E+02  0.95208099397E+02  0.41800000000E+01 0. -1.
        -11    1    1    2    0    0  0.77026999553E+02 -0.60013530917E+02 -0.56015342626E+03  0.56860060104E+03  0.00000000000E+00 0.  1.
         11    1    1    2    0    0  0.14072744952E+02  0.29345316258E+02 -0.11749519543E+03  0.12191927939E+03  0.00000000000E+00 0. -1.
</event>
<event>
 7    1  0.6506388E-006  0.2231039E+03  0.7561462E-02  0.1131590E+00
          2   -1    0    0  501    0  0.00000000000E+00  0.00000000000E+00  0.85843680064E+03  0.85843680064E+03  0.00000000000E+00 0. -1.
         -2   -1    0    0    0  501 -0.00000000000E+00 -0.00000000000E+00 -0.10638541099E+03  0.10638541099E+03  0.00000000000E+00 0.  1.
         23    2    1    2    0    0 -0.18977136195E+03 -0.89392406062E+02  0.82852070485E+02  0.25790784617E+03  0.12509124452E+03 0.  0.
          5    1    3    3  502    0 -0.29499394847E+02  0.23401121056E+02 -0.12533482660E+02  0.39904728424E+02  0.41800000000E+01 0. -1.
         -5    1    3    3    0  502 -0.16027196711E+03 -0.11279352712E+03  0.95385553145E+02  0.21800311775E+03  0.41800000000E+01 0. -1.
        -11    1    1    2    0    0  0.79699948248E+02  0.19985810409E+02  0.14359961846E+03  0.16544595731E+03  0.00000000000E+00 0.  1.
         11    1    1    2    0    0  0.11007141371E+03  0.69406595654E+02  0.52559970071E+03  0.54146840815E+03  0.00000000000E+00 0. -1.
</event>
<event>
 7    1  0.6506388E-006  0.1436306E+03  0.7561462E-02  0.1208526E+00
          1   -1    0    0  501    0  0.00000000000E+00  0.00000000000E+00  0.60270854042E+03  0.60270854042E+03  0.00000000000E+00 0. -1.
         -1   -1    0    0    0  501 -0.00000000000E+00 -0.00000000000E+00 -0.41662402327E+02  0.41662402327E+02  0.00000000000E+00 0.  1.
         23    2    1    2    0    0 -0.10146679649E+03  0.35060588815E+02  0.21854182086E+03  0.27373950116E+03  0.12509209148E+03 0.  0.
          5    1    3    3  502    0 -0.24343705905E+02 -0.37398902366E+02  0.12372060516E+03  0.13158858027E+03  0.41800000000E+01 0. -1.
         -5    1    3    3    0  502 -0.77123090584E+02  0.72459491180E+02  0.94821215695E+02  0.14215092089E+03  0.41800000000E+01 0. -1.
        -11    1    1    2    0    0  0.14002632775E+01  0.21531089668E+02  0.25374950369E+02  0.33308207183E+02  0.00000000000E+00 0.  1.
         11    1    1    2    0    0  0.10006653321E+03 -0.56591678483E+02  0.31712936686E+03  0.33732323440E+03  0.00000000000E+00 0. -1.
</event>
<event>
 7    1  0.6506388E-006  0.9270795E+02  0.7561462E-02  0.1296423E+00
          2   -1    0    0  501    0  0.00000000000E+00  0.00000000000E+00  0.35263851244E+03  0.35263851244E+03  0.00000000000E+00 0. -1.
         -2   -1    0    0    0  501 -0.00000000000E+00 -0.00000000000E+00 -0.44601931450E+02  0.44601931450E+02  0.00000000000E+00 0.  1.
         23    2    1    2    0    0  0.31948763183E+01  0.17094567571E+01  0.72319019367E+02  0.14453758986E+03  0.12509174571E+03 0.  0.
          5    1    3    3  502    0  0.40399844087E+01 -0.50111410093E+02  0.77298262522E+02  0.92303676440E+02  0.41800000000E+01 0.  1.
         -5    1    3    3    0  502 -0.84510809046E+00  0.51820866851E+02 -0.49792431549E+01  0.52233913420E+02  0.41800000000E+01 0.  1.
        -11    1    1    2    0    0 -0.11886484807E+02 -0.41022565022E+02  0.17284377804E+03  0.17804244148E+03  0.00000000000E+00 0. -1.
         11    1    1    2    0    0  0.86916084886E+01  0.39313108265E+02  0.62873783585E+02  0.74660412548E+02  0.00000000000E+00 0.  1.
</event>
<event>
 7    1  0.6506388E-006  0.6989275E+02  0.7561462E-02  0.1360458E+00
          4   -1    0    0  501    0  0.00000000000E+00  0.00000000000E+00  0.23330719715E+02  0.23330719715E+02  0.00000000000E+00 0. -1.
         -4   -1    0    0    0  501 -0.00000000000E+00 -0.00000000000E+00 -0.56276140792E+03  0.56276140792E+03  0.00000000000E+00 0.  1.
         23    2    1    2    0    0 -0.15591418275E+02 -0.36580548715E+02 -0.33277484130E+03  0.35597150756E+03  0.11998079148E+03 0.  0.
          5    1    3    3  502    0  0.86772282111E+00  0.43584783321E+01  0.92533549998E+01  0.11083602980E+02  0.41800000000E+01 0. -1.
         -5    1    3    3    0  502 -0.16459141096E+02 -0.40939027047E+02 -0.34202819630E+03  0.34488790458E+03  0.41800000000E+01 0.  1.
        -11    1    1    2    0    0 -0.30656213296E+02  0.29558913584E+02 -0.15357234440E+03  0.15936749276E+03  0.00000000000E+00 0.  1.
         11    1    1    2    0    0  0.46247631571E+02  0.70216351309E+01 -0.53083502508E+02  0.70753127312E+02  0.00000000000E+00 0. -1.
</event>
<event>
 7    1  0.6506388E-006  0.1479112E+03  0.7561462E-02  0.1203063E+00
          1   -1    0    0  501    0  0.00000000000E+00  0.00000000000E+00  0.14760189685E+03  0.14760189685E+03  0.00000000000E+00 0. -1.
         -1   -1    0    0    0  501 -0.00000000000E+00 -0.00000000000E+00 -0.15489967128E+03  0.15489967128E+03  0.00000000000E+00 0.  1.
         23    2    1    2    0    0 -0.64438123579E+02 -0.81336516005E+02 -0.23721644300E+02  0.16425257541E+03  0.12509313137E+03 0.  0.
          5    1    3    3  502    0 -0.79450988651E+00  0.29969520308E+02 -0.19284316604E+02  0.35890955133E+02  0.41800000000E+01 0. -1.
         -5    1    3    3    0  502 -0.63643613693E+02 -0.11130603631E+03 -0.44373276955E+01  0.12836162028E+03  0.41800000000E+01 0. -1.
        -11    1    1    2    0    0  0.66678276497E+02  0.11823681619E+02  0.76805119956E+01  0.68152639481E+02  0.00000000000E+00 0.  1.
         11    1    1    2    0    0 -0.22401529180E+01  0.69512834386E+02  0.87433578726E+01  0.70096353231E+02  0.00000000000E+00 0. -1.
</event>
<event>
 7    1  0.6506388E-006  0.1213223E+03  0.7561462E-02  0.1240931E+00
          1   -1    0    0  501    0  0.00000000000E+00  0.00000000000E+00  0.42153241096E+02  0.42153241096E+02  0.00000000000E+00 0. -1.
         -1   -1    0    0    0  501 -0.00000000000E+00 -0.00000000000E+00 -0.43275495708E+03  0.43275495708E+03  0.00000000000E+00 0.  1.
         23    2    1    2    0    0 -0.15589344248E+02  0.77713526918E+02 -0.23847400463E+03  0.28071335019E+03  0.12509082369E+03 0.  0.
          5    1    3    3  502    0 -0.60390722221E+02  0.54912275861E+02 -0.20359056926E+03  0.21938320278E+03  0.41800000000E+01 0.  1.
         -5    1    3    3    0  502  0.44801377973E+02  0.22801251057E+02 -0.34883435370E+02  0.61330147410E+02  0.41800000000E+01 0.  1.
        -11    1    1    2    0    0 -0.27560477587E+02 -0.83794523444E+01 -0.10406467964E+02  0.30628250389E+02  0.00000000000E+00 0. -1.
         11    1    1    2    0    0  0.43149821835E+02 -0.69334074574E+02 -0.14172124338E+03  0.16356659759E+03  0.00000000000E+00 0.  1.
</event>
<event>
 7    1  0.6506388E-006  0.1377667E+03  0.7561462E-02  0.1216366E+00
          1   -1    0    0  501    0  0.00000000000E+00  0.00000000000E+00  0.38272986889E+03  0.38272986889E+03  0.00000000000E+00 0. -1.
         -1   -1    0    0    0  501 -0.00000000000E+00 -0.00000000000E+00 -0.56695685483E+02  0.56695685483E+02  0.00000000000E+00 0.  1.
         23    2    1    2    0    0 -0.96639520303E+02  0.21581543100E+02  0.18352926254E+03  0.24317720364E+03  0.12508877758E+03 0.  0.
          5    1    3    3  502    0 -0.27993995366E+02  0.62855016582E+02  0.12876906110E+03  0.14605944127E+03  0.41800000000E+01 0.  1.
         -5    1    3    3    0  502 -0.68645524937E+02 -0.41273473482E+02  0.54760201439E+02  0.97117762375E+02  0.41800000000E+01 0.  1.
        -11    1    1    2    0    0  0.84697140608E+02  0.16668182222E+02  0.61864716965E+02  0.10620111643E+03  0.00000000000E+00 0.  1.
         11    1    1    2    0    0  0.11942379694E+02 -0.38249725322E+02  0.80640203897E+02  0.90047234297E+02  0.00000000000E+00 0. -1.
</event>
<event>
 7    1  0.6506388E-006  0.1227398E+03  0.7561462E-02  0.1238644E+00
         -1   -1    0    0    0  501 -0.00000000000E+00  0.00000000000E+00  0.71345576605E+02  0.71345576605E+02  0.00000000000E+00 0.  1.
          1   -1    0    0  501    0  0.00000000000E+00 -0.00000000000E+00 -0.24850160763E+03  0.24850160763E+03  0.00000000000E+00 0. -1.
         23    2    1    2    0    0  0.20618654177E+02  0.72476991905E+02 -0.85813634917E+02  0.16938097118E+03  0.12509152730E+03 0.  0.
          5    1    3    3  502    0 -0.43068862658E+02 -0.72645008720E+01 -0.27033863924E+02  0.51536415302E+02  0.41800000000E+01 0. -1.
         -5    1    3    3    0  502  0.63687516835E+02  0.79741492777E+02 -0.58779770993E+02  0.11784455587E+03  0.41800000000E+01 0. -1.
        -11    1    1    2    0    0 -0.42985531747E+02 -0.33389943572E+02 -0.90280886113E+02  0.10541955544E+03  0.00000000000E+00 0.  1.
         11    1    1    2    0    0  0.22366877570E+02 -0.39087048333E+02 -0.10615099971E+01  0.45046657624E+02  0.00000000000E+00 0. -1.
</event>
<event>
 7    1  0.6506388E-006  0.1395921E+03  0.7561462E-02  0.1213879E+00
         -1   -1    0    0    0  501 -0.00000000000E+00  0.00000000000E+00  0.12658404580E+03  0.12658404580E+03  0.00000000000E+00 0.  1.
          1   -1    0    0  501    0  0.00000000000E+00 -0.00000000000E+00 -0.20521417187E+03  0.20521417187E+03  0.00000000000E+00 0. -1.
         23    2    1    2    0    0  0.54779096710E+02 -0.76455506104E+02  0.34343955318E+02  0.16022901358E+03  0.12509050994E+03 0.  0.
          5    1    3    3  502    0 -0.27350822764E+01 -0.90914836552E+02 -0.10150007906E+01  0.91057623552E+02  0.41800000000E+01 0. -1.
         -5    1    3    3    0  502  0.57514178987E+02  0.14459330448E+02  0.35358956109E+02  0.69171390030E+02  0.41800000000E+01 0. -1.
        -11    1    1    2    0    0  0.17435529295E+02  0.47989538547E+02 -0.51846934054E+02  0.72767424460E+02  0.00000000000E+00 0. -1.
         11    1    1    2    0    0 -0.72214626005E+02  0.28465967557E+02 -0.61127147334E+02  0.98801779636E+02  0.00000000000E+00 0.  1.
</event>
<event>
 7    1  0.6506388E-006  0.6723409E+02  0.7561462E-02  0.1369759E+00
         -1   -1    0    0    0  501 -0.00000000000E+00  0.00000000000E+00  0.51821139093E+02  0.51821139093E+02  0.00000000000E+00 0.  1.
          1   -1    0    0  501    0  0.00000000000E+00 -0.00000000000E+00 -0.30359510731E+03  0.30359510731E+03  0.00000000000E+00 0. -1.
         23    2    1    2    0    0  0.20673174821E+02  0.56296768680E+02 -0.15634922674E+03  0.20901829047E+03  0.12508740437E+03 0.  0.
          5    1    3    3  502    0 -0.32285588244E+01  0.10824752294E+02 -0.15701178385E+03  0.15747308190E+03  0.41800000000E+01 0.  1.
         -5    1    3    3    0  502  0.23901733645E+02  0.45472016386E+02  0.66255711421E+00  0.51545208578E+02  0.41800000000E+01 0.  1.
        -11    1    1    2    0    0  0.11042531606E+02 -0.18469628204E+02 -0.94611172188E+02  0.97027514515E+02  0.00000000000E+00 0. -1.
         11    1    1    2    0    0 -0.31715706427E+02 -0.37827140476E+02 -0.81356929855E+00  0.49370441417E+02  0.00000000000E+00 0.  1.
</event>
<event>
 7    1  0.6506388E-006  0.1212257E+03  0.7561462E-02  0.1241089E+00
          1   -1    0    0  501    0  0.00000000000E+00  0.00000000000E+00  0.35605266362E+03  0.35605266362E+03  0.00000000000E+00 0.  1.
         -1   -1    0    0    0  501 -0.00000000000E+00 -0.00000000000E+00 -0.60605335657E+02  0.60605335657E+02  0.00000000000E+00 0. -1.
         23    2    1    2    0    0  0.69635302355E+02 -0.33178128240E+02  0.73521297408E+02  0.16432385487E+03  0.12508830713E+03 0.  0.
          5    1    3    3  502    0  0.38880728300E+02  0.32358845825E+02 -0.12041563859E+02  0.52165866200E+02  0.41800000000E+01 0.  1.
         -5    1    3    3    0  502  0.30754574055E+02 -0.65536974065E+02  0.85562861267E+02  0.11215798867E+03  0.41800000000E+01 0.  1.
        -11    1    1    2    0    0 -0.39731592034E+02  0.64575873843E+02  0.15565166649E+03  0.17313602794E+03  0.00000000000E+00 0. -1.
         11    1    1    2    0    0 -0.29903710321E+02 -0.31397745603E+02  0.66274364064E+02  0.79198116468E+02  0.00000000000E+00 0.  1.
</event>
<event>
 7    1  0.6506388E-006  0.8533559E+02  0.7561462E-02  0.1314557E+00
          2   -1    0    0  501    0  0.00000000000E+00  0.00000000000E+00  0.15835520456E+03  0.15835520456E+03  0.00000000000E+00 0. -1.
         -2   -1    0    0    0  501 -0.00000000000E+00 -0.00000000000E+00 -0.81351531034E+02  0.81351531034E+02  0.00000000000E+00 0.  1.
         23    2    1    2    0    0 -0.15601035345E+02  0.25516816285E+02  0.40187647059E+02  0.13474556783E+03  0.12508725298E+03 0.  0.
          5    1    3    3  502    0  0.29077297390E+02  0.29086730015E+01 -0.34073523041E+02  0.45082446413E+02  0.41800000000E+01 0. -1.
         -5    1    3    3    0  502 -0.44678332735E+02  0.22608143283E+02  0.74261170099E+02  0.89663121422E+02  0.41800000000E+01 0. -1.
        -11    1    1    2    0    0  0.29975619165E+02  0.24593299918E+02 -0.36823433321E+01  0.38947757286E+02  0.00000000000E+00 0.  1.
         11    1    1    2    0    0 -0.14374583820E+02 -0.50110116203E+02  0.40498369797E+02  0.66013410471E+02  0.00000000000E+00 0. -1.
</event>
<event>
 7    1  0.6506388E-006  0.8195848E+02  0.7561462E-02  0.1323584E+00
         -1   -1    0    0    0  501 -0.00000000000E+00  0.00000000000E+00  0.26370196192E+02  0.26370196192E+02  0.00000000000E+00 0.  1.
          1   -1    0    0  501    0  0.00000000000E+00 -0.00000000000E+00 -0.54225984053E+03  0.54225984053E+03  0.00000000000E+00 0. -1.
         23    2    1    2    0    0  0.49478139035E+02 -0.21373558268E+01 -0.30631651521E+03  0.33465284071E+03  0.12533978527E+03 0.  0.
          5    1    3    3  502    0  0.88630089248E+01  0.16198027100E+02  0.54418036130E+01  0.19698087107E+02  0.41800000000E+01 0. -1.
         -5    1    3    3    0  502  0.40615130110E+02 -0.18335382926E+02 -0.31175831883E+03  0.31495475361E+03  0.41800000000E+01 0. -1.
        -11    1    1    2    0    0  0.89385457474E+01 -0.31551388240E+02 -0.10076498592E+03  0.10596683485E+03  0.00000000000E+00 0.  1.
         11    1    1    2    0    0 -0.58416684782E+02  0.33688744066E+02 -0.10880814321E+03  0.12801036117E+03  0.00000000000E+00 0. -1.
</event>
<event>
 7    1  0.6506388E-006  0.9035588E+02  0.7561462E-02  0.1301992E+00
          1   -1    0    0  501    0  0.00000000000E+00  0.00000000000E+00  0.89198024048E+02  0.89198024048E+02  0.00000000000E+00 0. -1.
         -1   -1    0    0    0  501 -0.00000000000E+00 -0.00000000000E+00 -0.13819431470E+03  0.13819431470E+03  0.00000000000E+00 0.  1.
         23    2    1    2    0    0 -0.26986959547E+02 -0.15556220072E+02 -0.27005176371E+02  0.13036826709E+03  0.12367826626E+03 0.  0.
          5    1    3    3  502    0 -0.48161687594E+02 -0.40381457050E+02  0.25870209162E+02  0.68095156564E+02  0.41800000000E+01 0. -1.
         -5    1    3    3    0  502  0.21174728048E+02  0.24825236978E+02 -0.52875385534E+02  0.62273110523E+02  0.41800000000E+01 0. -1.
        -11    1    1    2    0    0  0.18436554279E+00  0.45005758093E+02  0.98109198462E+01  0.46063069811E+02  0.00000000000E+00 0. -1.
         11    1    1    2    0    0  0.26802594004E+02 -0.29449538021E+02 -0.31802034125E+02  0.50961001849E+02  0.00000000000E+00 0.  1.
</event>
<event>
 7    1  0.6506388E-006  0.1888390E+03  0.7561462E-02  0.1159513E+00
         -1   -1    0    0    0  501 -0.00000000000E+00  0.00000000000E+00  0.65714066332E+03  0.65714066332E+03  0.00000000000E+00 0.  1.
          1   -1    0    0  501    0  0.00000000000E+00 -0.00000000000E+00 -0.63625109348E+02  0.63625109348E+02  0.00000000000E+00 0. -1.
         23    2    1    2    0    0  0.14918987046E+03 -0.86286162384E+02  0.33814319175E+03  0.39961406060E+03  0.12509060731E+03 0.  0.
          5    1    3    3  502    0  0.16660752641E+03 -0.82984139663E+02  0.33154447934E+03  0.38024156726E+03  0.41800000000E+01 0. -1.
         -5    1    3    3    0  502 -0.17417655948E+02 -0.33020227213E+01  0.65987124055E+01  0.19372493340E+02  0.41800000000E+01 0. -1.
        -11    1    1    2    0    0 -0.23722714417E+02  0.21798770479E+02  0.34247234015E+01  0.32398800966E+02  0.00000000000E+00 0. -1.
         11    1    1    2    0    0 -0.12546715604E+03  0.64487391905E+02  0.25194763882E+03  0.28875291110E+03  0.00000000000E+00 0.  1.
</event>
<event>
 7    1  0.6506388E-006  0.1061437E+03  0.7561462E-02  0.1267883E+00
          1   -1    0    0  501    0  0.00000000000E+00  0.00000000000E+00  0.58318320564E+02  0.58318320564E+02  0.00000000000E+00 0. -1.
         -1   -1    0    0    0  501 -0.00000000000E+00 -0.00000000000E+00 -0.42549510282E+03  0.42549510282E+03  0.00000000000E+00 0.  1.
         23    2    1    2    0    0  0.18763871463E+02  0.81392157394E+02 -0.31451770746E+03  0.34863624714E+03  0.12509627634E+03 0.  0.
          5    1    3    3  502    0  0.57690991601E+02  0.36683920767E+02 -0.73781417462E+02  0.10067338535E+03  0.41800000000E+01 0. -1.
         -5    1    3    3    0  502 -0.38927120138E+02  0.44708236627E+02 -0.24073629000E+03  0.24796286179E+03  0.41800000000E+01 0. -1.
        -11    1    1    2    0    0  0.12589942430E+01 -0.14148818139E+02  0.26090333664E+02  0.29706558736E+02  0.00000000000E+00 0. -1.
         11    1    1    2    0    0 -0.20022865706E+02 -0.67243339255E+02 -0.78749408461E+02  0.10547061751E+03  0.00000000000E+00 0.  1.
</event>
<event>
 7    1  0.6506388E-006  0.7281540E+02  0.7561462E-02  0.1350773E+00
         -3   -1    0    0    0  501 -0.00000000000E+00  0.00000000000E+00  0.35469800254E+02  0.35469800254E+02  0.00000000000E+00 0.  1.
          3   -1    0    0  501    0  0.00000000000E+00 -0.00000000000E+00 -0.39966511361E+03  0.39966511361E+03  0.00000000000E+00 0. -1.
         23    2    1    2    0    0 -0.48532280704E+02  0.11792467582E+01 -0.18343654970E+03  0.22727087820E+03  0.12508521663E+03 0.  0.
          5    1    3    3  502    0  0.11243076715E+01 -0.39064536484E+01 -0.17662222979E+03  0.17671844529E+03  0.41800000000E+01 0. -1.
         -5    1    3    3    0  502 -0.49656588376E+02  0.50857004066E+01 -0.68143199061E+01  0.50552432914E+02  0.41800000000E+01 0. -1.
        -11    1    1    2    0    0  0.14925518596E+02 -0.37418486461E+02 -0.33055649724E+02  0.52111325190E+02  0.00000000000E+00 0.  1.
         11    1    1    2    0    0  0.33606762109E+02  0.36239239703E+02 -0.14770311393E+03  0.15575271047E+03  0.00000000000E+00 0. -1.
</event>
<event>
 7    1  0.6506388E-006  0.9200355E+02  0.7561462E-02  0.1298071E+00
          1   -1    0    0  501    0  0.00000000000E+00  0.00000000000E+00  0.46866216979E+02  0.46866216979E+02  0.00000000000E+00 0. -1.
         -1   -1    0    0    0  501 -0.00000000000E+00 -0.00000000000E+00 -0.21841540305E+03  0.21841540305E+03  0.00000000000E+00 0.  1.
         23    2    1    2    0    0  0.87018912861E+01  0.26742982767E+02 -0.15861884003E+03  0.20395487907E+03  0.12508695473E+03 0.  0.
          5    1    3    3  502    0  0.44657860169E+02 -0.34046747092E+02 -0.83981139869E+02  0.10111285633E+03  0.41800000000E+01 0. -1.
         -5    1    3    3    0  502 -0.35955968883E+02  0.60789729859E+02 -0.74637700165E+02  0.10284202274E+03  0.41800000000E+01 0. -1.
        -11    1    1    2    0    0  0.17444274647E+02  0.26066413684E+01 -0.13181289773E+02  0.22019166588E+02  0.00000000000E+00 0.  1.
         11    1    1    2    0    0 -0.26146165933E+02 -0.29349624135E+02  0.25094373697E+00  0.39307574367E+02  0.00000000000E+00 0. -1.
</event>
<event>
 7    1  0.6506388E-006  0.8305468E+02  0.7561462E-02  0.1320600E+00
         -1   -1    0    0    0  501 -0.00000000000E+00  0.00000000000E+00  0.25988590538E+02  0.25988590538E+02  0.00000000000E+00 0.  1.
          1   -1    0    0  501    0  0.00000000000E+00 -0.00000000000E+00 -0.51701366599E+03  0.51701366599E+03  0.00000000000E+00 0. -1.
         23    2    1    2    0    0 -0.20118241642E+02 -0.34988964718E+02 -0.26573761257E+03  0.29646795188E+03  0.12509115262E+03 0.  0.
          5    1    3    3  502    0  0.77413281009E+01  0.11528907432E+02 -0.23203597329E+03  0.23248872912E+03  0.41800000000E+01 0.  1.
         -5    1    3    3    0  502 -0.27859569743E+02 -0.46517872150E+02 -0.33701639276E+02  0.63979222764E+02  0.41800000000E+01 0.  1.
        -11    1    1    2    0    0  0.39146537198E+02 -0.16386428169E+02 -0.12838028255E+03  0.13521265973E+03  0.00000000000E+00 0. -1.
         11    1    1    2    0    0 -0.19028295556E+02  0.51375392888E+02 -0.96907180332E+02  0.11132164491E+03  0.00000000000E+00 0.  1.
</event>
<event>
 7    1  0.6506388E-006  0.1435586E+03  0.7561462E-02  0.1208619E+00
         -2   -1    0    0    0  501 -0.00000000000E+00  0.00000000000E+00  0.36428398699E+02  0.36428398699E+02  0.00000000000E+00 0. -1.
          2   -1    0    0  501    0  0.00000000000E+00 -0.00000000000E+00 -0.75341125351E+03  0.75341125351E+03  0.00000000000E+00 0.  1.
         23    2    1    2    0    0 -0.37613230682E+02  0.89044459583E+02 -0.19156557347E+03  0.24837173360E+03  0.12508988052E+03 0.  0.
          5    1    3    3  502    0 -0.73119812318E+02  0.95835330748E+02 -0.13421331556E+03  0.18044834177E+03  0.41800000000E+01 0.  1.
         -5    1    3    3    0  502  0.35506581636E+02 -0.67908711649E+01 -0.57352257905E+02  0.67923391828E+02  0.41800000000E+01 0.  1.
        -11    1    1    2    0    0 -0.28514261766E+02 -0.22807948916E+02 -0.17481572893E+03  0.17858836675E+03  0.00000000000E+00 0.  1.
         11    1    1    2    0    0  0.66127492448E+02 -0.66236510667E+02 -0.35060155242E+03  0.36287955187E+03  0.00000000000E+00 0. -1.
</event>
<event>
 7    1  0.6506388E-006  0.8994631E+02  0.7561462E-02  0.1302982E+00
         -3   -1    0    0    0  501 -0.00000000000E+00  0.00000000000E+00  0.28121156472E+03  0.28121156472E+03  0.00000000000E+00 0.  1.
          3   -1    0    0  501    0  0.00000000000E+00 -0.00000000000E+00 -0.49368487256E+02  0.49368487256E+02  0.00000000000E+00 0. -1.
         23    2    1    2    0    0  0.16605253430E+02 -0.33959432379E+02  0.16588649924E+03  0.21117469944E+03  0.12508975003E+03 0.  0.
          5    1    3    3  502    0  0.30786128160E+02  0.19701117431E+02  0.62710920772E+00  0.36793822594E+02  0.41800000000E+01 0.  1.
         -5    1    3    3    0  502 -0.14180874730E+02 -0.53660549810E+02  0.16525939003E+03  0.17438087684E+03  0.41800000000E+01 0.  1.
        -11    1    1    2    0    0 -0.48032021464E+02  0.27544487602E+02  0.12030541411E+02  0.56661343169E+02  0.00000000000E+00 0. -1.
         11    1    1    2    0    0  0.31426768034E+02  0.64149447775E+01  0.53926036806E+02  0.62744009365E+02  0.00000000000E+00 0.  1.
</event>
<event>
 7    1  0.6506388E-006  0.8542559E+02  0.7561462E-02  0.1314323E+00
          2   -1    0    0  501    0  0.00000000000E+00  0.00000000000E+00  0.20423121875E+03  0.20423121875E+03  0.00000000000E+00 0. -1.
         -2   -1    0    0    0  501 -0.00000000000E+00 -0.00000000000E+00 -0.74890707260E+02  0.74890707260E+02  0.00000000000E+00 0.  1.
         23    2    1    2    0    0  0.58493769148E+02  0.72096622311E+01  0.72727560984E+02  0.15623837665E+03  0.12509049506E+03 0.  0.
          5    1    3    3  502    0  0.30678682658E+01 -0.38745824378E+02 -0.15702884240E+02  0.42127232236E+02  0.41800000000E+01 0.  1.
         -5    1    3    3    0  502  0.55425900882E+02  0.45955486609E+02  0.88430445224E+02  0.11411114442E+03  0.41800000000E+01 0.  1.
        -11    1    1    2    0    0 -0.33629812968E+02  0.41510676967E+00 -0.21927620855E+02  0.40149186670E+02  0.00000000000E+00 0.  1.
         11    1    1    2    0    0 -0.24863956179E+02 -0.76247690007E+01  0.78540571358E+02  0.82734362683E+02  0.00000000000E+00 0. -1.
</event>
<event>
 7    1  0.6506388E-006  0.1480937E+03  0.7561462E-02  0.1202835E+00
         -1   -1    0    0    0  501 -0.00000000000E+00  0.00000000000E+00  0.41317906409E+03  0.41317906409E+03  0.00000000000E+00 0.  1.
          1   -1    0    0  501    0  0.00000000000E+00 -0.00000000000E+00 -0.95323566991E+02  0.95323566991E+02  0.00000000000E+00 0. -1.
         23    2    1    2    0    0  0.64730722788E+02 -0.79528761413E+02  0.33177149137E+03  0.36909877132E+03  0.12508673046E+03 0.  0.
          5    1    3    3  502    0  0.53637234279E+02 -0.11332450725E+03  0.24566071903E+03  0.27583701368E+03  0.41800000000E+01 0.  1.
         -5    1    3    3    0  502  0.11093488508E+02  0.33795745835E+02  0.86110772341E+02  0.93261757634E+02  0.41800000000E+01 0.  1.
        -11    1    1    2    0    0 -0.77509605883E+02  0.28920483611E+02  0.73202290282E+01  0.83052508267E+02  0.00000000000E+00 0.  1.
         11    1    1    2    0    0  0.12778883095E+02  0.50608277802E+02 -0.21236223300E+02  0.56351351495E+02  0.00000000000E+00 0. -1.
</event>
<event>
 7    1  0.6506388E-006  0.8517767E+02  0.7561462E-02  0.1314969E+00
         -2   -1    0    0    0  501 -0.00000000000E+00  0.00000000000E+00  0.45150107116E+02  0.45150107116E+02  0.00000000000E+00 0.  1.
          2   -1    0    0  501    0  0.00000000000E+00 -0.00000000000E+00 -0.35393252323E+03  0.35393252323E+03  0.00000000000E+00 0. -1.
         23    2    1    2    0    0 -0.63065955363E+02 -0.66819713669E+01 -0.16045187098E+03  0.21310721941E+03  0.12509164878E+03 0.  0.
          5    1    3    3  502    0 -0.24173368398E+02  0.14017710153E+02 -0.16610573977E+03  0.16849165298E+03  0.41800000000E+01 0. -1.
         -5    1    3    3    0  502 -0.38892586965E+02 -0.20699681520E+02  0.56538687890E+01  0.44615566433E+02  0.41800000000E+01 0. -1.
        -11    1    1    2    0    0  0.11905008505E+02 -0.31716394716E+02 -0.12995425013E+02  0.36284156220E+02  0.00000000000E+00 0.  1.
         11    1    1    2    0    0  0.51160946858E+02  0.38398366083E+02 -0.13533512012E+03  0.14969125472E+03  0.00000000000E+00 0. -1.
</event>
<event>
 7    1  0.6506388E-006  0.1086212E+03  0.7561462E-02  0.1263145E+00
          1   -1    0    0  501    0  0.00000000000E+00  0.00000000000E+00  0.29786012009E+03  0.29786012009E+03  0.00000000000E+00 0. -1.
         -1   -1    0    0    0  501 -0.00000000000E+00 -0.00000000000E+00 -0.42500248426E+02  0.42500248426E+02  0.00000000000E+00 0.  1.
         23    2    1    2    0    0  0.48970893189E+01  0.92390983568E+01  0.12935482426E+03  0.18024791939E+03  0.12508916604E+03 0.  0.
          5    1    3    3  502    0  0.24632124973E+02 -0.50195098923E+02  0.32419765127E+02  0.64767299677E+02  0.41800000000E+01 0. -1.
         -5    1    3    3    0  502 -0.19735035654E+02  0.59434197280E+02  0.96935059136E+02  0.11548061971E+03  0.41800000000E+01 0. -1.
        -11    1    1    2    0    0 -0.31008146048E+02 -0.44681328397E+02  0.62634965444E+02  0.82952185775E+02  0.00000000000E+00 0. -1.
         11    1    1    2    0    0  0.26111056729E+02  0.35442230040E+02  0.63370081957E+02  0.77160263355E+02  0.00000000000E+00 0.  1.
</event>
<event>
 7    1  0.6506388E-006  0.1215017E+03  0.7561462E-02  0.1240640E+00
          1   -1    0    0  501    0  0.00000000000E+00  0.00000000000E+00  0.22137778676E+03  0.22137778676E+03  0.00000000000E+00 0. -1.
         -1   -1    0    0    0  501 -0.00000000000E+00 -0.00000000000E+00 -0.75280077681E+02  0.75280077681E+02  0.00000000000E+00 0.  1.
         23    2    1    2    0    0  0.24331560208E+02  0.57607734603E+02  0.47265708162E+02  0.14761871560E+03  0.12508621874E+03 0.  0.
          5    1    3    3  502    0  0.70850527477E+02  0.59765937540E+02  0.35995045196E+02  0.99523264680E+02  0.41800000000E+01 0.  1.
         -5    1    3    3    0  502 -0.46518967270E+02 -0.21582029370E+01  0.11270662967E+02  0.48095450923E+02  0.41800000000E+01 0.  1.
        -11    1    1    2    0    0 -0.19876130892E+02 -0.79075843865E+02  0.97462570755E+02  0.12707085567E+03  0.00000000000E+00 0.  1.
         11    1    1    2    0    0 -0.44554293156E+01  0.21468109262E+02  0.13694301571E+01  0.21968293166E+02  0.00000000000E+00 0. -1.
</event>
<event>
 7    1  0.6506388E-006  0.7766707E+02  0.7561462E-02  0.1335805E+00
          1   -1    0    0  501    0  0.00000000000E+00  0.00000000000E+00  0.14493387942E+03  0.14493387942E+03  0.00000000000E+00 0. -1.
         -1   -1    0    0    0  501 -0.00000000000E+00 -0.00000000000E+00 -0.10656149009E+03  0.10656149009E+03  0.00000000000E+00 0.  1.
         23    2    1    2    0    0 -0.11181646141E+02  0.12903778933E+02 -0.37158691351E+02  0.13160176479E+03  0.12508684756E+03 0.  0.
          5    1    3    3  502    0  0.45173523690E+02 -0.33286807802E+01  0.19918810890E+02  0.49658421094E+02  0.41800000000E+01 0.  1.
         -5    1    3    3    0  502 -0.56355169830E+02  0.16232459713E+02 -0.57077502240E+02  0.81943343701E+02  0.41800000000E+01 0.  1.
        -11    1    1    2    0    0  0.30209771222E+02 -0.98753919363E+01 -0.91295366574E+01  0.33068143019E+02  0.00000000000E+00 0.  1.
         11    1    1    2    0    0 -0.19028125081E+02 -0.30283869967E+01  0.84660617329E+02  0.86825461695E+02  0.00000000000E+00 0. -1.
</event>
<event>
 7    1  0.6506388E-006  0.1538107E+03  0.7561462E-02  0.1195867E+00
         -2   -1    0    0    0  501 -0.00000000000E+00  0.00000000000E+00  0.25407998506E+02  0.25407998506E+02  0.00000000000E+00 0.  1.
          2   -1    0    0  501    0  0.00000000000E+00 -0.00000000000E+00 -0.11643138160E+04  0.11643138160E+04  0.00000000000E+00 0. -1.
         23    2    1    2    0    0  0.13173433893E+03  0.22829315672E+02 -0.62959519558E+03  0.65567745819E+03  0.12509078776E+03 0.  0.
          5    1    3    3  502    0  0.53446659708E+02 -0.42333141547E+02 -0.37957465162E+03  0.38567217797E+03  0.41800000000E+01 0.  1.
         -5    1    3    3    0  502  0.78287679221E+02  0.65162457219E+02 -0.25002054396E+03  0.27000528022E+03  0.41800000000E+01 0.  1.
        -11    1    1    2    0    0 -0.29371879443E+02 -0.18906619677E+02 -0.37529408819E+02  0.51270109186E+02  0.00000000000E+00 0.  1.
         11    1    1    2    0    0 -0.10236245949E+03 -0.39226959948E+01 -0.47178121308E+03  0.48277424711E+03  0.00000000000E+00 0. -1.
</event>
<event>
 7    1  0.6506388E-006  0.1231878E+03  0.7561462E-02  0.1237929E+00
          1   -1    0    0  501    0  0.00000000000E+00  0.00000000000E+00  0.62987148277E+03  0.62987148277E+03  0.00000000000E+00 0. -1.
         -1   -1    0    0    0  501 -0.00000000000E+00 -0.00000000000E+00 -0.35070228259E+02  0.35070228259E+02  0.00000000000E+00 0.  1.
         23    2    1    2    0    0  0.21916839331E+02 -0.95804917789E+02  0.26777185972E+03  0.31146356063E+03  0.12509536611E+03 0.  0.
          5    1    3    3  502    0  0.28852515113E+02 -0.18479755786E+02  0.21439627046E+03  0.21715709104E+03  0.41800000000E+01 0.  1.
         -5    1    3    3    0  502 -0.69356757823E+01 -0.77325162003E+02  0.53375589261E+02  0.94306469589E+02  0.41800000000E+01 0.  1.
        -11    1    1    2    0    0 -0.53236333109E+02  0.86266113688E+02  0.24304734790E+03  0.26334001378E+03  0.00000000000E+00 0. -1.
         11    1    1    2    0    0  0.31319493778E+02  0.95388041012E+01  0.83982046884E+02  0.90138136618E+02  0.00000000000E+00 0.  1.
</event>
<event>
 6    1  0.6506388E-006  0.1183619E+03  0.7561462E-02  0.1245824E+00
          2   -1    0    0  501    0  0.00000000000E+00  0.00000000000E+00  0.69609890049E+03  0.69609890049E+03  0.00000000000E+00 0. -1.
         -2   -1    0    0    0  501 -0.00000000000E+00 -0.00000000000E+00 -0.24758704373E+02  0.24758704373E+02  0.00000000000E+00 0.  1.
          5    1    1    2  502    0  0.83925664288E+02 -0.20868062098E+02  0.29464684255E+03  0.30710458702E+03  0.41800000000E+01 0. -1.
         -5    1    1    2    0  502 -0.47762203130E+02  0.70742621644E+02  0.10997061371E+03  0.13927223286E+03  0.41800000000E+01 0.  1.
        -11    1    1    2    0    0 -0.22659792825E+01 -0.18035472870E+02  0.67829230296E+02  0.70222627594E+02  0.00000000000E+00 0.  1.
         11    1    1    2    0    0 -0.33897481875E+02 -0.31839086675E+02  0.19889350956E+03  0.20425815739E+03  0.00000000000E+00 0. -1.
</event>
<event>
 7    1  0.6506388E-006  0.1366625E+03  0.7561462E-02  0.1217892E+00
          1   -1    0    0  501    0  0.00000000000E+00  0.00000000000E+00  0.40257860601E+03  0.40257860601E+03  0.00000000000E+00 0. -1.
         -1   -1    0    0    0  501 -0.00000000000E+00 -0.00000000000E+00 -0.69301999250E+02  0.69301999250E+02  0.00000000000E+00 0.  1.
         23    2    1    2    0    0  0.76122034139E+02 -0.92976632699E+02  0.18202450237E+03  0.25143655577E+03  0.12509278079E+03 0.  0.
          5    1    3    3  502    0  0.37109537069E+02 -0.38315706828E+02  0.17591868239E+03  0.18387513792E+03  0.41800000000E+01 0. -1.
         -5    1    3    3    0  502  0.39012497070E+02 -0.54660925871E+02  0.61058199827E+01  0.67561417853E+02  0.41800000000E+01 0. -1.
        -11    1    1    2    0    0 -0.20132822513E+02 -0.18784178859E+02  0.58930603019E+02  0.65046075131E+02  0.00000000000E+00 0.  1.
         11    1    1    2    0    0 -0.55989211626E+02  0.11176081156E+03  0.92321501367E+02  0.15539797435E+03  0.00000000000E+00 0. -1.
</event>
<event>
 7    1  0.6506388E-006  0.8702162E+02  0.7561462E-02  0.1310229E+00
         -1   -1    0    0    0  501 -0.00000000000E+00  0.00000000000E+00  0.37330571310E+02  0.37330571310E+02  0.00000000000E+00 0.  1.
          1   -1    0    0  501    0  0.00000000000E+00 -0.00000000000E+00 -0.31674234003E+03  0.31674234003E+03  0.00000000000E+00 0. -1.
         23    2    1    2    0    0 -0.23839731950E+02 -0.22901495992E+02 -0.17458092629E+03  0.21198786164E+03  0.11561808821E+03 0.  0.
          5    1    3    3  502    0 -0.62223591010E+02  0.73970174628E+01 -0.13515830953E+03  0.14903600967E+03  0.41800000000E+01 0. -1.
         -5    1    3    3    0  502  0.38383859060E+02 -0.30298513454E+02 -0.39422616763E+02  0.62951851969E+02  0.41800000000E+01 0.  1.
        -11    1    1    2    0    0  0.17951005624E+02  0.40126628320E+02 -0.11365151822E+03  0.12185668835E+03  0.00000000000E+00 0. -1.
         11    1    1    2    0    0  0.58887263257E+01 -0.17225132328E+02  0.88206757843E+01  0.20228361346E+02  0.00000000000E+00 0.  1.
</event>
<event>
 7    1  0.6506388E-006  0.1199478E+03  0.7561462E-02  0.1243183E+00
          2   -1    0    0  501    0  0.00000000000E+00  0.00000000000E+00  0.19397212260E+03  0.19397212260E+03  0.00000000000E+00 0. -1.
         -2   -1    0    0    0  501 -0.00000000000E+00 -0.00000000000E+00 -0.88885774214E+02  0.88885774214E+02  0.00000000000E+00 0.  1.
         23    2    1    2    0    0 -0.49922287031E+02 -0.27644708866E+02  0.47134302228E+01  0.13757483593E+03  0.12509258326E+03 0.  0.
          5    1    3    3  502    0 -0.49633361833E+02 -0.73515738714E+02 -0.96552994741E+01  0.89323746303E+02  0.41800000000E+01 0. -1.
         -5    1    3    3    0  502 -0.28892519703E+00  0.45871029848E+02  0.14368729697E+02  0.48251089627E+02  0.41800000000E+01 0. -1.
        -11    1    1    2    0    0 -0.15791044172E+02 -0.18808754984E+02  0.23073405628E+02  0.33697305343E+02  0.00000000000E+00 0. -1.
         11    1    1    2    0    0  0.65713331202E+02  0.46453463850E+02  0.77299512531E+02  0.11158575554E+03  0.00000000000E+00 0.  1.
</event>
<event>
 7    1  0.6506388E-006  0.1844933E+03  0.7561462E-02  0.1163524E+00
          1   -1    0    0  501    0  0.00000000000E+00  0.00000000000E+00  0.57534160707E+03  0.57534160707E+03  0.00000000000E+00 0. -1.
         -1   -1    0    0    0  501 -0.00000000000E+00 -0.00000000000E+00 -0.70715885738E+02  0.70715885738E+02  0.00000000000E+00 0.  1.
         23    2    1    2    0    0 -0.61938005117E+02  0.14200075444E+03  0.15349435445E+03  0.25141323275E+03  0.12509023149E+03 0.  0.
          5    1    3    3  502    0  0.28791097895E+01  0.12028094873E+03  0.57298810898E+02  0.13332824918E+03  0.41800000000E+01 0.  1.
         -5    1    3    3    0  502 -0.64817114906E+02  0.21719805713E+02  0.96195543555E+02  0.11808498357E+03  0.41800000000E+01 0.  1.
        -11    1    1    2    0    0  0.23634230004E+02 -0.13975778174E+03  0.27923284137E+03  0.31314819827E+03  0.00000000000E+00 0.  1.
         11    1    1    2    0    0  0.38303775113E+02 -0.22429726987E+01  0.71898525509E+02  0.81496061775E+02  0.00000000000E+00 0. -1.
</event>
<event>
 7    1  0.6506388E-006  0.1221201E+03  0.7561462E-02  0.1239640E+00
         -1   -1    0    0    0  501 -0.00000000000E+00  0.00000000000E+00  0.25772002440E+03  0.25772002440E+03  0.00000000000E+00 0.  1.
          1   -1    0    0  501    0  0.00000000000E+00 -0.00000000000E+00 -0.88484350948E+02  0.88484350948E+02  0.00000000000E+00 0. -1.
         23    2    1    2    0    0 -0.88838236961E+02 -0.54727609540E+02  0.10100458566E+03  0.19166794042E+03  0.12508928599E+03 0.  0.
          5    1    3    3  502    0 -0.59260395560E+02 -0.14670181189E+02 -0.17008322851E+02  0.63511921277E+02  0.41800000000E+01 0.  1.
         -5    1    3    3    0  502 -0.29577841401E+02 -0.40057428351E+02  0.11801290851E+03  0.12815601914E+03  0.41800000000E+01 0.  1.
        -11    1    1    2    0    0  0.10117054491E+03  0.62101499695E+02  0.73044602313E+02  0.13938288758E+03  0.00000000000E+00 0. -1.
         11    1    1    2    0    0 -0.12332307954E+02 -0.73738901544E+01 -0.48135145114E+01  0.15153547354E+02  0.00000000000E+00 0.  1.
</event>
<event>
 7    1  0.6506388E-006  0.1215936E+03  0.7561462E-02  0.1240491E+00
         -2   -1    0    0    0  501 -0.00000000000E+00  0.00000000000E+00  0.60325478707E+02  0.60325478707E+02  0.00000000000E+00 0.  1.
          2   -1    0    0  501    0  0.00000000000E+00 -0.00000000000E+00 -0.41456413546E+03  0.41456413546E+03  0.00000000000E+00 0. -1.
         23    2    1    2    0    0  0.53172451603E+02 -0.59709119294E+02 -0.65266324795E+02  0.16218071077E+03  0.12510156377E+03 0.  0.
          5    1    3    3  502    0 -0.15248518643E+02 -0.74980844240E+02 -0.45922019470E+02  0.89336155032E+02  0.41800000000E+01 0.  1.
         -5    1    3    3    0  502  0.68420970245E+02  0.15271724946E+02 -0.19344305325E+02  0.72844555738E+02  0.41800000000E+01 0.  1.
        -11    1    1    2    0    0 -0.40066351055E+01  0.44761494569E+02 -0.23060636645E+03  0.23494454828E+03  0.00000000000E+00 0. -1.
         11    1    1    2    0    0 -0.49165816497E+02  0.14947624725E+02 -0.58365965512E+02  0.77764355118E+02  0.00000000000E+00 0.  1.
</event>
<event>
 7    1  0.6506388E-006  0.1441491E+03  0.7561462E-02  0.1207853E+00
          2   -1    0    0  501    0  0.00000000000E+00  0.00000000000E+00  0.38239922667E+03  0.38239922667E+03  0.00000000000E+00 0. -1.
         -2   -1    0    0    0  501 -0.00000000000E+00 -0.00000000000E+00 -0.61353296752E+02  0.61353296752E+02  0.00000000000E+00 0.  1.
         23    2    1    2    0    0  0.41963655635E+02 -0.96035060216E+02  0.11236666451E+03  0.19297372303E+03  0.11674291971E+03 0.  0.
          5    1    3    3  502    0  0.41199651897E+02  0.15802331438E+02  0.24205574644E+02  0.50502546858E+02  0.41800000000E+01 0. -1.
         -5    1    3    3    0  502  0.76400373739E+00 -0.11183739165E+03  0.88161089863E+02  0.14247117617E+03  0.41800000000E+01 0.  1.
        -11    1    1    2    0    0 -0.60783827729E+02  0.39549364604E+02  0.74415885857E+02  0.10390644841E+03  0.00000000000E+00 0.  1.
         11    1    1    2    0    0  0.18820172094E+02  0.56485695613E+02  0.13426337955E+03  0.14687235198E+03  0.00000000000E+00 0. -1.
</event>
<event>
 7    1  0.6506388E-006  0.1706508E+03  0.7561462E-02  0.1177171E+00
          1   -1    0    0  501    0  0.00000000000E+00  0.00000000000E+00  0.30637065551E+03  0.30637065551E+03  0.00000000000E+00 0. -1.
         -1   -1    0    0    0  501 -0.00000000000E+00 -0.00000000000E+00 -0.12294031999E+03  0.12294031999E+03  0.00000000000E+00 0.  1.
         23    2    1    2    0    0  0.91749430704E+02 -0.13194513198E+03  0.10603672958E+03  0.22960440783E+03  0.12508765001E+03 0.  0.
          5    1    3    3  502    0  0.92886418574E+02 -0.11752753314E+03  0.30949239012E+02  0.15302266367E+03  0.41800000000E+01 0.  1.
         -5    1    3    3    0  502 -0.11369878692E+01 -0.14417598840E+02  0.75087490569E+02  0.76581744154E+02  0.41800000000E+01 0.  1.
        -11    1    1    2    0    0 -0.10369078522E+03  0.12557695906E+03  0.52038741957E+02  0.17096602660E+03  0.00000000000E+00 0.  1.
         11    1    1    2    0    0  0.11941354518E+02  0.63681729265E+01  0.25354863979E+02  0.28740541079E+02  0.00000000000E+00 0. -1.
</event>
<event>
 7    1  0.6506388E-006  0.8773704E+02  0.7561462E-02  0.1308426E+00
         -1   -1    0    0    0  501 -0.00000000000E+00  0.00000000000E+00  0.90039634119E+02  0.90039634119E+02  0.00000000000E+00 0.  1.
          1   -1    0    0  501    0  0.00000000000E+00 -0.00000000000E+00 -0.19913442723E+03  0.19913442723E+03  0.00000000000E+00 0. -1.
         23    2    1    2    0    0 -0.34985814600E+02 -0.50319250370E+02 -0.10752552214E+03  0.17596687182E+03  0.12508624179E+03 0.  0.
          5    1    3    3  502    0 -0.23275005046E+02  0.97256148546E+01  0.21308813554E+02  0.33284401441E+02  0.41800000000E+01 0. -1.
         -5    1    3    3    0  502 -0.11710809554E+02 -0.60044865224E+02 -0.12883433569E+03  0.14268247038E+03  0.41800000000E+01 0. -1.
        -11    1    1    2    0    0  0.42168622321E+02  0.61935760540E+02  0.28512755512E+02  0.80169871953E+02  0.00000000000E+00 0.  1.
         11    1    1    2    0    0 -0.71828077212E+01 -0.11616510170E+02 -0.30082026485E+02  0.33037317578E+02  0.00000000000E+00 0. -1.
</event>
<event>
 6    1  0.6506388E-006  0.8885840E+02  0.7561462E-02  0.1305640E+00
          1   -1    0    0  501    0  0.00000000000E+00  0.00000000000E+00  0.11127663523E+03  0.11127663523E+03  0.00000000000E+00 0. -1.
         -1   -1    0    0    0  501 -0.00000000000E+00 -0.00000000000E+00 -0.17210952970E+03  0.17210952970E+03  0.00000000000E+00 0.  1.
          5    1    1    2  502    0  0.32150211525E+02 -0.17249892226E+02  0.11191721578E+02  0.38391690700E+02  0.41800000000E+01 0. -1.
         -5    1    1    2    0  502 -0.78149764346E+02  0.96028403264E+00 -0.11008847907E+03  0.13507499190E+03  0.41800000000E+01 0.  1.
        -11    1    1    2    0    0  0.29839101503E+02 -0.10336434017E+02 -0.24541840941E+02  0.39993947085E+02  0.00000000000E+00 0.  1.
         11    1    1    2    0    0  0.16160451318E+02  0.26626042210E+02  0.62605703962E+02  0.69925535244E+02  0.00000000000E+00 0. -1.
</event>
<event>
 7    1  0.6506388E-006  0.1760033E+03  0.7561462E-02  0.1171728E+00
          1   -1    0    0  501    0  0.00000000000E+00  0.00000000000E+00  0.78735230663E+03  0.78735230663E+03  0.00000000000E+00 0. -1.
         -1   -1    0    0    0  501 -0.00000000000E+00 -0.00000000000E+00 -0.71762526465E+02  0.71762526465E+02  0.00000000000E+00 0.  1.
         23    2    1    2    0    0 -0.59000125603E+02 -0.15427572580E+03  0.13043678476E+03  0.24483261963E+03  0.12508893807E+03 0.  0.
          5    1    3    3  502    0 -0.74796549886E+02 -0.97670024270E+02  0.13858258948E+03  0.18535523738E+03  0.41800000000E+01 0. -1.
         -5    1    3    3    0  502  0.15796424283E+02 -0.56605701525E+02 -0.81458047229E+01  0.59477382255E+02  0.41800000000E+01 0. -1.
        -11    1    1    2    0    0  0.53508559949E+01  0.69286333518E+02  0.12250262595E+03  0.14084076482E+03  0.00000000000E+00 0.  1.
         11    1    1    2    0    0  0.53649269608E+02  0.84989392277E+02  0.46265036946E+03  0.47344144864E+03  0.00000000000E+00 0. -1.
</event>
<event>
 7    1  0.6506388E-006  0.1064426E+03  0.7561462E-02  0.1267303E+00
          2   -1    0    0  501    0  0.00000000000E+00  0.00000000000E+00  0.27093843183E+03  0.27093843183E+03  0.00000000000E+00 0. -1.
         -2   -1    0    0    0  501 -0.00000000000E+00 -0.00000000000E+00 -0.68946163666E+02  0.68946163666E+02  0.00000000000E+00 0.  1.
         23    2    1    2    0    0  0.51891006494E+02  0.47067635507E+02  0.60760791493E+02  0.15571880204E+03  0.12509369551E+03 0.  0.
          5    1    3    3  502    0 -0.20698744270E+02  0.34623432891E+02  0.70479097265E+02  0.81314178781E+02  0.41800000000E+01 0. -1.
         -5    1    3    3    0  502  0.72589750764E+02  0.12444202615E+02 -0.97183057718E+01  0.74404623255E+02  0.41800000000E+01 0. -1.
        -11    1    1    2    0    0  0.13543644967E+02 -0.26856587357E+02  0.34155552822E+01  0.30271647153E+02  0.00000000000E+00 0.  1.
         11    1    1    2    0    0 -0.65434651461E+02 -0.20211048150E+02  0.13781592138E+03  0.15389414630E+03  0.00000000000E+00 0. -1.
</event>
<event>
 7    1  0.6506388E-006  0.8123250E+02  0.7561462E-02  0.1325590E+00
          2   -1    0    0  501    0  0.00000000000E+00  0.00000000000E+00  0.59990483948E+02  0.59990483948E+02  0.00000000000E+00 0. -1.
         -2   -1    0    0    0  501 -0.00000000000E+00 -0.00000000000E+00 -0.23201952393E+03  0.23201952393E+03  0.00000000000E+00 0.  1.
         23    2    1    2    0    0 -0.16111286102E+01  0.39992187445E+02 -0.12320167224E+03  0.18007187566E+03  0.12508100402E+03 0.  0.
          5    1    3    3  502    0  0.37956623297E+02  0.64912770873E+02 -0.10608808385E+03  0.13010198695E+03  0.41800000000E+01 0. -1.
         -5    1    3    3    0  502 -0.39567751907E+02 -0.24920583428E+02 -0.17113588395E+02  0.49969888704E+02  0.41800000000E+01 0. -1.
        -11    1    1    2    0    0 -0.67096286620E+00 -0.27388790618E+02  0.24951120710E+02  0.37056098923E+02  0.00000000000E+00 0. -1.
         11    1    1    2    0    0  0.22820914764E+01 -0.12603396827E+02 -0.73778488451E+02  0.74882033301E+02  0.00000000000E+00 0.  1.
</event>
<event>
 7    1  0.6506388E-006  0.4819378E+02  0.7561462E-02  0.1455335E+00
         -1   -1    0    0    0  501 -0.00000000000E+00  0.00000000000E+00  0.13653835472E+03  0.13653835472E+03  0.00000000000E+00 0.  1.
          1   -1    0    0  501    0  0.00000000000E+00 -0.00000000000E+00 -0.87750963717E+02  0.87750963717E+02  0.00000000000E+00 0. -1.
         23    2    1    2    0    0 -0.21052700919E+02 -0.11188902871E+02  0.63398212494E+02  0.14224969432E+03  0.12508890608E+03 0.  0.
          5    1    3    3  502    0 -0.27693285860E+01 -0.74440506482E+01 -0.38009211706E+02  0.39054521446E+02  0.41800000000E+01 0.  1.
         -5    1    3    3    0  502 -0.18283372333E+02 -0.37448522224E+01  0.10140742420E+03  0.10319517288E+03  0.41800000000E+01 0.  1.
        -11    1    1    2    0    0 -0.65921248134E+01  0.32637928285E+02 -0.29049323767E+02  0.44187709645E+02  0.00000000000E+00 0. -1.
         11    1    1    2    0    0  0.27644825733E+02 -0.21449025415E+02  0.14438502274E+02  0.37851914469E+02  0.00000000000E+00 0.  1.
</event>
<event>
 7    1  0.6506388E-006  0.1124033E+03  0.7561462E-02  0.1256183E+00
         -1   -1    0    0    0  501 -0.00000000000E+00  0.00000000000E+00  0.83982729691E+02  0.83982729691E+02  0.00000000000E+00 0.  1.
          1   -1    0    0  501    0  0.00000000000E+00 -0.00000000000E+00 -0.20855052548E+03  0.20855052548E+03  0.00000000000E+00 0. -1.
         23    2    1    2    0    0 -0.13764339393E+02  0.37169952892E+02  0.33060303976E+01  0.13125676857E+03  0.12508535894E+03 0.  0.
          5    1    3    3  502    0 -0.13054451022E+02 -0.45824324705E+02  0.53523597821E+01  0.48129072102E+02  0.41800000000E+01 0. -1.
         -5    1    3    3    0  502 -0.70988837053E+00  0.82994277597E+02 -0.20463293846E+01  0.83127696463E+02  0.41800000000E+01 0. -1.
        -11    1    1    2    0    0  0.49796579480E+02 -0.25841483360E+02 -0.51879562106E+02  0.76413156946E+02  0.00000000000E+00 0.  1.
         11    1    1    2    0    0 -0.36032240087E+02 -0.11328469532E+02 -0.75994264078E+02  0.84863329657E+02  0.00000000000E+00 0. -1.
</event>
<event>
 7    1  0.6506388E-006  0.1143749E+03  0.7561462E-02  0.1252676E+00
         -3   -1    0    0    0  501 -0.00000000000E+00  0.00000000000E+00  0.21892586486E+02  0.21892586486E+02  0.00000000000E+00 0.  1.
          3   -1    0    0  501    0  0.00000000000E+00 -0.00000000000E+00 -0.88101856154E+03  0.88101856154E+03  0.00000000000E+00 0. -1.
         23    2    1    2    0    0  0.14674092122E+02 -0.76488277321E+02 -0.58702077550E+03  0.60523285493E+03  0.12509049633E+03 0.  0.
          5    1    3    3  502    0 -0.32635227977E+02 -0.53220525719E+02 -0.49624812010E+03  0.50017712019E+03  0.41800000000E+01 0. -1.
         -5    1    3    3    0  502  0.47309320099E+02 -0.23267751601E+02 -0.90772655406E+02  0.10505573474E+03  0.41800000000E+01 0. -1.
        -11    1    1    2    0    0  0.14195985664E+02  0.82576761135E+02 -0.14759142194E+03  0.16971645565E+03  0.00000000000E+00 0. -1.
         11    1    1    2    0    0 -0.28870077786E+02 -0.60884838143E+01 -0.12451377761E+03  0.12796183744E+03  0.00000000000E+00 0.  1.
</event>
<event>
 7    1  0.6506388E-006  0.1051783E+03  0.7561462E-02  0.1269769E+00
         -1   -1    0    0    0  501 -0.00000000000E+00  0.00000000000E+00  0.15460984714E+03  0.15460984714E+03  0.00000000000E+00 0.  1.
          1   -1    0    0  501    0  0.00000000000E+00 -0.00000000000E+00 -0.89829945254E+02  0.89829945254E+02  0.00000000000E+00 0. -1.
         23    2    1    2    0    0 -0.64275928148E+01  0.30378689274E+02  0.80363164009E+02  0.14496195802E+03  0.11658281362E+03 0.  0.
          5    1    3    3  502    0  0.52417442728E+02  0.48316116438E+01  0.53854861313E+02  0.75423810964E+02  0.41800000000E+01 0. -1.
         -5    1    3    3    0  502 -0.58845035543E+02  0.25547077630E+02  0.26508302696E+02  0.69538147051E+02  0.41800000000E+01 0.  1.
        -11    1    1    2    0    0  0.42289276633E+02  0.53685871957E+01  0.84024554103E+01  0.43448888404E+02  0.00000000000E+00 0.  1.
         11    1    1    2    0    0 -0.35861683818E+02 -0.35747276469E+02 -0.23985717534E+02  0.56028945973E+02  0.00000000000E+00 0. -1.
</event>
<event>
 7    1  0.6506388E-006  0.5636540E+02  0.7561462E-02  0.1413750E+00
         -1   -1    0    0    0  501 -0.00000000000E+00  0.00000000000E+00  0.13741544882E+03  0.13741544882E+03  0.00000000000E+00 0.  1.
          1   -1    0    0  501    0  0.00000000000E+00 -0.00000000000E+00 -0.86436750170E+02  0.86436750170E+02  0.00000000000E+00 0. -1.
         23    2    1    2    0    0  0.40275650607E+01 -0.67773443331E+01  0.53414783211E+02  0.13624479602E+03  0.12508937485E+03 0.  0.
          5    1    3    3  502    0  0.22658101543E+02 -0.17934696880E+02 -0.34727357578E+02  0.45370746986E+02  0.41800000000E+01 0.  1.
         -5    1    3    3    0  502 -0.18630536482E+02  0.11157352547E+02  0.88142140789E+02  0.90874049037E+02  0.41800000000E+01 0.  1.
        -11    1    1    2    0    0 -0.32359959591E+02  0.33017898936E+00  0.29952175763E+02  0.44095451419E+02  0.00000000000E+00 0.  1.
         11    1    1    2    0    0  0.28332394530E+02  0.64471653438E+01 -0.32388260323E+02  0.43511951548E+02  0.00000000000E+00 0. -1.
</event>
<event>
 7    1  0.6506388E-006  0.1503947E+03  0.7561462E-02  0.1199989E+00
         -2   -1    0    0    0  501 -0.00000000000E+00  0.00000000000E+00  0.48696738698E+02  0.48696738698E+02  0.00000000000E+00 0. -1.
          2   -1    0    0  501    0  0.00000000000E+00 -0.00000000000E+00 -0.71961961661E+03  0.71961961661E+03  0.00000000000E+00 0.  1.
         23    2    1    2    0    0 -0.10306960207E+03  0.88937611861E+02 -0.21345088028E+03  0.28238648587E+03  0.12509039706E+03 0.  0.
          5    1    3    3  502    0  0.10563824414E+02  0.14908349436E+02  0.97893286360E+01  0.21146078225E+02  0.41800000000E+01 0.  1.
         -5    1    3    3    0  502 -0.11363342648E+03  0.74029262425E+02 -0.22324020892E+03  0.26124040765E+03  0.41800000000E+01 0.  1.
        -11    1    1    2    0    0  0.22687944232E+02 -0.54271137468E+02 -0.85393765964E+02  0.10369278876E+03  0.00000000000E+00 0. -1.
         11    1    1    2    0    0  0.80381657837E+02 -0.34666474393E+02 -0.37207823167E+03  0.38223708068E+03  0.00000000000E+00 0.  1.
</event>
<event>
 6    1  0.6506388E-006  0.1442214E+03  0.7561462E-02  0.1207759E+00
          3   -1    0    0  501    0  0.00000000000E+00  0.00000000000E+00  0.27594734306E+03  0.27594734306E+03  0.00000000000E+00 0. -1.
         -3   -1    0    0    0  501 -0.00000000000E+00 -0.00000000000E+00 -0.44797348502E+03  0.44797348502E+03  0.00000000000E+00 0.  1.
          5    1    1    2  502    0  0.75019714813E+02 -0.57446988527E+02 -0.64198923609E+02  0.11431136555E+03  0.41800000000E+01 0. -1.
         -5    1    1    2    0  502 -0.30283738455E+02  0.85759273546E+02 -0.34140327541E+03  0.35333472328E+03  0.41800000000E+01 0.  1.
        -11    1    1    2    0    0  0.23281484535E+02 -0.25801489689E+02  0.53830202731E+02  0.64073669462E+02  0.00000000000E+00 0.  1.
         11    1    1    2    0    0 -0.68017460893E+02 -0.25107953296E+01  0.17974585432E+03  0.19220106978E+03  0.00000000000E+00 0. -1.
</event>
<event>
 7    1  0.6506388E-006  0.1309829E+03  0.7561462E-02  0.1226004E+00
         -2   -1    0    0    0  501 -0.00000000000E+00  0.00000000000E+00  0.25652176618E+02  0.25652176618E+02  0.00000000000E+00 0. -1.
          2   -1    0    0  501    0  0.00000000000E+00 -0.00000000000E+00 -0.90179074288E+03  0.90179074288E+03  0.00000000000E+00 0.  1.
         23    2    1    2    0    0  0.96625208684E+02  0.48639316666E+01 -0.34032071541E+03  0.37526761901E+03  0.12508999865E+03 0.  0.
          5    1    3    3  502    0 -0.10169315652E+02  0.20224781799E+02 -0.57812439321E+01  0.23735036571E+02  0.41800000000E+01 0.  1.
         -5    1    3    3    0  502  0.10679452434E+03 -0.15360850132E+02 -0.33453947147E+03  0.35153258244E+03  0.41800000000E+01 0.  1.
        -11    1    1    2    0    0 -0.98120128352E+02 -0.32448329864E+02 -0.37398475559E+03  0.38800135452E+03  0.00000000000E+00 0. -1.
         11    1    1    2    0    0  0.14949196676E+01  0.27584398198E+02 -0.16183309526E+03  0.16417394596E+03  0.00000000000E+00 0.  1.
</event>
<event>
 6    1  0.6506388E-006  0.1227186E+03  0.7561462E-02  0.1238678E+00
          1   -1    0    0  501    0  0.00000000000E+00  0.00000000000E+00  0.98411508652E+03  0.98411508652E+03  0.00000000000E+00 0. -1.
         -1   -1    0    0    0  501 -0.00000000000E+00 -0.00000000000E+00 -0.16597783377E+02  0.16597783377E+02  0.00000000000E+00 0.  1.
          5    1    1    2  502    0  0.48012277419E+02 -0.55158075683E+02  0.27932091825E+03  0.28876502535E+03  0.41800000000E+01 0. -1.
         -5    1    1    2    0  502 -0.56258624853E+02  0.56780343360E+02  0.20812789272E+03  0.22298818890E+03  0.41800000000E+01 0.  1.
        -11    1    1    2    0    0 -0.22144173120E+02  0.36929588225E+02  0.19526530945E+03  0.19995674523E+03  0.00000000000E+00 0.  1.
         11    1    1    2    0    0  0.30390520555E+02 -0.38551855903E+02  0.28480318273E+03  0.28900291041E+03  0.00000000000E+00 0. -1.
</event>
<event>
 7    1  0.6506388E-006  0.8739611E+02  0.7561462E-02  0.1309283E+00
          2   -1    0    0  501    0  0.00000000000E+00  0.00000000000E+00  0.23734787002E+02  0.23734787002E+02  0.00000000000E+00 0. -1.
         -2   -1    0    0    0  501 -0.00000000000E+00 -0.00000000000E+00 -0.50334538022E+03  0.50334538022E+03  0.00000000000E+00 0.  1.
         23    2    1    2    0    0 -0.78788161495E+00  0.34112977947E+01 -0.26464961178E+03  0.29274424926E+03  0.12509005058E+03 0.  0.
          5    1    3    3  502    0  0.36706135605E+02 -0.17904196988E+02 -0.23876812330E+03  0.24227172713E+03  0.41800000000E+01 0. -1.
         -5    1    3    3    0  502 -0.37494017220E+02  0.21315494783E+02 -0.25881488480E+02  0.50472522139E+02  0.41800000000E+01 0. -1.
        -11    1    1    2    0    0  0.26240082470E+02 -0.38785611412E+02 -0.14004394625E+03  0.14766574573E+03  0.00000000000E+00 0. -1.
         11    1    1    2    0    0 -0.25452200855E+02  0.35374313617E+02 -0.74917035180E+02  0.86670172219E+02  0.00000000000E+00 0.  1.
</event>
<event>
 7    1  0.6506388E-006  0.1429850E+03  0.7561462E-02  0.1209368E+00
         -2   -1    0    0    0  501 -0.00000000000E+00  0.00000000000E+00  0.28530660452E+02  0.28530660452E+02  0.00000000000E+00 0.  1.
          2   -1    0    0  501    0  0.00000000000E+00 -0.00000000000E+00 -0.73018258494E+03  0.73018258494E+03  0.00000000000E+00 0. -1.
         23    2    1    2    0    0 -0.56228527619E+02  0.76483689897E+02 -0.39442743668E+03  0.42453724186E+03  0.12508982684E+03 0.  0.
          5    1    3    3  502    0 -0.81711815533E+02  0.93194567271E+02 -0.34150592848E+03  0.36332605157E+03  0.41800000000E+01 0. -1.
         -5    1    3    3    0  502  0.25483287913E+02 -0.16710877374E+02 -0.52921508201E+02  0.61211190282E+02  0.41800000000E+01 0. -1.
        -11    1    1    2    0    0 -0.24648343359E+02 -0.10391201012E+02 -0.71856511746E+02  0.76673829754E+02  0.00000000000E+00 0.  1.
         11    1    1    2    0    0  0.80876870979E+02 -0.66092488885E+02 -0.23536797606E+03  0.25750217378E+03  0.00000000000E+00 0. -1.
</event>
<event>
 7    1  0.6506388E-006  0.6852007E+02  0.7561462E-02  0.1365199E+00
         -2   -1    0    0    0  501 -0.00000000000E+00  0.00000000000E+00  0.91857693507E+02  0.91857693507E+02  0.00000000000E+00 0. -1.
          2   -1    0    0  501    0  0.00000000000E+00 -0.00000000000E+00 -0.16089495371E+03  0.16089495371E+03  0.00000000000E+00 0.  1.
         23    2    1    2    0    0  0.45263865440E+02 -0.70366582777E+01  0.19368105599E+01  0.13323355450E+03  0.12509634981E+03 0.  0.
          5    1    3    3  502    0 -0.10941811732E+02 -0.20462365437E+02  0.51722958151E+02  0.56843367627E+02  0.41800000000E+01 0. -1.
         -5    1    3    3    0  502  0.56205677173E+02  0.13425707159E+02 -0.49786147591E+02  0.76390186877E+02  0.41800000000E+01 0. -1.
        -11    1    1    2    0    0 -0.24244447877E+02  0.19477614646E+02 -0.85583006419E+02  0.91058342358E+02  0.00000000000E+00 0.  1.
         11    1    1    2    0    0 -0.21019417564E+02 -0.12440956368E+02  0.14608935653E+02  0.28460750359E+02  0.00000000000E+00 0. -1.
</event>
<event>
 7    1  0.6506388E-006  0.8652073E+02  0.7561462E-02  0.1311503E+00
          1   -1    0    0  501    0  0.00000000000E+00  0.00000000000E+00  0.13582801770E+03  0.13582801770E+03  0.00000000000E+00 0. -1.
         -1   -1    0    0    0  501 -0.00000000000E+00 -0.00000000000E+00 -0.91505981844E+02  0.91505981844E+02  0.00000000000E+00 0.  1.
         23    2    1    2    0    0 -0.60575471074E+01  0.71607288119E+01 -0.11976462582E+02  0.12601564706E+03  0.12509411551E+03 0.  0.
          5    1    3    3  502    0 -0.41321578552E+02 -0.27508227862E+02 -0.44403055271E+02  0.66732894224E+02  0.41800000000E+01 0.  1.
         -5    1    3    3    0  502  0.35264031444E+02  0.34668956674E+02  0.32426592688E+02  0.59282752837E+02  0.41800000000E+01 0.  1.
        -11    1    1    2    0    0  0.14443722164E+02  0.31173080592E+02  0.21200121615E+01  0.34422035314E+02  0.00000000000E+00 0.  1.
         11    1    1    2    0    0 -0.83861750567E+01 -0.38333809404E+02  0.54178486279E+02  0.66896317171E+02  0.00000000000E+00 0. -1.
</event>
<event>
 7    1  0.6506388E-006  0.7664116E+02  0.7561462E-02  0.1338863E+00
         -2   -1    0    0    0  501 -0.00000000000E+00  0.00000000000E+00  0.58040052165E+02  0.58040052165E+02  0.00000000000E+00 0.  1.
          2   -1    0    0  501    0  0.00000000000E+00 -0.00000000000E+00 -0.22678310522E+03  0.22678310522E+03  0.00000000000E+00 0. -1.
         23    2    1    2    0    0 -0.74877241731E+01  0.11733497051E+02 -0.57124048840E+02  0.13821775921E+03  0.12508897249E+03 0.  0.
          5    1    3    3  502    0  0.19163513696E+02 -0.13755905085E+02  0.32983640004E+02  0.40765893707E+02  0.41800000000E+01 0.  1.
         -5    1    3    3    0  502 -0.26651237869E+02  0.25489402135E+02 -0.90107688843E+02  0.97451865502E+02  0.41800000000E+01 0.  1.
        -11    1    1    2    0    0 -0.37593394421E+02  0.14219918530E+02 -0.66714388601E+02  0.77886321222E+02  0.00000000000E+00 0.  1.
         11    1    1    2    0    0  0.45081118595E+02 -0.25953415581E+02 -0.44904615616E+02  0.68719076956E+02  0.00000000000E+00 0. -1.
</event>
<event>
 7    1  0.6506388E-006  0.7481611E+02  0.7561462E-02  0.1344441E+00
         -2   -1    0    0    0  501 -0.00000000000E+00  0.00000000000E+00  0.67404722646E+02  0.67404722646E+02  0.00000000000E+00 0.  1.
          2   -1    0    0  501    0  0.00000000000E+00 -0.00000000000E+00 -0.20146705739E+03  0.20146705739E+03  0.00000000000E+00 0. -1.
         23    2    1    2    0    0  0.18034415099E+02  0.22564294459E+02 -0.39956389532E+02  0.13446173014E+03  0.12509618817E+03 0.  0.
          5    1    3    3  502    0  0.39622210762E+01 -0.13903056377E+02  0.41430068181E+02  0.44078533573E+02  0.41800000000E+01 0.  1.
         -5    1    3    3    0  502  0.14072194023E+02  0.36467350836E+02 -0.81386457713E+02  0.90383196562E+02  0.41800000000E+01 0.  1.
        -11    1    1    2    0    0 -0.47649203050E+02  0.12611539916E+02 -0.40581766545E+02  0.63846513344E+02  0.00000000000E+00 0. -1.
         11    1    1    2    0    0  0.29614787950E+02 -0.35175834375E+02 -0.53524178663E+02  0.70563536553E+02  0.00000000000E+00 0.  1.
</event>
<event>
 7    1  0.6506388E-006  0.1341744E+03  0.7561462E-02  0.1221390E+00
         -2   -1    0    0    0  501 -0.00000000000E+00  0.00000000000E+00  0.42655054166E+02  0.42655054166E+02  0.00000000000E+00 0.  1.
          2   -1    0    0  501    0  0.00000000000E+00 -0.00000000000E+00 -0.42858486186E+03  0.42858486186E+03  0.00000000000E+00 0. -1.
         23    2    1    2    0    0  0.55283854710E+02 -0.66047567047E+02 -0.21532711579E+03  0.26001255514E+03  0.11756775210E+03 0.  0.
          5    1    3    3  502    0 -0.80208401354E+00  0.31691052206E+02 -0.61055764239E+02  0.68922020252E+02  0.41800000000E+01 0. -1.
         -5    1    3    3    0  502  0.56085938723E+02 -0.97738619253E+02 -0.15427135155E+03  0.19109053489E+03  0.41800000000E+01 0.  1.
        -11    1    1    2    0    0 -0.19996651640E+02  0.82345738776E+02 -0.10445337515E+03  0.13450351055E+03  0.00000000000E+00 0. -1.
         11    1    1    2    0    0 -0.35287203070E+02 -0.16298171728E+02 -0.66149316755E+02  0.76723850329E+02  0.00000000000E+00 0.  1.
</event>
<event>
 7    1  0.6506388E-006  0.9823931E+02  0.7561462E-02  0.1284043E+00
          1   -1    0    0  501    0  0.00000000000E+00  0.00000000000E+00  0.11087328811E+03  0.11087328811E+03  0.00000000000E+00 0. -1.
         -1   -1    0    0    0  501 -0.00000000000E+00 -0.00000000000E+00 -0.14007997644E+03  0.14007997644E+03  0.00000000000E+00 0.  1.
         23    2    1    2    0    0  0.26309903585E+02  0.85814092036E+01 -0.69808012590E+02  0.14590164681E+03  0.12509308658E+03 0.  0.
          5    1    3    3  502    0  0.39368255796E+01 -0.57616261813E+02 -0.27409166792E+02  0.64061431807E+02  0.41800000000E+01 0. -1.
         -5    1    3    3    0  502  0.22373078005E+02  0.66197671017E+02 -0.42398845799E+02  0.81840215008E+02  0.41800000000E+01 0. -1.
        -11    1    1    2    0    0 -0.47109527153E+02 -0.78825828627E+01  0.59938996507E+02  0.76642846786E+02  0.00000000000E+00 0. -1.
         11    1    1    2    0    0  0.20799623568E+02 -0.69882634090E+00 -0.19337672253E+02  0.28408770952E+02  0.00000000000E+00 0.  1.
</event>
<event>
 7    1  0.6506388E-006  0.2402080E+03  0.7561462E-02  0.1119654E+00
         -2   -1    0    0    0  501 -0.00000000000E+00  0.00000000000E+00  0.40097511319E+03  0.40097511319E+03  0.00000000000E+00 0.  1.
          2   -1    0    0  501    0  0.00000000000E+00 -0.00000000000E+00 -0.16083204585E+03  0.16083204585E+03  0.00000000000E+00 0. -1.
         23    2    1    2    0    0  0.22612659486E+03 -0.22505193108E+02  0.16073199281E+03  0.30516151135E+03  0.12509617849E+03 0.  0.
          5    1    3    3  502    0  0.13657201939E+01 -0.27581580791E+02 -0.13727917562E+01  0.27963650473E+02  0.41800000000E+01 0.  1.
         -5    1    3    3    0  502  0.22476087467E+03  0.50763876834E+01  0.16210478456E+03  0.27719786087E+03  0.41800000000E+01 0.  1.
        -11    1    1    2    0    0 -0.16952176863E+03  0.11086740560E+02  0.97824166430E+02  0.19603600025E+03  0.00000000000E+00 0.  1.
         11    1    1    2    0    0 -0.56604826233E+02  0.11418452547E+02 -0.18413091897E+02  0.60609647455E+02  0.00000000000E+00 0. -1.
</event>
<event>
 7    1  0.6506388E-006  0.7499448E+02  0.7561462E-02  0.1343888E+00
         -2   -1    0    0    0  501 -0.00000000000E+00  0.00000000000E+00  0.49645540601E+03  0.49645540601E+03  0.00000000000E+00 0.  1.
          2   -1    0    0  501    0  0.00000000000E+00 -0.00000000000E+00 -0.42231767743E+02  0.42231767743E+02  0.00000000000E+00 0. -1.
         23    2    1    2    0    0 -0.34096792416E+02  0.34114846967E+02  0.40110150584E+03  0.42291454497E+03  0.12509148780E+03 0.  0.
          5    1    3    3  502    0 -0.55284036850E+02 -0.64074600748E+01  0.34913625769E+03  0.35356891706E+03  0.41800000000E+01 0.  1.
         -5    1    3    3    0  502  0.21187244434E+02  0.40522307042E+02  0.51965248148E+02  0.69345627907E+02  0.41800000000E+01 0.  1.
        -11    1    1    2    0    0  0.24072835422E+02 -0.25119852606E+02 -0.20865339652E+02  0.40569333234E+02  0.00000000000E+00 0. -1.
         11    1    1    2    0    0  0.10023956994E+02 -0.89949943609E+01  0.73987472074E+02  0.75203295548E+02  0.00000000000E+00 0.  1.
</event>
<event>
 7    1  0.6506388E-006  0.1083760E+03  0.7561462E-02  0.1263607E+00
         -1   -1    0    0    0  501 -0.00000000000E+00  0.00000000000E+00  0.38866718450E+02  0.38866718450E+02  0.00000000000E+00 0.  1.
          1   -1    0    0  501    0  0.00000000000E+00 -0.00000000000E+00 -0.78994877270E+03  0.78994877270E+03  0.00000000000E+00 0. -1.
         23    2    1    2    0    0 -0.67007461135E+02  0.64919390565E+02 -0.16810306466E+03  0.22937610360E+03  0.12510087704E+03 0.  0.
          5    1    3    3  502    0 -0.34898657478E+02  0.30127369343E+02  0.79937278857E+01  0.46978151973E+02  0.41800000000E+01 0.  1.
         -5    1    3    3    0  502 -0.32108803657E+02  0.34792021222E+02 -0.17609679254E+03  0.18239795162E+03  0.41800000000E+01 0.  1.
        -11    1    1    2    0    0  0.22484011988E+02  0.18008291235E+02 -0.46014038230E+02  0.54287393219E+02  0.00000000000E+00 0.  1.
         11    1    1    2    0    0  0.44523449147E+02 -0.82927681800E+02 -0.53696495136E+03  0.54515199433E+03  0.00000000000E+00 0. -1.
</event>
<event>
 7    1  0.6506388E-006  0.2858541E+03  0.7561462E-02  0.1092534E+00
         -1   -1    0    0    0  501 -0.00000000000E+00  0.00000000000E+00  0.49320480047E+02  0.49320480047E+02  0.00000000000E+00 0.  1.
          1   -1    0    0  501    0  0.00000000000E+00 -0.00000000000E+00 -0.19053187861E+04  0.19053187861E+04  0.00000000000E+00 0. -1.
         23    2    1    2    0    0  0.16376282040E+03 -0.23145346194E+03 -0.79543934111E+03  0.85367321183E+03  0.12508093712E+03 0.  0.
          5    1    3    3  502    0  0.42702626505E+02 -0.96481855191E+02 -0.46397334768E+03  0.47583715960E+03  0.41800000000E+01 0. -1.
         -5    1    3    3    0  502  0.12106019389E+03 -0.13497160675E+03 -0.33146599342E+03  0.37783605223E+03  0.41800000000E+01 0. -1.
        -11    1    1    2    0    0 -0.72297363876E+02  0.79990307019E+02 -0.55399589323E+03  0.56439065173E+03  0.00000000000E+00 0. -1.
         11    1    1    2    0    0 -0.91465456520E+02  0.15146315492E+03 -0.50656307173E+03  0.53657540260E+03  0.00000000000E+00 0.  1.
</event>
<event>
 6    1  0.6506388E-006  0.9182066E+02  0.7561462E-02  0.1298502E+00
         -1   -1    0    0    0  501 -0.00000000000E+00  0.00000000000E+00  0.11244146556E+03  0.11244146556E+03  0.00000000000E+00 0.  1.
          1   -1    0    0  501    0  0.00000000000E+00 -0.00000000000E+00 -0.12156966242E+03  0.12156966242E+03  0.00000000000E+00 0. -1.
          5    1    1    2  502    0  0.40278284941E+02  0.35234726761E+02  0.74889642154E+01  0.54197630877E+02  0.41800000000E+01 0. -1.
         -5    1    1    2    0  502 -0.54514664019E+02 -0.59991073604E+02  0.10466627111E+02  0.81840089127E+02  0.41800000000E+01 0.  1.
        -11    1    1    2    0    0  0.89291629391E+01 -0.10132437809E+02  0.28840103100E+02  0.31845687205E+02  0.00000000000E+00 0.  1.
         11    1    1    2    0    0  0.53072161385E+01  0.34888784652E+02 -0.55923891289E+02  0.66127720772E+02  0.00000000000E+00 0. -1.
</event>
<event>
 6    1  0.6506388E-006  0.1277222E+03  0.7561462E-02  0.1230875E+00
         -2   -1    0    0    0  501 -0.00000000000E+00  0.00000000000E+00  0.41303265999E+02  0.41303265999E+02  0.00000000000E+00 0.  1.
          2   -1    0    0  501    0  0.00000000000E+00 -0.00000000000E+00 -0.63001897640E+03  0.63001897640E+03  0.00000000000E+00 0. -1.
          5    1    1    2  502    0  0.52476503854E+02  0.54733227511E+01 -0.50331127535E+02  0.73037220085E+02  0.41800000000E+01 0. -1.
         -5    1    1    2    0  502 -0.62287251374E+02 -0.77345663910E+02 -0.17704375271E+03  0.20303698230E+03  0.41800000000E+01 0.  1.
        -11    1    1    2    0    0 -0.26765683941E+02  0.54795566393E+01 -0.13402391585E+01  0.27353676513E+02  0.00000000000E+00 0.  1.
         11    1    1    2    0    0  0.36576431460E+02  0.66392784520E+02 -0.36000059100E+03  0.36789436350E+03  0.00000000000E+00 0. -1.
</event>
<event>
 7    1  0.9235712E-006  0.1779526E+03  0.7561462E-02  0.1169799E+00
          3   -1    0    0  501    0  0.00000000000E+00  0.00000000000E+00  0.70229716075E+03  0.70229716075E+03  0.00000000000E+00 0. -1.
         -3   -1    0    0    0  501 -0.00000000000E+00 -0.00000000000E+00 -0.52174267287E+02  0.52174267287E+02  0.00000000000E+00 0.  1.
         23    2    1    2    0    0  0.14689208687E+02  0.15137946069E+03  0.27052486568E+03  0.33460853715E+03  0.12509059204E+03 0.  0.
          5    1    3    3  502    0 -0.36586797799E+02  0.27796097115E+02  0.19435357508E+02  0.50064181902E+02  0.41800000000E+01 0. -1.
         -5    1    3    3    0  502  0.51276006487E+02  0.12358336357E+03  0.25108950817E+03  0.28454435525E+03  0.41800000000E+01 0. -1.
        -11    1    1    2    0    0 -0.49735036853E+02 -0.59390373063E+02  0.12699170545E+03  0.14875376821E+03  0.00000000000E+00 0. -1.
         11    1    1    2    0    0  0.35045828166E+02 -0.91989087623E+02  0.25260632234E+03  0.27110912267E+03  0.00000000000E+00 0.  1.
</event>
<event>
 7    1  0.6506388E-006  0.1235673E+03  0.7561462E-02  0.1237326E+00
         -2   -1    0    0    0  501 -0.00000000000E+00  0.00000000000E+00  0.18808160005E+02  0.18808160005E+02  0.00000000000E+00 0.  1.
          2   -1    0    0  501    0  0.00000000000E+00 -0.00000000000E+00 -0.91014925930E+03  0.91014925930E+03  0.00000000000E+00 0. -1.
         23    2    1    2    0    0 -0.49382488337E+02 -0.36696357200E+02 -0.35524168998E+03  0.38161385754E+03  0.12508886914E+03 0.  0.
          5    1    3    3  502    0  0.36869514587E+02  0.11253055985E+02 -0.13017971353E+03  0.13583159643E+03  0.41800000000E+01 0.  1.
         -5    1    3    3    0  502 -0.86252002924E+02 -0.47949413185E+02 -0.22506197645E+03  0.24578226111E+03  0.41800000000E+01 0.  1.
        -11    1    1    2    0    0  0.17464523205E+02  0.64767966115E+02 -0.35910019862E+03  0.36531199221E+03  0.00000000000E+00 0. -1.
         11    1    1    2    0    0  0.31917965132E+02 -0.28071608914E+02 -0.17699921070E+03  0.18203156955E+03  0.00000000000E+00 0.  1.
</event>
<event>
 7    1  0.6506388E-006  0.1092051E+03  0.7561462E-02  0.1262049E+00
          2   -1    0    0  501    0  0.00000000000E+00  0.00000000000E+00  0.84077223395E+03  0.84077223395E+03  0.00000000000E+00 0. -1.
         -2   -1    0    0    0  501 -0.00000000000E+00 -0.00000000000E+00 -0.15591375635E+02  0.15591375635E+02  0.00000000000E+00 0.  1.
         23    2    1    2    0    0 -0.12090041658E+02 -0.34972218333E+02  0.47020873410E+03  0.48796809499E+03  0.12508949974E+03 0.  0.
          5    1    3    3  502    0  0.48571631587E+02 -0.44837337153E+02  0.29184125751E+03  0.29926306518E+03  0.41800000000E+01 0. -1.
         -5    1    3    3    0  502 -0.60661673246E+02  0.98651188200E+01  0.17836747659E+03  0.18870502981E+03  0.41800000000E+01 0. -1.
        -11    1    1    2    0    0 -0.15703547217E+02  0.54428021233E+02  0.28569637914E+03  0.29125835944E+03  0.00000000000E+00 0. -1.
         11    1    1    2    0    0  0.27793588876E+02 -0.19455802900E+02  0.69275745081E+02  0.77137155156E+02  0.00000000000E+00 0.  1.
</event>
<event>
 7    1  0.6506388E-006  0.1097824E+03  0.7561462E-02  0.1260973E+00
         -2   -1    0    0    0  501 -0.00000000000E+00  0.00000000000E+00  0.74402264325E+02  0.74402264325E+02  0.00000000000E+00 0.  1.
          2   -1    0    0  501    0  0.00000000000E+00 -0.00000000000E+00 -0.31697989242E+03  0.31697989242E+03  0.00000000000E+00 0. -1.
         23    2    1    2    0    0  0.36853086037E+02 -0.70831592137E+02 -0.43436104285E+02  0.15463020746E+03  0.12509413060E+03 0.  0.
          5    1    3    3  502    0 -0.69214270458E+01  0.24906586515E+02  0.18828212545E+02  0.32252413736E+02  0.41800000000E+01 0.  1.
         -5    1    3    3    0  502  0.43774513083E+02 -0.95738178652E+02 -0.62264316830E+02  0.12237779373E+03  0.41800000000E+01 0.  1.
        -11    1    1    2    0    0 -0.41823273780E+02  0.43881214627E+02 -0.20035045244E+03  0.20932045055E+03  0.00000000000E+00 0. -1.
         11    1    1    2    0    0  0.49701877433E+01  0.26950377510E+02  0.12089286294E+01  0.27431498730E+02  0.00000000000E+00 0.  1.
</event>
<event>
 7    1  0.7240595E-006  0.2910169E+03  0.7561462E-02  0.1089819E+00
          2   -1    0    0  501    0  0.00000000000E+00  0.00000000000E+00  0.94343610791E+03  0.94343610791E+03  0.00000000000E+00 0. -1.
         -2   -1    0    0    0  501 -0.00000000000E+00 -0.00000000000E+00 -0.10268490991E+03  0.10268490991E+03  0.00000000000E+00 0.  1.
         23    2    1    2    0    0  0.28923513724E+03 -0.26982337472E+01  0.48743794350E+03  0.58043797103E+03  0.12509294294E+03 0.  0.
          5    1    3    3  502    0  0.17390076157E+03 -0.84035353393E+01  0.17315249951E+03  0.24558370217E+03  0.41800000000E+01 0.  1.
         -5    1    3    3    0  502  0.11533437566E+03  0.57053015920E+01  0.31428544398E+03  0.33485426886E+03  0.41800000000E+01 0.  1.
        -11    1    1    2    0    0 -0.21382684161E+03 -0.16662023003E+02  0.30888438847E+03  0.37604402221E+03  0.00000000000E+00 0. -1.
         11    1    1    2    0    0 -0.75408295629E+02  0.19360256750E+02  0.44428866028E+02  0.89639024580E+02  0.00000000000E+00 0.  1.
</event>
<event>
 7    1  0.6506388E-006  0.1320485E+03  0.7561462E-02  0.1224447E+00
         -2   -1    0    0    0  501 -0.00000000000E+00  0.00000000000E+00  0.72070618789E+02  0.72070618789E+02  0.00000000000E+00 0.  1.
          2   -1    0    0  501    0  0.00000000000E+00 -0.00000000000E+00 -0.46144236216E+03  0.46144236216E+03  0.00000000000E+00 0. -1.
         23    2    1    2    0    0 -0.97733836232E+02 -0.57335327595E+02 -0.70525075322E+02  0.18292122687E+03  0.12508855445E+03 0.  0.
          5    1    3    3  502    0 -0.25874779550E+02 -0.54636687082E+02  0.23049339443E+02  0.64833758497E+02  0.41800000000E+01 0.  1.
         -5    1    3    3    0  502 -0.71859056681E+02 -0.26986405130E+01 -0.93574414765E+02  0.11808746837E+03  0.41800000000E+01 0.  1.
        -11    1    1    2    0    0  0.17148750830E+02  0.47235577345E+02 -0.20290090525E+03  0.20903123397E+03  0.00000000000E+00 0.  1.
         11    1    1    2    0    0  0.80585085402E+02  0.10099750250E+02 -0.11594576280E+03  0.14156052011E+03  0.00000000000E+00 0. -1.
</event>
<event>
 6    1  0.6506388E-006  0.2441585E+03  0.7561462E-02  0.1117053E+00
          1   -1    0    0  501    0  0.00000000000E+00  0.00000000000E+00  0.40329072357E+03  0.40329072357E+03  0.00000000000E+00 0. -1.
         -1   -1    0    0    0  501 -0.00000000000E+00 -0.00000000000E+00 -0.17508579141E+03  0.17508579141E+03  0.00000000000E+00 0.  1.
          5    1    1    2  502    0  0.67814286251E+02  0.58906582816E+02  0.39802955175E+02  0.98338754108E+02  0.41800000000E+01 0. -1.
         -5    1    1    2    0  502  0.14292108914E+03 -0.10232173453E+03 -0.64564583841E+01  0.17594127808E+03  0.41800000000E+01 0.  1.
        -11    1    1    2    0    0 -0.15601494224E+03  0.57130729640E+01  0.17548369416E+03  0.23487832663E+03  0.00000000000E+00 0. -1.
         11    1    1    2    0    0 -0.54720433147E+02  0.37702078752E+02  0.19374741208E+02  0.69218156165E+02  0.00000000000E+00 0.  1.
</event>
<event>
 7    1  0.6506388E-006  0.1772736E+03  0.7561462E-02  0.1170468E+00
          1   -1    0    0  501    0  0.00000000000E+00  0.00000000000E+00  0.14448307129E+03  0.14448307129E+03  0.00000000000E+00 0. -1.
         -1   -1    0    0    0  501 -0.00000000000E+00 -0.00000000000E+00 -0.27016194281E+03  0.27016194281E+03  0.00000000000E+00 0.  1.
         23    2    1    2    0    0  0.12921145321E+03 -0.93338084100E+02 -0.10886280055E+03  0.23001439549E+03  0.12509162724E+03 0.  0.
          5    1    3    3  502    0  0.10826006920E+03 -0.10386044449E+03 -0.12970772546E+03  0.19836532197E+03  0.41800000000E+01 0. -1.
         -5    1    3    3    0  502  0.20951384006E+02  0.10522360394E+02  0.20844924918E+02  0.31649073523E+02  0.41800000000E+01 0. -1.
        -11    1    1    2    0    0 -0.12856333642E+02  0.57472008533E+02 -0.21731336989E+02  0.62773944331E+02  0.00000000000E+00 0.  1.
         11    1    1    2    0    0 -0.11635511957E+03  0.35866075567E+02  0.49152660088E+01  0.12185667428E+03  0.00000000000E+00 0. -1.
</event>
<event>
 7    1  0.6506388E-006  0.8086244E+02  0.7561462E-02  0.1326622E+00
         -3   -1    0    0    0  501 -0.00000000000E+00  0.00000000000E+00  0.48612388685E+02  0.48612388685E+02  0.00000000000E+00 0.  1.
          3   -1    0    0  501    0  0.00000000000E+00 -0.00000000000E+00 -0.39698803295E+03  0.39698803295E+03  0.00000000000E+00 0. -1.
         23    2    1    2    0    0  0.18222837845E+01  0.52294395317E+01 -0.52831071194E+02  0.13589601199E+03  0.12508371691E+03 0.  0.
          5    1    3    3  502    0 -0.27873865962E+01 -0.36510652825E+02 -0.78345625397E+02  0.86581214547E+02  0.41800000000E+01 0. -1.
         -5    1    3    3    0  502  0.46096703807E+01  0.41740092356E+02  0.25514554202E+02  0.49314797445E+02  0.41800000000E+01 0. -1.
        -11    1    1    2    0    0 -0.93301694137E+01 -0.43081026236E+02 -0.22517235575E+03  0.22944632635E+03  0.00000000000E+00 0.  1.
         11    1    1    2    0    0  0.75078856292E+01  0.37851586704E+02 -0.70372217322E+02  0.80258083290E+02  0.00000000000E+00 0. -1.
</event>
<event>
 7    1  0.6506388E-006  0.1452557E+03  0.7561462E-02  0.1206427E+00
         -2   -1    0    0    0  501 -0.00000000000E+00  0.00000000000E+00  0.17726668151E+03  0.17726668151E+03  0.00000000000E+00 0.  1.
          2   -1    0    0  501    0  0.00000000000E+00 -0.00000000000E+00 -0.60737963784E+03  0.60737963784E+03  0.00000000000E+00 0. -1.
         23    2    1    2    0    0 -0.47935761121E+02 -0.95654407084E+02  0.12955887238E+03  0.20757718797E+03  0.12188184756E+03 0.  0.
          5    1    3    3  502    0  0.69448373424E+01  0.26372536978E+02  0.29929745167E+02  0.40706308088E+02  0.41800000000E+01 0. -1.
         -5    1    3    3    0  502 -0.54880598463E+02 -0.12202694406E+03  0.99629127214E+02  0.16687087989E+03  0.41800000000E+01 0.  1.
        -11    1    1    2    0    0  0.96437606328E+01 -0.11650134014E+02 -0.17837297325E+02  0.23385827279E+02  0.00000000000E+00 0.  1.
         11    1    1    2    0    0  0.38292000488E+02  0.10730454110E+03 -0.54183453138E+03  0.55368330410E+03  0.00000000000E+00 0. -1.
</event>
<event>
 7    1  0.6506388E-006  0.8670226E+02  0.7561462E-02  0.1311040E+00
          1   -1    0    0  501    0  0.00000000000E+00  0.00000000000E+00  0.28967689182E+02  0.28967689182E+02  0.00000000000E+00 0. -1.
         -1   -1    0    0    0  501 -0.00000000000E+00 -0.00000000000E+00 -0.64780216832E+03  0.64780216832E+03  0.00000000000E+00 0.  1.
         23    2    1    2    0    0 -0.48703890053E+02  0.78826397421E+01 -0.50819668487E+03  0.52568523888E+03  0.12508754912E+03 0.  0.
          5    1    3    3  502    0 -0.10261499597E+02 -0.51338567849E+02 -0.11843141851E+03  0.12955469969E+03  0.41800000000E+01 0. -1.
         -5    1    3    3    0  502 -0.38442390455E+02  0.59221207591E+02 -0.38976526636E+03  0.39613053918E+03  0.41800000000E+01 0. -1.
        -11    1    1    2    0    0  0.32775150068E+02 -0.96347365937E+00 -0.12457441255E+03  0.12881740179E+03  0.00000000000E+00 0.  1.
         11    1    1    2    0    0  0.15928739985E+02 -0.69191660827E+01  0.13936618273E+02  0.22267216837E+02  0.00000000000E+00 0. -1.
</event>
<event>
 7    1  0.6506388E-006  0.9001968E+02  0.7561462E-02  0.1302804E+00
          1   -1    0    0  501    0  0.00000000000E+00  0.00000000000E+00  0.59490195917E+02  0.59490195917E+02  0.00000000000E+00 0. -1.
         -1   -1    0    0    0  501 -0.00000000000E+00 -0.00000000000E+00 -0.24210743322E+03  0.24210743322E+03  0.00000000000E+00 0.  1.
         23    2    1    2    0    0  0.44172868729E+02  0.91807206713E+01 -0.13056713799E+03  0.18634301728E+03  0.12506164321E+03 0.  0.
          5    1    3    3  502    0  0.12232211104E+02  0.53115542430E+02 -0.12156783827E+02  0.56001318102E+02  0.41800000000E+01 0. -1.
         -5    1    3    3    0  502  0.31940657625E+02 -0.43934821759E+02 -0.11841035416E+03  0.13034169918E+03  0.41800000000E+01 0. -1.
        -11    1    1    2    0    0 -0.14621634270E+02 -0.30923725568E+02 -0.67322734331E+02  0.75514366511E+02  0.00000000000E+00 0.  1.
         11    1    1    2    0    0 -0.29551234459E+02  0.21743004897E+02  0.15272635013E+02  0.39740245347E+02  0.00000000000E+00 0. -1.
</event>
<event>
 7    1  0.6506388E-006  0.7641164E+02  0.7561462E-02  0.1339555E+00
         -3   -1    0    0    0  501 -0.00000000000E+00  0.00000000000E+00  0.34306151455E+02  0.34306151455E+02  0.00000000000E+00 0.  1.
          3   -1    0    0  501    0  0.00000000000E+00 -0.00000000000E+00 -0.42279732008E+03  0.42279732008E+03  0.00000000000E+00 0. -1.
         23    2    1    2    0    0 -0.36076462130E+02 -0.38537646961E+02 -0.21842410604E+03  0.25718251001E+03  0.12508833681E+03 0.  0.
          5    1    3    3  502    0 -0.30333981340E+02 -0.14104505595E+02 -0.22763812713E+03  0.23012100475E+03  0.41800000000E+01 0.  1.
         -5    1    3    3    0  502 -0.57424807901E+01 -0.24433141366E+02  0.92140210940E+01  0.27061505268E+02  0.41800000000E+01 0.  1.
        -11    1    1    2    0    0  0.46924407429E+02 -0.64708360177E+01 -0.40469745476E+02  0.62302263444E+02  0.00000000000E+00 0.  1.
         11    1    1    2    0    0 -0.10847945299E+02  0.45008482979E+02 -0.12959731711E+03  0.13761869807E+03  0.00000000000E+00 0. -1.
</event>
<event>
 7    1  0.6506388E-006  0.1333073E+03  0.7561462E-02  0.1222629E+00
         -2   -1    0    0    0  501 -0.00000000000E+00  0.00000000000E+00  0.40318271934E+03  0.40318271934E+03  0.00000000000E+00 0.  1.
          2   -1    0    0  501    0  0.00000000000E+00 -0.00000000000E+00 -0.63481489406E+02  0.63481489406E+02  0.00000000000E+00 0. -1.
         23    2    1    2    0    0  0.30382106118E+02  0.93205305586E+02  0.27594212952E+03  0.31843591307E+03  0.12508825095E+03 0.  0.
          5    1    3    3  502    0  0.29809637112E+02 -0.83631533954E+01  0.85771473550E+01  0.32397479165E+02  0.41800000000E+01 0. -1.
         -5    1    3    3    0  502  0.57246900538E+00  0.10156845898E+03  0.26736498217E+03  0.28603843390E+03  0.41800000000E+01 0. -1.
        -11    1    1    2    0    0  0.26726573835E+01  0.17746251312E+02  0.66592460520E+01  0.19142050337E+02  0.00000000000E+00 0. -1.
         11    1    1    2    0    0 -0.33054763501E+02 -0.11095155690E+03  0.57099854360E+02  0.12908624534E+03  0.00000000000E+00 0.  1.
</event>
<event>
 7    1  0.6506388E-006  0.1771015E+03  0.7561462E-02  0.1170638E+00
         -2   -1    0    0    0  501 -0.00000000000E+00  0.00000000000E+00  0.83033197061E+02  0.83033197061E+02  0.00000000000E+00 0. -1.
          2   -1    0    0  501    0  0.00000000000E+00 -0.00000000000E+00 -0.40444317026E+03  0.40444317026E+03  0.00000000000E+00 0.  1.
         23    2    1    2    0    0 -0.14706704863E+03 -0.13042054424E+02 -0.16415476898E+03  0.25375841979E+03  0.12509090878E+03 0.  0.
          5    1    3    3  502    0 -0.11088510931E+03 -0.62637853715E+02 -0.83633640482E+02  0.15241740847E+03  0.41800000000E+01 0.  1.
         -5    1    3    3    0  502 -0.36181939317E+02  0.49595799291E+02 -0.80521128496E+02  0.10134101131E+03  0.41800000000E+01 0.  1.
        -11    1    1    2    0    0  0.97971047143E+02 -0.27299061773E+02 -0.61675630006E+02  0.11894304599E+03  0.00000000000E+00 0. -1.
         11    1    1    2    0    0  0.49096001485E+02  0.40341116197E+02 -0.95579574211E+02  0.11477490154E+03  0.00000000000E+00 0.  1.
</event>
<event>
 7    1  0.6506388E-006  0.1066544E+03  0.7561462E-02  0.1266894E+00
         -1   -1    0    0    0  501 -0.00000000000E+00  0.00000000000E+00  0.17681241513E+03  0.17681241513E+03  0.00000000000E+00 0.  1.
          1   -1    0    0  501    0  0.00000000000E+00 -0.00000000000E+00 -0.96856595192E+02  0.96856595192E+02  0.00000000000E+00 0. -1.
         23    2    1    2    0    0 -0.37718134331E+02 -0.90046120282E+02  0.62946705732E+02  0.17071864697E+03  0.12510638363E+03 0.  0.
          5    1    3    3  502    0 -0.51174516752E+02 -0.77330359003E+02  0.95410011719E+02  0.13311408011E+03  0.41800000000E+01 0.  1.
         -5    1    3    3    0  502  0.13456382421E+02 -0.12715761279E+02 -0.32463305987E+02  0.37604566855E+02  0.41800000000E+01 0.  1.
        -11    1    1    2    0    0  0.31523776616E+02  0.39294556330E+02  0.97067994936E+01  0.51303339128E+02  0.00000000000E+00 0. -1.
         11    1    1    2    0    0  0.61943577148E+01  0.50751563952E+02  0.73023147107E+01  0.51647024224E+02  0.00000000000E+00 0.  1.
</event>
<event>
 6    1  0.6506388E-006  0.1335899E+03  0.7561462E-02  0.1222224E+00
         -2   -1    0    0    0  501 -0.00000000000E+00  0.00000000000E+00  0.70372689778E+03  0.70372689778E+03  0.00000000000E+00 0.  1.
          2   -1    0    0  501    0  0.00000000000E+00 -0.00000000000E+00 -0.30250681288E+02  0.30250681288E+02  0.00000000000E+00 0. -1.
          5    1    1    2  502    0 -0.92666895682E+02  0.62114325017E+02  0.18455193904E+03  0.21569013313E+03  0.41800000000E+01 0. -1.
         -5    1    1    2    0  502  0.29490248160E+02 -0.30852366182E+02  0.25567696045E+03  0.25924838233E+03  0.41800000000E+01 0.  1.
        -11    1    1    2    0    0 -0.15168096455E+02  0.15281877371E+02  0.42613203510E+02  0.47744026217E+02  0.00000000000E+00 0. -1.
         11    1    1    2    0    0  0.78344743976E+02 -0.46543836206E+02  0.19063411349E+03  0.21129503739E+03  0.00000000000E+00 0.  1.
</event>
<event>
 7    1  0.6506388E-006  0.1553043E+03  0.7561462E-02  0.1194102E+00
          4   -1    0    0  501    0  0.00000000000E+00  0.00000000000E+00  0.15726603887E+04  0.15726603887E+04  0.00000000000E+00 0. -1.
         -4   -1    0    0    0  501 -0.00000000000E+00 -0.00000000000E+00 -0.16189340069E+02  0.16189340069E+02  0.00000000000E+00 0.  1.
         23    2    1    2    0    0 -0.89653352050E+02  0.71292127049E+02  0.73249370475E+03  0.75187485868E+03  0.12509390353E+03 0.  0.
          5    1    3    3  502    0 -0.37407584265E+02 -0.31187979820E+02  0.13959584611E+03  0.14790703194E+03  0.41800000000E+01 0. -1.
         -5    1    3    3    0  502 -0.52245767786E+02  0.10248010687E+03  0.59289785864E+03  0.60396782674E+03  0.41800000000E+01 0. -1.
        -11    1    1    2    0    0 -0.56339475034E+01 -0.48262199142E+02  0.24811605316E+03  0.25282910645E+03  0.00000000000E+00 0.  1.
         11    1    1    2    0    0  0.95287299554E+02 -0.23029927907E+02  0.57586129076E+03  0.58414576369E+03  0.00000000000E+00 0. -1.
</event>
<event>
 7    1  0.6506388E-006  0.9942630E+02  0.7561462E-02  0.1281507E+00
          2   -1    0    0  501    0  0.00000000000E+00  0.00000000000E+00  0.12982652044E+03  0.12982652044E+03  0.00000000000E+00 0. -1.
         -2   -1    0    0    0  501 -0.00000000000E+00 -0.00000000000E+00 -0.14411960693E+03  0.14411960693E+03  0.00000000000E+00 0.  1.
         23    2    1    2    0    0  0.59240820600E+02  0.21508222301E+02 -0.54899243282E+02  0.15044935742E+03  0.12509597828E+03 0.  0.
          5    1    3    3  502    0 -0.48914983545E+00  0.37404712120E+02  0.28033388370E+02  0.46932877813E+02  0.41800000000E+01 0. -1.
         -5    1    3    3    0  502  0.59729970436E+02 -0.15896489820E+02 -0.82932631652E+02  0.10351647960E+03  0.41800000000E+01 0. -1.
        -11    1    1    2    0    0 -0.46751830601E+02  0.23660531849E+02  0.53506666691E+02  0.74890038138E+02  0.00000000000E+00 0. -1.
         11    1    1    2    0    0 -0.12488989999E+02 -0.45168754149E+02 -0.12900509897E+02  0.48606731820E+02  0.00000000000E+00 0.  1.
</event>
<event>
 7    1  0.6506388E-006  0.1000426E+03  0.7561462E-02  0.1280206E+00
          1   -1    0    0  501    0  0.00000000000E+00  0.00000000000E+00  0.10640199056E+03  0.10640199056E+03  0.00000000000E+00 0.  1.
         -1   -1    0    0    0  501 -0.00000000000E+00 -0.00000000000E+00 -0.18545185571E+03  0.18545185571E+03  0.00000000000E+00 0. -1.
         23    2    1    2    0    0 -0.44485769000E+02 -0.34122972365E+02 -0.11512253262E+03  0.17900468093E+03  0.12508444105E+03 0.  0.
          5    1    3    3  502    0  0.43894330497E+02 -0.10824592111E+02 -0.33941519652E+02  0.56686710969E+02  0.41800000000E+01 0. -1.
         -5    1    3    3    0  502 -0.88380099498E+02 -0.23298380253E+02 -0.81181012966E+02  0.12231796996E+03  0.41800000000E+01 0. -1.
        -11    1    1    2    0    0  0.61341576409E+01  0.22190829064E+02  0.61257668602E+02  0.65441292371E+02  0.00000000000E+00 0.  1.
         11    1    1    2    0    0  0.38351611359E+02  0.11932143301E+02 -0.25185001137E+02  0.47407872973E+02  0.00000000000E+00 0. -1.
</event>
<event>
 7    1  0.6506388E-006  0.1262461E+03  0.7561462E-02  0.1233135E+00
          1   -1    0    0  501    0  0.00000000000E+00  0.00000000000E+00  0.19954089273E+03  0.19954089273E+03  0.00000000000E+00 0. -1.
         -1   -1    0    0    0  501 -0.00000000000E+00 -0.00000000000E+00 -0.91777894837E+02  0.91777894837E+02  0.00000000000E+00 0.  1.
         23    2    1    2    0    0  0.67260442686E+02 -0.12983461400E+02  0.14798748495E+02  0.14338321988E+03  0.12508879792E+03 0.  0.
          5    1    3    3  502    0  0.48805686766E+02 -0.65860428600E+02 -0.86288872955E+01  0.82531940557E+02  0.41800000000E+01 0.  1.
         -5    1    3    3    0  502  0.18454755920E+02  0.52876967200E+02  0.23427635791E+02  0.60851279322E+02  0.41800000000E+01 0.  1.
        -11    1    1    2    0    0 -0.24216845038E+02  0.51233554741E+02  0.54954289198E+02  0.78938625629E+02  0.00000000000E+00 0. -1.
         11    1    1    2    0    0 -0.43043597648E+02 -0.38250093340E+02  0.38009960199E+02  0.68996942058E+02  0.00000000000E+00 0.  1.
</event>
<event>
 7    1  0.6506388E-006  0.1765988E+03  0.7561462E-02  0.1171136E+00
         -2   -1    0    0    0  501 -0.00000000000E+00  0.00000000000E+00  0.89611061107E+03  0.89611061107E+03  0.00000000000E+00 0. -1.
          2   -1    0    0  501    0  0.00000000000E+00 -0.00000000000E+00 -0.55077871169E+02  0.55077871169E+02  0.00000000000E+00 0.  1.
         23    2    1    2    0    0 -0.23108104603E+02  0.75234787327E+02  0.43032149779E+03  0.45499200663E+03  0.12508747706E+03 0.  0.
          5    1    3    3  502    0 -0.50651951255E+02 -0.13118726942E+02  0.19907527198E+03  0.20587898746E+03  0.41800000000E+01 0. -1.
         -5    1    3    3    0  502  0.27543846652E+02  0.88353514269E+02  0.23124622581E+03  0.24911301918E+03  0.41800000000E+01 0. -1.
        -11    1    1    2    0    0  0.72129908667E+02 -0.12108699831E+03  0.40500783045E+03  0.42883111782E+03  0.00000000000E+00 0. -1.
         11    1    1    2    0    0 -0.49021804063E+02  0.45852210982E+02  0.57034116653E+01  0.67365357790E+02  0.00000000000E+00 0.  1.
</event>
<event>
 7    1  0.6506388E-006  0.1486487E+03  0.7561462E-02  0.1202143E+00
          1   -1    0    0  501    0  0.00000000000E+00  0.00000000000E+00  0.69541531371E+03  0.69541531371E+03  0.00000000000E+00 0. -1.
         -1   -1    0    0    0  501 -0.00000000000E+00 -0.00000000000E+00 -0.44590896953E+02  0.44590896953E+02  0.00000000000E+00 0.  1.
         23    2    1    2    0    0 -0.90013488976E+02 -0.87164778814E+02  0.22585993973E+03  0.28698203480E+03  0.12508336844E+03 0.  0.
          5    1    3    3  502    0 -0.31398194680E+02  0.76245619539E+01 -0.26713701724E+01  0.32689282536E+02  0.41800000000E+01 0. -1.
         -5    1    3    3    0  502 -0.58615294296E+02 -0.94789340768E+02  0.22853130990E+03  0.25429275226E+03  0.41800000000E+01 0. -1.
        -11    1    1    2    0    0 -0.14070193631E+00 -0.16104722299E+02  0.84070695400E+02  0.85599437512E+02  0.00000000000E+00 0. -1.
         11    1    1    2    0    0  0.90154190912E+02  0.10326950111E+03  0.34089378162E+03  0.36742473835E+03  0.00000000000E+00 0.  1.
</event>
<event>
 7    1  0.6506388E-006  0.1176679E+03  0.7561462E-02  0.1246995E+00
          2   -1    0    0  501    0  0.00000000000E+00  0.00000000000E+00  0.47767451987E+03  0.47767451987E+03  0.00000000000E+00 0. -1.
         -2   -1    0    0    0  501 -0.00000000000E+00 -0.00000000000E+00 -0.31286114011E+02  0.31286114011E+02  0.00000000000E+00 0.  1.
         23    2    1    2    0    0 -0.45941906831E+02 -0.13507022496E+02  0.18548517850E+03  0.22879330006E+03  0.12509406161E+03 0.  0.
          5    1    3    3  502    0  0.43070357644E+02  0.13480855422E+00  0.69891513555E+02  0.82203223464E+02  0.41800000000E+01 0. -1.
         -5    1    3    3    0  502 -0.89012264475E+02 -0.13641831050E+02  0.11559366494E+03  0.14659007659E+03  0.41800000000E+01 0. -1.
        -11    1    1    2    0    0  0.45940881040E+02  0.48567810330E+02  0.17890336147E+03  0.19098641181E+03  0.00000000000E+00 0.  1.
         11    1    1    2    0    0  0.10257910839E-02 -0.35060787835E+02  0.81999865898E+02  0.89180922018E+02  0.00000000000E+00 0. -1.
</event>
<event>
 7    1  0.6540377E-006  0.1081777E+03  0.7561462E-02  0.1263982E+00
          3   -1    0    0  501    0  0.00000000000E+00  0.00000000000E+00  0.39642917424E+03  0.39642917424E+03  0.00000000000E+00 0. -1.
         -3   -1    0    0    0  501 -0.00000000000E+00 -0.00000000000E+00 -0.33601828847E+02  0.33601828847E+02  0.00000000000E+00 0.  1.
         23    2    1    2    0    0  0.28883766361E+02 -0.46796853392E+01  0.16146183858E+03  0.20633382932E+03  0.12509017703E+03 0.  0.
          5    1    3    3  502    0 -0.45793469203E+02 -0.28162503681E+01  0.29704527333E+02  0.54816096467E+02  0.41800000000E+01 0. -1.
         -5    1    3    3    0  502  0.74677235564E+02 -0.18634349711E+01  0.13175731125E+03  0.15151773285E+03  0.41800000000E+01 0. -1.
        -11    1    1    2    0    0 -0.30861768176E+02  0.45292312555E+02  0.92918460713E+02  0.10787809163E+03  0.00000000000E+00 0.  1.
         11    1    1    2    0    0  0.19780018153E+01 -0.40612627216E+02  0.10844704610E+03  0.11581908215E+03  0.00000000000E+00 0. -1.
</event>
<event>
 7    1  0.6506388E-006  0.1181116E+03  0.7561462E-02  0.1246245E+00
         -2   -1    0    0    0  501 -0.00000000000E+00  0.00000000000E+00  0.38389144260E+02  0.38389144260E+02  0.00000000000E+00 0.  1.
          2   -1    0    0  501    0  0.00000000000E+00 -0.00000000000E+00 -0.75005561342E+03  0.75005561342E+03  0.00000000000E+00 0. -1.
         23    2    1    2    0    0  0.75152414270E+02 -0.17575513424E+02 -0.13121192456E+03  0.19577976952E+03  0.12311118944E+03 0.  0.
          5    1    3    3  502    0 -0.19806135401E+02 -0.54431831825E+00  0.11636370187E+02  0.23355016444E+02  0.41800000000E+01 0. -1.
         -5    1    3    3    0  502  0.94958549671E+02 -0.17031195106E+02 -0.14284829474E+03  0.17242475308E+03  0.41800000000E+01 0.  1.
        -11    1    1    2    0    0  0.78949278422E+01  0.33870391576E+02 -0.18786749115E+03  0.19105948692E+03  0.00000000000E+00 0.  1.
         11    1    1    2    0    0 -0.83047342112E+02 -0.16294878152E+02 -0.39258705346E+03  0.40160550125E+03  0.00000000000E+00 0. -1.
</event>
<event>
 7    1  0.6506388E-006  0.8310856E+02  0.7561462E-02  0.1320454E+00
         -4   -1    0    0    0  501 -0.00000000000E+00  0.00000000000E+00  0.81003812878E+02  0.81003812878E+02  0.00000000000E+00 0.  1.
          4   -1    0    0  501    0  0.00000000000E+00 -0.00000000000E+00 -0.20138884981E+03  0.20138884981E+03  0.00000000000E+00 0. -1.
         23    2    1    2    0    0 -0.63153474054E+02  0.47178825873E+02 -0.76989154239E+02  0.16670822470E+03  0.12510035739E+03 0.  0.
          5    1    3    3  502    0 -0.59234678722E+02  0.44210908486E+02 -0.11026493209E+03  0.13281257185E+03  0.41800000000E+01 0. -1.
         -5    1    3    3    0  502 -0.39187953322E+01  0.29679173878E+01  0.33275777855E+02  0.33895652853E+02  0.41800000000E+01 0. -1.
        -11    1    1    2    0    0  0.65571441866E+02 -0.37042578140E+02 -0.45315858023E+01  0.75447344907E+02  0.00000000000E+00 0.  1.
         11    1    1    2    0    0 -0.24179678117E+01 -0.10136247733E+02 -0.38864296886E+02  0.40237093072E+02  0.00000000000E+00 0. -1.
</event>
<event>
 7    1  0.6506388E-006  0.1153310E+03  0.7561462E-02  0.1251004E+00
         -1   -1    0    0    0  501 -0.00000000000E+00  0.00000000000E+00  0.42036336825E+02  0.42036336825E+02  0.00000000000E+00 0.  1.
          1   -1    0    0  501    0  0.00000000000E+00 -0.00000000000E+00 -0.55563233420E+03  0.55563233420E+03  0.00000000000E+00 0. -1.
         23    2    1    2    0    0 -0.45966786934E+02  0.55312910569E+02 -0.12237596126E+03  0.18920117809E+03  0.12509494922E+03 0.  0.
          5    1    3    3  502    0 -0.22909308471E+02  0.81708354470E+02 -0.12782612827E+03  0.15348642635E+03  0.41800000000E+01 0.  1.
         -5    1    3    3    0  502 -0.23057478463E+02 -0.26395443902E+02  0.54501670101E+01  0.35714751746E+02  0.41800000000E+01 0.  1.
        -11    1    1    2    0    0  0.62043948883E+02 -0.10671320523E+02 -0.28892088693E+03  0.29570019881E+03  0.00000000000E+00 0. -1.
         11    1    1    2    0    0 -0.16077161949E+02 -0.44641590046E+02 -0.10229914919E+03  0.11276729412E+03  0.00000000000E+00 0.  1.
</event>
<event>
 6    1  0.6506388E-006  0.1058313E+03  0.7561462E-02  0.1268490E+00
          2   -1    0    0  501    0  0.00000000000E+00  0.00000000000E+00  0.45350252774E+03  0.45350252774E+03  0.00000000000E+00 0. -1.
         -2   -1    0    0    0  501 -0.00000000000E+00 -0.00000000000E+00 -0.12066276001E+03  0.12066276001E+03  0.00000000000E+00 0.  1.
          5    1    1    2  502    0 -0.17575548201E+01 -0.20894848896E+01  0.25182065621E+03  0.25187014559E+03  0.41800000000E+01 0. -1.
         -5    1    1    2    0  502 -0.88893988589E+02 -0.19367962664E+02 -0.81901018949E+02  0.12248472758E+03  0.41800000000E+01 0.  1.
        -11    1    1    2    0    0  0.99770611682E+02  0.90276128499E+01  0.13853328611E+03  0.17095948090E+03  0.00000000000E+00 0. -1.
         11    1    1    2    0    0 -0.91190682728E+01  0.12429834704E+02  0.24386844351E+02  0.28850933682E+02  0.00000000000E+00 0.  1.
</event>
<event>
 7    1  0.6506388E-006  0.1002540E+03  0.7561462E-02  0.1279763E+00
         -2   -1    0    0    0  501 -0.00000000000E+00  0.00000000000E+00  0.11158649934E+03  0.11158649934E+03  0.00000000000E+00 0. -1.
          2   -1    0    0  501    0  0.00000000000E+00 -0.00000000000E+00 -0.11567354001E+03  0.11567354001E+03  0.00000000000E+00 0.  1.
         23    2    1    2    0    0 -0.17336984272E+02 -0.25170794777E+02  0.19781711078E+02  0.13027937173E+03  0.12508900300E+03 0.  0.
          5    1    3    3  502    0 -0.55265666190E+02  0.14479293633E+02  0.41899629164E+02  0.70971791069E+02  0.41800000000E+01 0.  1.
         -5    1    3    3    0  502  0.37928681918E+02 -0.39650088410E+02 -0.22117918086E+02  0.59307580657E+02  0.41800000000E+01 0.  1.
        -11    1    1    2    0    0  0.26264471576E+02  0.52901764977E+02 -0.31399391839E+02  0.66890515118E+02  0.00000000000E+00 0.  1.
         11    1    1    2    0    0 -0.89274873039E+01 -0.27730970201E+02  0.75306400884E+01  0.30090152508E+02  0.00000000000E+00 0. -1.
</event>
<event>
 7    1  0.6506388E-006  0.1087604E+03  0.7561462E-02  0.1262883E+00
          1   -1    0    0  501    0  0.00000000000E+00  0.00000000000E+00  0.48433058564E+03  0.48433058564E+03  0.00000000000E+00 0. -1.
         -1   -1    0    0    0  501 -0.00000000000E+00 -0.00000000000E+00 -0.29971224913E+02  0.29971224913E+02  0.00000000000E+00 0.  1.
         23    2    1    2    0    0  0.53382485924E+01 -0.43682218740E+02  0.19837578289E+03  0.23861548486E+03  0.12509102784E+03 0.  0.
          5    1    3    3  502    0 -0.36566959073E+02  0.20712884073E+02  0.12634885731E+03  0.13322038960E+03  0.41800000000E+01 0. -1.
         -5    1    3    3    0  502  0.41905207665E+02 -0.64395102812E+02  0.72026925581E+02  0.10539509526E+03  0.41800000000E+01 0. -1.
        -11    1    1    2    0    0  0.34212329382E+02  0.47578930986E+02  0.11312665992E+03  0.12740439294E+03  0.00000000000E+00 0.  1.
         11    1    1    2    0    0 -0.39550577975E+02 -0.38967122468E+01  0.14285691792E+03  0.14828193275E+03  0.00000000000E+00 0. -1.
</event>
<event>
 7    1  0.6506388E-006  0.8210394E+02  0.7561462E-02  0.1323185E+00
          1   -1    0    0  501    0  0.00000000000E+00  0.00000000000E+00  0.13148113770E+03  0.13148113770E+03  0.00000000000E+00 0. -1.
         -1   -1    0    0    0  501 -0.00000000000E+00 -0.00000000000E+00 -0.96629026378E+02  0.96629026378E+02  0.00000000000E+00 0.  1.
         23    2    1    2    0    0 -0.76001671316E+01  0.19973915075E+02 -0.94009702327E+00  0.12690784233E+03  0.12509195354E+03 0.  0.
          5    1    3    3  502    0 -0.36536830637E+02  0.59153120648E+01 -0.53471802162E+02  0.65166225426E+02  0.41800000000E+01 0.  1.
         -5    1    3    3    0  502  0.28936663505E+02  0.14058603010E+02  0.52531705139E+02  0.61741616907E+02  0.41800000000E+01 0.  1.
        -11    1    1    2    0    0 -0.18196584203E+02  0.31820243556E+02  0.16603222019E+02  0.40240658022E+02  0.00000000000E+00 0. -1.
         11    1    1    2    0    0  0.25796751334E+02 -0.51794158631E+02  0.19188986326E+02  0.60961663723E+02  0.00000000000E+00 0.  1.
</event>
<event>
 7    1  0.6506388E-006  0.7312018E+02  0.7561462E-02  0.1349793E+00
         -2   -1    0    0    0  501 -0.00000000000E+00  0.00000000000E+00  0.60765550212E+02  0.60765550212E+02  0.00000000000E+00 0.  1.
          2   -1    0    0  501    0  0.00000000000E+00 -0.00000000000E+00 -0.21017110588E+03  0.21017110588E+03  0.00000000000E+00 0. -1.
         23    2    1    2    0    0 -0.76078013763E+01  0.29774074071E+02 -0.93781146243E+02  0.15933182312E+03  0.12508937740E+03 0.  0.
          5    1    3    3  502    0  0.85853889977E+01 -0.27358431326E+02  0.16980839040E+02  0.33585919123E+02  0.41800000000E+01 0. -1.
         -5    1    3    3    0  502 -0.16193190374E+02  0.57132505397E+02 -0.11076198528E+03  0.12574590399E+03  0.41800000000E+01 0. -1.
        -11    1    1    2    0    0  0.29608599812E+01  0.13697669759E+02 -0.65334098071E+02  0.66820185718E+02  0.00000000000E+00 0. -1.
         11    1    1    2    0    0  0.46469413950E+01 -0.43471743830E+02  0.97096886501E+01  0.44784647253E+02  0.00000000000E+00 0.  1.
</event>
<event>
 7    1  0.6506388E-006  0.1110567E+03  0.7561462E-02  0.1258625E+00
         -2   -1    0    0    0  501 -0.00000000000E+00  0.00000000000E+00  0.27310102940E+02  0.27310102940E+02  0.00000000000E+00 0.  1.
          2   -1    0    0  501    0  0.00000000000E+00 -0.00000000000E+00 -0.71110899409E+03  0.71110899409E+03  0.00000000000E+00 0. -1.
         23    2    1    2    0    0 -0.21296239811E+02  0.29994139030E+01 -0.15399529872E+03  0.19956302060E+03  0.12509324861E+03 0.  0.
          5    1    3    3  502    0 -0.15952079587E+02  0.62519710013E+02 -0.60669028121E+02  0.88664459376E+02  0.41800000000E+01 0.  1.
         -5    1    3    3    0  502 -0.53441602245E+01 -0.59520296110E+02 -0.93326270594E+02  0.11089856122E+03  0.41800000000E+01 0.  1.
        -11    1    1    2    0    0  0.59339233252E+02  0.54725156617E+00 -0.35499047274E+03  0.35991621222E+03  0.00000000000E+00 0. -1.
         11    1    1    2    0    0 -0.38042993441E+02 -0.35466654692E+01 -0.17481311970E+03  0.17893986421E+03  0.00000000000E+00 0.  1.
</event>
<event>
 7    1  0.6506388E-006  0.9871123E+02  0.7561462E-02  0.1283030E+00
          4   -1    0    0  501    0  0.00000000000E+00  0.00000000000E+00  0.34007790526E+03  0.34007790526E+03  0.00000000000E+00 0. -1.
         -4   -1    0    0    0  501 -0.00000000000E+00 -0.00000000000E+00 -0.55281495438E+02  0.55281495438E+02  0.00000000000E+00 0.  1.
         23    2    1    2    0    0  0.50233333814E+01 -0.73554240883E+02  0.16386176700E+03  0.21893638962E+03  0.12508798418E+03 0.  0.
          5    1    3    3  502    0 -0.15296568550E+02 -0.74961616662E+02  0.17800110035E+03  0.19379136489E+03  0.41800000000E+01 0.  1.
         -5    1    3    3    0  502  0.20319901931E+02  0.14073757790E+01 -0.14139333347E+02  0.25145024728E+02  0.41800000000E+01 0.  1.
        -11    1    1    2    0    0  0.25866320811E+02  0.72513328909E+01 -0.81347569755E+01  0.28068178638E+02  0.00000000000E+00 0.  1.
         11    1    1    2    0    0 -0.30889654193E+02  0.66302907992E+02  0.12906939980E+03  0.14835483244E+03  0.00000000000E+00 0. -1.
</event>
<event>
 7    1  0.6506388E-006  0.1136677E+03  0.7561462E-02  0.1253925E+00
         -2   -1    0    0    0  501 -0.00000000000E+00  0.00000000000E+00  0.14192617787E+03  0.14192617787E+03  0.00000000000E+00 0. -1.
          2   -1    0    0  501    0  0.00000000000E+00 -0.00000000000E+00 -0.12776965224E+03  0.12776965224E+03  0.00000000000E+00 0.  1.
         23    2    1    2    0    0 -0.59290650116E+02  0.59969033911E+02  0.11553897428E+02  0.15130584136E+03  0.12509316074E+03 0.  0.
          5    1    3    3  502    0 -0.62516684497E+02 -0.68226933317E+01  0.43997000081E+02  0.76864122976E+02  0.41800000000E+01 0.  1.
         -5    1    3    3    0  502  0.32260343809E+01  0.66791727242E+02 -0.32443102653E+02  0.74441718382E+02  0.41800000000E+01 0.  1.
        -11    1    1    2    0    0  0.38446475869E+02 -0.53118638640E+01 -0.32106873685E+02  0.50370613877E+02  0.00000000000E+00 0.  1.
         11    1    1    2    0    0  0.20844174247E+02 -0.54657170047E+02  0.34709501886E+02  0.68019374877E+02  0.00000000000E+00 0. -1.
</event>
<event>
 7    1  0.6506388E-006  0.1074538E+03  0.7561462E-02  0.1265359E+00
         -2   -1    0    0    0  501 -0.00000000000E+00  0.00000000000E+00  0.94773692687E+02  0.94773692687E+02  0.00000000000E+00 0.  1.
          2   -1    0    0  501    0  0.00000000000E+00 -0.00000000000E+00 -0.17900779075E+03  0.17900779075E+03  0.00000000000E+00 0. -1.
         23    2    1    2    0    0  0.34807453909E+02  0.62655852235E+02 -0.40717469875E+02  0.14980791365E+03  0.12508870441E+03 0.  0.
          5    1    3    3  502    0 -0.27620884652E+02  0.74318669119E+02 -0.13274103580E+02  0.80497528374E+02  0.41800000000E+01 0.  1.
         -5    1    3    3    0  502  0.62428338561E+02 -0.11662816883E+02 -0.27443366295E+02  0.69310385273E+02  0.41800000000E+01 0.  1.
        -11    1    1    2    0    0 -0.29258052014E+02 -0.48242426993E+02  0.19033164742E+02  0.59545165462E+02  0.00000000000E+00 0.  1.
         11    1    1    2    0    0 -0.55494018951E+01 -0.14413425242E+02 -0.62549792934E+02  0.64428404332E+02  0.00000000000E+00 0. -1.
</event>
<event>
 7    1  0.6506388E-006  0.1893699E+03  0.7561462E-02  0.1159031E+00
          1   -1    0    0  501    0  0.00000000000E+00  0.00000000000E+00  0.88474481505E+03  0.88474481505E+03  0.00000000000E+00 0. -1.
         -1   -1    0    0    0  501 -0.00000000000E+00 -0.00000000000E+00 -0.48471008997E+02  0.48471008997E+02  0.00000000000E+00 0.  1.
         23    2    1    2    0    0  0.15620740729E+03  0.39795160695E+02  0.27444100365E+03  0.34197966090E+03  0.12509122703E+03 0.  0.
          5    1    3    3  502    0 -0.14985088576E+02  0.26703993726E+02  0.28725830903E+02  0.42193624183E+02  0.41800000000E+01 0.  1.
         -5    1    3    3    0  502  0.17119249587E+03  0.13091166969E+02  0.24571517275E+03  0.29978603672E+03  0.41800000000E+01 0.  1.
        -11    1    1    2    0    0 -0.13968361149E+03 -0.75840043931E+01  0.36080270746E+03  0.38697237905E+03  0.00000000000E+00 0.  1.
         11    1    1    2    0    0 -0.16523795806E+02 -0.32211156302E+02  0.20103009494E+03  0.20426378409E+03  0.00000000000E+00 0. -1.
</event>
<event>
 6    1  0.6506388E-006  0.1231464E+03  0.7561462E-02  0.1237995E+00
          3   -1    0    0  501    0  0.00000000000E+00  0.00000000000E+00  0.78222927123E+02  0.78222927123E+02  0.00000000000E+00 0. -1.
         -3   -1    0    0    0  501 -0.00000000000E+00 -0.00000000000E+00 -0.25379239188E+03  0.25379239188E+03  0.00000000000E+00 0.  1.
          5    1    1    2  502    0  0.29415046738E+02  0.39712368175E+02 -0.71249035839E+02  0.86811374074E+02  0.41800000000E+01 0. -1.
         -5    1    1    2    0  502 -0.79888666169E+01 -0.89040173586E+02 -0.10072150645E+03  0.13473777779E+03  0.41800000000E+01 0.  1.
        -11    1    1    2    0    0 -0.57838801306E+02  0.22892787360E+02  0.10981185814E+02  0.63166392105E+02  0.00000000000E+00 0.  1.
         11    1    1    2    0    0  0.36412621185E+02  0.26435018052E+02 -0.14580108284E+02  0.47299775037E+02  0.00000000000E+00 0. -1.
</event>
<event>
 7    1  0.6506388E-006  0.1093866E+03  0.7561462E-02  0.1261710E+00
         -1   -1    0    0    0  501 -0.00000000000E+00  0.00000000000E+00  0.64212123858E+02  0.64212123858E+02  0.00000000000E+00 0.  1.
          1   -1    0    0  501    0  0.00000000000E+00 -0.00000000000E+00 -0.25326169904E+03  0.25326169904E+03  0.00000000000E+00 0. -1.
         23    2    1    2    0    0 -0.32057578806E+02  0.28637998413E+02 -0.41766046265E+02  0.13870924403E+03  0.12509207988E+03 0.  0.
          5    1    3    3  502    0  0.29601067478E+01  0.65940473231E+02  0.87171161683E+01  0.66711084208E+02  0.41800000000E+01 0. -1.
         -5    1    3    3    0  502 -0.35017685554E+02 -0.37302474818E+02 -0.50483162433E+02  0.71998159826E+02  0.41800000000E+01 0. -1.
        -11    1    1    2    0    0  0.25031710862E+02  0.31791496088E+02 -0.60243925483E+02  0.72571456716E+02  0.00000000000E+00 0.  1.
         11    1    1    2    0    0  0.70258679443E+01 -0.60429494502E+02 -0.87039603437E+02  0.10619312215E+03  0.00000000000E+00 0. -1.
</event>
<event>
 7    1  0.6506388E-006  0.8484446E+02  0.7561462E-02  0.1315840E+00
          1   -1    0    0  501    0  0.00000000000E+00  0.00000000000E+00  0.40840636046E+03  0.40840636046E+03  0.00000000000E+00 0. -1.
         -1   -1    0    0    0  501 -0.00000000000E+00 -0.00000000000E+00 -0.34549934272E+02  0.34549934272E+02  0.00000000000E+00 0.  1.
         23    2    1    2    0    0 -0.43200800812E+02  0.40702048524E+01  0.18844312528E+03  0.23030427407E+03  0.12508545651E+03 0.  0.
          5    1    3    3  502    0 -0.52913303460E+01 -0.19817904648E+02 -0.12501146102E+02  0.24382341465E+02  0.41800000000E+01 0.  1.
         -5    1    3    3    0  502 -0.37909470466E+02  0.23888109500E+02  0.20094427138E+03  0.20592193260E+03  0.41800000000E+01 0.  1.
        -11    1    1    2    0    0  0.56707138620E+02  0.32086497680E+02  0.10753530607E+03  0.12573418372E+03  0.00000000000E+00 0.  1.
         11    1    1    2    0    0 -0.13506337808E+02 -0.36156702533E+02  0.77877994849E+02  0.86917836953E+02  0.00000000000E+00 0. -1.
</event>
<event>
 7    1  0.6506388E-006  0.7824506E+02  0.7561462E-02  0.1334107E+00
          3   -1    0    0  501    0  0.00000000000E+00  0.00000000000E+00  0.11924985920E+03  0.11924985920E+03  0.00000000000E+00 0. -1.
         -3   -1    0    0    0  501 -0.00000000000E+00 -0.00000000000E+00 -0.13671098895E+03  0.13671098895E+03  0.00000000000E+00 0.  1.
         23    2    1    2    0    0 -0.37418233325E+02  0.41853646367E+02 -0.48981251714E+02  0.14559769713E+03  0.12509066508E+03 0.  0.
          5    1    3    3  502    0 -0.34710404251E+02 -0.45222811536E+01  0.34909340743E+02  0.49612474855E+02  0.41800000000E+01 0. -1.
         -5    1    3    3    0  502 -0.27078290741E+01  0.46375927521E+02 -0.83890592458E+02  0.95985222272E+02  0.41800000000E+01 0. -1.
        -11    1    1    2    0    0  0.36670225991E+02 -0.41728868609E+01 -0.23440673582E+02  0.43721660958E+02  0.00000000000E+00 0.  1.
         11    1    1    2    0    0  0.74800733455E+00 -0.37680759506E+02  0.54960795544E+02  0.66641490070E+02  0.00000000000E+00 0. -1.
</event>
<event>
 7    1  0.6506388E-006  0.1391727E+03  0.7561462E-02  0.1214447E+00
          2   -1    0    0  501    0  0.00000000000E+00  0.00000000000E+00  0.64635666977E+03  0.64635666977E+03  0.00000000000E+00 0.  1.
         -2   -1    0    0    0  501 -0.00000000000E+00 -0.00000000000E+00 -0.34724547141E+02  0.34724547141E+02  0.00000000000E+00 0. -1.
         23    2    1    2    0    0 -0.13300872300E+02  0.86859470665E+02  0.20858625981E+03  0.25860699825E+03  0.12509145020E+03 0.  0.
          5    1    3    3  502    0  0.55311181356E+02  0.34897242942E+02  0.10612737207E+03  0.12473025235E+03  0.41800000000E+01 0.  1.
         -5    1    3    3    0  502 -0.68612053656E+02  0.51962227723E+02  0.10245888774E+03  0.13387674591E+03  0.41800000000E+01 0.  1.
        -11    1    1    2    0    0  0.49360906196E+02 -0.72761684862E+02  0.28040688062E+03  0.29386864505E+03  0.00000000000E+00 0.  1.
         11    1    1    2    0    0 -0.36060033896E+02 -0.14097785803E+02  0.12263898220E+03  0.12860557361E+03  0.00000000000E+00 0. -1.
</event>
<event>
 7    1  0.6506388E-006  0.1243449E+03  0.7561462E-02  0.1236097E+00
         -1   -1    0    0    0  501 -0.00000000000E+00  0.00000000000E+00  0.90125780012E+02  0.90125780012E+02  0.00000000000E+00 0.  1.
          1   -1    0    0  501    0  0.00000000000E+00 -0.00000000000E+00 -0.24710403097E+03  0.24710403097E+03  0.00000000000E+00 0. -1.
         23    2    1    2    0    0 -0.61840378725E+02  0.34411141715E+02 -0.21218298230E+01  0.14275220176E+03  0.12395696765E+03 0.  0.
          5    1    3    3  502    0 -0.81037539575E+02  0.58687586809E+02 -0.25971109118E+02  0.10345668937E+03  0.41800000000E+01 0.  1.
         -5    1    3    3    0  502  0.19197160849E+02 -0.24276445095E+02  0.23849279295E+02  0.39295512390E+02  0.41800000000E+01 0.  1.
        -11    1    1    2    0    0  0.27812819050E+02  0.32180207581E+02 -0.63291583663E+02  0.76255775034E+02  0.00000000000E+00 0.  1.
         11    1    1    2    0    0  0.34027559675E+02 -0.66591349295E+02 -0.91564837474E+02  0.11822183419E+03  0.00000000000E+00 0. -1.
</event>
<event>
 7    1  0.6506388E-006  0.1369973E+03  0.7561462E-02  0.1217427E+00
         -2   -1    0    0    0  501 -0.00000000000E+00  0.00000000000E+00  0.14747239008E+03  0.14747239008E+03  0.00000000000E+00 0. -1.
          2   -1    0    0  501    0  0.00000000000E+00 -0.00000000000E+00 -0.16406116481E+03  0.16406116481E+03  0.00000000000E+00 0.  1.
         23    2    1    2    0    0 -0.10683393555E+03  0.16754219339E+02  0.11983011827E+02  0.16578843211E+03  0.12509203810E+03 0.  0.
          5    1    3    3  502    0  0.18708360093E+02 -0.26313529536E+02  0.30515100063E+01  0.32698450840E+02  0.41800000000E+01 0. -1.
         -5    1    3    3    0  502 -0.12554229565E+03  0.43067748875E+02  0.89315018204E+01  0.13308998127E+03  0.41800000000E+01 0. -1.
        -11    1    1    2    0    0  0.57073836650E+02 -0.14249430735E+02 -0.62218547432E+02  0.85624860588E+02  0.00000000000E+00 0.  1.
         11    1    1    2    0    0  0.49760098904E+02 -0.25047886036E+01  0.33646760871E+02  0.60120262192E+02  0.00000000000E+00 0. -1.
</event>
<event>
 7    1  0.6506388E-006  0.1297920E+03  0.7561462E-02  0.1227765E+00
         -4   -1    0    0    0  501 -0.00000000000E+00  0.00000000000E+00  0.10622542425E+04  0.10622542425E+04  0.00000000000E+00 0. -1.
          4   -1    0    0  501    0  0.00000000000E+00 -0.00000000000E+00 -0.30975420576E+02  0.30975420576E+02  0.00000000000E+00 0.  1.
         23    2    1    2    0    0  0.12760597826E+03  0.88056016282E+01  0.73622637086E+03  0.75764987313E+03  0.12507292588E+03 0.  0.
          5    1    3    3  502    0  0.57668262180E+02 -0.91384892713E+01  0.89827386576E+02  0.10721740637E+03  0.41800000000E+01 0.  1.
         -5    1    3    3    0  502  0.69937716078E+02  0.17944090899E+02  0.64639898429E+03  0.65043246676E+03  0.41800000000E+01 0.  1.
        -11    1    1    2    0    0 -0.92795571693E+02  0.82900869069E-01  0.96784635388E+02  0.13408314825E+03  0.00000000000E+00 0.  1.
         11    1    1    2    0    0 -0.34810406565E+02 -0.88885024972E+01  0.19826781563E+03  0.20149664165E+03  0.00000000000E+00 0. -1.
</event>
<event>
 7    1  0.6506388E-006  0.1192615E+03  0.7561462E-02  0.1244320E+00
          1   -1    0    0  501    0  0.00000000000E+00  0.00000000000E+00  0.92522332469E+02  0.92522332469E+02  0.00000000000E+00 0. -1.
         -1   -1    0    0    0  501 -0.00000000000E+00 -0.00000000000E+00 -0.18445332436E+03  0.18445332436E+03  0.00000000000E+00 0.  1.
         23    2    1    2    0    0  0.54397507340E+02 -0.31387428565E+02 -0.90479467007E+02  0.16666787066E+03  0.12508951068E+03 0.  0.
          5    1    3    3  502    0 -0.11878109901E+02 -0.58508406533E+02 -0.69944428605E+02  0.92054432933E+02  0.41800000000E+01 0. -1.
         -5    1    3    3    0  502  0.66275617241E+02  0.27120977969E+02 -0.20535038403E+02  0.74613437723E+02  0.41800000000E+01 0. -1.
        -11    1    1    2    0    0 -0.77183528049E+02  0.33333749330E+02 -0.12347272218E+02  0.84975825843E+02  0.00000000000E+00 0. -1.
         11    1    1    2    0    0  0.22786020709E+02 -0.19463207650E+01  0.10895747333E+02  0.25331960331E+02  0.00000000000E+00 0.  1.
</event>
<event>
 7    1  0.6506388E-006  0.1548497E+03  0.7561462E-02  0.1194637E+00
         -1   -1    0    0    0  501 -0.00000000000E+00  0.00000000000E+00  0.67598395747E+02  0.67598395747E+02  0.00000000000E+00 0.  1.
          1   -1    0    0  501    0  0.00000000000E+00 -0.00000000000E+00 -0.53649594626E+03  0.53649594626E+03  0.00000000000E+00 0. -1.
         23    2    1    2    0    0  0.84862128777E+02 -0.10164886002E+03 -0.11474719206E+03  0.21528771364E+03  0.12509120639E+03 0.  0.
          5    1    3    3  502    0 -0.12119806883E+02 -0.20260906157E+02  0.19355612788E+02  0.30814058213E+02  0.41800000000E+01 0. -1.
         -5    1    3    3    0  502  0.96981935659E+02 -0.81387953864E+02 -0.13410280485E+03  0.18447365543E+03  0.41800000000E+01 0. -1.
        -11    1    1    2    0    0 -0.66501825334E+02  0.12048713168E+02 -0.12547781715E+03  0.14252139088E+03  0.00000000000E+00 0.  1.
         11    1    1    2    0    0 -0.18360303443E+02  0.89600146853E+02 -0.22867254130E+03  0.24628523748E+03  0.00000000000E+00 0. -1.
</event>
<event>
 7    1  0.6506388E-006  0.1472899E+03  0.7561462E-02  0.1203843E+00
         -1   -1    0    0    0  501 -0.00000000000E+00  0.00000000000E+00  0.21897524362E+03  0.21897524362E+03  0.00000000000E+00 0.  1.
          1   -1    0    0  501    0  0.00000000000E+00 -0.00000000000E+00 -0.10025511965E+03  0.10025511965E+03  0.00000000000E+00 0. -1.
         23    2    1    2    0    0  0.72934136061E+02 -0.68416510446E+02  0.75531487268E+02  0.17705890696E+03  0.12507855076E+03 0.  0.
          5    1    3    3  502    0  0.46728327080E+02  0.31080024077E+02  0.35727247873E+02  0.66658931051E+02  0.41800000000E+01 0. -1.
         -5    1    3    3    0  502  0.26205808981E+02 -0.99496534523E+02  0.39804239395E+02  0.11039997591E+03  0.41800000000E+01 0. -1.
        -11    1    1    2    0    0  0.13651619930E+02  0.42962938457E+02  0.17261701909E+02  0.48271597864E+02  0.00000000000E+00 0. -1.
         11    1    1    2    0    0 -0.86585755991E+02  0.25453571990E+02  0.25926934792E+02  0.93899858442E+02  0.00000000000E+00 0.  1.
</event>
<event>
 7    1  0.6506388E-006  0.1833984E+03  0.7561462E-02  0.1164554E+00
         -1   -1    0    0    0  501 -0.00000000000E+00  0.00000000000E+00  0.96301975436E+02  0.96301975436E+02  0.00000000000E+00 0.  1.
          1   -1    0    0  501    0  0.00000000000E+00 -0.00000000000E+00 -0.45213993844E+03  0.45213993844E+03  0.00000000000E+00 0. -1.
         23    2    1    2    0    0  0.43219844883E+02  0.16279146142E+03 -0.10947938277E+03  0.23664878645E+03  0.12509155836E+03 0.  0.
          5    1    3    3  502    0  0.34462891563E+02  0.16857773777E+03 -0.12831691000E+03  0.21468313012E+03  0.41800000000E+01 0.  1.
         -5    1    3    3    0  502  0.87569533202E+01 -0.57862763534E+01  0.18837527234E+02  0.21965656325E+02  0.41800000000E+01 0.  1.
        -11    1    1    2    0    0  0.18159732208E+01 -0.12380248694E+03 -0.12159577019E+03  0.17353928909E+03  0.00000000000E+00 0.  1.
         11    1    1    2    0    0 -0.45035818103E+02 -0.38988974482E+02 -0.12476281005E+03  0.13825383834E+03  0.00000000000E+00 0. -1.
</event>
<event>
 7    1  0.6506388E-006  0.1123084E+03  0.7561462E-02  0.1256354E+00
         -1   -1    0    0    0  501 -0.00000000000E+00  0.00000000000E+00  0.24657621829E+02  0.24657621829E+02  0.00000000000E+00 0.  1.
          1   -1    0    0  501    0  0.00000000000E+00 -0.00000000000E+00 -0.56985341888E+03  0.56985341888E+03  0.00000000000E+00 0. -1.
         23    2    1    2    0    0 -0.12979772477E+02  0.39417857179E+02 -0.22224059646E+03  0.25838011276E+03  0.12508860058E+03 0.  0.
          5    1    3    3  502    0  0.20480887690E+02 -0.40122528933E+02 -0.82489411952E+02  0.94081132927E+02  0.41800000000E+01 0. -1.
         -5    1    3    3    0  502 -0.33460660167E+02  0.79540386112E+02 -0.13975118451E+03  0.16429897983E+03  0.41800000000E+01 0. -1.
        -11    1    1    2    0    0  0.18264256006E+02 -0.64661702844E+02 -0.22307884749E+03  0.23297830598E+03  0.00000000000E+00 0.  1.
         11    1    1    2    0    0 -0.52844835292E+01  0.25243845665E+02 -0.99876353105E+02  0.10315262197E+03  0.00000000000E+00 0. -1.
</event>
<event>
 7    1  0.6506388E-006  0.1097680E+03  0.7561462E-02  0.1261000E+00
          1   -1    0    0  501    0  0.00000000000E+00  0.00000000000E+00  0.25506243944E+03  0.25506243944E+03  0.00000000000E+00 0. -1.
         -1   -1    0    0    0  501 -0.00000000000E+00 -0.00000000000E+00 -0.53307343827E+02  0.53307343827E+02  0.00000000000E+00 0.  1.
         23    2    1    2    0    0 -0.25257541487E+02 -0.11314658024E+02  0.67928515939E+02  0.14501389837E+03  0.12509509404E+03 0.  0.
          5    1    3    3  502    0 -0.44151474303E+02 -0.60055747176E+02  0.30803739825E+02  0.80761304096E+02  0.41800000000E+01 0.  1.
         -5    1    3    3    0  502  0.18893932816E+02  0.48741089152E+02  0.37124776114E+02  0.64252594270E+02  0.41800000000E+01 0.  1.
        -11    1    1    2    0    0  0.35016247468E+02  0.45199369062E+02  0.69481508784E+02  0.89982223874E+02  0.00000000000E+00 0.  1.
         11    1    1    2    0    0 -0.97587059810E+01 -0.33884711038E+02  0.64345070887E+02  0.73373661024E+02  0.00000000000E+00 0. -1.
</event>
<event>
 7    1  0.6506388E-006  0.1021110E+03  0.7561462E-02  0.1275919E+00
          2   -1    0    0  501    0  0.00000000000E+00  0.00000000000E+00  0.40235810742E+02  0.40235810742E+02  0.00000000000E+00 0.  1.
         -2   -1    0    0    0  501 -0.00000000000E+00 -0.00000000000E+00 -0.32024577163E+03  0.32024577163E+03  0.00000000000E+00 0. -1.
         23    2    1    2    0    0 -0.14452006491E+02  0.20730519208E+02 -0.20070790179E+03  0.23784688925E+03  0.12509542745E+03 0.  0.
          5    1    3    3  502    0  0.75965234856E+01  0.70378020584E+02 -0.91102145303E+02  0.11544629153E+03  0.41800000000E+01 0.  1.
         -5    1    3    3    0  502 -0.22048529977E+02 -0.49647501376E+02 -0.10960575648E+03  0.12240059772E+03  0.41800000000E+01 0.  1.
        -11    1    1    2    0    0 -0.16967698836E+02 -0.38965908505E+02 -0.89138386304E+01  0.43424662906E+02  0.00000000000E+00 0.  1.
         11    1    1    2    0    0  0.31419705328E+02  0.18235389296E+02 -0.70388220475E+02  0.79210030219E+02  0.00000000000E+00 0. -1.
</event>
<event>
 7    1  0.6506388E-006  0.1023902E+03  0.7561462E-02  0.1275349E+00
         -1   -1    0    0    0  501 -0.00000000000E+00  0.00000000000E+00  0.39071801844E+02  0.39071801844E+02  0.00000000000E+00 0.  1.
          1   -1    0    0  501    0  0.00000000000E+00 -0.00000000000E+00 -0.32167793443E+03  0.32167793443E+03  0.00000000000E+00 0. -1.
         23    2    1    2    0    0 -0.78774651128E+01  0.29221662245E+02 -0.16185307048E+03  0.20678450124E+03  0.12508978186E+03 0.  0.
          5    1    3    3  502    0  0.42763249547E+02  0.40609175296E+02 -0.13673672476E+03  0.14897048341E+03  0.41800000000E+01 0.  1.
         -5    1    3    3    0  502 -0.50640714660E+02 -0.11387513051E+02 -0.25116345724E+02  0.57814017827E+02  0.41800000000E+01 0.  1.
        -11    1    1    2    0    0 -0.25996748547E+02 -0.48195678309E+02 -0.85438606619E+02  0.10148108121E+03  0.00000000000E+00 0.  1.
         11    1    1    2    0    0  0.33874213660E+02  0.18974016064E+02 -0.35314455488E+02  0.52484153828E+02  0.00000000000E+00 0. -1.
</event>
<event>
 7    1  0.6506388E-006  0.9080494E+02  0.7561462E-02  0.1300914E+00
         -2   -1    0    0    0  501 -0.00000000000E+00  0.00000000000E+00  0.46213532027E+02  0.46213532027E+02  0.00000000000E+00 0.  1.
          2   -1    0    0  501    0  0.00000000000E+00 -0.00000000000E+00 -0.29203939004E+03  0.29203939004E+03  0.00000000000E+00 0. -1.
         23    2    1    2    0    0  0.42125349283E+02 -0.50523500070E+00 -0.12278004823E+03  0.18027214899E+03  0.12509319383E+03 0.  0.
          5    1    3    3  502    0 -0.11891748910E+02  0.27837266449E+02  0.11560156523E+02  0.32671650009E+02  0.41800000000E+01 0. -1.
         -5    1    3    3    0  502  0.54017098193E+02 -0.28342501449E+02 -0.13434020476E+03  0.14760049898E+03  0.41800000000E+01 0. -1.
        -11    1    1    2    0    0 -0.48505480697E+02  0.31779600986E+02 -0.44181618862E+02  0.72902264312E+02  0.00000000000E+00 0.  1.
         11    1    1    2    0    0  0.63801314140E+01 -0.31274365985E+02 -0.78864190916E+02  0.85078508764E+02  0.00000000000E+00 0. -1.
</event>
<event>
 7    1  0.6506388E-006  0.1836273E+03  0.7561462E-02  0.1164338E+00
         -2   -1    0    0    0  501 -0.00000000000E+00  0.00000000000E+00  0.42650956277E+02  0.42650956277E+02  0.00000000000E+00 0.  1.
          2   -1    0    0  501    0  0.00000000000E+00 -0.00000000000E+00 -0.81632602864E+03  0.81632602864E+03  0.00000000000E+00 0. -1.
         23    2    1    2    0    0  0.11972215291E+03 -0.88080194763E+02 -0.36728371082E+03  0.41549408748E+03  0.12508596200E+03 0.  0.
          5    1    3    3  502    0 -0.24239055227E+02 -0.28789175488E+02 -0.59099645678E+02  0.70189664074E+02  0.41800000000E+01 0.  1.
         -5    1    3    3    0  502  0.14396120813E+03 -0.59291019275E+02 -0.30818406515E+03  0.34530442341E+03  0.41800000000E+01 0.  1.
        -11    1    1    2    0    0 -0.45898469664E+02  0.88635209212E+02 -0.18651640563E+03  0.21154488743E+03  0.00000000000E+00 0.  1.
         11    1    1    2    0    0 -0.73823683243E+02 -0.55501444888E+00 -0.21987495592E+03  0.23193801001E+03  0.00000000000E+00 0. -1.
</event>
<event>
 7    1  0.6506388E-006  0.1078806E+03  0.7561462E-02  0.1264546E+00
          1   -1    0    0  501    0  0.00000000000E+00  0.00000000000E+00  0.33337001934E+03  0.33337001934E+03  0.00000000000E+00 0. -1.
         -1   -1    0    0    0  501 -0.00000000000E+00 -0.00000000000E+00 -0.49205857147E+02  0.49205857147E+02  0.00000000000E+00 0.  1.
         23    2    1    2    0    0  0.55714421354E+02 -0.41931331679E+02  0.14501400567E+03  0.20380991662E+03  0.12508831659E+03 0.  0.
          5    1    3    3  502    0  0.45319035978E+01 -0.55991228638E+02  0.13930382712E+03  0.15026171996E+03  0.41800000000E+01 0. -1.
         -5    1    3    3    0  502  0.51182517756E+02  0.14059896959E+02  0.57101785499E+01  0.53548196659E+02  0.41800000000E+01 0. -1.
        -11    1    1    2    0    0 -0.57307682724E+02 -0.65503557449E+01  0.46132792354E+02  0.73860085229E+02  0.00000000000E+00 0.  1.
         11    1    1    2    0    0  0.15932613699E+01  0.48481687424E+02  0.93017364162E+02  0.10490587464E+03  0.00000000000E+00 0. -1.
</event>
<event>
 7    1  0.6506388E-006  0.1189317E+03  0.7561462E-02  0.1244870E+00
         -1   -1    0    0    0  501 -0.00000000000E+00  0.00000000000E+00  0.45228088188E+02  0.45228088188E+02  0.00000000000E+00 0.  1.
          1   -1    0    0  501    0  0.00000000000E+00 -0.00000000000E+00 -0.60887279949E+03  0.60887279949E+03  0.00000000000E+00 0. -1.
         23    2    1    2    0    0 -0.49618883358E+02  0.85537693019E+02 -0.12981273074E+03  0.19948366025E+03  0.11473297317E+03 0.  0.
          5    1    3    3  502    0 -0.35244625923E+02  0.80379322395E+02 -0.14999231295E+03  0.17383378691E+03  0.41800000000E+01 0. -1.
         -5    1    3    3    0  502 -0.14374257435E+02  0.51583706243E+01  0.20179582214E+02  0.25649873346E+02  0.41800000000E+01 0.  1.
        -11    1    1    2    0    0 -0.12999681342E+02 -0.67865140024E+02 -0.25939661722E+03  0.26844231032E+03  0.00000000000E+00 0. -1.
         11    1    1    2    0    0  0.62618564701E+02 -0.17672552995E+02 -0.17443536334E+03  0.18617491710E+03  0.00000000000E+00 0.  1.
</event>
<event>
 7    1  0.6506388E-006  0.1391283E+03  0.7561462E-02  0.1214507E+00
         -1   -1    0    0    0  501 -0.00000000000E+00  0.00000000000E+00  0.19861872317E+03  0.19861872317E+03  0.00000000000E+00 0.  1.
          1   -1    0    0  501    0  0.00000000000E+00 -0.00000000000E+00 -0.23063773887E+03  0.23063773887E+03  0.00000000000E+00 0. -1.
         23    2    1    2    0    0 -0.85646599808E+02 -0.47006027892E+02  0.13941923996E+03  0.21126063512E+03  0.12509366397E+03 0.  0.
          5    1    3    3  502    0 -0.63057599734E+02 -0.88439852179E+02  0.78464559895E+02  0.13405979225E+03  0.41800000000E+01 0.  1.
         -5    1    3    3    0  502 -0.22589000073E+02  0.41433824286E+02  0.60954680064E+02  0.77200842877E+02  0.41800000000E+01 0.  1.
        -11    1    1    2    0    0  0.94443921624E+02  0.23846559068E+02 -0.16624951050E+03  0.19268422990E+03  0.00000000000E+00 0. -1.
         11    1    1    2    0    0 -0.87973218163E+01  0.23159468824E+02 -0.51887451518E+01  0.25311597018E+02  0.00000000000E+00 0.  1.
</event>
<event>
 7    1  0.6506388E-006  0.3001556E+03  0.7561462E-02  0.1085163E+00
          2   -1    0    0  501    0  0.00000000000E+00  0.00000000000E+00  0.14288007168E+04  0.14288007168E+04  0.00000000000E+00 0. -1.
         -2   -1    0    0    0  501 -0.00000000000E+00 -0.00000000000E+00 -0.65891060380E+02  0.65891060380E+02  0.00000000000E+00 0.  1.
         23    2    1    2    0    0 -0.48439772893E+02 -0.27644609081E+03  0.54651259897E+03  0.62697160970E+03  0.12509406786E+03 0.  0.
          5    1    3    3  502    0  0.30548154373E+02 -0.16241127226E+02  0.51763303040E+02  0.62400928605E+02  0.41800000000E+01 0.  1.
         -5    1    3    3    0  502 -0.78987927266E+02 -0.26020496359E+03  0.49474929593E+03  0.56457068110E+03  0.41800000000E+01 0.  1.
        -11    1    1    2    0    0  0.51907869697E+02  0.70616521551E+02  0.26740393206E+03  0.28140004075E+03  0.00000000000E+00 0.  1.
         11    1    1    2    0    0 -0.34680968038E+01  0.20582956926E+03  0.54899312535E+03  0.58632012668E+03  0.00000000000E+00 0. -1.
</event>
<event>
 7    1  0.6506388E-006  0.1654129E+03  0.7561462E-02  0.1182718E+00
          1   -1    0    0  501    0  0.00000000000E+00  0.00000000000E+00  0.11269994939E+04  0.11269994939E+04  0.00000000000E+00 0. -1.
         -1   -1    0    0    0  501 -0.00000000000E+00 -0.00000000000E+00 -0.47361718523E+02  0.47361718523E+02  0.00000000000E+00 0.  1.
         23    2    1    2    0    0  0.37047939996E+02  0.14266355344E+03  0.19154199820E+03  0.26942299321E+03  0.11905869502E+03 0.  0.
          5    1    3    3  502    0  0.45927784220E+02  0.54373637922E+02  0.15998114587E+03  0.17514934570E+03  0.41800000000E+01 0. -1.
         -5    1    3    3    0  502 -0.88798442244E+01  0.88289915521E+02  0.31560852326E+02  0.94273647514E+02  0.41800000000E+01 0.  1.
        -11    1    1    2    0    0 -0.40503980607E+02 -0.15320429298E+02  0.15873104130E+03  0.16453215938E+03  0.00000000000E+00 0.  1.
         11    1    1    2    0    0  0.34560406112E+01 -0.12734312414E+03  0.72936473586E+03  0.74040605981E+03  0.00000000000E+00 0. -1.
</event>
<event>
 7    1  0.6506388E-006  0.1128557E+03  0.7561462E-02  0.1255371E+00
         -3   -1    0    0    0  501 -0.00000000000E+00  0.00000000000E+00  0.10919814967E+04  0.10919814967E+04  0.00000000000E+00 0.  1.
          3   -1    0    0  501    0  0.00000000000E+00 -0.00000000000E+00 -0.13972075404E+02  0.13972075404E+02  0.00000000000E+00 0. -1.
         23    2    1    2    0    0 -0.44637428849E+02  0.32014991178E+02  0.69113989357E+03  0.70451323033E+03  0.12508828690E+03 0.  0.
          5    1    3    3  502    0 -0.78397954381E+02  0.32708262584E+02  0.29787232913E+03  0.30977647837E+03  0.41800000000E+01 0.  1.
         -5    1    3    3    0  502  0.33760525532E+02 -0.69327140604E+00  0.39326756444E+03  0.39473675196E+03  0.41800000000E+01 0.  1.
        -11    1    1    2    0    0  0.45774629365E+02 -0.61757196716E+02  0.25997958513E+03  0.27110634947E+03  0.00000000000E+00 0.  1.
         11    1    1    2    0    0 -0.11372005166E+01  0.29742205539E+02  0.12688994257E+03  0.13033399227E+03  0.00000000000E+00 0. -1.
</event>
<event>
 7    1  0.6506388E-006  0.8800222E+02  0.7561462E-02  0.1307763E+00
          2   -1    0    0  501    0  0.00000000000E+00  0.00000000000E+00  0.24349828241E+03  0.24349828241E+03  0.00000000000E+00 0. -1.
         -2   -1    0    0    0  501 -0.00000000000E+00 -0.00000000000E+00 -0.52563957100E+02  0.52563957100E+02  0.00000000000E+00 0.  1.
         23    2    1    2    0    0 -0.20100162371E+02  0.62370210177E+00  0.82537284522E+02  0.15121330175E+03  0.12509457926E+03 0.  0.
          5    1    3    3  502    0  0.24054541238E+02  0.22499729002E+02 -0.19014027356E+02  0.38260480860E+02  0.41800000000E+01 0.  1.
         -5    1    3    3    0  502 -0.44154703609E+02 -0.21876026900E+02  0.10155131188E+03  0.11295282089E+03  0.41800000000E+01 0.  1.
        -11    1    1    2    0    0  0.84359300995E+01 -0.45862047361E+02  0.37008375845E+02  0.59532446510E+02  0.00000000000E+00 0.  1.
         11    1    1    2    0    0  0.11664232271E+02  0.45238345259E+02  0.71388664940E+02  0.85316491244E+02  0.00000000000E+00 0. -1.
</event>
<event>
 7    1  0.6506388E-006  0.6738643E+02  0.7561462E-02  0.1369213E+00
          2   -1    0    0  501    0  0.00000000000E+00  0.00000000000E+00  0.37830098413E+03  0.37830098413E+03  0.00000000000E+00 0. -1.
         -2   -1    0    0    0  501 -0.00000000000E+00 -0.00000000000E+00 -0.47261039428E+02  0.47261039428E+02  0.00000000000E+00 0.  1.
         23    2    1    2    0    0  0.49068325205E+02 -0.31261278133E+02  0.99839552522E+02  0.17029575689E+03  0.12509092900E+03 0.  0.
          5    1    3    3  502    0  0.29169956984E+02 -0.22740335871E+02 -0.24144396932E+02  0.44367032459E+02  0.41800000000E+01 0.  1.
         -5    1    3    3    0  502  0.19898368221E+02 -0.85209422618E+01  0.12398394945E+03  0.12592872443E+03  0.41800000000E+01 0.  1.
        -11    1    1    2    0    0  0.42449106905E+01  0.20731608270E+02  0.38472040172E+01  0.21508598908E+02  0.00000000000E+00 0.  1.
         11    1    1    2    0    0 -0.53313235895E+02  0.10529669863E+02  0.22735318816E+03  0.23375766776E+03  0.00000000000E+00 0. -1.
</event>
<event>
 7    1  0.6506388E-006  0.1269717E+03  0.7561462E-02  0.1232020E+00
         -1   -1    0    0    0  501 -0.00000000000E+00  0.00000000000E+00  0.42971743777E+02  0.42971743777E+02  0.00000000000E+00 0.  1.
          1   -1    0    0  501    0  0.00000000000E+00 -0.00000000000E+00 -0.45818230084E+03  0.45818230084E+03  0.00000000000E+00 0. -1.
         23    2    1    2    0    0 -0.37646234739E+02  0.65163341874E+02 -0.13407906175E+03  0.19821208805E+03  0.12508931583E+03 0.  0.
          5    1    3    3  502    0  0.44015119157E+02  0.57404916515E+01 -0.35120609035E+02  0.56755735726E+02  0.41800000000E+01 0.  1.
         -5    1    3    3    0  502 -0.81661353896E+02  0.59422850222E+02 -0.98958452715E+02  0.14145635232E+03  0.41800000000E+01 0.  1.
        -11    1    1    2    0    0  0.56429353599E+02 -0.20864743208E+02 -0.19746015123E+03  0.20642219063E+03  0.00000000000E+00 0. -1.
         11    1    1    2    0    0 -0.18783118861E+02 -0.44298598666E+02 -0.83671344076E+02  0.96519765941E+02  0.00000000000E+00 0.  1.
</event>
<event>
 7    1  0.6506388E-006  0.9956536E+02  0.7561462E-02  0.1281213E+00
          1   -1    0    0  501    0  0.00000000000E+00  0.00000000000E+00  0.72374067580E+03  0.72374067580E+03  0.00000000000E+00 0. -1.
         -1   -1    0    0    0  501 -0.00000000000E+00 -0.00000000000E+00 -0.30401278205E+02  0.30401278205E+02  0.00000000000E+00 0.  1.
         23    2    1    2    0    0 -0.50481293010E+02  0.79032295352E+02  0.34073089226E+03  0.37490259991E+03  0.12513973719E+03 0.  0.
          5    1    3    3  502    0 -0.94805445385E+01  0.39473130792E+02  0.13893746941E+02  0.43110525203E+02  0.41800000000E+01 0.  1.
         -5    1    3    3    0  502 -0.41000748472E+02  0.39559164561E+02  0.32683714532E+03  0.33179207471E+03  0.41800000000E+01 0.  1.
        -11    1    1    2    0    0 -0.16369529628E+01 -0.28675570219E+02  0.12206788355E+02  0.31208550500E+02  0.00000000000E+00 0.  1.
         11    1    1    2    0    0  0.52118245973E+02 -0.50356725133E+02  0.34040171698E+03  0.34803080360E+03  0.00000000000E+00 0. -1.
</event>
<event>
 6    1  0.6506388E-006  0.3879293E+03  0.7561462E-02  0.1048041E+00
          2   -1    0    0  501    0  0.00000000000E+00  0.00000000000E+00  0.53283467877E+03  0.53283467877E+03  0.00000000000E+00 0. -1.
         -2   -1    0    0    0  501 -0.00000000000E+00 -0.00000000000E+00 -0.51585235629E+03  0.51585235629E+03  0.00000000000E+00 0.  1.
          5    1    1    2  502    0 -0.18167860750E+03 -0.30281983112E+03  0.24927761410E+03  0.43227741999E+03  0.41800000000E+01 0. -1.
         -5    1    1    2    0  502  0.98859323709E+02  0.28254642721E+03 -0.33962593020E+03  0.45273490507E+03  0.41800000000E+01 0.  1.
        -11    1    1    2    0    0  0.79533023278E+02  0.49653713937E+02  0.85901571002E+02  0.12716160191E+03  0.00000000000E+00 0. -1.
         11    1    1    2    0    0  0.32862605086E+01 -0.29380310019E+02  0.21429067569E+02  0.36513108082E+02  0.00000000000E+00 0.  1.
</event>
<event>
 7    1  0.6506388E-006  0.1038852E+03  0.7561462E-02  0.1272332E+00
         -1   -1    0    0    0  501 -0.00000000000E+00  0.00000000000E+00  0.74638907662E+03  0.74638907662E+03  0.00000000000E+00 0.  1.
          1   -1    0    0  501    0  0.00000000000E+00 -0.00000000000E+00 -0.17935961969E+02  0.17935961969E+02  0.00000000000E+00 0. -1.
         23    2    1    2    0    0  0.76793011299E+01  0.30820260841E+02  0.53125855193E+03  0.54671025804E+03  0.12509035578E+03 0.  0.
          5    1    3    3  502    0 -0.57042018235E+02  0.41095605230E+00  0.25225768209E+03  0.25866072625E+03  0.41800000000E+01 0.  1.
         -5    1    3    3    0  502  0.64721319365E+02  0.30409304788E+02  0.27900086984E+03  0.28804953180E+03  0.41800000000E+01 0.  1.
        -11    1    1    2    0    0 -0.40050995518E+02 -0.13747267335E+02  0.48051484563E+02  0.64046973152E+02  0.00000000000E+00 0. -1.
         11    1    1    2    0    0  0.32371694388E+02 -0.17072993506E+02  0.14914307817E+03  0.15356780740E+03  0.00000000000E+00 0.  1.
</event>
<event>
 7    1  0.6506388E-006  0.8014240E+02  0.7561462E-02  0.1328648E+00
         -2   -1    0    0    0  501 -0.00000000000E+00  0.00000000000E+00  0.18455650382E+03  0.18455650382E+03  0.00000000000E+00 0.  1.
          2   -1    0    0  501    0  0.00000000000E+00 -0.00000000000E+00 -0.83937181152E+02  0.83937181152E+02  0.00000000000E+00 0. -1.
         23    2    1    2    0    0  0.43685186944E+01 -0.43150279201E+02  0.10136173452E+03  0.16674083112E+03  0.12508906023E+03 0.  0.
          5    1    3    3  502    0  0.16274415550E+02 -0.14522171682E+01  0.11867043501E+03  0.11986288033E+03  0.41800000000E+01 0.  1.
         -5    1    3    3    0  502 -0.11905896856E+02 -0.41698062033E+02 -0.17308700495E+02  0.46877950788E+02  0.41800000000E+01 0.  1.
        -11    1    1    2    0    0 -0.22084812627E+02  0.66770502369E+02 -0.94728912301E+01  0.70963191893E+02  0.00000000000E+00 0.  1.
         11    1    1    2    0    0  0.17716293932E+02 -0.23620223167E+02  0.87304793797E+01  0.30789661956E+02  0.00000000000E+00 0. -1.
</event>
<event>
 7    1  0.6506388E-006  0.9874245E+02  0.7561462E-02  0.1282963E+00
          2   -1    0    0  501    0  0.00000000000E+00  0.00000000000E+00  0.11164353007E+03  0.11164353007E+03  0.00000000000E+00 0. -1.
         -2   -1    0    0    0  501 -0.00000000000E+00 -0.00000000000E+00 -0.13912742133E+03  0.13912742133E+03  0.00000000000E+00 0.  1.
         23    2    1    2    0    0  0.44247152552E+02  0.38706701122E+02 -0.30501923743E+02  0.14153619095E+03  0.12508439861E+03 0.  0.
          5    1    3    3  502    0 -0.11443981345E+01 -0.28393760084E+02  0.29090123457E+02  0.40880593703E+02  0.41800000000E+01 0. -1.
         -5    1    3    3    0  502  0.45391550687E+02  0.67100461206E+02 -0.59592047199E+02  0.10065559725E+03  0.41800000000E+01 0. -1.
        -11    1    1    2    0    0 -0.59729648635E+02 -0.19201836983E+02  0.32487415860E+02  0.70652485156E+02  0.00000000000E+00 0. -1.
         11    1    1    2    0    0  0.15482496082E+02 -0.19504864140E+02 -0.29469383383E+02  0.38582275296E+02  0.00000000000E+00 0.  1.
</event>
<event>
 7    1  0.6506388E-006  0.8557880E+02  0.7561462E-02  0.1313926E+00
          1   -1    0    0  501    0  0.00000000000E+00  0.00000000000E+00  0.40508549864E+02  0.40508549864E+02  0.00000000000E+00 0. -1.
         -1   -1    0    0    0  501 -0.00000000000E+00 -0.00000000000E+00 -0.39469826927E+03  0.39469826927E+03  0.00000000000E+00 0.  1.
         23    2    1    2    0    0  0.95666796465E+01 -0.12503395961E+02 -0.31551778382E+03  0.33707072903E+03  0.11754721688E+03 0.  0.
          5    1    3    3  502    0  0.15865823005E+02  0.37271025784E+02 -0.40322613727E+02  0.57308282826E+02  0.41800000000E+01 0. -1.
         -5    1    3    3    0  502 -0.62991433580E+01 -0.49774421745E+02 -0.27519517009E+03  0.27976244621E+03  0.41800000000E+01 0.  1.
        -11    1    1    2    0    0 -0.14698724760E+02 -0.32040529555E+02 -0.39950386513E+02  0.53279277644E+02  0.00000000000E+00 0.  1.
         11    1    1    2    0    0  0.51320451135E+01  0.44543925515E+02  0.12784509216E+01  0.44856812461E+02  0.00000000000E+00 0. -1.
</event>
<event>
 6    1  0.6506388E-006  0.3498237E+03  0.7561462E-02  0.1062687E+00
          2   -1    0    0  501    0  0.00000000000E+00  0.00000000000E+00  0.52840296682E+03  0.52840296682E+03  0.00000000000E+00 0. -1.
         -2   -1    0    0    0  501 -0.00000000000E+00 -0.00000000000E+00 -0.28352485844E+03  0.28352485844E+03  0.00000000000E+00 0.  1.
          5    1    1    2  502    0 -0.24509652999E+03 -0.20025631019E+03  0.87363190463E+02  0.32836671304E+03  0.41800000000E+01 0. -1.
         -5    1    1    2    0  502  0.24440464024E+03  0.11044616843E+03 -0.14255057849E+02  0.26861247805E+03  0.41800000000E+01 0.  1.
        -11    1    1    2    0    0  0.30613564355E+02  0.14557336095E+02  0.12240078066E+02  0.36040614142E+02  0.00000000000E+00 0. -1.
         11    1    1    2    0    0 -0.29921674607E+02  0.75252805664E+02  0.15952989770E+03  0.17890802003E+03  0.00000000000E+00 0.  1.
</event>
<event>
 7    1  0.6506388E-006  0.1000703E+03  0.7561462E-02  0.1280148E+00
         -1   -1    0    0    0  501 -0.00000000000E+00  0.00000000000E+00  0.43907244886E+02  0.43907244886E+02  0.00000000000E+00 0.  1.
          1   -1    0    0  501    0  0.00000000000E+00 -0.00000000000E+00 -0.39953934156E+03  0.39953934156E+03  0.00000000000E+00 0. -1.
         23    2    1    2    0    0  0.45071583714E+02 -0.66968361072E+02 -0.19288042238E+03  0.23892855259E+03  0.11561914575E+03 0.  0.
          5    1    3    3  502    0  0.36219558566E+02 -0.77776247495E+02 -0.20350200190E+03  0.22088806730E+03  0.41800000000E+01 0. -1.
         -5    1    3    3    0  502  0.88520251482E+01  0.10807886423E+02  0.10621579521E+02  0.18040485295E+02  0.41800000000E+01 0.  1.
        -11    1    1    2    0    0 -0.52319944819E+02  0.26689059809E+02 -0.15087371266E+03  0.16190293299E+03  0.00000000000E+00 0.  1.
         11    1    1    2    0    0  0.72483611045E+01  0.40279301263E+02 -0.11877961636E+02  0.42615100863E+02  0.00000000000E+00 0. -1.
</event>
<event>
 7    1  0.6506388E-006  0.1027839E+03  0.7561462E-02  0.1274548E+00
          1   -1    0    0  501    0  0.00000000000E+00  0.00000000000E+00  0.24802570846E+03  0.24802570846E+03  0.00000000000E+00 0. -1.
         -1   -1    0    0    0  501 -0.00000000000E+00 -0.00000000000E+00 -0.48480187493E+02  0.48480187493E+02  0.00000000000E+00 0.  1.
         23    2    1    2    0    0 -0.63316063216E+01  0.17872580242E+02  0.93732933269E+02  0.15745949407E+03  0.12509241037E+03 0.  0.
          5    1    3    3  502    0  0.39205045437E+02 -0.37693190128E+02  0.41512006985E+02  0.68545833525E+02  0.41800000000E+01 0. -1.
         -5    1    3    3    0  502 -0.45536651759E+02  0.55565770370E+02  0.52220926284E+02  0.88913660549E+02  0.41800000000E+01 0. -1.
        -11    1    1    2    0    0  0.32665424944E+02  0.15821323673E+02  0.82976105530E+02  0.90566982717E+02  0.00000000000E+00 0. -1.
         11    1    1    2    0    0 -0.26333818622E+02 -0.33693903915E+02  0.22836482165E+02  0.48479419158E+02  0.00000000000E+00 0.  1.
</event>
<event>
 7    1  0.6506388E-006  0.1349184E+03  0.7561462E-02  0.1220335E+00
         -1   -1    0    0    0  501 -0.00000000000E+00  0.00000000000E+00  0.72555372853E+02  0.72555372853E+02  0.00000000000E+00 0.  1.
          1   -1    0    0  501    0  0.00000000000E+00 -0.00000000000E+00 -0.28660329822E+03  0.28660329822E+03  0.00000000000E+00 0. -1.
         23    2    1    2    0    0  0.74978428589E+02 -0.37319846712E+02 -0.67850751135E+02  0.16777153613E+03  0.12856526822E+03 0.  0.
          5    1    3    3  502    0  0.16457342479E+02  0.47417539937E+02 -0.23026241205E+02  0.55380027078E+02  0.41800000000E+01 0. -1.
         -5    1    3    3    0  502  0.58521086110E+02 -0.84737386649E+02 -0.44824509930E+02  0.11239150905E+03  0.41800000000E+01 0.  1.
        -11    1    1    2    0    0 -0.19861518255E+02 -0.25831021876E+02 -0.73632305913E+02  0.80519799258E+02  0.00000000000E+00 0.  1.
         11    1    1    2    0    0 -0.55116910334E+02  0.63150868588E+02 -0.72564868314E+02  0.11086733568E+03  0.00000000000E+00 0. -1.
</event>
<event>
 7    1  0.6506388E-006  0.9696174E+02  0.7561462E-02  0.1286818E+00
          1   -1    0    0  501    0  0.00000000000E+00  0.00000000000E+00  0.72987427597E+02  0.72987427597E+02  0.00000000000E+00 0. -1.
         -1   -1    0    0    0  501 -0.00000000000E+00 -0.00000000000E+00 -0.32000230880E+03  0.32000230880E+03  0.00000000000E+00 0.  1.
         23    2    1    2    0    0 -0.53703830114E+02 -0.51273341046E+02 -0.23114541792E+03  0.27310889175E+03  0.12508879110E+03 0.  0.
          5    1    3    3  502    0 -0.68347366858E+02 -0.67558085058E+02 -0.23162836916E+03  0.25080795684E+03  0.41800000000E+01 0.  1.
         -5    1    3    3    0  502  0.14643536744E+02  0.16284744013E+02  0.48295124645E+00  0.22300934909E+02  0.41800000000E+01 0.  1.
        -11    1    1    2    0    0  0.35867203131E+02  0.25159427347E+02  0.37616853483E+02  0.57744962645E+02  0.00000000000E+00 0. -1.
         11    1    1    2    0    0  0.17836626983E+02  0.26113913698E+02 -0.53486316775E+02  0.62135882008E+02  0.00000000000E+00 0.  1.
</event>
<event>
 7    1  0.8473073E-006  0.2084376E+03  0.7561462E-02  0.1142809E+00
          2   -1    0    0  501    0  0.00000000000E+00  0.00000000000E+00  0.39426014054E+03  0.39426014054E+03  0.00000000000E+00 0. -1.
         -2   -1    0    0    0  501 -0.00000000000E+00 -0.00000000000E+00 -0.12061436325E+03  0.12061436325E+03  0.00000000000E+00 0.  1.
         23    2    1    2    0    0  0.99787235879E+02 -0.15333778506E+03  0.89285834999E+02  0.23893394546E+03  0.12508997238E+03 0.  0.
          5    1    3    3  502    0  0.11162418198E+03 -0.16508741083E+03  0.65962790024E+02  0.20995802743E+03  0.41800000000E+01 0. -1.
         -5    1    3    3    0  502 -0.11836946099E+02  0.11749625768E+02  0.23323044975E+02  0.28975918027E+02  0.41800000000E+01 0. -1.
        -11    1    1    2    0    0  0.15507961922E+01  0.67584067553E+02  0.35045450777E+02  0.76145878260E+02  0.00000000000E+00 0. -1.
         11    1    1    2    0    0 -0.10133803207E+03  0.85753717504E+02  0.14931449151E+03  0.19979468007E+03  0.00000000000E+00 0.  1.
</event>
<event>
 7    1  0.6506388E-006  0.3915389E+03  0.7561462E-02  0.1046749E+00
         -1   -1    0    0    0  501 -0.00000000000E+00  0.00000000000E+00  0.96417570799E+03  0.96417570799E+03  0.00000000000E+00 0.  1.
          1   -1    0    0  501    0  0.00000000000E+00 -0.00000000000E+00 -0.16962117830E+03  0.16962117830E+03  0.00000000000E+00 0. -1.
         23    2    1    2    0    0 -0.38011125322E+03  0.66652500884E+02  0.47427713794E+03  0.62411067301E+03  0.12509279712E+03 0.  0.
          5    1    3    3  502    0 -0.35521830362E+03  0.36655597364E+02  0.46006628978E+03  0.58241062785E+03  0.41800000000E+01 0. -1.
         -5    1    3    3    0  502 -0.24892949600E+02  0.29996903520E+02  0.14210848162E+02  0.41700045157E+02  0.41800000000E+01 0. -1.
        -11    1    1    2    0    0  0.13353637213E+03 -0.11153820167E+02  0.59787814366E+02  0.14673429433E+03  0.00000000000E+00 0.  1.
         11    1    1    2    0    0  0.24657488109E+03 -0.55498680717E+02  0.26048957738E+03  0.36295191895E+03  0.00000000000E+00 0. -1.
</event>
<event>
 7    1  0.6506388E-006  0.9082947E+02  0.7561462E-02  0.1300855E+00
         -2   -1    0    0    0  501 -0.00000000000E+00  0.00000000000E+00  0.34451656495E+03  0.34451656495E+03  0.00000000000E+00 0.  1.
          2   -1    0    0  501    0  0.00000000000E+00 -0.00000000000E+00 -0.45598487462E+02  0.45598487462E+02  0.00000000000E+00 0. -1.
         23    2    1    2    0    0  0.36785756830E+02 -0.48562475140E+02  0.18695204175E+03  0.23304934902E+03  0.12509767090E+03 0.  0.
          5    1    3    3  502    0 -0.14035453518E+02 -0.49373488817E+02  0.14920353714E+02  0.53617391845E+02  0.41800000000E+01 0.  1.
         -5    1    3    3    0  502  0.50821210347E+02  0.81101367668E+00  0.17203168804E+03  0.17943195717E+03  0.41800000000E+01 0.  1.
        -11    1    1    2    0    0 -0.25209946411E+02  0.58629112683E+02  0.12272590737E+03  0.13832773617E+03  0.00000000000E+00 0.  1.
         11    1    1    2    0    0 -0.11575810419E+02 -0.10066637543E+02 -0.10759871638E+02  0.18737967231E+02  0.00000000000E+00 0. -1.
</event>
<event>
 7    1  0.6506388E-006  0.1624438E+03  0.7561462E-02  0.1185965E+00
          2   -1    0    0  501    0  0.00000000000E+00  0.00000000000E+00  0.17152554517E+04  0.17152554517E+04  0.00000000000E+00 0.  1.
         -2   -1    0    0    0  501 -0.00000000000E+00 -0.00000000000E+00 -0.18712667008E+02  0.18712667008E+02  0.00000000000E+00 0. -1.
         23    2    1    2    0    0 -0.13027509287E+03  0.51639658966E+02  0.99873510349E+03  0.10162468353E+04  0.12509024417E+03 0.  0.
          5    1    3    3  502    0  0.68995151966E+01  0.11818803000E+02  0.41602117387E+03  0.41626719414E+03  0.41800000000E+01 0. -1.
         -5    1    3    3    0  502 -0.13717460807E+03  0.39820855966E+02  0.58271392962E+03  0.59997964119E+03  0.41800000000E+01 0. -1.
        -11    1    1    2    0    0  0.62642441688E+02 -0.73526852237E+02  0.41975805865E+03  0.43072857034E+03  0.00000000000E+00 0.  1.
         11    1    1    2    0    0  0.67632651184E+02  0.21887193271E+02  0.27804962255E+03  0.28699271303E+03  0.00000000000E+00 0. -1.
</event>
<event>
 7    1  0.6506388E-006  0.2327681E+03  0.7561462E-02  0.1124706E+00
          2   -1    0    0  501    0  0.00000000000E+00  0.00000000000E+00  0.90101494651E+03  0.90101494651E+03  0.00000000000E+00 0. -1.
         -2   -1    0    0    0  501 -0.00000000000E+00 -0.00000000000E+00 -0.66446907922E+02  0.66446907922E+02  0.00000000000E+00 0.  1.
         23    2    1    2    0    0  0.20404344311E+03 -0.76796169035E+02  0.38711460755E+03  0.46155758064E+03  0.12508518142E+03 0.  0.
          5    1    3    3  502    0  0.15457154464E+03 -0.23876525980E+01  0.18915458763E+03  0.24432558957E+03  0.41800000000E+01 0.  1.
         -5    1    3    3    0  502  0.49471898467E+02 -0.74408516437E+02  0.19796001992E+03  0.21723199107E+03  0.41800000000E+01 0.  1.
        -11    1    1    2    0    0 -0.98475107492E+02  0.16451155935E+02  0.29165197441E+03  0.30826751614E+03  0.00000000000E+00 0. -1.
         11    1    1    2    0    0 -0.10556833562E+03  0.60345013100E+02  0.15580145663E+03  0.19763675766E+03  0.00000000000E+00 0.  1.
</event>
<event>
 7    1  0.6506388E-006  0.1026149E+03  0.7561462E-02  0.1274891E+00
          1   -1    0    0  501    0  0.00000000000E+00  0.00000000000E+00  0.28697361053E+03  0.28697361053E+03  0.00000000000E+00 0. -1.
         -1   -1    0    0    0  501 -0.00000000000E+00 -0.00000000000E+00 -0.81266672163E+02  0.81266672163E+02  0.00000000000E+00 0.  1.
         23    2    1    2    0    0  0.14583584865E+02  0.46292597601E+02 -0.35219031063E+01  0.13421918415E+03  0.12508677009E+03 0.  0.
          5    1    3    3  502    0 -0.92173232964E+01 -0.32936336021E+02  0.29193090189E+02  0.45160493731E+02  0.41800000000E+01 0.  1.
         -5    1    3    3    0  502  0.23800908161E+02  0.79228933622E+02 -0.32714993295E+02  0.89058690415E+02  0.41800000000E+01 0.  1.
        -11    1    1    2    0    0  0.29880472393E+02 -0.23256263113E+02  0.15764313092E+03  0.16212665768E+03  0.00000000000E+00 0. -1.
         11    1    1    2    0    0 -0.44464057258E+02 -0.23036334488E+02  0.51585710561E+02  0.71894440874E+02  0.00000000000E+00 0.  1.
</event>
<event>
 6    1  0.6506388E-006  0.1477291E+03  0.7561462E-02  0.1203292E+00
          4   -1    0    0  501    0  0.00000000000E+00  0.00000000000E+00  0.13038805097E+03  0.13038805097E+03  0.00000000000E+00 0. -1.
         -4   -1    0    0    0  501 -0.00000000000E+00 -0.00000000000E+00 -0.18002422388E+03  0.18002422388E+03  0.00000000000E+00 0.  1.
          5    1    1    2  502    0 -0.13445478230E+02  0.12813718681E+03 -0.53004339182E-01  0.12890847427E+03  0.41800000000E+01 0. -1.
         -5    1    1    2    0  502  0.47363657089E+01 -0.13540610394E+03 -0.60683899787E+02  0.14851684833E+03  0.41800000000E+01 0.  1.
        -11    1    1    2    0    0 -0.48709943029E+01  0.14721028453E+02  0.66329716052E+01  0.16865099364E+02  0.00000000000E+00 0. -1.
         11    1    1    2    0    0  0.13580106824E+02 -0.74521113317E+01  0.44677596132E+01  0.16121852890E+02  0.00000000000E+00 0.  1.
</event>
<event>
 7    1  0.6506388E-006  0.7276959E+02  0.7561462E-02  0.1350920E+00
          2   -1    0    0  501    0  0.00000000000E+00  0.00000000000E+00  0.43698523885E+03  0.43698523885E+03  0.00000000000E+00 0. -1.
         -2   -1    0    0    0  501 -0.00000000000E+00 -0.00000000000E+00 -0.22274175683E+02  0.22274175683E+02  0.00000000000E+00 0.  1.
         23    2    1    2    0    0  0.20299123228E+02 -0.56022930126E+02  0.20736233757E+03  0.24255969046E+03  0.11083970989E+03 0.  0.
          5    1    3    3  502    0 -0.13541503689E+02 -0.44431288037E+02  0.20055715578E+03  0.20590812711E+03  0.41800000000E+01 0. -1.
         -5    1    3    3    0  502  0.33840626917E+02 -0.11591642089E+02  0.68051817954E+01  0.36651563346E+02  0.41800000000E+01 0.  1.
        -11    1    1    2    0    0  0.90254745641E+00  0.26636819026E+02  0.82444573591E+02  0.86645498638E+02  0.00000000000E+00 0. -1.
         11    1    1    2    0    0 -0.21201670685E+02  0.29386111100E+02  0.12490415200E+03  0.13005422543E+03  0.00000000000E+00 0.  1.
</event>
<event>
 7    1  0.6506388E-006  0.9778158E+02  0.7561462E-02  0.1285031E+00
         -2   -1    0    0    0  501 -0.00000000000E+00  0.00000000000E+00  0.96863622282E+02  0.96863622282E+02  0.00000000000E+00 0.  1.
          2   -1    0    0  501    0  0.00000000000E+00 -0.00000000000E+00 -0.14908720808E+03  0.14908720808E+03  0.00000000000E+00 0. -1.
         23    2    1    2    0    0 -0.33281048444E+01 -0.32627567150E+02  0.92151044271E+01  0.12964067211E+03  0.12508457656E+03 0.  0.
          5    1    3    3  502    0  0.28418178934E+02  0.20142225624E+02  0.45950096522E+02  0.57811641711E+02  0.41800000000E+01 0. -1.
         -5    1    3    3    0  502 -0.31746283778E+02 -0.52769792774E+02 -0.36734992095E+02  0.71829030394E+02  0.41800000000E+01 0. -1.
        -11    1    1    2    0    0  0.40261366373E+02 -0.10860954018E+02 -0.26393935903E+02  0.49351573398E+02  0.00000000000E+00 0. -1.
         11    1    1    2    0    0 -0.36933261529E+02  0.43488521168E+02 -0.35044754320E+02  0.66958584856E+02  0.00000000000E+00 0.  1.
</event>
<event>
 7    1  0.6506388E-006  0.9099848E+02  0.7561462E-02  0.1300452E+00
          1   -1    0    0  501    0  0.00000000000E+00  0.00000000000E+00  0.23561526380E+03  0.23561526380E+03  0.00000000000E+00 0. -1.
         -1   -1    0    0    0  501 -0.00000000000E+00 -0.00000000000E+00 -0.82932270288E+02  0.82932270288E+02  0.00000000000E+00 0.  1.
         23    2    1    2    0    0 -0.13492264596E+02 -0.42719388784E+02 -0.16259239774E+02  0.12146086504E+03  0.11172014803E+03 0.  0.
          5    1    3    3  502    0 -0.37800908615E+02  0.21022501200E+02 -0.28580722411E+02  0.52011386660E+02  0.41800000000E+01 0. -1.
         -5    1    3    3    0  502  0.24308644018E+02 -0.63741889984E+02  0.12321482637E+02  0.69449478379E+02  0.41800000000E+01 0.  1.
        -11    1    1    2    0    0  0.85535395409E+01 -0.12284582263E+02 -0.40384838983E+01  0.15504301089E+02  0.00000000000E+00 0.  1.
         11    1    1    2    0    0  0.49387250555E+01  0.55003971047E+02  0.17298071719E+03  0.18158236796E+03  0.00000000000E+00 0. -1.
</event>
<event>
 7    1  0.6506388E-006  0.1302418E+03  0.7561462E-02  0.1227097E+00
         -1   -1    0    0    0  501 -0.00000000000E+00  0.00000000000E+00  0.13603174811E+04  0.13603174811E+04  0.00000000000E+00 0.  1.
          1   -1    0    0  501    0  0.00000000000E+00 -0.00000000000E+00 -0.15437826019E+02  0.15437826019E+02  0.00000000000E+00 0. -1.
         23    2    1    2    0    0  0.88132378771E+02 -0.23288470602E+02  0.87777363882E+03  0.89131649765E+03  0.12509543928E+03 0.  0.
          5    1    3    3  502    0  0.93382361653E+02 -0.49009860769E+02  0.43034019067E+03  0.44309410290E+03  0.41800000000E+01 0. -1.
         -5    1    3    3    0  502 -0.52499828815E+01  0.25721390167E+02  0.44743344815E+03  0.44822239475E+03  0.41800000000E+01 0. -1.
        -11    1    1    2    0    0 -0.10200894341E+02  0.46052103210E+02  0.16409635070E+03  0.17074093466E+03  0.00000000000E+00 0.  1.
         11    1    1    2    0    0 -0.77931484430E+02 -0.22763632608E+02  0.30300966554E+03  0.31369787478E+03  0.00000000000E+00 0. -1.
</event>
<event>
 7    1  0.6506388E-006  0.8503849E+02  0.7561462E-02  0.1315332E+00
          1   -1    0    0  501    0  0.00000000000E+00  0.00000000000E+00  0.95102993008E+02  0.95102993008E+02  0.00000000000E+00 0. -1.
         -1   -1    0    0    0  501 -0.00000000000E+00 -0.00000000000E+00 -0.13767326787E+03  0.13767326787E+03  0.00000000000E+00 0.  1.
         23    2    1    2    0    0  0.30229853870E+02  0.14433179261E+02 -0.45260820542E+02  0.13718004471E+03  0.12509061540E+03 0.  0.
          5    1    3    3  502    0  0.51543599391E+02 -0.15470437903E+02 -0.73128620218E+02  0.90891939038E+02  0.41800000000E+01 0. -1.
         -5    1    3    3    0  502 -0.21313745521E+02  0.29903617164E+02  0.27867799677E+02  0.46288105669E+02  0.41800000000E+01 0. -1.
        -11    1    1    2    0    0 -0.95171597605E+01 -0.42895976244E+02 -0.25228881820E+02  0.50666927929E+02  0.00000000000E+00 0.  1.
         11    1    1    2    0    0 -0.20712694110E+02  0.28462796983E+02  0.27919427504E+02  0.44929288237E+02  0.00000000000E+00 0. -1.
</event>
<event>
 7    1  0.6506388E-006  0.1620524E+03  0.7561462E-02  0.1186399E+00
         -1   -1    0    0    0  501 -0.00000000000E+00  0.00000000000E+00  0.13706003692E+03  0.13706003692E+03  0.00000000000E+00 0.  1.
          1   -1    0    0  501    0  0.00000000000E+00 -0.00000000000E+00 -0.22486826024E+03  0.22486826024E+03  0.00000000000E+00 0. -1.
         23    2    1    2    0    0 -0.58963414127E+02 -0.11903424532E+03 -0.72155302452E+01  0.18262845476E+03  0.12512095287E+03 0.  0.
          5    1    3    3  502    0 -0.98332397569E+02 -0.87315203643E+02 -0.15064660712E+01  0.13157867243E+03  0.41800000000E+01 0. -1.
         -5    1    3    3    0  502  0.39368983443E+02 -0.31719041678E+02 -0.57090641740E+01  0.51049782330E+02  0.41800000000E+01 0. -1.
        -11    1    1    2    0    0  0.21638364556E+02  0.55477117558E+01  0.14479225838E+02  0.26620366400E+02  0.00000000000E+00 0.  1.
         11    1    1    2    0    0  0.37325049570E+02  0.11348653356E+03 -0.95071918908E+02  0.15267947600E+03  0.00000000000E+00 0. -1.
</event>
<event>
 7    1  0.6506388E-006  0.1782759E+03  0.7561462E-02  0.1169482E+00
         -1   -1    0    0    0  501 -0.00000000000E+00  0.00000000000E+00  0.14711237727E+03  0.14711237727E+03  0.00000000000E+00 0.  1.
          1   -1    0    0  501    0  0.00000000000E+00 -0.00000000000E+00 -0.38322727264E+03  0.38322727264E+03  0.00000000000E+00 0. -1.
         23    2    1    2    0    0 -0.11467000504E+03  0.10658650619E+03  0.30049199187E+02  0.20262762744E+03  0.12508040484E+03 0.  0.
          5    1    3    3  502    0 -0.31414597155E+02 -0.27294459876E+02  0.13977934491E+02  0.44098973990E+02  0.41800000000E+01 0. -1.
         -5    1    3    3    0  502 -0.83255407888E+02  0.13388096606E+03  0.16071264697E+02  0.15852865345E+03  0.41800000000E+01 0. -1.
        -11    1    1    2    0    0  0.77201661521E+02 -0.63896287620E+02 -0.66855963806E+02  0.12046805390E+03  0.00000000000E+00 0.  1.
         11    1    1    2    0    0  0.37468343523E+02 -0.42690218567E+02 -0.19930813075E+03  0.20724396858E+03  0.00000000000E+00 0. -1.
</event>
<event>
 7    1  0.6506388E-006  0.7369075E+02  0.7561462E-02  0.1347974E+00
         -2   -1    0    0    0  501 -0.00000000000E+00  0.00000000000E+00  0.37994191545E+02  0.37994191545E+02  0.00000000000E+00 0.  1.
          2   -1    0    0  501    0  0.00000000000E+00 -0.00000000000E+00 -0.31514521257E+03  0.31514521257E+03  0.00000000000E+00 0. -1.
         23    2    1    2    0    0 -0.26861600655E+02 -0.29732111631E+02 -0.13508962060E+03  0.18841938079E+03  0.12508842238E+03 0.  0.
          5    1    3    3  502    0  0.14078694280E+02 -0.15762073262E+02 -0.14268393487E+03  0.14430117899E+03  0.41800000000E+01 0.  1.
         -5    1    3    3    0  502 -0.40940294936E+02 -0.13970038369E+02  0.75943142727E+01  0.44118201808E+02  0.41800000000E+01 0.  1.
        -11    1    1    2    0    0  0.15678782153E+02  0.53693502696E+02 -0.83986695980E+02  0.10090877833E+03  0.00000000000E+00 0.  1.
         11    1    1    2    0    0  0.11182818503E+02 -0.23961391065E+02 -0.58074704446E+02  0.63811244996E+02  0.00000000000E+00 0. -1.
</event>
<event>
 7    1  0.8928162E-006  0.1904888E+03  0.7561462E-02  0.1158021E+00
          2   -1    0    0  501    0  0.00000000000E+00  0.00000000000E+00  0.13279882037E+04  0.13279882037E+04  0.00000000000E+00 0. -1.
         -2   -1    0    0    0  501 -0.00000000000E+00 -0.00000000000E+00 -0.34081304909E+02  0.34081304909E+02  0.00000000000E+00 0.  1.
         23    2    1    2    0    0 -0.13866510210E+03  0.83716947917E+02  0.40376423233E+03  0.45266926758E+03  0.12508945834E+03 0.  0.
          5    1    3    3  502    0 -0.94125094267E+02  0.10849093115E+03  0.22699792323E+03  0.26865469484E+03  0.41800000000E+01 0.  1.
         -5    1    3    3    0  502 -0.44540007832E+02 -0.24773983231E+02  0.17676630911E+03  0.18401457273E+03  0.41800000000E+01 0.  1.
        -11    1    1    2    0    0  0.79186683189E+02  0.49933862349E+01  0.38398789694E+03  0.39209969357E+03  0.00000000000E+00 0.  1.
         11    1    1    2    0    0  0.59478418910E+02 -0.88710334152E+02  0.50615476956E+03  0.51730054750E+03  0.00000000000E+00 0. -1.
</event>
<event>
 7    1  0.6506388E-006  0.3270884E+03  0.7561462E-02  0.1072432E+00
         -1   -1    0    0    0  501 -0.00000000000E+00  0.00000000000E+00  0.35578863330E+03  0.35578863330E+03  0.00000000000E+00 0.  1.
          1   -1    0    0  501    0  0.00000000000E+00 -0.00000000000E+00 -0.38529266360E+03  0.38529266360E+03  0.00000000000E+00 0. -1.
         23    2    1    2    0    0 -0.76759728959E+02  0.30644257845E+03  0.14307175333E+03  0.36866716614E+03  0.12508734113E+03 0.  0.
          5    1    3    3  502    0  0.10262565037E+02  0.96836340354E+02  0.96079548675E+02  0.13686251908E+03  0.41800000000E+01 0. -1.
         -5    1    3    3    0  502 -0.87022293996E+02  0.20960623810E+03  0.46992204658E+02  0.23180464706E+03  0.41800000000E+01 0. -1.
        -11    1    1    2    0    0  0.11964168832E+01 -0.19539654127E+03 -0.94472013388E+02  0.21703963018E+03  0.00000000000E+00 0.  1.
         11    1    1    2    0    0  0.75563312076E+02 -0.11104603718E+03 -0.78103770245E+02  0.15537450058E+03  0.00000000000E+00 0. -1.
</event>
<event>
 7    1  0.6506388E-006  0.1047014E+03  0.7561462E-02  0.1270709E+00
         -2   -1    0    0    0  501 -0.00000000000E+00  0.00000000000E+00  0.27764985060E+02  0.27764985060E+02  0.00000000000E+00 0.  1.
          2   -1    0    0  501    0  0.00000000000E+00 -0.00000000000E+00 -0.54000492517E+03  0.54000492517E+03  0.00000000000E+00 0. -1.
         23    2    1    2    0    0 -0.38016860861E+02 -0.77763767897E+00 -0.18658392372E+03  0.22783006897E+03  0.12508834201E+03 0.  0.
          5    1    3    3  502    0 -0.30151769349E+02  0.51995860515E+02 -0.41421330903E+02  0.73115646474E+02  0.41800000000E+01 0. -1.
         -5    1    3    3    0  502 -0.78650915117E+01 -0.52773498194E+02 -0.14516259281E+03  0.15471442250E+03  0.41800000000E+01 0. -1.
        -11    1    1    2    0    0  0.24219569401E+02 -0.43208128841E+02 -0.13531772892E+03  0.14409863878E+03  0.00000000000E+00 0. -1.
         11    1    1    2    0    0  0.13797291460E+02  0.43985766520E+02 -0.19033828748E+03  0.19584120248E+03  0.00000000000E+00 0.  1.
</event>
<event>
 7    1  0.6506388E-006  0.1200497E+03  0.7561462E-02  0.1243015E+00
          1   -1    0    0  501    0  0.00000000000E+00  0.00000000000E+00  0.94544620011E+02  0.94544620011E+02  0.00000000000E+00 0. -1.
         -1   -1    0    0    0  501 -0.00000000000E+00 -0.00000000000E+00 -0.21782213234E+03  0.21782213234E+03  0.00000000000E+00 0.  1.
         23    2    1    2    0    0 -0.71279001588E+02  0.55501359035E+02 -0.88539646159E+02  0.17790151709E+03  0.12509430011E+03 0.  0.
          5    1    3    3  502    0 -0.73136882767E+02  0.16940565967E+02 -0.11022318160E+03  0.13342641627E+03  0.41800000000E+01 0. -1.
         -5    1    3    3    0  502  0.18578811788E+01  0.38560793068E+02  0.21683535440E+02  0.44475100828E+02  0.41800000000E+01 0. -1.
        -11    1    1    2    0    0  0.21627241590E+02  0.24024777685E+02 -0.23661290105E+02  0.40059757501E+02  0.00000000000E+00 0.  1.
         11    1    1    2    0    0  0.49651759999E+02 -0.79526136720E+02 -0.11076576063E+02  0.94405477754E+02  0.00000000000E+00 0. -1.
</event>
<event>
 7    1  0.6830224E-006  0.2008330E+03  0.7561462E-02  0.1149038E+00
         -2   -1    0    0    0  501 -0.00000000000E+00  0.00000000000E+00  0.16372772988E+03  0.16372772988E+03  0.00000000000E+00 0.  1.
          2   -1    0    0  501    0  0.00000000000E+00 -0.00000000000E+00 -0.32191687952E+03  0.32191687952E+03  0.00000000000E+00 0. -1.
         23    2    1    2    0    0  0.12244832656E+03 -0.14603366529E+03 -0.11276929710E+02  0.22824247531E+03  0.12509210335E+03 0.  0.
          5    1    3    3  502    0  0.68737073472E+02 -0.75771487177E+02  0.56312878384E+02  0.11685339623E+03  0.41800000000E+01 0.  1.
         -5    1    3    3    0  502  0.53711253089E+02 -0.70262178109E+02 -0.67589808094E+02  0.11138907908E+03  0.41800000000E+01 0.  1.
        -11    1    1    2    0    0 -0.54706305822E+02  0.13011890843E+03 -0.10753363583E+03  0.17744631036E+03  0.00000000000E+00 0. -1.
         11    1    1    2    0    0 -0.67742020740E+02  0.15914756859E+02 -0.39378584099E+02  0.79955823712E+02  0.00000000000E+00 0.  1.
</event>
<event>
 7    1  0.6506388E-006  0.8023914E+02  0.7561462E-02  0.1328374E+00
          2   -1    0    0  501    0  0.00000000000E+00  0.00000000000E+00  0.31949678755E+03  0.31949678755E+03  0.00000000000E+00 0. -1.
         -2   -1    0    0    0  501 -0.00000000000E+00 -0.00000000000E+00 -0.45261250934E+02  0.45261250934E+02  0.00000000000E+00 0.  1.
         23    2    1    2    0    0  0.59350138698E+01  0.43663445679E+02  0.11617592027E+03  0.17193788595E+03  0.11884473609E+03 0.  0.
          5    1    3    3  502    0 -0.58871493085E+01  0.33476673338E+02  0.13945698473E+03  0.14360038014E+03  0.41800000000E+01 0. -1.
         -5    1    3    3    0  502  0.11822163178E+02  0.10186772341E+02 -0.23281064464E+02  0.28337505810E+02  0.41800000000E+01 0.  1.
        -11    1    1    2    0    0  0.46561798856E+02 -0.97316679435E+01  0.60636985858E+02  0.77068479469E+02  0.00000000000E+00 0. -1.
         11    1    1    2    0    0 -0.52496812726E+02 -0.33931777735E+02  0.97422630491E+02  0.11575167307E+03  0.00000000000E+00 0.  1.
</event>
<event>
 7    1  0.6506388E-006  0.1677992E+03  0.7561462E-02  0.1180163E+00
         -4   -1    0    0    0  501 -0.00000000000E+00  0.00000000000E+00  0.89464470826E+02  0.89464470826E+02  0.00000000000E+00 0.  1.
          4   -1    0    0  501    0  0.00000000000E+00 -0.00000000000E+00 -0.38322498915E+03  0.38322498915E+03  0.00000000000E+00 0. -1.
         23    2    1    2    0    0  0.38806654318E+02  0.12350202055E+03 -0.67370295287E+02  0.19220421332E+03  0.12507996414E+03 0.  0.
          5    1    3    3  502    0 -0.36115806660E+02  0.66505812028E+02 -0.61822539967E+02  0.97810395010E+02  0.41800000000E+01 0. -1.
         -5    1    3    3    0  502  0.74922460978E+02  0.56996208524E+02 -0.55477553204E+01  0.94393818305E+02  0.41800000000E+01 0. -1.
        -11    1    1    2    0    0 -0.64738042220E+02 -0.35505942949E+02 -0.99066313394E+02  0.12355492926E+03  0.00000000000E+00 0.  1.
         11    1    1    2    0    0  0.25931387901E+02 -0.87996077603E+02 -0.12732390964E+03  0.15693031740E+03  0.00000000000E+00 0. -1.
</event>
<event>
 7    1  0.6506388E-006  0.9654205E+02  0.7561462E-02  0.1287740E+00
          1   -1    0    0  501    0  0.00000000000E+00  0.00000000000E+00  0.26821163855E+03  0.26821163855E+03  0.00000000000E+00 0. -1.
         -1   -1    0    0    0  501 -0.00000000000E+00 -0.00000000000E+00 -0.60847035911E+02  0.60847035911E+02  0.00000000000E+00 0.  1.
         23    2    1    2    0    0 -0.33735349612E+02 -0.50810569119E+02  0.51648073561E+02  0.13818625924E+03  0.11273034636E+03 0.  0.
          5    1    3    3  502    0 -0.28621447293E+02 -0.66078035839E+02  0.78494562585E+02  0.10660376551E+03  0.41800000000E+01 0. -1.
         -5    1    3    3    0  502 -0.51139023193E+01  0.15267466720E+02 -0.26846489025E+02  0.31582493726E+02  0.41800000000E+01 0.  1.
        -11    1    1    2    0    0  0.36144326442E+02 -0.14513320934E+02  0.29952168496E+02  0.49134318109E+02  0.00000000000E+00 0. -1.
         11    1    1    2    0    0 -0.24089768294E+01  0.65323890053E+02  0.12576436058E+03  0.14173809711E+03  0.00000000000E+00 0.  1.
</event>
<event>
 7    1  0.6506388E-006  0.1038080E+03  0.7561462E-02  0.1272486E+00
         -1   -1    0    0    0  501 -0.00000000000E+00  0.00000000000E+00  0.65776922366E+02  0.65776922366E+02  0.00000000000E+00 0.  1.
          1   -1    0    0  501    0  0.00000000000E+00 -0.00000000000E+00 -0.30375854754E+03  0.30375854754E+03  0.00000000000E+00 0. -1.
         23    2    1    2    0    0 -0.18268360642E+02 -0.34169017020E+02 -0.17252246428E+02  0.12699419162E+03  0.11970225551E+03 0.  0.
          5    1    3    3  502    0  0.40283669979E+02 -0.26810113650E+01  0.25413995336E+02  0.47888468840E+02  0.41800000000E+01 0. -1.
         -5    1    3    3    0  502 -0.58552030621E+02 -0.31488005655E+02 -0.42666241765E+02  0.79105722778E+02  0.41800000000E+01 0.  1.
        -11    1    1    2    0    0 -0.16584428784E+02 -0.26023998295E+02 -0.62730778711E+02  0.69910245051E+02  0.00000000000E+00 0. -1.
         11    1    1    2    0    0  0.34852789426E+02  0.60193015315E+02 -0.15799860003E+03  0.17263103324E+03  0.00000000000E+00 0.  1.
</event>
<event>
 7    1  0.6506388E-006  0.1047305E+03  0.7561462E-02  0.1270652E+00
         -2   -1    0    0    0  501 -0.00000000000E+00  0.00000000000E+00  0.41804606853E+02  0.41804606853E+02  0.00000000000E+00 0.  1.
          2   -1    0    0  501    0  0.00000000000E+00 -0.00000000000E+00 -0.56591281137E+03  0.56591281137E+03  0.00000000000E+00 0. -1.
         23    2    1    2    0    0  0.78350750207E+02  0.29434166545E+02 -0.14444663158E+03  0.20860295769E+03  0.12508059147E+03 0.  0.
          5    1    3    3  502    0  0.28120273173E+02 -0.56285715938E+01  0.18560764768E+02  0.34415185170E+02  0.41800000000E+01 0. -1.
         -5    1    3    3    0  502  0.50230477034E+02  0.35062738139E+02 -0.16300739635E+03  0.17418777252E+03  0.41800000000E+01 0. -1.
        -11    1    1    2    0    0 -0.78004310823E+00  0.24556841048E+02 -0.43929777863E+02  0.50333609970E+02  0.00000000000E+00 0. -1.
         11    1    1    2    0    0 -0.77570707099E+02 -0.53991007593E+02 -0.33573179507E+03  0.34878085057E+03  0.00000000000E+00 0.  1.
</event>
<event>
 7    1  0.6506388E-006  0.8111260E+02  0.7561462E-02  0.1325923E+00
          1   -1    0    0  501    0  0.00000000000E+00  0.00000000000E+00  0.52549154528E+03  0.52549154528E+03  0.00000000000E+00 0. -1.
         -1   -1    0    0    0  501 -0.00000000000E+00 -0.00000000000E+00 -0.22394940682E+02  0.22394940682E+02  0.00000000000E+00 0.  1.
         23    2    1    2    0    0 -0.32377079365E+02 -0.74590082190E+01  0.25308478089E+03  0.28426003844E+03  0.12509177057E+03 0.  0.
          5    1    3    3  502    0 -0.54521240887E+02  0.60455750414E+01  0.25203264250E+03  0.25796712963E+03  0.41800000000E+01 0. -1.
         -5    1    3    3    0  502  0.22144161522E+02 -0.13504583260E+02  0.10521383924E+01  0.26292908811E+02  0.41800000000E+01 0. -1.
        -11    1    1    2    0    0  0.44263964451E+02  0.31358703143E+02  0.13358804092E+03  0.14418193884E+03  0.00000000000E+00 0.  1.
         11    1    1    2    0    0 -0.11886885085E+02 -0.23899694924E+02  0.11642378279E+03  0.11944450868E+03  0.00000000000E+00 0. -1.
</event>
<event>
 7    1  0.6506388E-006  0.1396585E+03  0.7561462E-02  0.1213789E+00
         -2   -1    0    0    0  501 -0.00000000000E+00  0.00000000000E+00  0.88855236939E+02  0.88855236939E+02  0.00000000000E+00 0.  1.
          2   -1    0    0  501    0  0.00000000000E+00 -0.00000000000E+00 -0.25393410273E+03  0.25393410273E+03  0.00000000000E+00 0. -1.
         23    2    1    2    0    0  0.96271949069E+02 -0.20149479581E+02 -0.48890565491E+02  0.16646268240E+03  0.12508096391E+03 0.  0.
          5    1    3    3  502    0  0.11853615563E+03  0.12608774990E+02 -0.37639697143E+02  0.12507605926E+03  0.41800000000E+01 0. -1.
         -5    1    3    3    0  502 -0.22264206564E+02 -0.32758254571E+02 -0.11250868348E+02  0.41386623141E+02  0.41800000000E+01 0. -1.
        -11    1    1    2    0    0 -0.88075752059E+02 -0.10301432482E+02 -0.47160758463E+02  0.10043701883E+03  0.00000000000E+00 0.  1.
         11    1    1    2    0    0 -0.81961970104E+01  0.30450912063E+02 -0.69027541837E+02  0.75889638442E+02  0.00000000000E+00 0. -1.
</event>
<event>
 7    1  0.6506388E-006  0.1432966E+03  0.7561462E-02  0.1208961E+00
         -2   -1    0    0    0  501 -0.00000000000E+00  0.00000000000E+00  0.63220686637E+02  0.63220686637E+02  0.00000000000E+00 0.  1.
          2   -1    0    0  501    0  0.00000000000E+00 -0.00000000000E+00 -0.41893195809E+03  0.41893195809E+03  0.00000000000E+00 0. -1.
         23    2    1    2    0    0 -0.79597526101E+02 -0.85785411107E+02 -0.14742614429E+03  0.22600102745E+03  0.12508834266E+03 0.  0.
          5    1    3    3  502    0 -0.90440011977E+02 -0.31168824081E+02 -0.37742228953E+02  0.10292152159E+03  0.41800000000E+01 0.  1.
         -5    1    3    3    0  502  0.10842485875E+02 -0.54616587026E+02 -0.10968391534E+03  0.12307950586E+03  0.41800000000E+01 0.  1.
        -11    1    1    2    0    0  0.13738943393E+02 -0.11230190375E+02 -0.72450751449E+00  0.17759522869E+02  0.00000000000E+00 0.  1.
         11    1    1    2    0    0  0.65858582709E+02  0.97015601481E+02 -0.20756061965E+03  0.23839209441E+03  0.00000000000E+00 0. -1.
</event>
<event>
 7    1  0.6506388E-006  0.9164398E+02  0.7561462E-02  0.1298919E+00
         -2   -1    0    0    0  501 -0.00000000000E+00  0.00000000000E+00  0.31538690543E+02  0.31538690543E+02  0.00000000000E+00 0.  1.
          2   -1    0    0  501    0  0.00000000000E+00 -0.00000000000E+00 -0.69348771495E+03  0.69348771495E+03  0.00000000000E+00 0. -1.
         23    2    1    2    0    0  0.25963720789E+02 -0.46600723582E+02 -0.15062517098E+03  0.20293272785E+03  0.12509199681E+03 0.  0.
          5    1    3    3  502    0  0.91640062956E+01  0.16092032811E+02 -0.13462165347E+03  0.13595364840E+03  0.41800000000E+01 0. -1.
         -5    1    3    3    0  502  0.16799714493E+02 -0.62692756393E+02 -0.16003517510E+02  0.66979079449E+02  0.41800000000E+01 0. -1.
        -11    1    1    2    0    0 -0.43654989371E+02  0.61988299916E+02 -0.45181640529E+03  0.45813357388E+03  0.00000000000E+00 0. -1.
         11    1    1    2    0    0  0.17691268582E+02 -0.15387576334E+02 -0.59507448137E+02  0.63960103762E+02  0.00000000000E+00 0.  1.
</event>
<event>
 7    1  0.6506388E-006  0.9267359E+02  0.7561462E-02  0.1296503E+00
          2   -1    0    0  501    0  0.00000000000E+00  0.00000000000E+00  0.21743255282E+03  0.21743255282E+03  0.00000000000E+00 0. -1.
         -2   -1    0    0    0  501 -0.00000000000E+00 -0.00000000000E+00 -0.95269861855E+02  0.95269861855E+02  0.00000000000E+00 0.  1.
         23    2    1    2    0    0 -0.18181190606E+02  0.12896653304E+02 -0.33273860728E+02  0.13134472579E+03  0.12508959920E+03 0.  0.
          5    1    3    3  502    0  0.16709028148E+02  0.46973486455E+02  0.24428597731E+02  0.55677004575E+02  0.41800000000E+01 0.  1.
         -5    1    3    3    0  502 -0.34890218754E+02 -0.34076833150E+02 -0.57702458459E+02  0.75667721219E+02  0.41800000000E+01 0.  1.
        -11    1    1    2    0    0  0.50952941279E+02 -0.16105552250E+02  0.12724227695E+03  0.13800792760E+03  0.00000000000E+00 0. -1.
         11    1    1    2    0    0 -0.32771750673E+02  0.32088989454E+01  0.28194274748E+02  0.43349761282E+02  0.00000000000E+00 0.  1.
</event>
<event>
 7    1  0.6506388E-006  0.8205980E+02  0.7561462E-02  0.1323306E+00
         -1   -1    0    0    0  501 -0.00000000000E+00  0.00000000000E+00  0.70341400411E+02  0.70341400411E+02  0.00000000000E+00 0.  1.
          1   -1    0    0  501    0  0.00000000000E+00 -0.00000000000E+00 -0.20839251645E+03  0.20839251645E+03  0.00000000000E+00 0. -1.
         23    2    1    2    0    0  0.28076174090E+02  0.45100873848E+02 -0.64373487510E+02  0.15037791510E+03  0.12508881277E+03 0.  0.
          5    1    3    3  502    0 -0.53851347704E-01  0.28089129440E+02  0.35320085951E+02  0.45320888829E+02  0.41800000000E+01 0. -1.
         -5    1    3    3    0  502  0.28130025437E+02  0.17011744408E+02 -0.99693573461E+02  0.10505702627E+03  0.41800000000E+01 0. -1.
        -11    1    1    2    0    0  0.31626846487E+01 -0.65303566377E+02 -0.59940291857E+02  0.88698348032E+02  0.00000000000E+00 0. -1.
         11    1    1    2    0    0 -0.31238858738E+02  0.20202692529E+02 -0.13737336675E+02  0.39657653733E+02  0.00000000000E+00 0.  1.
</event>
<event>
 7    1  0.6506388E-006  0.9925343E+02  0.7561462E-02  0.1281874E+00
         -1   -1    0    0    0  501 -0.00000000000E+00  0.00000000000E+00  0.30708774980E+03  0.30708774980E+03  0.00000000000E+00 0.  1.
          1   -1    0    0  501    0  0.00000000000E+00 -0.00000000000E+00 -0.69300183463E+02  0.69300183463E+02  0.00000000000E+00 0. -1.
         23    2    1    2    0    0 -0.34673317701E+02  0.56532135968E+02  0.21946183366E+03  0.26116709315E+03  0.12508650110E+03 0.  0.
          5    1    3    3  502    0  0.58121943397E+00 -0.31938281370E+02  0.11640882409E+03  0.12078442929E+03  0.41800000000E+01 0.  1.
         -5    1    3    3    0  502 -0.35254537135E+02  0.88470417339E+02  0.10305300957E+03  0.14038266387E+03  0.41800000000E+01 0.  1.
        -11    1    1    2    0    0  0.13559156668E+02 -0.36799686816E+01 -0.34698137030E+02  0.37434657904E+02  0.00000000000E+00 0. -1.
         11    1    1    2    0    0  0.21114161033E+02 -0.52852167287E+02  0.53023869708E+02  0.77786182204E+02  0.00000000000E+00 0.  1.
</event>
<event>
 7    1  0.6506388E-006  0.1561355E+03  0.7561462E-02  0.1193130E+00
         -3   -1    0    0    0  501 -0.00000000000E+00  0.00000000000E+00  0.34964164279E+03  0.34964164279E+03  0.00000000000E+00 0.  1.
          3   -1    0    0  501    0  0.00000000000E+00 -0.00000000000E+00 -0.10940128515E+03  0.10940128515E+03  0.00000000000E+00 0. -1.
         23    2    1    2    0    0 -0.54243237050E+02  0.12786201331E+03  0.22527070151E+03  0.29272028813E+03  0.12508898797E+03 0.  0.
          5    1    3    3  502    0 -0.71109406738E+01  0.12397340426E+03  0.10243613163E+03  0.16102982302E+03  0.41800000000E+01 0. -1.
         -5    1    3    3    0  502 -0.47132296377E+02  0.38886090488E+01  0.12283456988E+03  0.13169046510E+03  0.41800000000E+01 0. -1.
        -11    1    1    2    0    0  0.91452935596E+01 -0.47707971339E+02 -0.36654645815E+02  0.60854334138E+02  0.00000000000E+00 0.  1.
         11    1    1    2    0    0  0.45097943491E+02 -0.80154041966E+02  0.51624301942E+02  0.10546830567E+03  0.00000000000E+00 0. -1.
</event>
<event>
 7    1  0.6506388E-006  0.8015417E+02  0.7561462E-02  0.1328614E+00
          1   -1    0    0  501    0  0.00000000000E+00  0.00000000000E+00  0.17000912858E+03  0.17000912858E+03  0.00000000000E+00 0. -1.
         -1   -1    0    0    0  501 -0.00000000000E+00 -0.00000000000E+00 -0.86168651987E+02  0.86168651987E+02  0.00000000000E+00 0.  1.
         23    2    1    2    0    0 -0.44268330571E+02 -0.24889142889E+01  0.24840559173E+02  0.13502743080E+03  0.12509785731E+03 0.  0.
          5    1    3    3  502    0 -0.45756888911E+02  0.25202928347E+02  0.66586638414E+02  0.84735667197E+02  0.41800000000E+01 0.  1.
         -5    1    3    3    0  502  0.14885583402E+01 -0.27691842636E+02 -0.41746079240E+02  0.50291763605E+02  0.41800000000E+01 0.  1.
        -11    1    1    2    0    0  0.12110813295E+02  0.33231333425E+02  0.67174711796E+02  0.75917292001E+02  0.00000000000E+00 0.  1.
         11    1    1    2    0    0  0.32157517276E+02 -0.30742419136E+02 -0.81747943758E+01  0.45233057765E+02  0.00000000000E+00 0. -1.
</event>
<event>
 7    1  0.6506388E-006  0.1250208E+03  0.7561462E-02  0.1235037E+00
          1   -1    0    0  501    0  0.00000000000E+00  0.00000000000E+00  0.32915986839E+03  0.32915986839E+03  0.00000000000E+00 0. -1.
         -1   -1    0    0    0  501 -0.00000000000E+00 -0.00000000000E+00 -0.70683061693E+02  0.70683061693E+02  0.00000000000E+00 0.  1.
         23    2    1    2    0    0 -0.43223434557E+02 -0.54908934330E+02  0.33143528830E+02  0.14708292828E+03  0.12510650632E+03 0.  0.
          5    1    3    3  502    0 -0.12346825758E+02  0.37713576669E+02  0.28897912480E+02  0.49267836538E+02  0.41800000000E+01 0.  1.
         -5    1    3    3    0  502 -0.30876608799E+02 -0.92622510999E+02  0.42456163501E+01  0.97815091744E+02  0.41800000000E+01 0.  1.
        -11    1    1    2    0    0  0.74680910702E+01  0.72279610519E+02  0.12141417871E+03  0.14149741084E+03  0.00000000000E+00 0.  1.
         11    1    1    2    0    0  0.35755343487E+02 -0.17370676189E+02  0.10391909916E+03  0.11126259097E+03  0.00000000000E+00 0. -1.
</event>
<event>
 7    1  0.6506388E-006  0.1335545E+03  0.7561462E-02  0.1222275E+00
         -2   -1    0    0    0  501 -0.00000000000E+00  0.00000000000E+00  0.21236666096E+03  0.21236666096E+03  0.00000000000E+00 0. -1.
          2   -1    0    0  501    0  0.00000000000E+00 -0.00000000000E+00 -0.11213238450E+03  0.11213238450E+03  0.00000000000E+00 0.  1.
         23    2    1    2    0    0 -0.10136531145E+03  0.17255483466E+02  0.12476434268E+03  0.20441487616E+03  0.12508645936E+03 0.  0.
          5    1    3    3  502    0  0.17700589491E+02 -0.28555359631E+02  0.32377713716E+02  0.46845577993E+02  0.41800000000E+01 0.  1.
         -5    1    3    3    0  502 -0.11906590094E+03  0.45810843097E+02  0.92386628968E+02  0.15756929816E+03  0.41800000000E+01 0.  1.
        -11    1    1    2    0    0  0.39829865227E+02  0.50675361556E+01  0.15856530041E+02  0.43168595432E+02  0.00000000000E+00 0. -1.
         11    1    1    2    0    0  0.61535446222E+02 -0.22323019622E+02 -0.40386596260E+02  0.76915573874E+02  0.00000000000E+00 0.  1.
</event>
<event>
 7    1  0.6506388E-006  0.1469776E+03  0.7561462E-02  0.1204237E+00
         -2   -1    0    0    0  501 -0.00000000000E+00  0.00000000000E+00  0.17493099222E+03  0.17493099222E+03  0.00000000000E+00 0.  1.
          2   -1    0    0  501    0  0.00000000000E+00 -0.00000000000E+00 -0.15628507501E+03  0.15628507501E+03  0.00000000000E+00 0. -1.
         23    2    1    2    0    0 -0.10445385490E+03 -0.53343054381E+02  0.55067343389E+02  0.18009896351E+03  0.12508850904E+03 0.  0.
          5    1    3    3  502    0 -0.29494352408E+02 -0.71052351178E+02  0.66929562851E+02  0.10205582891E+03  0.41800000000E+01 0.  1.
         -5    1    3    3    0  502 -0.74959502489E+02  0.17709296797E+02 -0.11862219462E+02  0.78043134593E+02  0.41800000000E+01 0.  1.
        -11    1    1    2    0    0  0.10529006312E+03  0.20929489194E+02 -0.74050769419E+01  0.10760518609E+03  0.00000000000E+00 0.  1.
         11    1    1    2    0    0 -0.83620822329E+00  0.32413565187E+02 -0.29016349243E+02  0.43511917628E+02  0.00000000000E+00 0. -1.
</event>
<event>
 7    1  0.6506388E-006  0.2253388E+03  0.7561462E-02  0.1129964E+00
          4   -1    0    0  501    0  0.00000000000E+00  0.00000000000E+00  0.68575402264E+02  0.68575402264E+02  0.00000000000E+00 0. -1.
         -4   -1    0    0    0  501 -0.00000000000E+00 -0.00000000000E+00 -0.87339136559E+03  0.87339136559E+03  0.00000000000E+00 0.  1.
         23    2    1    2    0    0 -0.43367572826E+02  0.19292091865E+03 -0.59734212713E+03  0.64153298136E+03  0.12509085539E+03 0.  0.
          5    1    3    3  502    0  0.30421265980E+02  0.43538286194E+01 -0.66869165765E+02  0.73711376175E+02  0.41800000000E+01 0.  1.
         -5    1    3    3    0  502 -0.73788838806E+02  0.18856709003E+03 -0.53047296137E+03  0.56782160519E+03  0.41800000000E+01 0.  1.
        -11    1    1    2    0    0  0.62582206570E+02 -0.18673685394E+03 -0.18470531745E+03  0.27000599899E+03  0.00000000000E+00 0.  1.
         11    1    1    2    0    0 -0.19214633744E+02 -0.61840647098E+01 -0.22768518749E+02  0.30427787502E+02  0.00000000000E+00 0. -1.
</event>
<event>
 7    1  0.6506388E-006  0.9899197E+02  0.7561462E-02  0.1282430E+00
          2   -1    0    0  501    0  0.00000000000E+00  0.00000000000E+00  0.28869129806E+02  0.28869129806E+02  0.00000000000E+00 0.  1.
         -2   -1    0    0    0  501 -0.00000000000E+00 -0.00000000000E+00 -0.51769935658E+03  0.51769935658E+03  0.00000000000E+00 0. -1.
         23    2    1    2    0    0  0.29239117196E+02  0.45182989503E+02 -0.30148457766E+03  0.33081721392E+03  0.12510255771E+03 0.  0.
          5    1    3    3  502    0  0.21980219532E+02 -0.29506130844E+02 -0.25953136577E+02  0.45219238231E+02  0.41800000000E+01 0. -1.
         -5    1    3    3    0  502  0.72588976639E+01  0.74689120347E+02 -0.27553144108E+03  0.28559797569E+03  0.41800000000E+01 0. -1.
        -11    1    1    2    0    0 -0.40528214480E+02 -0.13686373614E+01 -0.15478242200E+03  0.16000627331E+03  0.00000000000E+00 0. -1.
         11    1    1    2    0    0  0.11289097284E+02 -0.43814352142E+02 -0.32563227117E+02  0.55744999160E+02  0.00000000000E+00 0.  1.
</event>
<event>
 7    1  0.6506388E-006  0.2901130E+03  0.7561462E-02  0.1090290E+00
         -2   -1    0    0    0  501 -0.00000000000E+00  0.00000000000E+00  0.16884513323E+03  0.16884513323E+03  0.00000000000E+00 0.  1.
          2   -1    0    0  501    0  0.00000000000E+00 -0.00000000000E+00 -0.65648950249E+03  0.65648950249E+03  0.00000000000E+00 0. -1.
         23    2    1    2    0    0  0.17225447905E+03 -0.22320171680E+03 -0.75300123787E+02  0.31750446241E+03  0.12509341739E+03 0.  0.
          5    1    3    3  502    0  0.10942493755E+03 -0.71597830053E+02 -0.79858285892E+02  0.15328041118E+03  0.41800000000E+01 0. -1.
         -5    1    3    3    0  502  0.62829541498E+02 -0.15160388674E+03  0.45581621058E+01  0.16422405123E+03  0.41800000000E+01 0. -1.
        -11    1    1    2    0    0 -0.53344768230E+02  0.10387696838E+03 -0.23962089443E+03  0.26656005309E+03  0.00000000000E+00 0.  1.
         11    1    1    2    0    0 -0.11890971082E+03  0.11932474842E+03 -0.17272335105E+03  0.24127012022E+03  0.00000000000E+00 0. -1.
</event>
<event>
 7    1  0.6506388E-006  0.1088179E+03  0.7561462E-02  0.1262775E+00
          2   -1    0    0  501    0  0.00000000000E+00  0.00000000000E+00  0.74677229540E+03  0.74677229540E+03  0.00000000000E+00 0. -1.
         -2   -1    0    0    0  501 -0.00000000000E+00 -0.00000000000E+00 -0.17165664591E+02  0.17165664591E+02  0.00000000000E+00 0.  1.
         23    2    1    2    0    0  0.10189113639E+02  0.31588964548E+02  0.39794056088E+03  0.41847293721E+03  0.12514482995E+03 0.  0.
          5    1    3    3  502    0  0.13281357332E+02 -0.44440746086E+02  0.22042245470E+03  0.22528849350E+03  0.41800000000E+01 0.  1.
         -5    1    3    3    0  502 -0.30922436931E+01  0.76029710634E+02  0.17751810618E+03  0.19318444371E+03  0.41800000000E+01 0.  1.
        -11    1    1    2    0    0 -0.36699741749E+02  0.16271637625E+02  0.10846160043E+03  0.11565273885E+03  0.00000000000E+00 0. -1.
         11    1    1    2    0    0  0.26510628110E+02 -0.47860602173E+02  0.22320446950E+03  0.22981228393E+03  0.00000000000E+00 0.  1.
</event>
<event>
 7    1  0.6506388E-006  0.1134295E+03  0.7561462E-02  0.1254348E+00
          2   -1    0    0  501    0  0.00000000000E+00  0.00000000000E+00  0.19555096990E+03  0.19555096990E+03  0.00000000000E+00 0. -1.
         -2   -1    0    0    0  501 -0.00000000000E+00 -0.00000000000E+00 -0.11259533346E+03  0.11259533346E+03  0.00000000000E+00 0.  1.
         23    2    1    2    0    0  0.46660337782E+02  0.19500865619E+02 -0.46822445713E+02  0.14281656310E+03  0.12508700328E+03 0.  0.
          5    1    3    3  502    0  0.32359845082E+02 -0.49603294859E+02 -0.40440638991E+02  0.71837066453E+02  0.41800000000E+01 0.  1.
         -5    1    3    3    0  502  0.14300492701E+02  0.69104160478E+02 -0.63818067220E+01  0.70979496644E+02  0.41800000000E+01 0.  1.
        -11    1    1    2    0    0 -0.67860390291E+02  0.18951597380E+00  0.11320292816E+03  0.13198473939E+03  0.00000000000E+00 0.  1.
         11    1    1    2    0    0  0.21200052508E+02 -0.19690381592E+02  0.16575153992E+02  0.33345000877E+02  0.00000000000E+00 0. -1.
</event>
<event>
 7    1  0.6506388E-006  0.5458580E+02  0.7561462E-02  0.1422068E+00
         -2   -1    0    0    0  501 -0.00000000000E+00  0.00000000000E+00  0.69004564512E+02  0.69004564512E+02  0.00000000000E+00 0.  1.
          2   -1    0    0  501    0  0.00000000000E+00 -0.00000000000E+00 -0.19422128880E+03  0.19422128880E+03  0.00000000000E+00 0. -1.
         23    2    1    2    0    0 -0.66100386695E+01 -0.38844564504E+02 -0.64848854835E+02  0.14631378105E+03  0.12509898381E+03 0.  0.
          5    1    3    3  502    0  0.18213325389E+02 -0.13250975312E+02  0.34085220706E+02  0.41068092712E+02  0.41800000000E+01 0. -1.
         -5    1    3    3    0  502 -0.24823364058E+02 -0.25593589191E+02 -0.98934075541E+02  0.10524568834E+03  0.41800000000E+01 0. -1.
        -11    1    1    2    0    0 -0.12656327237E+02  0.13172228362E+02  0.21950515703E+02  0.28557229536E+02  0.00000000000E+00 0.  1.
         11    1    1    2    0    0  0.19266365906E+02  0.25672336142E+02 -0.82318385154E+02  0.88354842723E+02  0.00000000000E+00 0. -1.
</event>
<event>
 7    1  0.6506388E-006  0.1079284E+03  0.7561462E-02  0.1264455E+00
         -2   -1    0    0    0  501 -0.00000000000E+00  0.00000000000E+00  0.18860965324E+02  0.18860965324E+02  0.00000000000E+00 0.  1.
          2   -1    0    0  501    0  0.00000000000E+00 -0.00000000000E+00 -0.74083131089E+03  0.74083131089E+03  0.00000000000E+00 0. -1.
         23    2    1    2    0    0  0.24241043152E+02 -0.22814078836E+02 -0.40560048666E+03  0.42575536526E+03  0.12509103047E+03 0.  0.
          5    1    3    3  502    0  0.42850904926E+02  0.34195111854E+02 -0.29298413735E+03  0.29809844492E+03  0.41800000000E+01 0. -1.
         -5    1    3    3    0  502 -0.18609861774E+02 -0.57009190689E+02 -0.11261634931E+03  0.12765692034E+03  0.41800000000E+01 0. -1.
        -11    1    1    2    0    0  0.14766790906E+02 -0.30975309827E+02 -0.60232209081E+02  0.69321331084E+02  0.00000000000E+00 0. -1.
         11    1    1    2    0    0 -0.39007834058E+02  0.53789388663E+02 -0.25613764983E+03  0.26461557987E+03  0.00000000000E+00 0.  1.
</event>
<event>
 7    1  0.6506388E-006  0.1033570E+03  0.7561462E-02  0.1273391E+00
         -2   -1    0    0    0  501 -0.00000000000E+00  0.00000000000E+00  0.43750812638E+02  0.43750812638E+02  0.00000000000E+00 0. -1.
          2   -1    0    0  501    0  0.00000000000E+00 -0.00000000000E+00 -0.38454272973E+03  0.38454272973E+03  0.00000000000E+00 0.  1.
         23    2    1    2    0    0 -0.51980740771E+02  0.43457880539E+02 -0.13648599989E+03  0.19715026462E+03  0.12509681804E+03 0.  0.
          5    1    3    3  502    0 -0.54609757988E+02  0.80414703393E+02 -0.12445424603E+03  0.15797177578E+03  0.41800000000E+01 0. -1.
         -5    1    3    3    0  502  0.26290172175E+01 -0.36956822854E+02 -0.12031753863E+02  0.39178488843E+02  0.41800000000E+01 0. -1.
        -11    1    1    2    0    0  0.47925919578E+01 -0.17774813529E+02  0.14714052291E+01  0.18468296267E+02  0.00000000000E+00 0. -1.
         11    1    1    2    0    0  0.47188148813E+02 -0.25683067010E+02 -0.20577732243E+03  0.21267498147E+03  0.00000000000E+00 0.  1.
</event>
<event>
 7    1  0.6506388E-006  0.8293523E+02  0.7561462E-02  0.1320922E+00
          3   -1    0    0  501    0  0.00000000000E+00  0.00000000000E+00  0.15611477846E+02  0.15611477846E+02  0.00000000000E+00 0. -1.
         -3   -1    0    0    0  501 -0.00000000000E+00 -0.00000000000E+00 -0.89979538625E+03  0.89979538625E+03  0.00000000000E+00 0.  1.
         23    2    1    2    0    0 -0.37882244026E+02 -0.45349097822E+01 -0.61156503537E+03  0.62539204872E+03  0.12509113594E+03 0.  0.
          5    1    3    3  502    0 -0.53414273106E+02 -0.21344755219E+02 -0.59253457121E+03  0.59533467363E+03  0.41800000000E+01 0. -1.
         -5    1    3    3    0  502  0.15532029080E+02  0.16809845436E+02 -0.19030464159E+02  0.30057375086E+02  0.41800000000E+01 0. -1.
        -11    1    1    2    0    0  0.26222332665E+02 -0.34988726800E+02 -0.21362666954E+03  0.21805544174E+03  0.00000000000E+00 0.  1.
         11    1    1    2    0    0  0.11659911360E+02  0.39523636583E+02 -0.58992203495E+02  0.71959373641E+02  0.00000000000E+00 0. -1.
</event>
<event>
 7    1  0.6506388E-006  0.1698678E+03  0.7561462E-02  0.1177986E+00
          2   -1    0    0  501    0  0.00000000000E+00  0.00000000000E+00  0.26912621466E+03  0.26912621466E+03  0.00000000000E+00 0.  1.
         -2   -1    0    0    0  501 -0.00000000000E+00 -0.00000000000E+00 -0.19981254160E+03  0.19981254160E+03  0.00000000000E+00 0. -1.
         23    2    1    2    0    0 -0.29288856877E+02 -0.15696571375E+03 -0.89646303119E+02  0.22176052159E+03  0.12508076128E+03 0.  0.
          5    1    3    3  502    0 -0.69926388059E+01 -0.14872710060E+03 -0.22792535615E+02  0.15068383965E+03  0.41800000000E+01 0. -1.
         -5    1    3    3    0  502 -0.22296218071E+02 -0.82386131494E+01 -0.66853767504E+02  0.71076681946E+02  0.41800000000E+01 0. -1.
        -11    1    1    2    0    0  0.10658882297E+02  0.14292682456E+03  0.78517736718E+02  0.16342191998E+03  0.00000000000E+00 0. -1.
         11    1    1    2    0    0  0.18629974580E+02  0.14038889193E+02  0.80442239461E+02  0.83756314700E+02  0.00000000000E+00 0.  1.
</event>
<event>
 7    1  0.6506388E-006  0.2518664E+03  0.7561462E-02  0.1112131E+00
          1   -1    0    0  501    0  0.00000000000E+00  0.00000000000E+00  0.53763258936E+02  0.53763258936E+02  0.00000000000E+00 0. -1.
         -1   -1    0    0    0  501 -0.00000000000E+00 -0.00000000000E+00 -0.13515753882E+04  0.13515753882E+04  0.00000000000E+00 0.  1.
         23    2    1    2    0    0 -0.23558685776E+03 -0.40560779754E+02 -0.52490783040E+03  0.59019013573E+03  0.12509924656E+03 0.  0.
          5    1    3    3  502    0  0.10235377117E+00  0.19753749434E+02 -0.14839814055E+02  0.25058203730E+02  0.41800000000E+01 0. -1.
         -5    1    3    3    0  502 -0.23568921153E+03 -0.60314529188E+02 -0.51006801635E+03  0.56513193200E+03  0.41800000000E+01 0. -1.
        -11    1    1    2    0    0  0.79688075069E+02  0.25149508365E+02 -0.43150764019E+03  0.43952420936E+03  0.00000000000E+00 0.  1.
         11    1    1    2    0    0  0.15589878269E+03  0.15411271389E+02 -0.34139665870E+03  0.37562430206E+03  0.00000000000E+00 0. -1.
</event>
<event>
 7    1  0.6506388E-006  0.1613850E+03  0.7561462E-02  0.1187142E+00
         -2   -1    0    0    0  501 -0.00000000000E+00  0.00000000000E+00  0.67926987241E+02  0.67926987241E+02  0.00000000000E+00 0.  1.
          2   -1    0    0  501    0  0.00000000000E+00 -0.00000000000E+00 -0.45960166468E+03  0.45960166468E+03  0.00000000000E+00 0. -1.
         23    2    1    2    0    0  0.73597792213E+02  0.11828848264E+03 -0.21934344230E+03  0.28839739695E+03  0.12511080188E+03 0.  0.
          5    1    3    3  502    0  0.31761445422E+02  0.12402983691E+03 -0.10241698369E+03  0.16400884369E+03  0.41800000000E+01 0. -1.
         -5    1    3    3    0  502  0.41836346792E+02 -0.57413542708E+01 -0.11692645860E+03  0.12438855326E+03  0.41800000000E+01 0. -1.
        -11    1    1    2    0    0  0.10800086421E+02 -0.19608287954E+02 -0.70933675718E+02  0.74382210064E+02  0.00000000000E+00 0. -1.
         11    1    1    2    0    0 -0.84397878635E+02 -0.98680194683E+02 -0.10139755943E+03  0.16474904491E+03  0.00000000000E+00 0.  1.
</event>
<event>
 7    1  0.6506388E-006  0.9765040E+02  0.7561462E-02  0.1285316E+00
          2   -1    0    0  501    0  0.00000000000E+00  0.00000000000E+00  0.17955141510E+02  0.17955141510E+02  0.00000000000E+00 0. -1.
         -2   -1    0    0    0  501 -0.00000000000E+00 -0.00000000000E+00 -0.90776375678E+03  0.90776375678E+03  0.00000000000E+00 0.  1.
         23    2    1    2    0    0 -0.25500584203E+02  0.51980126287E+02 -0.60265374083E+03  0.61821571222E+03  0.12508765800E+03 0.  0.
          5    1    3    3  502    0 -0.42921434749E+02  0.13886786784E+02 -0.66819607996E+02  0.80730569309E+02  0.41800000000E+01 0. -1.
         -5    1    3    3    0  502  0.17420850546E+02  0.38093339502E+02 -0.53583413283E+03  0.53748514292E+03  0.41800000000E+01 0. -1.
        -11    1    1    2    0    0 -0.33560479807E+02 -0.86751607229E+01 -0.12220463378E+03  0.12702573258E+03  0.00000000000E+00 0.  1.
         11    1    1    2    0    0  0.59061064010E+02 -0.43304965564E+02 -0.16495024066E+03  0.18047745349E+03  0.00000000000E+00 0. -1.
</event>
<event>
 6    1  0.6506388E-006  0.8951190E+02  0.7561462E-02  0.1304038E+00
          1   -1    0    0  501    0  0.00000000000E+00  0.00000000000E+00  0.81579382602E+02  0.81579382602E+02  0.00000000000E+00 0. -1.
         -1   -1    0    0    0  501 -0.00000000000E+00 -0.00000000000E+00 -0.31298448390E+03  0.31298448390E+03  0.00000000000E+00 0.  1.
          5    1    1    2  502    0  0.33878859732E+02 -0.15510204305E+02 -0.13647243164E+02  0.39900666915E+02  0.41800000000E+01 0. -1.
         -5    1    1    2    0  502 -0.73331239207E+02  0.31129180517E+02 -0.23819805798E+03  0.25120167943E+03  0.41800000000E+01 0.  1.
        -11    1    1    2    0    0  0.66661926018E+00  0.13336456724E+02  0.46577123701E+02  0.48453420018E+02  0.00000000000E+00 0.  1.
         11    1    1    2    0    0  0.38785760215E+02 -0.28955432936E+02 -0.26136923850E+02  0.55008100134E+02  0.00000000000E+00 0. -1.
</event>
<event>
 7    1  0.6506388E-006  0.3949217E+03  0.7561462E-02  0.1045552E+00
         -2   -1    0    0    0  501 -0.00000000000E+00  0.00000000000E+00  0.36132365914E+03  0.36132365914E+03  0.00000000000E+00 0.  1.
          2   -1    0    0  501    0  0.00000000000E+00 -0.00000000000E+00 -0.45697364768E+03  0.45697364768E+03  0.00000000000E+00 0. -1.
         23    2    1    2    0    0 -0.14928224406E+03  0.36031587418E+03 -0.78769421582E+02  0.41709362495E+03  0.12509897130E+03 0.  0.
          5    1    3    3  502    0  0.10536837761E+01  0.60894552790E+02  0.25524391150E+02  0.66168147568E+02  0.41800000000E+01 0.  1.
         -5    1    3    3    0  502 -0.15033592783E+03  0.29942132139E+03 -0.10429381273E+03  0.35092547738E+03  0.41800000000E+01 0.  1.
        -11    1    1    2    0    0  0.40123282375E+02 -0.16668981449E+03  0.29951774248E+02  0.17404735224E+03  0.00000000000E+00 0.  1.
         11    1    1    2    0    0  0.10915896168E+03 -0.19362605969E+03 -0.46832341212E+02  0.22715632963E+03  0.00000000000E+00 0. -1.
</event>
<event>
 7    1  0.6506388E-006  0.1033217E+03  0.7561462E-02  0.1273462E+00
         -2   -1    0    0    0  501 -0.00000000000E+00  0.00000000000E+00  0.10459135354E+03  0.10459135354E+03  0.00000000000E+00 0.  1.
          2   -1    0    0  501    0  0.00000000000E+00 -0.00000000000E+00 -0.13849546191E+03  0.13849546191E+03  0.00000000000E+00 0. -1.
         23    2    1    2    0    0 -0.39058176316E+02  0.39688328122E+01  0.15673462993E+02  0.13204091966E+03  0.12509138360E+03 0.  0.
          5    1    3    3  502    0 -0.72345080899E+02 -0.14190575121E+02  0.42691119648E+02  0.85294708214E+02  0.41800000000E+01 0. -1.
         -5    1    3    3    0  502  0.33286904582E+02  0.18159407933E+02 -0.27017656656E+02  0.46746211443E+02  0.41800000000E+01 0. -1.
        -11    1    1    2    0    0 -0.14765912446E+02 -0.31063509468E+02 -0.23313299003E+01  0.34473306919E+02  0.00000000000E+00 0.  1.
         11    1    1    2    0    0  0.53824088763E+02  0.27094676656E+02 -0.47246241465E+02  0.76572588873E+02  0.00000000000E+00 0. -1.
</event>
<event>
 7    1  0.6506388E-006  0.1366567E+03  0.7561462E-02  0.1217900E+00
          1   -1    0    0  501    0  0.00000000000E+00  0.00000000000E+00  0.43298978313E+03  0.43298978313E+03  0.00000000000E+00 0. -1.
         -1   -1    0    0    0  501 -0.00000000000E+00 -0.00000000000E+00 -0.47213795404E+02  0.47213795404E+02  0.00000000000E+00 0.  1.
         23    2    1    2    0    0  0.76628856664E+02 -0.49052792928E+02  0.17394272463E+03  0.23276151840E+03  0.12507475695E+03 0.  0.
          5    1    3    3  502    0 -0.30024682254E+02 -0.93267474778E+01  0.10219153011E+02  0.33322263597E+02  0.41800000000E+01 0. -1.
         -5    1    3    3    0  502  0.10665353892E+03 -0.39726045450E+02  0.16372357162E+03  0.19943925480E+03  0.41800000000E+01 0. -1.
        -11    1    1    2    0    0 -0.68962260683E+02  0.74270839929E+02  0.17318958422E+03  0.20066535113E+03  0.00000000000E+00 0. -1.
         11    1    1    2    0    0 -0.76665959816E+01 -0.25218047001E+02  0.38643678877E+02  0.46776709009E+02  0.00000000000E+00 0.  1.
</event>
<event>
 7    1  0.6506388E-006  0.1189737E+03  0.7561462E-02  0.1244800E+00
          4   -1    0    0  501    0  0.00000000000E+00  0.00000000000E+00  0.27679833500E+03  0.27679833500E+03  0.00000000000E+00 0.  1.
         -4   -1    0    0    0  501 -0.00000000000E+00 -0.00000000000E+00 -0.60229023129E+02  0.60229023129E+02  0.00000000000E+00 0. -1.
         23    2    1    2    0    0 -0.35454254795E+02  0.56854483778E+02  0.86734400489E+02  0.16630999408E+03  0.12508685540E+03 0.  0.
          5    1    3    3  502    0 -0.68737725052E+02  0.73758369868E+02  0.78518898099E+02  0.12785875695E+03  0.41800000000E+01 0.  1.
         -5    1    3    3    0  502  0.33283470257E+02 -0.16903886089E+02  0.82155023908E+01  0.38451237130E+02  0.41800000000E+01 0.  1.
        -11    1    1    2    0    0 -0.20774170787E+02 -0.31643624878E+02  0.15640068799E+02  0.40957257224E+02  0.00000000000E+00 0. -1.
         11    1    1    2    0    0  0.56228425582E+02 -0.25210858901E+02  0.11419484258E+03  0.12976010682E+03  0.00000000000E+00 0.  1.
</event>
<event>
 7    1  0.6506388E-006  0.1112677E+03  0.7561462E-02  0.1258240E+00
          3   -1    0    0  501    0  0.00000000000E+00  0.00000000000E+00  0.88768067365E+02  0.88768067365E+02  0.00000000000E+00 0. -1.
         -3   -1    0    0    0  501 -0.00000000000E+00 -0.00000000000E+00 -0.32994338195E+03  0.32994338195E+03  0.00000000000E+00 0.  1.
         23    2    1    2    0    0 -0.25747206475E+01  0.97834901922E+02 -0.23892047392E+03  0.28689516663E+03  0.12509015371E+03 0.  0.
          5    1    3    3  502    0 -0.26810095989E+02  0.94964556174E+02 -0.24253411705E+03  0.26187271432E+03  0.41800000000E+01 0. -1.
         -5    1    3    3    0  502  0.24235375342E+02  0.28703457481E+01  0.36136431229E+01  0.25022452303E+02  0.41800000000E+01 0. -1.
        -11    1    1    2    0    0  0.88212793350E+01 -0.50455174496E+02  0.42337624945E+02  0.66453096907E+02  0.00000000000E+00 0. -1.
         11    1    1    2    0    0 -0.62465586875E+01 -0.47379727426E+02 -0.44592465608E+02  0.65363185781E+02  0.00000000000E+00 0.  1.
</event>
<event>
 7    1  0.6506388E-006  0.1132289E+03  0.7561462E-02  0.1254705E+00
          1   -1    0    0  501    0  0.00000000000E+00  0.00000000000E+00  0.18030568998E+02  0.18030568998E+02  0.00000000000E+00 0. -1.
         -1   -1    0    0    0  501 -0.00000000000E+00 -0.00000000000E+00 -0.10205883655E+04  0.10205883655E+04  0.00000000000E+00 0.  1.
         23    2    1    2    0    0  0.69802125624E+01  0.81366703414E+02 -0.54083926342E+03  0.56109268763E+03  0.12509449014E+03 0.  0.
          5    1    3    3  502    0 -0.35273491446E+02  0.44264113998E+02 -0.87721408552E+02  0.10447989713E+03  0.41800000000E+01 0. -1.
         -5    1    3    3    0  502  0.42253704008E+02  0.37102589417E+02 -0.45311785487E+03  0.45661279050E+03  0.41800000000E+01 0. -1.
        -11    1    1    2    0    0  0.56149878791E+01 -0.94763406229E+02 -0.43401717839E+03  0.44427755107E+03  0.00000000000E+00 0.  1.
         11    1    1    2    0    0 -0.12595200441E+02  0.13396702814E+02 -0.27701354693E+02  0.33248695798E+02  0.00000000000E+00 0. -1.
</event>
<event>
 7    1  0.6506388E-006  0.1304576E+03  0.7561462E-02  0.1226778E+00
          2   -1    0    0  501    0  0.00000000000E+00  0.00000000000E+00  0.18288208552E+02  0.18288208552E+02  0.00000000000E+00 0.  1.
         -2   -1    0    0    0  501 -0.00000000000E+00 -0.00000000000E+00 -0.97478405535E+03  0.97478405535E+03  0.00000000000E+00 0. -1.
         23    2    1    2    0    0  0.15926824983E+02 -0.74999381583E+02 -0.55554671087E+03  0.57459345109E+03  0.12508762964E+03 0.  0.
          5    1    3    3  502    0 -0.27693483193E+02  0.22912933693E+02 -0.93500211134E+02  0.10025813395E+03  0.41800000000E+01 0. -1.
         -5    1    3    3    0  502  0.43620308177E+02 -0.97912315276E+02 -0.46204649973E+03  0.47433531714E+03  0.41800000000E+01 0. -1.
        -11    1    1    2    0    0  0.32806724368E+02  0.65838661668E+01 -0.15534889732E+03  0.15891163695E+03  0.00000000000E+00 0. -1.
         11    1    1    2    0    0 -0.48733549352E+02  0.68415515416E+02 -0.24560023861E+03  0.25956717587E+03  0.00000000000E+00 0.  1.
</event>
<event>
 7    1  0.6506388E-006  0.1155974E+03  0.7561462E-02  0.1250542E+00
          1   -1    0    0  501    0  0.00000000000E+00  0.00000000000E+00  0.17860256874E+03  0.17860256874E+03  0.00000000000E+00 0. -1.
         -1   -1    0    0    0  501 -0.00000000000E+00 -0.00000000000E+00 -0.13637889269E+03  0.13637889269E+03  0.00000000000E+00 0.  1.
         23    2    1    2    0    0  0.84019151729E+02  0.17086357009E+02 -0.57301314450E+02  0.16211281929E+03  0.12508382824E+03 0.  0.
          5    1    3    3  502    0  0.68526787141E+02 -0.22728188128E+02  0.18815446912E+02  0.74726063284E+02  0.41800000000E+01 0.  1.
         -5    1    3    3    0  502  0.15492364588E+02  0.39814545136E+02 -0.76116761363E+02  0.87386756006E+02  0.41800000000E+01 0.  1.
        -11    1    1    2    0    0  0.61248706538E+01  0.18156251420E+02  0.18641549391E+02  0.26733328821E+02  0.00000000000E+00 0.  1.
         11    1    1    2    0    0 -0.90144022383E+02 -0.35242608429E+02  0.80883441115E+02  0.12613531332E+03  0.00000000000E+00 0. -1.
</event>
<event>
 7    1  0.9888250E-006  0.9817311E+02  0.7561462E-02  0.1284185E+00
          1   -1    0    0  501    0  0.00000000000E+00  0.00000000000E+00  0.15586446553E+03  0.15586446553E+03  0.00000000000E+00 0. -1.
         -1   -1    0    0    0  501 -0.00000000000E+00 -0.00000000000E+00 -0.11871508477E+03  0.11871508477E+03  0.00000000000E+00 0.  1.
         23    2    1    2    0    0  0.70648877303E+02  0.56284320855E+01 -0.21411594024E+02  0.14535729461E+03  0.12508934257E+03 0.  0.
          5    1    3    3  502    0  0.74469007703E+02  0.37045708920E+02 -0.54383083809E+02  0.99463610744E+02  0.41800000000E+01 0.  1.
         -5    1    3    3    0  502 -0.38201303992E+01 -0.31417276835E+02  0.32971489785E+02  0.45893683865E+02  0.41800000000E+01 0.  1.
        -11    1    1    2    0    0 -0.58481535335E+02  0.12022802883E+02  0.79387754574E+02  0.99333042541E+02  0.00000000000E+00 0. -1.
         11    1    1    2    0    0 -0.12167341969E+02 -0.17651234968E+02 -0.20826779788E+02  0.29889213151E+02  0.00000000000E+00 0.  1.
</event>
<event>
 7    1  0.6506388E-006  0.1166226E+03  0.7561462E-02  0.1248775E+00
          3   -1    0    0  501    0  0.00000000000E+00  0.00000000000E+00  0.79052106316E+02  0.79052106316E+02  0.00000000000E+00 0. -1.
         -3   -1    0    0    0  501 -0.00000000000E+00 -0.00000000000E+00 -0.33358243720E+03  0.33358243720E+03  0.00000000000E+00 0.  1.
         23    2    1    2    0    0  0.13511147392E+01  0.72469162600E+02 -0.25494265891E+03  0.29307598362E+03  0.12507664771E+03 0.  0.
          5    1    3    3  502    0  0.71395735683E+01  0.10183048589E+03 -0.23662905633E+03  0.25774251506E+03  0.41800000000E+01 0.  1.
         -5    1    3    3    0  502 -0.57884588292E+01 -0.29361323293E+02 -0.18313602578E+02  0.35333468561E+02  0.41800000000E+01 0.  1.
        -11    1    1    2    0    0 -0.31906884840E+02 -0.59808698035E+02  0.30971314499E+02  0.74527525000E+02  0.00000000000E+00 0. -1.
         11    1    1    2    0    0  0.30555770101E+02 -0.12660464564E+02 -0.30558986467E+02  0.45031034891E+02  0.00000000000E+00 0.  1.
</event>
<event>
 7    1  0.6506388E-006  0.4372705E+02  0.7561462E-02  0.1482449E+00
         -2   -1    0    0    0  501 -0.00000000000E+00  0.00000000000E+00  0.54950807970E+02  0.54950807970E+02  0.00000000000E+00 0.  1.
          2   -1    0    0  501    0  0.00000000000E+00 -0.00000000000E+00 -0.28020712062E+03  0.28020712062E+03  0.00000000000E+00 0. -1.
         23    2    1    2    0    0  0.31512749914E+02  0.18648606663E+02 -0.57356240999E+02  0.14240202584E+03  0.12509106541E+03 0.  0.
          5    1    3    3  502    0  0.10127037498E+01  0.96695518540E+01  0.39229507876E+02  0.40631914674E+02  0.41800000000E+01 0. -1.
         -5    1    3    3    0  502  0.30500046164E+02  0.89790548093E+01 -0.96585748875E+02  0.10177011117E+03  0.41800000000E+01 0. -1.
        -11    1    1    2    0    0 -0.92380396636E+01  0.64340152899E+01  0.79197968313E+01  0.13764487329E+02  0.00000000000E+00 0.  1.
         11    1    1    2    0    0 -0.22274710250E+02 -0.25082621953E+02 -0.17581986848E+03  0.17899141542E+03  0.00000000000E+00 0. -1.
</event>
<event>
 7    1  0.6506388E-006  0.1429683E+03  0.7561462E-02  0.1209390E+00
          1   -1    0    0  501    0  0.00000000000E+00  0.00000000000E+00  0.76933250056E+02  0.76933250056E+02  0.00000000000E+00 0. -1.
         -1   -1    0    0    0  501 -0.00000000000E+00 -0.00000000000E+00 -0.42320076911E+03  0.42320076911E+03  0.00000000000E+00 0.  1.
         23    2    1    2    0    0 -0.10870069416E+03 -0.78963741223E+02 -0.26355880558E+03  0.32119040959E+03  0.12509565091E+03 0.  0.
          5    1    3    3  502    0 -0.27170114220E+02 -0.48070972605E+02 -0.14448175015E+02  0.57229849512E+02  0.41800000000E+01 0. -1.
         -5    1    3    3    0  502 -0.81530579938E+02 -0.30892768618E+02 -0.24911063056E+03  0.26396056008E+03  0.41800000000E+01 0. -1.
        -11    1    1    2    0    0  0.11141567643E+03  0.64878870673E+02 -0.94923218599E+02  0.16010352352E+03  0.00000000000E+00 0.  1.
         11    1    1    2    0    0 -0.27149822754E+01  0.14084870550E+02  0.12214505122E+02  0.18840086054E+02  0.00000000000E+00 0. -1.
</event>
<event>
 7    1  0.6506388E-006  0.2075949E+03  0.7561462E-02  0.1143485E+00
          1   -1    0    0  501    0  0.00000000000E+00  0.00000000000E+00  0.98475623661E+02  0.98475623661E+02  0.00000000000E+00 0. -1.
         -1   -1    0    0    0  501 -0.00000000000E+00 -0.00000000000E+00 -0.44228988141E+03  0.44228988141E+03  0.00000000000E+00 0.  1.
         23    2    1    2    0    0 -0.72297760208E+02 -0.16152787128E+03 -0.20508151115E+03  0.29836793108E+03  0.12508707667E+03 0.  0.
          5    1    3    3  502    0 -0.23286271157E+02 -0.16565750558E+03 -0.15697500429E+03  0.22944124292E+03  0.41800000000E+01 0.  1.
         -5    1    3    3    0  502 -0.49011489051E+02  0.41296342998E+01 -0.48106506863E+02  0.68926688162E+02  0.41800000000E+01 0.  1.
        -11    1    1    2    0    0  0.89711313139E+02  0.15645676810E+03 -0.12216676399E+03  0.21783378575E+03  0.00000000000E+00 0. -1.
         11    1    1    2    0    0 -0.17413552931E+02  0.50711031865E+01 -0.16565982609E+02  0.24563788246E+02  0.00000000000E+00 0.  1.
</event>
<event>
 7    1  0.6506388E-006  0.9953973E+02  0.7561462E-02  0.1281267E+00
         -3   -1    0    0    0  501 -0.00000000000E+00  0.00000000000E+00  0.10459940472E+03  0.10459940472E+03  0.00000000000E+00 0.  1.
          3   -1    0    0  501    0  0.00000000000E+00 -0.00000000000E+00 -0.13276127472E+03  0.13276127472E+03  0.00000000000E+00 0. -1.
         23    2    1    2    0    0  0.27712430257E+02 -0.24900205008E+02  0.30205785226E+02  0.13396964854E+03  0.12508988076E+03 0.  0.
          5    1    3    3  502    0 -0.20990394411E+02  0.37162704144E+02 -0.11821737179E+02  0.44484706437E+02  0.41800000000E+01 0. -1.
         -5    1    3    3    0  502  0.48702824668E+02 -0.62062909153E+02  0.42027522405E+02  0.89484942100E+02  0.41800000000E+01 0. -1.
        -11    1    1    2    0    0  0.18787857934E+02  0.24264776897E+02 -0.26300308826E+01  0.30800650416E+02  0.00000000000E+00 0.  1.
         11    1    1    2    0    0 -0.46500288191E+02  0.63542811128E+00 -0.55737624344E+02  0.72590380481E+02  0.00000000000E+00 0. -1.
</event>
<event>
 7    1  0.6506388E-006  0.1017500E+03  0.7561462E-02  0.1276658E+00
          1   -1    0    0  501    0  0.00000000000E+00  0.00000000000E+00  0.49170641432E+03  0.49170641432E+03  0.00000000000E+00 0. -1.
         -1   -1    0    0    0  501 -0.00000000000E+00 -0.00000000000E+00 -0.34608694911E+02  0.34608694911E+02  0.00000000000E+00 0.  1.
         23    2    1    2    0    0 -0.44934437522E+02 -0.47495281591E+02  0.19162540531E+03  0.23800044056E+03  0.12509599632E+03 0.  0.
          5    1    3    3  502    0 -0.57022475481E+02 -0.62085217911E+02  0.19983866941E+03  0.21693110239E+03  0.41800000000E+01 0. -1.
         -5    1    3    3    0  502  0.12088037958E+02  0.14589936321E+02 -0.82132641000E+01  0.21069338165E+02  0.41800000000E+01 0. -1.
        -11    1    1    2    0    0 -0.21096291586E+02  0.16339683145E+02  0.14507777151E+03  0.14751135058E+03  0.00000000000E+00 0. -1.
         11    1    1    2    0    0  0.66030729108E+02  0.31155598446E+02  0.12039454258E+03  0.14080331809E+03  0.00000000000E+00 0.  1.
</event>
<event>
 7    1  0.6506388E-006  0.8115176E+02  0.7561462E-02  0.1325814E+00
         -1   -1    0    0    0  501 -0.00000000000E+00  0.00000000000E+00  0.75799810947E+02  0.75799810947E+02  0.00000000000E+00 0.  1.
          1   -1    0    0  501    0  0.00000000000E+00 -0.00000000000E+00 -0.19973247102E+03  0.19973247102E+03  0.00000000000E+00 0. -1.
         23    2    1    2    0    0  0.54090313610E+02 -0.25556279432E+02 -0.59408719650E+02  0.15085220809E+03  0.12509239494E+03 0.  0.
          5    1    3    3  502    0  0.23170541088E+02  0.12999363749E+02 -0.89082929178E+02  0.93054275040E+02  0.41800000000E+01 0.  1.
         -5    1    3    3    0  502  0.30919772522E+02 -0.38555643181E+02  0.29674209529E+02  0.57797933052E+02  0.41800000000E+01 0.  1.
        -11    1    1    2    0    0 -0.55065779398E+02  0.42051336580E+02 -0.77289913721E+02  0.10379925689E+03  0.00000000000E+00 0. -1.
         11    1    1    2    0    0  0.97546578755E+00 -0.16495057148E+02  0.12765973293E+02  0.20880816985E+02  0.00000000000E+00 0.  1.
</event>
<event>
 7    1  0.6506388E-006  0.8728039E+02  0.7561462E-02  0.1309575E+00
          4   -1    0    0  501    0  0.00000000000E+00  0.00000000000E+00  0.12638219843E+03  0.12638219843E+03  0.00000000000E+00 0. -1.
         -4   -1    0    0    0  501 -0.00000000000E+00 -0.00000000000E+00 -0.12505715654E+03  0.12505715654E+03  0.00000000000E+00 0.  1.
         23    2    1    2    0    0  0.12311031241E+00  0.50841811108E+02 -0.38247408013E+02  0.14034622182E+03  0.12509713365E+03 0.  0.
          5    1    3    3  502    0 -0.34311827410E+02  0.24198368684E+01 -0.66069503474E+02  0.74604348398E+02  0.41800000000E+01 0. -1.
         -5    1    3    3    0  502  0.34434937722E+02  0.48421974240E+02  0.27822095460E+02  0.65741873422E+02  0.41800000000E+01 0. -1.
        -11    1    1    2    0    0 -0.38781749389E+01 -0.65296587766E+02  0.57966084089E+02  0.87399951483E+02  0.00000000000E+00 0.  1.
         11    1    1    2    0    0  0.37550646265E+01  0.14454776658E+02 -0.18393634188E+02  0.23693181661E+02  0.00000000000E+00 0. -1.
</event>
<event>
 7    1  0.6506388E-006  0.1101941E+03  0.7561462E-02  0.1260211E+00
          3   -1    0    0  501    0  0.00000000000E+00  0.00000000000E+00  0.78790723304E+02  0.78790723304E+02  0.00000000000E+00 0. -1.
         -3   -1    0    0    0  501 -0.00000000000E+00 -0.00000000000E+00 -0.22021912883E+03  0.22021912883E+03  0.00000000000E+00 0.  1.
         23    2    1    2    0    0 -0.33112845097E+01 -0.50546700734E+02 -0.14423547232E+03  0.19752858702E+03  0.12509091756E+03 0.  0.
          5    1    3    3  502    0  0.65867582633E+01 -0.90898031245E+02 -0.82532851749E+02  0.12302431258E+03  0.41800000000E+01 0. -1.
         -5    1    3    3    0  502 -0.98980427730E+01  0.40351330512E+02 -0.61702620568E+02  0.74504274440E+02  0.41800000000E+01 0. -1.
        -11    1    1    2    0    0  0.36854187737E+02  0.33353790741E+02 -0.24030814613E+02  0.55210384544E+02  0.00000000000E+00 0.  1.
         11    1    1    2    0    0 -0.33542903227E+02  0.17192909993E+02  0.26837881399E+02  0.46270880572E+02  0.00000000000E+00 0. -1.
</event>
<event>
 7    1  0.6506388E-006  0.1917412E+03  0.7561462E-02  0.1156900E+00
          2   -1    0    0  501    0  0.00000000000E+00  0.00000000000E+00  0.44648226422E+03  0.44648226422E+03  0.00000000000E+00 0. -1.
         -2   -1    0    0    0  501 -0.00000000000E+00 -0.00000000000E+00 -0.11607726699E+03  0.11607726699E+03  0.00000000000E+00 0.  1.
         23    2    1    2    0    0  0.32147543061E+01 -0.18387207348E+03  0.74455836473E+02  0.23454661112E+03  0.12509663125E+03 0.  0.
          5    1    3    3  502    0  0.25853350695E+02 -0.14930159091E+03  0.26623919886E+01  0.15160449044E+03  0.41800000000E+01 0.  1.
         -5    1    3    3    0  502 -0.22638596389E+02 -0.34570482571E+02  0.71793444484E+02  0.82942120678E+02  0.41800000000E+01 0.  1.
        -11    1    1    2    0    0 -0.14386770453E+02  0.13822780764E+02 -0.67028959211E+00  0.19962407677E+02  0.00000000000E+00 0.  1.
         11    1    1    2    0    0  0.11172016147E+02  0.17004929272E+03  0.25661945035E+03  0.30805051241E+03  0.00000000000E+00 0. -1.
</event>
<event>
 7    1  0.6506388E-006  0.9276882E+02  0.7561462E-02  0.1296282E+00
         -4   -1    0    0    0  501 -0.00000000000E+00  0.00000000000E+00  0.93717993808E+03  0.93717993808E+03  0.00000000000E+00 0.  1.
          4   -1    0    0  501    0  0.00000000000E+00 -0.00000000000E+00 -0.25572626760E+02  0.25572626760E+02  0.00000000000E+00 0. -1.
         23    2    1    2    0    0 -0.67253754668E+01 -0.20123378179E+02  0.85676085841E+03  0.86610430989E+03  0.12508927248E+03 0.  0.
          5    1    3    3  502    0  0.38399720757E+01 -0.70016048567E+02  0.36577039401E+03  0.37245462271E+03  0.41800000000E+01 0. -1.
         -5    1    3    3    0  502 -0.10565347543E+02  0.49892670388E+02  0.49099046439E+03  0.49364968718E+03  0.41800000000E+01 0. -1.
        -11    1    1    2    0    0 -0.14296763550E+02 -0.16537922795E+02  0.49421529366E+02  0.54040613461E+02  0.00000000000E+00 0.  1.
         11    1    1    2    0    0  0.21022139017E+02  0.36661300974E+02  0.54249235521E+01  0.42607641492E+02  0.00000000000E+00 0. -1.
</event>
<event>
 7    1  0.6506388E-006  0.1101350E+03  0.7561462E-02  0.1260320E+00
         -2   -1    0    0    0  501 -0.00000000000E+00  0.00000000000E+00  0.65530378463E+02  0.65530378463E+02  0.00000000000E+00 0. -1.
          2   -1    0    0  501    0  0.00000000000E+00 -0.00000000000E+00 -0.35968504036E+03  0.35968504036E+03  0.00000000000E+00 0.  1.
         23    2    1    2    0    0 -0.30418923345E+02  0.83794792419E+01 -0.16796199621E+02  0.13009845647E+03  0.12509184419E+03 0.  0.
          5    1    3    3  502    0  0.21618178648E+02  0.50333973840E+02 -0.28841943828E+02  0.62049856522E+02  0.41800000000E+01 0.  1.
         -5    1    3    3    0  502 -0.52037101993E+02 -0.41954494598E+02  0.12045744207E+02  0.68048599944E+02  0.41800000000E+01 0.  1.
        -11    1    1    2    0    0 -0.80966810051E+01  0.37551304000E+02 -0.78073697785E+02  0.87012406939E+02  0.00000000000E+00 0.  1.
         11    1    1    2    0    0  0.38515604350E+02 -0.45930783242E+02 -0.19928476449E+03  0.20810455542E+03  0.00000000000E+00 0. -1.
</event>
<event>
 7    1  0.6506388E-006  0.1967925E+03  0.7561462E-02  0.1152474E+00
          1   -1    0    0  501    0  0.00000000000E+00  0.00000000000E+00  0.14049724561E+03  0.14049724561E+03  0.00000000000E+00 0. -1.
         -1   -1    0    0    0  501 -0.00000000000E+00 -0.00000000000E+00 -0.40986515397E+03  0.40986515397E+03  0.00000000000E+00 0.  1.
         23    2    1    2    0    0  0.27299580995E+02 -0.17867260745E+03 -0.26421365874E+03  0.34369316750E+03  0.12508784174E+03 0.  0.
          5    1    3    3  502    0 -0.41516932733E+02 -0.41493072988E+02 -0.37133837035E+02  0.69582505434E+02  0.41800000000E+01 0. -1.
         -5    1    3    3    0  502  0.68816513728E+02 -0.13717953446E+03 -0.22707982170E+03  0.27411066207E+03  0.41800000000E+01 0. -1.
        -11    1    1    2    0    0  0.14500088294E+01  0.99383646530E+01 -0.31884250207E+02  0.33428715633E+02  0.00000000000E+00 0.  1.
         11    1    1    2    0    0 -0.28749589824E+02  0.16873424279E+03  0.26730000593E+02  0.17324051644E+03  0.00000000000E+00 0. -1.
</event>
<event>
 7    1  0.6506388E-006  0.1055200E+03  0.7561462E-02  0.1269099E+00
         -1   -1    0    0    0  501 -0.00000000000E+00  0.00000000000E+00  0.83274727496E+02  0.83274727496E+02  0.00000000000E+00 0.  1.
          1   -1    0    0  501    0  0.00000000000E+00 -0.00000000000E+00 -0.31960476664E+03  0.31960476664E+03  0.00000000000E+00 0. -1.
         23    2    1    2    0    0  0.46577051489E+02  0.36290236772E+02  0.46021264437E+01  0.13840344214E+03  0.12509168725E+03 0.  0.
          5    1    3    3  502    0  0.75516929567E+02  0.21868776316E+02  0.41636673915E+02  0.89062534454E+02  0.41800000000E+01 0. -1.
         -5    1    3    3    0  502 -0.28939878078E+02  0.14421460456E+02 -0.37034547471E+02  0.49340907685E+02  0.41800000000E+01 0. -1.
        -11    1    1    2    0    0  0.16023903025E+02 -0.33392388956E+02 -0.42455305523E+02  0.56340660942E+02  0.00000000000E+00 0.  1.
         11    1    1    2    0    0 -0.62600954514E+02 -0.28978478153E+01 -0.19847686007E+03  0.20813539106E+03  0.00000000000E+00 0. -1.
</event>
<event>
 7    1  0.6506388E-006  0.8267878E+02  0.7561462E-02  0.1321617E+00
         -2   -1    0    0    0  501 -0.00000000000E+00  0.00000000000E+00  0.74194048431E+02  0.74194048431E+02  0.00000000000E+00 0.  1.
          2   -1    0    0  501    0  0.00000000000E+00 -0.00000000000E+00 -0.20879499591E+03  0.20879499591E+03  0.00000000000E+00 0. -1.
         23    2    1    2    0    0 -0.98479053324E+01  0.22698979721E+02 -0.13711825829E+02  0.12825024032E+03  0.12509150672E+03 0.  0.
          5    1    3    3  502    0 -0.32221482885E+02 -0.41984199982E+02  0.13005707923E+02  0.54658191024E+02  0.41800000000E+01 0.  1.
         -5    1    3    3    0  502  0.22373577552E+02  0.64683179704E+02 -0.26717533752E+02  0.73592049291E+02  0.41800000000E+01 0.  1.
        -11    1    1    2    0    0  0.21552513992E+02 -0.44324293881E+01 -0.12953066677E+03  0.13138626611E+03  0.00000000000E+00 0. -1.
         11    1    1    2    0    0 -0.11704608660E+02 -0.18266550333E+02  0.86415451191E+01  0.23352537913E+02  0.00000000000E+00 0.  1.
</event>
<event>
 7    1  0.6506388E-006  0.1170447E+03  0.7561462E-02  0.1248054E+00
          4   -1    0    0  501    0  0.00000000000E+00  0.00000000000E+00  0.21488444166E+03  0.21488444166E+03  0.00000000000E+00 0. -1.
         -4   -1    0    0    0  501 -0.00000000000E+00 -0.00000000000E+00 -0.11177576855E+03  0.11177576855E+03  0.00000000000E+00 0.  1.
         23    2    1    2    0    0  0.41961396093E+02  0.84255310013E+02 -0.48762614681E+01  0.15662473500E+03  0.12509122135E+03 0.  0.
          5    1    3    3  502    0 -0.26565887955E+01 -0.46213469657E+01  0.44850433043E+02  0.45359101137E+02  0.41800000000E+01 0.  1.
         -5    1    3    3    0  502  0.44617984889E+02  0.88876656979E+02 -0.49726694511E+02  0.11126563386E+03  0.41800000000E+01 0.  1.
        -11    1    1    2    0    0 -0.58614628178E+02 -0.20831516622E+02  0.32980764573E+02  0.70408504835E+02  0.00000000000E+00 0.  1.
         11    1    1    2    0    0  0.16653232085E+02 -0.63423793392E+02  0.75004170006E+02  0.99626970371E+02  0.00000000000E+00 0. -1.
</event>
<event>
 7    1  0.6506388E-006  0.2309697E+03  0.7561462E-02  0.1125959E+00
         -1   -1    0    0    0  501 -0.00000000000E+00  0.00000000000E+00  0.42082382136E+02  0.42082382136E+02  0.00000000000E+00 0.  1.
          1   -1    0    0  501    0  0.00000000000E+00 -0.00000000000E+00 -0.13111623195E+04  0.13111623195E+04  0.00000000000E+00 0. -1.
         23    2    1    2    0    0  0.60415948826E+02 -0.19856269444E+03 -0.62343434686E+03  0.66885289507E+03  0.12496631511E+03 0.  0.
          5    1    3    3  502    0 -0.35092117528E+02 -0.65062854459E+02 -0.14127929779E+03  0.15950531066E+03  0.41800000000E+01 0. -1.
         -5    1    3    3    0  502  0.95508066354E+02 -0.13349983998E+03 -0.48215504906E+03  0.50934758442E+03  0.41800000000E+01 0. -1.
        -11    1    1    2    0    0 -0.46281362493E+02  0.31373375933E+02 -0.11537595441E+03  0.12821023394E+03  0.00000000000E+00 0.  1.
         11    1    1    2    0    0 -0.14134586333E+02  0.16718931851E+03 -0.53026963610E+03  0.55618157262E+03  0.00000000000E+00 0. -1.
</event>
<event>
 7    1  0.6506388E-006  0.1346139E+03  0.7561462E-02  0.1220766E+00
         -3   -1    0    0    0  501 -0.00000000000E+00  0.00000000000E+00  0.10639187793E+03  0.10639187793E+03  0.00000000000E+00 0.  1.
          3   -1    0    0  501    0  0.00000000000E+00 -0.00000000000E+00 -0.21066221205E+03  0.21066221205E+03  0.00000000000E+00 0. -1.
         23    2    1    2    0    0  0.85492349448E+02 -0.47021113823E+02 -0.30229449936E+02  0.16149851910E+03  0.12509206638E+03 0.  0.
          5    1    3    3  502    0  0.91308590926E+02  0.27268167447E+01 -0.53679664391E+02  0.10603618758E+03  0.41800000000E+01 0. -1.
         -5    1    3    3    0  502 -0.58162414778E+01 -0.49747930567E+02  0.23450214455E+02  0.55462331529E+02  0.41800000000E+01 0. -1.
        -11    1    1    2    0    0  0.10275145240E+02  0.28077968209E+02 -0.44406048209E+02  0.53533615850E+02  0.00000000000E+00 0. -1.
         11    1    1    2    0    0 -0.95767494688E+02  0.18943145613E+02 -0.29634835974E+02  0.10202195503E+03  0.00000000000E+00 0.  1.
</event>
<event>
 7    1  0.6506388E-006  0.1232353E+03  0.7561462E-02  0.1237853E+00
         -3   -1    0    0    0  501 -0.00000000000E+00  0.00000000000E+00  0.26317553866E+02  0.26317553866E+02  0.00000000000E+00 0.  1.
          3   -1    0    0  501    0  0.00000000000E+00 -0.00000000000E+00 -0.75797228163E+03  0.75797228163E+03  0.00000000000E+00 0. -1.
         23    2    1    2    0    0  0.65593943704E+02 -0.23033846519E+02 -0.23766528450E+03  0.27742504351E+03  0.12508694485E+03 0.  0.
          5    1    3    3  502    0  0.61841702033E+02 -0.65466437380E+02 -0.10694101086E+03  0.13987173673E+03  0.41800000000E+01 0. -1.
         -5    1    3    3    0  502  0.37522416712E+01  0.42432590861E+02 -0.13072427364E+03  0.13755330677E+03  0.41800000000E+01 0. -1.
        -11    1    1    2    0    0  0.75744621987E+01  0.38070263308E+02 -0.16687421488E+03  0.17132927660E+03  0.00000000000E+00 0. -1.
         11    1    1    2    0    0 -0.73168405903E+02 -0.15036416788E+02 -0.32711522838E+03  0.33553551539E+03  0.00000000000E+00 0.  1.
</event>
<event>
 7    1  0.6506388E-006  0.1063973E+03  0.7561462E-02  0.1267391E+00
          1   -1    0    0  501    0  0.00000000000E+00  0.00000000000E+00  0.58249404883E+03  0.58249404883E+03  0.00000000000E+00 0. -1.
         -1   -1    0    0    0  501 -0.00000000000E+00 -0.00000000000E+00 -0.34695466810E+02  0.34695466810E+02  0.00000000000E+00 0.  1.
         23    2    1    2    0    0 -0.49723691942E+01  0.56054761393E+02  0.18783765252E+03  0.23259014806E+03  0.12509329535E+03 0.  0.
          5    1    3    3  502    0 -0.13420223721E+02  0.76435239528E+02  0.19426504553E+03  0.20923390873E+03  0.41800000000E+01 0. -1.
         -5    1    3    3    0  502  0.84478545270E+01 -0.20380478136E+02 -0.64273930089E+01  0.23356239339E+02  0.41800000000E+01 0. -1.
        -11    1    1    2    0    0 -0.43056225568E+02 -0.47014671004E+02  0.90245483732E+02  0.11049192361E+03  0.00000000000E+00 0.  1.
         11    1    1    2    0    0  0.48028594762E+02 -0.90400903889E+01  0.26971544576E+03  0.27410744396E+03  0.00000000000E+00 0. -1.
</event>
<event>
 7    1  0.6506388E-006  0.1085534E+03  0.7561462E-02  0.1263272E+00
         -1   -1    0    0    0  501 -0.00000000000E+00  0.00000000000E+00  0.15974771457E+03  0.15974771457E+03  0.00000000000E+00 0.  1.
          1   -1    0    0  501    0  0.00000000000E+00 -0.00000000000E+00 -0.10643824077E+03  0.10643824077E+03  0.00000000000E+00 0. -1.
         23    2    1    2    0    0 -0.36302328725E+02 -0.11197634602E+02  0.93260687252E+02  0.16058733226E+03  0.12508992527E+03 0.  0.
          5    1    3    3  502    0 -0.59734574504E+02  0.41535236135E+02  0.51991202200E+02  0.89520683298E+02  0.41800000000E+01 0.  1.
         -5    1    3    3    0  502  0.23432245779E+02 -0.52732870737E+02  0.41269485052E+02  0.71066648964E+02  0.41800000000E+01 0.  1.
        -11    1    1    2    0    0  0.91302793090E+01 -0.33139556113E+02 -0.41106387853E+02  0.53584767443E+02  0.00000000000E+00 0.  1.
         11    1    1    2    0    0  0.27172049416E+02  0.44337190715E+02  0.11551744022E+01  0.52013855633E+02  0.00000000000E+00 0. -1.
</event>
<event>
 7    1  0.6506388E-006  0.1066413E+03  0.7561462E-02  0.1266919E+00
          2   -1    0    0  501    0  0.00000000000E+00  0.00000000000E+00  0.71043897388E+03  0.71043897388E+03  0.00000000000E+00 0. -1.
         -2   -1    0    0    0  501 -0.00000000000E+00 -0.00000000000E+00 -0.19815282409E+02  0.19815282409E+02  0.00000000000E+00 0.  1.
         23    2    1    2    0    0  0.41889299152E+02  0.85946873682E+01  0.45708045006E+03  0.47581340057E+03  0.12508905747E+03 0.  0.
          5    1    3    3  502    0  0.80373811749E+02 -0.14292141361E+02  0.35461073055E+03  0.36390995801E+03  0.41800000000E+01 0.  1.
         -5    1    3    3    0  502 -0.38484512597E+02  0.22886828729E+02  0.10246971951E+03  0.11190344256E+03  0.41800000000E+01 0.  1.
        -11    1    1    2    0    0  0.47896498547E+00 -0.36070150266E+02  0.16730260652E+03  0.17114744314E+03  0.00000000000E+00 0. -1.
         11    1    1    2    0    0 -0.42368264138E+02  0.27475462898E+02  0.66240634897E+02  0.83293412579E+02  0.00000000000E+00 0.  1.
</event>
<event>
 7    1  0.6506388E-006  0.1536385E+03  0.7561462E-02  0.1196072E+00
         -2   -1    0    0    0  501 -0.00000000000E+00  0.00000000000E+00  0.77589843344E+02  0.77589843344E+02  0.00000000000E+00 0. -1.
          2   -1    0    0  501    0  0.00000000000E+00 -0.00000000000E+00 -0.41044535474E+03  0.41044535474E+03  0.00000000000E+00 0.  1.
         23    2    1    2    0    0 -0.11810761682E+03  0.79597400466E+02 -0.16596952501E+03  0.25194925204E+03  0.12508951619E+03 0.  0.
          5    1    3    3  502    0 -0.37423550465E+02  0.26261912217E+02  0.13655431993E+02  0.47897321278E+02  0.41800000000E+01 0.  1.
         -5    1    3    3    0  502 -0.80684066350E+02  0.53335488249E+02 -0.17962495701E+03  0.20405193077E+03  0.41800000000E+01 0.  1.
        -11    1    1    2    0    0  0.29264991374E+02 -0.69169326910E+02 -0.56380282435E+02  0.93912575051E+02  0.00000000000E+00 0.  1.
         11    1    1    2    0    0  0.88842625442E+02 -0.10428073556E+02 -0.11050570395E+03  0.14217337099E+03  0.00000000000E+00 0. -1.
</event>
<event>
 7    1  0.6506388E-006  0.8015118E+02  0.7561462E-02  0.1328623E+00
         -1   -1    0    0    0  501 -0.00000000000E+00  0.00000000000E+00  0.43105182479E+02  0.43105182479E+02  0.00000000000E+00 0.  1.
          1   -1    0    0  501    0  0.00000000000E+00 -0.00000000000E+00 -0.31953445744E+03  0.31953445744E+03  0.00000000000E+00 0. -1.
         23    2    1    2    0    0  0.38223285389E+02 -0.69118552404E+01 -0.11616405375E+03  0.17505186986E+03  0.12506109094E+03 0.  0.
          5    1    3    3  502    0  0.63800835015E+02  0.19532052707E+02 -0.16684346872E+02  0.68904916096E+02  0.41800000000E+01 0.  1.
         -5    1    3    3    0  502 -0.25577549626E+02 -0.26443907947E+02 -0.99479706877E+02  0.10614695376E+03  0.41800000000E+01 0.  1.
        -11    1    1    2    0    0 -0.36674479940E+02 -0.11119897999E+02 -0.16457951284E+03  0.16898250103E+03  0.00000000000E+00 0. -1.
         11    1    1    2    0    0 -0.15488054493E+01  0.18031753239E+02  0.43142916289E+01  0.18605269024E+02  0.00000000000E+00 0.  1.
</event>
<event>
 7    1  0.6506388E-006  0.1263474E+03  0.7561462E-02  0.1232978E+00
         -2   -1    0    0    0  501 -0.00000000000E+00  0.00000000000E+00  0.20889728807E+03  0.20889728807E+03  0.00000000000E+00 0.  1.
          2   -1    0    0  501    0  0.00000000000E+00 -0.00000000000E+00 -0.11456921597E+03  0.11456921597E+03  0.00000000000E+00 0. -1.
         23    2    1    2    0    0 -0.17016897763E+02 -0.10423757771E+03  0.84165052016E+02  0.18407657943E+03  0.12508150822E+03 0.  0.
          5    1    3    3  502    0 -0.91805981524E+01  0.19600208993E+02 -0.13728887896E+02  0.25969334568E+02  0.41800000000E+01 0. -1.
         -5    1    3    3    0  502 -0.78362996105E+01 -0.12383778670E+03  0.97893939913E+02  0.15810724486E+03  0.41800000000E+01 0. -1.
        -11    1    1    2    0    0  0.19173008736E+02  0.84907238309E+02  0.46120787287E+02  0.98508732614E+02  0.00000000000E+00 0.  1.
         11    1    1    2    0    0 -0.21561109734E+01  0.19330339399E+02 -0.35957767204E+02  0.40881191985E+02  0.00000000000E+00 0. -1.
</event>
<event>
 7    1  0.6506388E-006  0.1342580E+03  0.7561462E-02  0.1221271E+00
         -1   -1    0    0    0  501 -0.00000000000E+00  0.00000000000E+00  0.26488011436E+03  0.26488011436E+03  0.00000000000E+00 0.  1.
          1   -1    0    0  501    0  0.00000000000E+00 -0.00000000000E+00 -0.11700316918E+03  0.11700316918E+03  0.00000000000E+00 0. -1.
         23    2    1    2    0    0 -0.14618925068E+01  0.10318081383E+03  0.17757475628E+03  0.24047630965E+03  0.12509054305E+03 0.  0.
          5    1    3    3  502    0 -0.12200896520E+01  0.12969726381E+03  0.16730488355E+03  0.21173394937E+03  0.41800000000E+01 0. -1.
         -5    1    3    3    0  502 -0.24180285479E+00 -0.26516449979E+02  0.10269872732E+02  0.28742360272E+02  0.41800000000E+01 0. -1.
        -11    1    1    2    0    0 -0.20632816429E+02 -0.40757549764E+02 -0.54125397033E+02  0.70826898708E+02  0.00000000000E+00 0. -1.
         11    1    1    2    0    0  0.22094708936E+02 -0.62423264067E+02  0.24427585934E+02  0.70580075193E+02  0.00000000000E+00 0.  1.
</event>
<event>
 7    1  0.6506388E-006  0.9003079E+02  0.7561462E-02  0.1302777E+00
          2   -1    0    0  501    0  0.00000000000E+00  0.00000000000E+00  0.67250253311E+02  0.67250253311E+02  0.00000000000E+00 0. -1.
         -2   -1    0    0    0  501 -0.00000000000E+00 -0.00000000000E+00 -0.18402493461E+03  0.18402493461E+03  0.00000000000E+00 0.  1.
         23    2    1    2    0    0  0.19830540775E+02  0.10034695144E+02 -0.94074777607E+02  0.15808740049E+03  0.12509043511E+03 0.  0.
          5    1    3    3  502    0  0.62974789701E+02  0.22439170194E+02 -0.17510859834E+02  0.69234695847E+02  0.41800000000E+01 0.  1.
         -5    1    3    3    0  502 -0.43144248927E+02 -0.12404475050E+02 -0.76563917774E+02  0.88852704639E+02  0.41800000000E+01 0.  1.
        -11    1    1    2    0    0 -0.43311418191E+02 -0.10258405617E+02  0.16519214088E+02  0.47476291616E+02  0.00000000000E+00 0. -1.
         11    1    1    2    0    0  0.23480877417E+02  0.22371047339E+00 -0.39219117784E+02  0.45711495823E+02  0.00000000000E+00 0.  1.
</event>
<event>
 7    1  0.6506388E-006  0.8583061E+02  0.7561462E-02  0.1313275E+00
          2   -1    0    0  501    0  0.00000000000E+00  0.00000000000E+00  0.16735347680E+03  0.16735347680E+03  0.00000000000E+00 0. -1.
         -2   -1    0    0    0  501 -0.00000000000E+00 -0.00000000000E+00 -0.84685155941E+02  0.84685155941E+02  0.00000000000E+00 0.  1.
         23    2    1    2    0    0  0.15795948336E+02  0.26413574366E+02  0.24032352715E+02  0.13104315843E+03  0.12509023343E+03 0.  0.
          5    1    3    3  502    0  0.41396151205E+02  0.64396159808E+02  0.34180497670E+02  0.83942155998E+02  0.41800000000E+01 0.  1.
         -5    1    3    3    0  502 -0.25600202869E+02 -0.37982585442E+02 -0.10148144955E+02  0.47101002429E+02  0.41800000000E+01 0.  1.
        -11    1    1    2    0    0  0.85269546643E+01 -0.22883715634E+02  0.82921851498E+02  0.86443084471E+02  0.00000000000E+00 0. -1.
         11    1    1    2    0    0 -0.24322903001E+02 -0.35298587316E+01 -0.24285883359E+02  0.34552389839E+02  0.00000000000E+00 0.  1.
</event>
<event>
 7    1  0.6506388E-006  0.1737066E+03  0.7561462E-02  0.1174037E+00
          1   -1    0    0  501    0  0.00000000000E+00  0.00000000000E+00  0.30894429859E+03  0.30894429859E+03  0.00000000000E+00 0. -1.
         -1   -1    0    0    0  501 -0.00000000000E+00 -0.00000000000E+00 -0.11170036675E+03  0.11170036675E+03  0.00000000000E+00 0.  1.
         23    2    1    2    0    0 -0.12979496990E+03  0.47396630894E+02  0.10281365629E+03  0.21286361515E+03  0.12508835238E+03 0.  0.
          5    1    3    3  502    0  0.14981598100E+02  0.62635090305E+01 -0.14361001872E+02  0.22076924645E+02  0.41800000000E+01 0. -1.
         -5    1    3    3    0  502 -0.14477656801E+03  0.41133121863E+02  0.11717465816E+03  0.19078669050E+03  0.41800000000E+01 0. -1.
        -11    1    1    2    0    0 -0.32247177646E+01 -0.46950007316E+02  0.46330549986E+01  0.47288129486E+02  0.00000000000E+00 0.  1.
         11    1    1    2    0    0  0.13301968767E+03 -0.44662357784E+00  0.89797220552E+02  0.16049292071E+03  0.00000000000E+00 0. -1.
</event>
<event>
 7    1  0.6506388E-006  0.1129030E+03  0.7561462E-02  0.1255286E+00
          1   -1    0    0  501    0  0.00000000000E+00  0.00000000000E+00  0.73737719907E+03  0.73737719907E+03  0.00000000000E+00 0. -1.
         -1   -1    0    0    0  501 -0.00000000000E+00 -0.00000000000E+00 -0.28048536504E+02  0.28048536504E+02  0.00000000000E+00 0.  1.
         23    2    1    2    0    0 -0.43445779362E+02  0.72379007946E+02  0.27706641913E+03  0.31549874462E+03  0.12508957075E+03 0.  0.
          5    1    3    3  502    0 -0.43433537601E+02  0.18424528372E+02  0.25100387705E+03  0.25543365895E+03  0.41800000000E+01 0. -1.
         -5    1    3    3    0  502 -0.12241761368E-01  0.53954479574E+02  0.26062542088E+02  0.60065085666E+02  0.41800000000E+01 0. -1.
        -11    1    1    2    0    0  0.93238240493E+01  0.22039298752E+02  0.10033059410E+03  0.10314500714E+03  0.00000000000E+00 0.  1.
         11    1    1    2    0    0  0.34121955313E+02 -0.94418306697E+02  0.33193164933E+03  0.34678198381E+03  0.00000000000E+00 0. -1.
</event>
<event>
 7    1  0.6506388E-006  0.1130331E+03  0.7561462E-02  0.1255054E+00
         -2   -1    0    0    0  501 -0.00000000000E+00  0.00000000000E+00  0.25497446003E+02  0.25497446003E+02  0.00000000000E+00 0.  1.
          2   -1    0    0  501    0  0.00000000000E+00 -0.00000000000E+00 -0.65096540358E+03  0.65096540358E+03  0.00000000000E+00 0. -1.
         23    2    1    2    0    0  0.54749385000E+02  0.20487462390E+02 -0.24705753627E+03  0.28302449124E+03  0.12509278612E+03 0.  0.
          5    1    3    3  502    0 -0.32407643210E+02  0.29825071154E+02 -0.12573198496E+03  0.13328838903E+03  0.41800000000E+01 0. -1.
         -5    1    3    3    0  502  0.87157028210E+02 -0.93376087634E+01 -0.12132555131E+03  0.14973610221E+03  0.41800000000E+01 0. -1.
        -11    1    1    2    0    0 -0.32257833457E+02 -0.48436306488E+02 -0.31716240505E+03  0.32245718287E+03  0.00000000000E+00 0. -1.
         11    1    1    2    0    0 -0.22491551543E+02  0.27948844098E+02 -0.61248016259E+02  0.70981175483E+02  0.00000000000E+00 0.  1.
</event>
<event>
 7    1  0.6506388E-006  0.1254079E+03  0.7561462E-02  0.1234433E+00
          1   -1    0    0  501    0  0.00000000000E+00  0.00000000000E+00  0.56756231041E+03  0.56756231041E+03  0.00000000000E+00 0. -1.
         -1   -1    0    0    0  501 -0.00000000000E+00 -0.00000000000E+00 -0.35649514607E+02  0.35649514607E+02  0.00000000000E+00 0.  1.
         23    2    1    2    0    0  0.56728416858E+02  0.59547411574E+02  0.20149546061E+03  0.25102086240E+03  0.12508814977E+03 0.  0.
          5    1    3    3  502    0  0.29822199053E+02  0.86128994627E+02  0.19079976984E+03  0.21149371584E+03  0.41800000000E+01 0.  1.
         -5    1    3    3    0  502  0.26906217805E+02 -0.26581583053E+02  0.10695690770E+02  0.39527146560E+02  0.41800000000E+01 0.  1.
        -11    1    1    2    0    0 -0.80052021257E+02 -0.34127836828E+02  0.22343013021E+03  0.23977918684E+03  0.00000000000E+00 0. -1.
         11    1    1    2    0    0  0.23323604400E+02 -0.25419574746E+02  0.10698720499E+03  0.11241177578E+03  0.00000000000E+00 0.  1.
</event>
<event>
 7    1  0.6506388E-006  0.1356516E+03  0.7561462E-02  0.1219303E+00
         -2   -1    0    0    0  501 -0.00000000000E+00  0.00000000000E+00  0.41037406753E+02  0.41037406753E+02  0.00000000000E+00 0. -1.
          2   -1    0    0  501    0  0.00000000000E+00 -0.00000000000E+00 -0.61487812297E+03  0.61487812297E+03  0.00000000000E+00 0.  1.
         23    2    1    2    0    0 -0.33758691393E+02 -0.86467085904E+02 -0.16832428306E+03  0.22933988224E+03  0.12509001211E+03 0.  0.
          5    1    3    3  502    0  0.25805437434E+02  0.96539279973E+01 -0.83189120135E+02  0.87732668008E+02  0.41800000000E+01 0. -1.
         -5    1    3    3    0  502 -0.59564128828E+02 -0.96121013901E+02 -0.85135162924E+02  0.14160721423E+03  0.41800000000E+01 0. -1.
        -11    1    1    2    0    0  0.53665681958E+02  0.14473513792E+02 -0.21136542629E+03  0.21855166769E+03  0.00000000000E+00 0. -1.
         11    1    1    2    0    0 -0.19906990565E+02  0.71993572112E+02 -0.19415100687E+03  0.20802397979E+03  0.00000000000E+00 0.  1.
</event>
<event>
 7    1  0.6506388E-006  0.1005037E+03  0.7561462E-02  0.1279240E+00
         -1   -1    0    0    0  501 -0.00000000000E+00  0.00000000000E+00  0.54432910413E+02  0.54432910413E+02  0.00000000000E+00 0.  1.
          1   -1    0    0  501    0  0.00000000000E+00 -0.00000000000E+00 -0.23583537599E+03  0.23583537599E+03  0.00000000000E+00 0. -1.
         23    2    1    2    0    0  0.50346969332E+01  0.16928871316E+02 -0.62485395078E+02  0.14094041686E+03  0.12509133323E+03 0.  0.
          5    1    3    3  502    0 -0.20860963220E+02  0.58256454617E+02 -0.58231429817E+00  0.62022623138E+02  0.41800000000E+01 0. -1.
         -5    1    3    3    0  502  0.25895660153E+02 -0.41327583300E+02 -0.61903080780E+02  0.78917793724E+02  0.41800000000E+01 0. -1.
        -11    1    1    2    0    0 -0.20060359212E+02 -0.49912773645E+02 -0.65203360240E+02  0.84529173492E+02  0.00000000000E+00 0.  1.
         11    1    1    2    0    0  0.15025662279E+02  0.32983902329E+02 -0.53713710254E+02  0.64798696044E+02  0.00000000000E+00 0. -1.
</event>
<event>
 7    1  0.6506388E-006  0.1388602E+03  0.7561462E-02  0.1214871E+00
          3   -1    0    0  501    0  0.00000000000E+00  0.00000000000E+00  0.80917986879E+03  0.80917986879E+03  0.00000000000E+00 0. -1.
         -3   -1    0    0    0  501 -0.00000000000E+00 -0.00000000000E+00 -0.29965942891E+02  0.29965942891E+02  0.00000000000E+00 0.  1.
         23    2    1    2    0    0 -0.10814660138E+03  0.30742516448E+02  0.40196389199E+03  0.43573267835E+03  0.12508879568E+03 0.  0.
          5    1    3    3  502    0 -0.35414512493E+02  0.72854724980E+02  0.23789209844E+03  0.25134064842E+03  0.41800000000E+01 0.  1.
         -5    1    3    3    0  502 -0.72732088886E+02 -0.42112208532E+02  0.16407179356E+03  0.18439202993E+03  0.41800000000E+01 0.  1.
        -11    1    1    2    0    0  0.49491248380E+02 -0.12784408098E+02  0.30215499366E+03  0.30644814398E+03  0.00000000000E+00 0. -1.
         11    1    1    2    0    0  0.58655352999E+02 -0.17958108349E+02  0.75095040249E+02  0.96964989357E+02  0.00000000000E+00 0.  1.
</event>
<event>
 7    1  0.6506388E-006  0.1260385E+03  0.7561462E-02  0.1233455E+00
         -1   -1    0    0    0  501 -0.00000000000E+00  0.00000000000E+00  0.23797284268E+02  0.23797284268E+02  0.00000000000E+00 0.  1.
          1   -1    0    0  501    0  0.00000000000E+00 -0.00000000000E+00 -0.76911738255E+03  0.76911738255E+03  0.00000000000E+00 0. -1.
         23    2    1    2    0    0  0.63800009041E+02  0.10745691621E+02 -0.28279953535E+03  0.31592578355E+03  0.12509041719E+03 0.  0.
          5    1    3    3  502    0  0.67764938522E+01  0.62910305909E+02 -0.13016198360E+03  0.14478688419E+03  0.41800000000E+01 0. -1.
         -5    1    3    3    0  502  0.57023515189E+02 -0.52164614288E+02 -0.15263755175E+03  0.17113889936E+03  0.41800000000E+01 0. -1.
        -11    1    1    2    0    0  0.12119757759E+02  0.24675701332E+02 -0.62330949487E+02  0.68124342406E+02  0.00000000000E+00 0.  1.
         11    1    1    2    0    0 -0.75919766799E+02 -0.35421392953E+02 -0.40018961344E+03  0.40886454086E+03  0.00000000000E+00 0. -1.
</event>
<event>
 7    1  0.6506388E-006  0.1410827E+03  0.7561462E-02  0.1211879E+00
         -2   -1    0    0    0  501 -0.00000000000E+00  0.00000000000E+00  0.43191399867E+03  0.43191399867E+03  0.00000000000E+00 0.  1.
          2   -1    0    0  501    0  0.00000000000E+00 -0.00000000000E+00 -0.64202461222E+02  0.64202461222E+02  0.00000000000E+00 0. -1.
         23    2    1    2    0    0  0.86731897317E+02  0.88965090590E+02  0.22328511582E+03  0.28450164806E+03  0.12509090874E+03 0.  0.
          5    1    3    3  502    0  0.66355284055E+02  0.36336970408E+01  0.16801480734E+03  0.18072818088E+03  0.41800000000E+01 0. -1.
         -5    1    3    3    0  502  0.20376613263E+02  0.85331393549E+02  0.55270308475E+02  0.10377346719E+03  0.41800000000E+01 0. -1.
        -11    1    1    2    0    0 -0.70615279891E+02 -0.52853023031E+02  0.14759528104E+03  0.17194280091E+03  0.00000000000E+00 0.  1.
         11    1    1    2    0    0 -0.16116617426E+02 -0.36112067558E+02 -0.31688594142E+01  0.39672010922E+02  0.00000000000E+00 0. -1.
</event>
<event>
 7    1  0.6506388E-006  0.1265516E+03  0.7561462E-02  0.1232664E+00
          1   -1    0    0  501    0  0.00000000000E+00  0.00000000000E+00  0.71582468425E+03  0.71582468425E+03  0.00000000000E+00 0. -1.
         -1   -1    0    0    0  501 -0.00000000000E+00 -0.00000000000E+00 -0.23599926106E+02  0.23599926106E+02  0.00000000000E+00 0.  1.
         23    2    1    2    0    0 -0.20463296488E+02  0.66568054401E+02  0.43781868500E+03  0.46063342179E+03  0.12509155035E+03 0.  0.
          5    1    3    3  502    0  0.39603901514E+02 -0.10903132428E+02  0.86154642974E+02  0.95537648170E+02  0.41800000000E+01 0.  1.
         -5    1    3    3    0  502 -0.60067198002E+02  0.77471186828E+02  0.35166404202E+03  0.36509577362E+03  0.41800000000E+01 0.  1.
        -11    1    1    2    0    0 -0.24373132535E+02 -0.64341444602E+02  0.14340937228E+03  0.15906011172E+03  0.00000000000E+00 0.  1.
         11    1    1    2    0    0  0.44836429023E+02 -0.22266097983E+01  0.11099670087E+03  0.11973107685E+03  0.00000000000E+00 0. -1.
</event>
<event>
 7    1  0.6506388E-006  0.8352443E+02  0.7561462E-02  0.1319337E+00
         -2   -1    0    0    0  501 -0.00000000000E+00  0.00000000000E+00  0.39696910950E+02  0.39696910950E+02  0.00000000000E+00 0.  1.
          2   -1    0    0  501    0  0.00000000000E+00 -0.00000000000E+00 -0.35310808201E+03  0.35310808201E+03  0.00000000000E+00 0. -1.
         23    2    1    2    0    0 -0.75469807386E+01 -0.47625356754E+02 -0.19509242999E+03  0.23671525874E+03  0.12509167023E+03 0.  0.
          5    1    3    3  502    0 -0.51560909060E+01 -0.71872563404E+02 -0.19900195407E+03  0.21168727115E+03  0.41800000000E+01 0.  1.
         -5    1    3    3    0  502 -0.23908898326E+01  0.24247206650E+02  0.39095240816E+01  0.25027987595E+02  0.41800000000E+01 0.  1.
        -11    1    1    2    0    0 -0.18282113071E+02  0.29124659526E+01 -0.99379384070E+02  0.10108897118E+03  0.00000000000E+00 0. -1.
         11    1    1    2    0    0  0.25829093810E+02  0.44712890802E+02 -0.18939357006E+02  0.55000763037E+02  0.00000000000E+00 0.  1.
</event>
<event>
 6    1  0.6506388E-006  0.1232272E+03  0.7561462E-02  0.1237866E+00
          1   -1    0    0  501    0  0.00000000000E+00  0.00000000000E+00  0.12437786850E+03  0.12437786850E+03  0.00000000000E+00 0. -1.
         -1   -1    0    0    0  501 -0.00000000000E+00 -0.00000000000E+00 -0.19736050186E+03  0.19736050186E+03  0.00000000000E+00 0.  1.
          5    1    1    2  502    0 -0.51891551127E+02  0.95389501677E+02 -0.18532161402E+01  0.10868669154E+03  0.41800000000E+01 0. -1.
         -5    1    1    2    0  502  0.57091387530E+02 -0.89000604025E+02 -0.55739744295E+02  0.11960320038E+03  0.41800000000E+01 0.  1.
        -11    1    1    2    0    0 -0.18030562955E+02 -0.10360507398E+01 -0.51595569341E+02  0.54665138591E+02  0.00000000000E+00 0.  1.
         11    1    1    2    0    0  0.12830726552E+02 -0.53528469118E+01  0.36205896421E+02  0.38783339845E+02  0.00000000000E+00 0. -1.
</event>
<event>
 7    1  0.6506388E-006  0.1451647E+03  0.7561462E-02  0.1206544E+00
         -1   -1    0    0    0  501 -0.00000000000E+00  0.00000000000E+00  0.34205048137E+03  0.34205048137E+03  0.00000000000E+00 0.  1.
          1   -1    0    0  501    0  0.00000000000E+00 -0.00000000000E+00 -0.10692410612E+03  0.10692410612E+03  0.00000000000E+00 0. -1.
         23    2    1    2    0    0  0.71118002697E+02  0.10628839489E+03  0.23169224369E+03  0.29272176994E+03  0.12509894330E+03 0.  0.
          5    1    3    3  502    0  0.11948417500E+02 -0.12023860180E+01  0.13722442387E+03  0.13781228290E+03  0.41800000000E+01 0. -1.
         -5    1    3    3    0  502  0.59169585197E+02  0.10749078091E+03  0.94467819823E+02  0.15490948704E+03  0.41800000000E+01 0. -1.
        -11    1    1    2    0    0 -0.38604562225E+02  0.49769804446E+01 -0.81129824049E+01  0.39760571455E+02  0.00000000000E+00 0. -1.
         11    1    1    2    0    0 -0.32513440472E+02 -0.11126537534E+03  0.11547113960E+02  0.11649224610E+03  0.00000000000E+00 0.  1.
</event>
<event>
 7    1  0.6506388E-006  0.2655114E+03  0.7561462E-02  0.1103876E+00
         -1   -1    0    0    0  501 -0.00000000000E+00  0.00000000000E+00  0.11667252474E+03  0.11667252474E+03  0.00000000000E+00 0.  1.
          1   -1    0    0  501    0  0.00000000000E+00 -0.00000000000E+00 -0.62957648208E+03  0.62957648208E+03  0.00000000000E+00 0. -1.
         23    2    1    2    0    0  0.13112116336E+03  0.20806304116E+03 -0.20226449570E+03  0.34211232081E+03  0.12508767026E+03 0.  0.
          5    1    3    3  502    0  0.64486355952E+02  0.19435967170E+03 -0.12906294719E+03  0.24209272774E+03  0.41800000000E+01 0. -1.
         -5    1    3    3    0  502  0.66634807410E+02  0.13703369459E+02 -0.73201548508E+02  0.10001959307E+03  0.41800000000E+01 0. -1.
        -11    1    1    2    0    0 -0.13975133405E+03 -0.17543560466E+03 -0.26136315939E+03  0.34441078357E+03  0.00000000000E+00 0. -1.
         11    1    1    2    0    0  0.86301706881E+01 -0.32627436508E+02 -0.49276302246E+02  0.59725902440E+02  0.00000000000E+00 0.  1.
</event>
<event>
 7    1  0.6506388E-006  0.1135850E+03  0.7561462E-02  0.1254071E+00
         -2   -1    0    0    0  501 -0.00000000000E+00  0.00000000000E+00  0.14980341265E+02  0.14980341265E+02  0.00000000000E+00 0.  1.
          2   -1    0    0  501    0  0.00000000000E+00 -0.00000000000E+00 -0.13891966701E+04  0.13891966701E+04  0.00000000000E+00 0. -1.
         23    2    1    2    0    0  0.94579175120E+02 -0.73815523244E+01 -0.75716854428E+03  0.77327332385E+03  0.12509085199E+03 0.  0.
          5    1    3    3  502    0  0.49019854868E+02  0.12006390607E+01 -0.68884082275E+03  0.69059650969E+03  0.41800000000E+01 0. -1.
         -5    1    3    3    0  502  0.45559320252E+02 -0.85821913851E+01 -0.68327721533E+02  0.82676814167E+02  0.41800000000E+01 0. -1.
        -11    1    1    2    0    0  0.30382199095E+01 -0.27559634506E+02 -0.13985815353E+03  0.14258003838E+03  0.00000000000E+00 0.  1.
         11    1    1    2    0    0 -0.97617395029E+02  0.34941186830E+02 -0.47718963100E+03  0.48832364912E+03  0.00000000000E+00 0. -1.
</event>
<event>
 7    1  0.6506388E-006  0.1052985E+03  0.7561462E-02  0.1269533E+00
          1   -1    0    0  501    0  0.00000000000E+00  0.00000000000E+00  0.48402269567E+03  0.48402269567E+03  0.00000000000E+00 0. -1.
         -1   -1    0    0    0  501 -0.00000000000E+00 -0.00000000000E+00 -0.26492772752E+02  0.26492772752E+02  0.00000000000E+00 0.  1.
         23    2    1    2    0    0  0.34140085723E+02 -0.66800970131E+01  0.27021767659E+03  0.29979282304E+03  0.12509186566E+03 0.  0.
          5    1    3    3  502    0  0.25238272589E+01 -0.57212582290E+02  0.68357514078E+02  0.89274136273E+02  0.41800000000E+01 0.  1.
         -5    1    3    3    0  502  0.31616258464E+02  0.50532485277E+02  0.20186016251E+03  0.21051868676E+03  0.41800000000E+01 0.  1.
        -11    1    1    2    0    0 -0.62725722628E+02 -0.41276128688E+01  0.98991545883E+02  0.11726414466E+03  0.00000000000E+00 0.  1.
         11    1    1    2    0    0  0.28585636905E+02  0.10807709882E+02  0.88320700445E+02  0.93458500723E+02  0.00000000000E+00 0. -1.
</event>
<event>
 7    1  0.6506388E-006  0.2347933E+03  0.7561462E-02  0.1123311E+00
          1   -1    0    0  501    0  0.00000000000E+00  0.00000000000E+00  0.12226171889E+04  0.12226171889E+04  0.00000000000E+00 0. -1.
         -1   -1    0    0    0  501 -0.00000000000E+00 -0.00000000000E+00 -0.16485862506E+03  0.16485862506E+03  0.00000000000E+00 0.  1.
         23    2    1    2    0    0 -0.97835334287E+02  0.18540095950E+03 -0.56024502916E+02  0.25046301704E+03  0.12509080526E+03 0.  0.
          5    1    3    3  502    0 -0.89342958189E+02  0.20251600729E+03 -0.39552851919E+02  0.22489285867E+03  0.41800000000E+01 0.  1.
         -5    1    3    3    0  502 -0.84923760981E+01 -0.17115047789E+02 -0.16471650998E+02  0.25570158372E+02  0.41800000000E+01 0.  1.
        -11    1    1    2    0    0  0.79047041839E+02 -0.53595769265E+02  0.45805374574E+03  0.46790402360E+03  0.00000000000E+00 0.  1.
         11    1    1    2    0    0  0.18788292448E+02 -0.13180519024E+03  0.65572932098E+03  0.66910877329E+03  0.00000000000E+00 0. -1.
</event>
<event>
 7    1  0.6506388E-006  0.8876536E+02  0.7561462E-02  0.1305869E+00
         -1   -1    0    0    0  501 -0.00000000000E+00  0.00000000000E+00  0.13236735079E+02  0.13236735079E+02  0.00000000000E+00 0.  1.
          1   -1    0    0  501    0  0.00000000000E+00 -0.00000000000E+00 -0.91360781535E+03  0.91360781535E+03  0.00000000000E+00 0. -1.
         23    2    1    2    0    0 -0.27479042320E+02  0.21988265765E+02 -0.45729312051E+03  0.47539796590E+03  0.12509055245E+03 0.  0.
          5    1    3    3  502    0  0.22481810977E+02 -0.16197144627E+02 -0.22162196960E+02  0.35726946314E+02  0.41800000000E+01 0. -1.
         -5    1    3    3    0  502 -0.49960853296E+02  0.38185410392E+02 -0.43513092355E+03  0.43967101958E+03  0.41800000000E+01 0. -1.
        -11    1    1    2    0    0 -0.19712950556E+01  0.28214695489E+02 -0.13899992052E+03  0.14184827440E+03  0.00000000000E+00 0. -1.
         11    1    1    2    0    0  0.29450337375E+02 -0.50202961254E+02 -0.30407803923E+03  0.30959831013E+03  0.00000000000E+00 0.  1.
</event>
<event>
 7    1  0.6506388E-006  0.1514849E+03  0.7561462E-02  0.1198660E+00
          2   -1    0    0  501    0  0.00000000000E+00  0.00000000000E+00  0.20347277109E+03  0.20347277109E+03  0.00000000000E+00 0. -1.
         -2   -1    0    0    0  501 -0.00000000000E+00 -0.00000000000E+00 -0.12572326475E+03  0.12572326475E+03  0.00000000000E+00 0.  1.
         23    2    1    2    0    0 -0.23204431912E+02  0.10919991185E+03  0.46785580495E+01  0.16773222027E+03  0.12509653233E+03 0.  0.
          5    1    3    3  502    0 -0.20232642406E+02 -0.25150158489E+02  0.68764737992E+01  0.33266328060E+02  0.41800000000E+01 0. -1.
         -5    1    3    3    0  502 -0.29717895068E+01  0.13435007034E+03 -0.21979157497E+01  0.13446589221E+03  0.41800000000E+01 0. -1.
        -11    1    1    2    0    0 -0.28907558572E+02 -0.39275116134E+02  0.17368270152E+01  0.48797523072E+02  0.00000000000E+00 0.  1.
         11    1    1    2    0    0  0.52111990484E+02 -0.69924795718E+02  0.71334121276E+02  0.11266629250E+03  0.00000000000E+00 0. -1.
</event>
<event>
 7    1  0.6506388E-006  0.1249734E+03  0.7561462E-02  0.1235111E+00
         -1   -1    0    0    0  501 -0.00000000000E+00  0.00000000000E+00  0.24857898958E+03  0.24857898958E+03  0.00000000000E+00 0.  1.
          1   -1    0    0  501    0  0.00000000000E+00 -0.00000000000E+00 -0.11305717665E+03  0.11305717665E+03  0.00000000000E+00 0. -1.
         23    2    1    2    0    0 -0.97677370885E+02  0.91777266917E+01  0.15966633944E+03  0.22530888906E+03  0.12508259707E+03 0.  0.
          5    1    3    3  502    0 -0.37784090445E+02  0.37594253545E+02  0.11930240190E+01  0.53477669140E+02  0.41800000000E+01 0. -1.
         -5    1    3    3    0  502 -0.59893280440E+02 -0.28416526853E+02  0.15847331542E+03  0.17183121992E+03  0.41800000000E+01 0. -1.
        -11    1    1    2    0    0  0.22026709815E+02  0.35809740251E+02 -0.23798260244E+02  0.48310150411E+02  0.00000000000E+00 0.  1.
         11    1    1    2    0    0  0.75650661070E+02 -0.44987466942E+02 -0.34626625741E+00  0.88017126757E+02  0.00000000000E+00 0. -1.
</event>
<event>
 7    1  0.6506388E-006  0.1165161E+03  0.7561462E-02  0.1248958E+00
         -2   -1    0    0    0  501 -0.00000000000E+00  0.00000000000E+00  0.71809830993E+02  0.71809830993E+02  0.00000000000E+00 0.  1.
          2   -1    0    0  501    0  0.00000000000E+00 -0.00000000000E+00 -0.33064291157E+03  0.33064291157E+03  0.00000000000E+00 0. -1.
         23    2    1    2    0    0  0.72766528558E+01 -0.82623496612E+02 -0.45941583196E+02  0.15695673462E+03  0.12508075634E+03 0.  0.
          5    1    3    3  502    0 -0.29858353858E+00 -0.10596901402E+03 -0.66062925323E+02  0.12494520234E+03  0.41800000000E+01 0.  1.
         -5    1    3    3    0  502  0.75752363944E+01  0.23345517412E+02  0.20121342127E+02  0.32011532276E+02  0.41800000000E+01 0.  1.
        -11    1    1    2    0    0  0.26336660480E+02  0.36798713029E+02 -0.16526110949E+03  0.17134467974E+03  0.00000000000E+00 0. -1.
         11    1    1    2    0    0 -0.33613313336E+02  0.45824783583E+02 -0.47630387889E+02  0.74151328203E+02  0.00000000000E+00 0.  1.
</event>
<event>
 7    1  0.6506388E-006  0.2401556E+03  0.7561462E-02  0.1119689E+00
          2   -1    0    0  501    0  0.00000000000E+00  0.00000000000E+00  0.11377909840E+04  0.11377909840E+04  0.00000000000E+00 0.  1.
         -2   -1    0    0    0  501 -0.00000000000E+00 -0.00000000000E+00 -0.53388046665E+02  0.53388046665E+02  0.00000000000E+00 0. -1.
         23    2    1    2    0    0  0.21514607695E+03  0.48647899774E+02  0.58590820138E+03  0.63842833666E+03  0.12509143869E+03 0.  0.
          5    1    3    3  502    0  0.15718926028E+03 -0.19166004347E+02  0.43662442590E+03  0.46447191623E+03  0.41800000000E+01 0. -1.
         -5    1    3    3    0  502  0.57956816667E+02  0.67813904121E+02  0.14928377548E+03  0.17395642044E+03  0.41800000000E+01 0. -1.
        -11    1    1    2    0    0 -0.14948038193E+03 -0.67885304123E+02  0.40399717125E+03  0.43608085658E+03  0.00000000000E+00 0.  1.
         11    1    1    2    0    0 -0.65665695024E+02  0.19237404348E+02  0.94497564718E+02  0.11666983743E+03  0.00000000000E+00 0. -1.
</event>
<event>
 7    1  0.6506388E-006  0.7895555E+02  0.7561462E-02  0.1332042E+00
          1   -1    0    0  501    0  0.00000000000E+00  0.00000000000E+00  0.37899772769E+02  0.37899772769E+02  0.00000000000E+00 0. -1.
         -1   -1    0    0    0  501 -0.00000000000E+00 -0.00000000000E+00 -0.46074288248E+03  0.46074288248E+03  0.00000000000E+00 0.  1.
         23    2    1    2    0    0  0.15876353779E+01  0.52355151519E+02 -0.33851539530E+03  0.36466875359E+03  0.12508814697E+03 0.  0.
          5    1    3    3  502    0 -0.30563694496E+02  0.18623569130E+02 -0.30498806472E+03  0.30710937591E+03  0.41800000000E+01 0. -1.
         -5    1    3    3    0  502  0.32151329874E+02  0.33731582389E+02 -0.33527330579E+02  0.57559377679E+02  0.41800000000E+01 0. -1.
        -11    1    1    2    0    0 -0.27253911017E+02 -0.20071766825E+02 -0.86283258807E+02  0.92684692585E+02  0.00000000000E+00 0.  1.
         11    1    1    2    0    0  0.25666275639E+02 -0.32283384694E+02  0.19555443926E+01  0.41289209079E+02  0.00000000000E+00 0. -1.
</event>
<event>
 7    1  0.6506388E-006  0.1651129E+03  0.7561462E-02  0.1183042E+00
         -2   -1    0    0    0  501 -0.00000000000E+00  0.00000000000E+00  0.33166147469E+02  0.33166147469E+02  0.00000000000E+00 0.  1.
          2   -1    0    0  501    0  0.00000000000E+00 -0.00000000000E+00 -0.89359262092E+03  0.89359262092E+03  0.00000000000E+00 0. -1.
         23    2    1    2    0    0 -0.32221298298E+02  0.12371143596E+03 -0.36367461952E+03  0.40527924688E+03  0.12509719268E+03 0.  0.
          5    1    3    3  502    0  0.41196659479E+02  0.84075214177E+02 -0.21913961472E+03  0.23833893834E+03  0.41800000000E+01 0. -1.
         -5    1    3    3    0  502 -0.73417957777E+02  0.39636221787E+02 -0.14453500481E+03  0.16694030854E+03  0.41800000000E+01 0. -1.
        -11    1    1    2    0    0  0.52043216508E+02 -0.36586125043E+02 -0.27793689097E+03  0.28512445755E+03  0.00000000000E+00 0.  1.
         11    1    1    2    0    0 -0.19821918210E+02 -0.87125310920E+02 -0.21881496295E+03  0.23635506395E+03  0.00000000000E+00 0. -1.
</event>
<event>
 7    1  0.6506388E-006  0.1029608E+03  0.7561462E-02  0.1274190E+00
          1   -1    0    0  501    0  0.00000000000E+00  0.00000000000E+00  0.24621254249E+03  0.24621254249E+03  0.00000000000E+00 0. -1.
         -1   -1    0    0    0  501 -0.00000000000E+00 -0.00000000000E+00 -0.46111212935E+02  0.46111212935E+02  0.00000000000E+00 0.  1.
         23    2    1    2    0    0 -0.99565117936E+01 -0.30625023590E+02  0.96348557717E+02  0.14976364996E+03  0.11004127443E+03 0.  0.
          5    1    3    3  502    0  0.35117844235E+02 -0.51068219363E+02  0.36728026516E+02  0.72164023893E+02  0.41800000000E+01 0. -1.
         -5    1    3    3    0  502 -0.45074356029E+02  0.20443195773E+02  0.59620531201E+02  0.77599626066E+02  0.41800000000E+01 0.  1.
        -11    1    1    2    0    0 -0.13491612104E+02  0.57155379591E+02  0.45088278023E+02  0.74038596883E+02  0.00000000000E+00 0.  1.
         11    1    1    2    0    0  0.23448123898E+02 -0.26530356001E+02  0.58664493814E+02  0.68521508581E+02  0.00000000000E+00 0. -1.
</event>
<event>
 7    1  0.1159913E-005  0.8198801E+02  0.7561462E-02  0.1323503E+00
         -1   -1    0    0    0  501 -0.00000000000E+00  0.00000000000E+00  0.97387431606E+02  0.97387431606E+02  0.00000000000E+00 0.  1.
          1   -1    0    0  501    0  0.00000000000E+00 -0.00000000000E+00 -0.13418828845E+03  0.13418828845E+03  0.00000000000E+00 0. -1.
         23    2    1    2    0    0 -0.33647334974E+02  0.12193524946E+02 -0.17060682947E+02  0.13122381200E+03  0.12509115369E+03 0.  0.
          5    1    3    3  502    0  0.10623016859E+02  0.36398420238E+02  0.39773478606E+02  0.55109849242E+02  0.41800000000E+01 0.  1.
         -5    1    3    3    0  502 -0.44270351832E+02 -0.24204895293E+02 -0.56834161553E+02  0.76113962760E+02  0.41800000000E+01 0.  1.
        -11    1    1    2    0    0 -0.59046896910E+01 -0.30892497796E+02 -0.41029513695E+02  0.51697512266E+02  0.00000000000E+00 0. -1.
         11    1    1    2    0    0  0.39552024665E+02  0.18698972850E+02  0.21289339797E+02  0.48654395790E+02  0.00000000000E+00 0.  1.
</event>
<event>
 7    1  0.6506388E-006  0.2080085E+03  0.7561462E-02  0.1143153E+00
         -2   -1    0    0    0  501 -0.00000000000E+00  0.00000000000E+00  0.32307659715E+02  0.32307659715E+02  0.00000000000E+00 0.  1.
          2   -1    0    0  501    0  0.00000000000E+00 -0.00000000000E+00 -0.17535034735E+04  0.17535034735E+04  0.00000000000E+00 0. -1.
         23    2    1    2    0    0 -0.11068917256E+03 -0.16547575838E+03 -0.11573849420E+04  0.11810257123E+04  0.12509000600E+03 0.  0.
          5    1    3    3  502    0 -0.53390787213E+01 -0.51439977168E+02 -0.60507056521E+03  0.60729106555E+03  0.41800000000E+01 0. -1.
         -5    1    3    3    0  502 -0.10535009384E+03 -0.11403578121E+03 -0.55231437681E+03  0.57373464677E+03  0.41800000000E+01 0. -1.
        -11    1    1    2    0    0  0.38208005151E+02  0.11315790992E+03 -0.22934510433E+03  0.25858024116E+03  0.00000000000E+00 0.  1.
         11    1    1    2    0    0  0.72481167406E+02  0.52317848455E+02 -0.33446576740E+03  0.34620517971E+03  0.00000000000E+00 0. -1.
</event>
<event>
 7    1  0.6506388E-006  0.9934673E+02  0.7561462E-02  0.1281676E+00
          4   -1    0    0  501    0  0.00000000000E+00  0.00000000000E+00  0.24578345715E+03  0.24578345715E+03  0.00000000000E+00 0. -1.
         -4   -1    0    0    0  501 -0.00000000000E+00 -0.00000000000E+00 -0.72391203467E+02  0.72391203467E+02  0.00000000000E+00 0.  1.
         23    2    1    2    0    0  0.23332766194E+01 -0.65506779446E+02  0.48042801613E+02  0.14917303722E+03  0.12509157411E+03 0.  0.
          5    1    3    3  502    0 -0.17616286832E+02 -0.78177337347E+02 -0.15071520819E+02  0.81649573032E+02  0.41800000000E+01 0.  1.
         -5    1    3    3    0  502  0.19949563452E+02  0.12670557901E+02  0.63114322433E+02  0.67523464185E+02  0.41800000000E+01 0.  1.
        -11    1    1    2    0    0 -0.35164719073E+02  0.32233409773E+02  0.16392113926E+02  0.50440574660E+02  0.00000000000E+00 0.  1.
         11    1    1    2    0    0  0.32831442454E+02  0.33273369673E+02  0.10895733814E+03  0.11856104874E+03  0.00000000000E+00 0. -1.
</event>
<event>
 7    1  0.6506388E-006  0.1059784E+03  0.7561462E-02  0.1268204E+00
          1   -1    0    0  501    0  0.00000000000E+00  0.00000000000E+00  0.65406965596E+02  0.65406965596E+02  0.00000000000E+00 0. -1.
         -1   -1    0    0    0  501 -0.00000000000E+00 -0.00000000000E+00 -0.24024515227E+03  0.24024515227E+03  0.00000000000E+00 0.  1.
         23    2    1    2    0    0 -0.52388114065E+02 -0.12118376123E+02 -0.13584233741E+03  0.19233269029E+03  0.12508938239E+03 0.  0.
          5    1    3    3  502    0 -0.57235075170E+02  0.39835787324E+02 -0.11781363228E+03  0.13696812816E+03  0.41800000000E+01 0. -1.
         -5    1    3    3    0  502  0.48469611046E+01 -0.51954163446E+02 -0.18028705132E+02  0.55364562132E+02  0.41800000000E+01 0. -1.
        -11    1    1    2    0    0  0.47906631486E+02 -0.23842832862E+02 -0.52194322926E+02  0.74751410455E+02  0.00000000000E+00 0.  1.
         11    1    1    2    0    0  0.44814825793E+01  0.35961208985E+02  0.13198473658E+02  0.38568017121E+02  0.00000000000E+00 0. -1.
</event>
<event>
 7    1  0.6506388E-006  0.8906498E+02  0.7561462E-02  0.1305132E+00
          1   -1    0    0  501    0  0.00000000000E+00  0.00000000000E+00  0.23930517180E+03  0.23930517180E+03  0.00000000000E+00 0. -1.
         -1   -1    0    0    0  501 -0.00000000000E+00 -0.00000000000E+00 -0.77015819342E+02  0.77015819342E+02  0.00000000000E+00 0.  1.
         23    2    1    2    0    0 -0.69612466425E+02  0.26614207982E+02  0.75119308952E+02  0.16379787931E+03  0.12503048885E+03 0.  0.
          5    1    3    3  502    0 -0.44060357386E+02 -0.18709206847E+02 -0.22532369220E+02  0.53070986202E+02  0.41800000000E+01 0. -1.
         -5    1    3    3    0  502 -0.25552109040E+02  0.45323414829E+02  0.97651678173E+02  0.11072689311E+03  0.41800000000E+01 0. -1.
        -11    1    1    2    0    0  0.48300312693E+02 -0.67899284886E+01  0.10680328732E+03  0.11741365132E+03  0.00000000000E+00 0. -1.
         11    1    1    2    0    0  0.21312153733E+02 -0.19824279493E+02 -0.19633243814E+02  0.35109460503E+02  0.00000000000E+00 0.  1.
</event>
<event>
 7    1  0.6506388E-006  0.1191955E+03  0.7561462E-02  0.1244430E+00
         -2   -1    0    0    0  501 -0.00000000000E+00  0.00000000000E+00  0.16580487845E+03  0.16580487845E+03  0.00000000000E+00 0.  1.
          2   -1    0    0  501    0  0.00000000000E+00 -0.00000000000E+00 -0.90557778818E+02  0.90557778818E+02  0.00000000000E+00 0. -1.
         23    2    1    2    0    0  0.58846613784E+02 -0.11303242971E+02  0.60239789617E+02  0.15121576082E+03  0.12508671717E+03 0.  0.
          5    1    3    3  502    0  0.43389248422E+02  0.52848347634E+02  0.12436755088E+02  0.69625570041E+02  0.41800000000E+01 0.  1.
         -5    1    3    3    0  502  0.15457365362E+02 -0.64151590605E+02  0.47803034529E+02  0.81590190779E+02  0.41800000000E+01 0.  1.
        -11    1    1    2    0    0 -0.77038706064E+02 -0.77431301903E+01  0.14680810365E+02  0.78806373410E+02  0.00000000000E+00 0. -1.
         11    1    1    2    0    0  0.18192092280E+02  0.19046373161E+02  0.32649965381E+00  0.26340523042E+02  0.00000000000E+00 0.  1.
</event>
<event>
 7    1  0.6506388E-006  0.1914969E+03  0.7561462E-02  0.1157118E+00
         -2   -1    0    0    0  501 -0.00000000000E+00  0.00000000000E+00  0.39822382063E+02  0.39822382063E+02  0.00000000000E+00 0.  1.
          2   -1    0    0  501    0  0.00000000000E+00 -0.00000000000E+00 -0.99879663833E+03  0.99879663833E+03  0.00000000000E+00 0. -1.
         23    2    1    2    0    0 -0.15535290073E+03 -0.61883045227E+02 -0.47670473177E+03  0.52044177083E+03  0.12509276752E+03 0.  0.
          5    1    3    3  502    0 -0.13340992909E+02  0.25426385180E+02 -0.15906643498E+03  0.16169133029E+03  0.41800000000E+01 0. -1.
         -5    1    3    3    0  502 -0.14201190782E+03 -0.87309430407E+02 -0.31763829679E+03  0.35875044054E+03  0.41800000000E+01 0. -1.
        -11    1    1    2    0    0  0.12147560185E+03  0.83161900259E+02 -0.34257288466E+03  0.37286512951E+03  0.00000000000E+00 0.  1.
         11    1    1    2    0    0  0.33877298877E+02 -0.21278855032E+02 -0.13969663984E+03  0.14531212005E+03  0.00000000000E+00 0. -1.
</event>
<event>
 7    1  0.6506388E-006  0.1054822E+03  0.7561462E-02  0.1269172E+00
          1   -1    0    0  501    0  0.00000000000E+00  0.00000000000E+00  0.18697520605E+03  0.18697520605E+03  0.00000000000E+00 0. -1.
         -1   -1    0    0    0  501 -0.00000000000E+00 -0.00000000000E+00 -0.74907796921E+02  0.74907796921E+02  0.00000000000E+00 0.  1.
         23    2    1    2    0    0 -0.31263795909E+02 -0.69067387309E+01  0.25118187948E+02  0.13154602636E+03  0.12509318811E+03 0.  0.
          5    1    3    3  502    0 -0.20399554547E+02 -0.58931199863E+02 -0.15652284401E+02  0.64432092546E+02  0.41800000000E+01 0. -1.
         -5    1    3    3    0  502 -0.10864241362E+02  0.52024461132E+02  0.40770472348E+02  0.67113933814E+02  0.41800000000E+01 0. -1.
        -11    1    1    2    0    0 -0.29525312569E+02  0.16166108612E+02  0.43694617866E+02  0.55157109972E+02  0.00000000000E+00 0.  1.
         11    1    1    2    0    0  0.60789108478E+02 -0.92593698812E+01  0.43254603320E+02  0.75179866643E+02  0.00000000000E+00 0. -1.
</event>
<event>
 7    1  0.6506388E-006  0.1103425E+03  0.7561462E-02  0.1259937E+00
          1   -1    0    0  501    0  0.00000000000E+00  0.00000000000E+00  0.17810526230E+02  0.17810526230E+02  0.00000000000E+00 0. -1.
         -1   -1    0    0    0  501 -0.00000000000E+00 -0.00000000000E+00 -0.71504487917E+03  0.71504487917E+03  0.00000000000E+00 0.  1.
         23    2    1    2    0    0 -0.20388449828E+02  0.15925970295E+02 -0.45665400080E+03  0.47418379962E+03  0.12509226178E+03 0.  0.
          5    1    3    3  502    0  0.42585994908E+02  0.39540587045E+02 -0.16967128811E+03  0.17939577307E+03  0.41800000000E+01 0. -1.
         -5    1    3    3    0  502 -0.62974444736E+02 -0.23614616750E+02 -0.28698271269E+03  0.29478802655E+03  0.41800000000E+01 0. -1.
        -11    1    1    2    0    0 -0.31111689862E+02 -0.28314618439E+02 -0.10596497195E+03  0.11400978091E+03  0.00000000000E+00 0. -1.
         11    1    1    2    0    0  0.51500139689E+02  0.12388648143E+02 -0.13461538019E+03  0.14466182487E+03  0.00000000000E+00 0.  1.
</event>
<event>
 7    1  0.6506388E-006  0.1437763E+03  0.7561462E-02  0.1208336E+00
          2   -1    0    0  501    0  0.00000000000E+00  0.00000000000E+00  0.26161421983E+03  0.26161421983E+03  0.00000000000E+00 0. -1.
         -2   -1    0    0    0  501 -0.00000000000E+00 -0.00000000000E+00 -0.12196717349E+03  0.12196717349E+03  0.00000000000E+00 0.  1.
         23    2    1    2    0    0 -0.79071070564E+02 -0.10661704534E+03  0.21311610688E+02  0.18363802811E+03  0.12509721045E+03 0.  0.
          5    1    3    3  502    0 -0.29294488161E+01 -0.45071533081E+02 -0.46117345827E+02  0.64686217626E+02  0.41800000000E+01 0. -1.
         -5    1    3    3    0  502 -0.76141621748E+02 -0.61545512260E+02  0.67428956515E+02  0.11895181049E+03  0.41800000000E+01 0. -1.
        -11    1    1    2    0    0  0.29921714528E+02  0.85718586177E+02  0.11487775728E+03  0.14642364609E+03  0.00000000000E+00 0.  1.
         11    1    1    2    0    0  0.49149356036E+02  0.20898459164E+02  0.34576783747E+01  0.53519719113E+02  0.00000000000E+00 0. -1.
</event>
<event>
 7    1  0.6506388E-006  0.1114557E+03  0.7561462E-02  0.1257898E+00
          1   -1    0    0  501    0  0.00000000000E+00  0.00000000000E+00  0.71485361039E+03  0.71485361039E+03  0.00000000000E+00 0. -1.
         -1   -1    0    0    0  501 -0.00000000000E+00 -0.00000000000E+00 -0.20954102244E+02  0.20954102244E+02  0.00000000000E+00 0.  1.
         23    2    1    2    0    0 -0.16143125142E+02 -0.20220370553E+02  0.24012865340E+03  0.27198888582E+03  0.12508684965E+03 0.  0.
          5    1    3    3  502    0 -0.15306972225E+02  0.52462695388E+02  0.10892595637E+03  0.12193840321E+03  0.41800000000E+01 0.  1.
         -5    1    3    3    0  502 -0.83615291699E+00 -0.72683065941E+02  0.13120269702E+03  0.15005048261E+03  0.41800000000E+01 0.  1.
        -11    1    1    2    0    0  0.64450329459E+00  0.56155240927E+02  0.23877918064E+03  0.24529436107E+03  0.00000000000E+00 0.  1.
         11    1    1    2    0    0  0.15498621848E+02 -0.35934870374E+02  0.21499167411E+03  0.21852446574E+03  0.00000000000E+00 0. -1.
</event>
<event>
 7    1  0.6506388E-006  0.9647155E+02  0.7561462E-02  0.1287896E+00
         -2   -1    0    0    0  501 -0.00000000000E+00  0.00000000000E+00  0.36590361426E+03  0.36590361426E+03  0.00000000000E+00 0.  1.
          2   -1    0    0  501    0  0.00000000000E+00 -0.00000000000E+00 -0.58909868214E+02  0.58909868214E+02  0.00000000000E+00 0. -1.
         23    2    1    2    0    0 -0.29452551242E+02 -0.15461645954E+02  0.30215055424E+03  0.32871117201E+03  0.12509820905E+03 0.  0.
          5    1    3    3  502    0 -0.64253045282E+02 -0.46847428253E+01  0.27655855360E+03  0.28399384961E+03  0.41800000000E+01 0. -1.
         -5    1    3    3    0  502  0.34800494040E+02 -0.10776903129E+02  0.25592000637E+02  0.44717322405E+02  0.41800000000E+01 0. -1.
        -11    1    1    2    0    0  0.49477305105E+02  0.37391446410E+02 -0.10138453677E+02  0.62840371005E+02  0.00000000000E+00 0.  1.
         11    1    1    2    0    0 -0.20024753863E+02 -0.21929800456E+02  0.14981645489E+02  0.33261939463E+02  0.00000000000E+00 0. -1.
</event>
<event>
 7    1  0.6506388E-006  0.1454599E+03  0.7561462E-02  0.1206166E+00
          2   -1    0    0  501    0  0.00000000000E+00  0.00000000000E+00  0.16634399980E+03  0.16634399980E+03  0.00000000000E+00 0. -1.
         -2   -1    0    0    0  501 -0.00000000000E+00 -0.00000000000E+00 -0.19653300801E+03  0.19653300801E+03  0.00000000000E+00 0.  1.
         23    2    1    2    0    0  0.74144086038E+02  0.10833213176E+03 -0.78953513349E+02  0.19776944513E+03  0.12508357163E+03 0.  0.
          5    1    3    3  502    0  0.46400339159E+01 -0.15732210922E+02  0.18690809958E+02  0.25216089152E+02  0.41800000000E+01 0. -1.
         -5    1    3    3    0  502  0.69504052122E+02  0.12406434268E+03 -0.97644323307E+02  0.17255335598E+03  0.41800000000E+01 0. -1.
        -11    1    1    2    0    0 -0.56987162600E+02 -0.74553984278E+02 -0.10859000599E+02  0.94465608382E+02  0.00000000000E+00 0.  1.
         11    1    1    2    0    0 -0.17156923437E+02 -0.33778147480E+02  0.59623505741E+02  0.70641954290E+02  0.00000000000E+00 0. -1.
</event>
<event>
 7    1  0.6506388E-006  0.1203786E+03  0.7561462E-02  0.1242474E+00
          1   -1    0    0  501    0  0.00000000000E+00  0.00000000000E+00  0.74433647546E+03  0.74433647546E+03  0.00000000000E+00 0. -1.
         -1   -1    0    0    0  501 -0.00000000000E+00 -0.00000000000E+00 -0.21728100225E+02  0.21728100225E+02  0.00000000000E+00 0.  1.
         23    2    1    2    0    0 -0.56544715520E+02 -0.28828420725E+02  0.40610650435E+03  0.42964785832E+03  0.12508559704E+03 0.  0.
          5    1    3    3  502    0  0.17243874686E+02 -0.48303912742E+02  0.25692014797E+03  0.26202300287E+03  0.41800000000E+01 0.  1.
         -5    1    3    3    0  502 -0.73788590207E+02  0.19475492017E+02  0.14918635637E+03  0.16762485544E+03  0.41800000000E+01 0.  1.
        -11    1    1    2    0    0 -0.25695304677E+02  0.14131192886E+02  0.10484493790E+03  0.10886872966E+03  0.00000000000E+00 0. -1.
         11    1    1    2    0    0  0.82240020197E+02  0.14697227840E+02  0.21165693299E+03  0.22754798771E+03  0.00000000000E+00 0.  1.
</event>
<event>
 6    1  0.6506388E-006  0.1927470E+03  0.7561462E-02  0.1156007E+00
          2   -1    0    0  501    0  0.00000000000E+00  0.00000000000E+00  0.29666227514E+02  0.29666227514E+02  0.00000000000E+00 0. -1.
         -2   -1    0    0    0  501 -0.00000000000E+00 -0.00000000000E+00 -0.13205338658E+04  0.13205338658E+04  0.00000000000E+00 0.  1.
          5    1    1    2  502    0  0.13579695670E+03 -0.87284370438E+02 -0.50227613098E+03  0.52759658729E+03  0.41800000000E+01 0. -1.
         -5    1    1    2    0  502 -0.11166287700E+03  0.22197442734E+02 -0.47732993033E+03  0.49073685347E+03  0.41800000000E+01 0.  1.
        -11    1    1    2    0    0  0.13791937226E+02  0.70446036589E+02 -0.15250095266E+03  0.16855088895E+03  0.00000000000E+00 0. -1.
         11    1    1    2    0    0 -0.37926016925E+02 -0.53591088849E+01 -0.15876062429E+03  0.16331576358E+03  0.00000000000E+00 0.  1.
</event>
<event>
 7    1  0.6506388E-006  0.2247380E+03  0.7561462E-02  0.1130399E+00
          2   -1    0    0  501    0  0.00000000000E+00  0.00000000000E+00  0.12787582356E+03  0.12787582356E+03  0.00000000000E+00 0. -1.
         -2   -1    0    0    0  501 -0.00000000000E+00 -0.00000000000E+00 -0.47958956581E+03  0.47958956581E+03  0.00000000000E+00 0.  1.
         23    2    1    2    0    0 -0.38128977604E+02  0.19643463124E+03 -0.30041740918E+03  0.38201847014E+03  0.12508840276E+03 0.  0.
          5    1    3    3  502    0  0.23829055927E+02 -0.45669951586E+01 -0.43222948166E+02  0.49743110069E+02  0.41800000000E+01 0. -1.
         -5    1    3    3    0  502 -0.61958033532E+02  0.20100162640E+03 -0.25719446101E+03  0.33227536007E+03  0.41800000000E+01 0. -1.
        -11    1    1    2    0    0 -0.20987877828E+02 -0.93043777434E+02 -0.46847333654E+02  0.10626527281E+03  0.00000000000E+00 0.  1.
         11    1    1    2    0    0  0.59116855432E+02 -0.10339085381E+03 -0.44489994175E+01  0.11918164642E+03  0.00000000000E+00 0. -1.
</event>
<event>
 7    1  0.6506388E-006  0.1562923E+03  0.7561462E-02  0.1192947E+00
         -2   -1    0    0    0  501 -0.00000000000E+00  0.00000000000E+00  0.12061947266E+03  0.12061947266E+03  0.00000000000E+00 0.  1.
          2   -1    0    0  501    0  0.00000000000E+00 -0.00000000000E+00 -0.30090236136E+03  0.30090236136E+03  0.00000000000E+00 0. -1.
         23    2    1    2    0    0  0.82885040332E+02 -0.12427360049E+03 -0.49281576559E+02  0.20097419323E+03  0.12509234536E+03 0.  0.
          5    1    3    3  502    0  0.62250110543E+02 -0.12733541248E+03  0.58095577054E+01  0.14191760601E+03  0.41800000000E+01 0.  1.
         -5    1    3    3    0  502  0.20634929789E+02  0.30618119871E+01 -0.55091134264E+02  0.59056587224E+02  0.41800000000E+01 0.  1.
        -11    1    1    2    0    0 -0.47991686887E+02  0.66315468222E+02 -0.12910555276E+03  0.15286983708E+03  0.00000000000E+00 0. -1.
         11    1    1    2    0    0 -0.34893353444E+02  0.57958132271E+02 -0.18957593867E+01  0.67677803707E+02  0.00000000000E+00 0.  1.
</event>
<event>
 7    1  0.6506388E-006  0.8252992E+02  0.7561462E-02  0.1322021E+00
         -1   -1    0    0    0  501 -0.00000000000E+00  0.00000000000E+00  0.25675714527E+03  0.25675714527E+03  0.00000000000E+00 0.  1.
          1   -1    0    0  501    0  0.00000000000E+00 -0.00000000000E+00 -0.63735284485E+02  0.63735284485E+02  0.00000000000E+00 0. -1.
         23    2    1    2    0    0  0.54925887552E+02  0.57313038679E+01  0.15636279276E+03  0.20771667415E+03  0.12508873967E+03 0.  0.
          5    1    3    3  502    0  0.32223188722E+01  0.35012658731E+02 -0.49546324996E+01  0.35753187180E+02  0.41800000000E+01 0.  1.
         -5    1    3    3    0  502  0.51703568679E+02 -0.29281354863E+02  0.16131742526E+03  0.17196348696E+03  0.41800000000E+01 0.  1.
        -11    1    1    2    0    0 -0.46355273692E+02 -0.22293218344E+02  0.62477268672E+02  0.80927177660E+02  0.00000000000E+00 0.  1.
         11    1    1    2    0    0 -0.85706138591E+01  0.16561914476E+02 -0.25818200645E+02  0.31848577952E+02  0.00000000000E+00 0. -1.
</event>
<event>
 7    1  0.6506388E-006  0.1448837E+03  0.7561462E-02  0.1206905E+00
         -1   -1    0    0    0  501 -0.00000000000E+00  0.00000000000E+00  0.18861316697E+03  0.18861316697E+03  0.00000000000E+00 0.  1.
          1   -1    0    0  501    0  0.00000000000E+00 -0.00000000000E+00 -0.13924753420E+03  0.13924753420E+03  0.00000000000E+00 0. -1.
         23    2    1    2    0    0 -0.77194322902E+02 -0.68862014929E+02  0.89776689273E+02  0.18549444753E+03  0.12508955008E+03 0.  0.
          5    1    3    3  502    0 -0.30250946625E+02 -0.10036505126E+03  0.66523738292E+02  0.12422215359E+03  0.41800000000E+01 0.  1.
         -5    1    3    3    0  502 -0.46943376277E+02  0.31503036335E+02  0.23252950982E+02  0.61272293934E+02  0.41800000000E+01 0.  1.
        -11    1    1    2    0    0  0.14325112642E+02 -0.16694919172E+02 -0.27795218616E+02  0.35447191092E+02  0.00000000000E+00 0. -1.
         11    1    1    2    0    0  0.62869210260E+02  0.85556934100E+02 -0.12615837884E+02  0.10691906255E+03  0.00000000000E+00 0.  1.
</event>
<event>
 7    1  0.6506388E-006  0.8114370E+02  0.7561462E-02  0.1325837E+00
         -1   -1    0    0    0  501 -0.00000000000E+00  0.00000000000E+00  0.32179752052E+02  0.32179752052E+02  0.00000000000E+00 0.  1.
          1   -1    0    0  501    0  0.00000000000E+00 -0.00000000000E+00 -0.55851404437E+03  0.55851404437E+03  0.00000000000E+00 0. -1.
         23    2    1    2    0    0 -0.52962004116E+02 -0.20275867269E+02 -0.17055246255E+03  0.21898105287E+03  0.12509386221E+03 0.  0.
          5    1    3    3  502    0  0.99362557506E-01 -0.16226350889E+02  0.17065846467E+02  0.23916936504E+02  0.41800000000E+01 0. -1.
         -5    1    3    3    0  502 -0.53061366673E+02 -0.40495163794E+01 -0.18761830901E+03  0.19506411637E+03  0.41800000000E+01 0. -1.
        -11    1    1    2    0    0  0.35715111056E+02 -0.25070498988E+02 -0.75000498630E+02  0.86770812327E+02  0.00000000000E+00 0.  1.
         11    1    1    2    0    0  0.17246893060E+02  0.45346366256E+02 -0.28078133114E+03  0.28494193122E+03  0.00000000000E+00 0. -1.
</event>
<event>
 7    1  0.6506388E-006  0.3360517E+03  0.7561462E-02  0.1068490E+00
          2   -1    0    0  501    0  0.00000000000E+00  0.00000000000E+00  0.42799889218E+03  0.42799889218E+03  0.00000000000E+00 0. -1.
         -2   -1    0    0    0  501 -0.00000000000E+00 -0.00000000000E+00 -0.33979845652E+03  0.33979845652E+03  0.00000000000E+00 0.  1.
         23    2    1    2    0    0 -0.16646863640E+03 -0.27984059078E+03 -0.12212578232E+03  0.36957417607E+03  0.12509117378E+03 0.  0.
          5    1    3    3  502    0 -0.17945821491E+03 -0.23926252751E+03 -0.12983030798E+03  0.32607543489E+03  0.41800000000E+01 0. -1.
         -5    1    3    3    0  502  0.12989578508E+02 -0.40578063272E+02  0.77045256612E+01  0.43498741182E+02  0.41800000000E+01 0. -1.
        -11    1    1    2    0    0  0.66970605273E+02  0.16591054445E+03  0.15639324984E+03  0.23763463410E+03  0.00000000000E+00 0.  1.
         11    1    1    2    0    0  0.99498031128E+02  0.11393004634E+03  0.53932968143E+02  0.16058853854E+03  0.00000000000E+00 0. -1.
</event>
<event>
 7    1  0.6506388E-006  0.1747364E+03  0.7561462E-02  0.1172997E+00
          2   -1    0    0  501    0  0.00000000000E+00  0.00000000000E+00  0.33201007585E+03  0.33201007585E+03  0.00000000000E+00 0.  1.
         -2   -1    0    0    0  501 -0.00000000000E+00 -0.00000000000E+00 -0.17884299199E+03  0.17884299199E+03  0.00000000000E+00 0. -1.
         23    2    1    2    0    0  0.15026068480E+03  0.54239231817E+02 -0.75892189355E+02  0.21662624052E+03  0.12508851271E+03 0.  0.
          5    1    3    3  502    0  0.55657086465E+02 -0.28751256646E+02  0.10863520657E+02  0.63716830693E+02  0.41800000000E+01 0. -1.
         -5    1    3    3    0  502  0.94603598334E+02  0.82990488463E+02 -0.86755710011E+02  0.15290940982E+03  0.41800000000E+01 0. -1.
        -11    1    1    2    0    0 -0.70521132686E+02 -0.15879567759E+02  0.17787674391E+03  0.19200397613E+03  0.00000000000E+00 0.  1.
         11    1    1    2    0    0 -0.79739552113E+02 -0.38359664058E+02  0.51182529309E+02  0.10222285118E+03  0.00000000000E+00 0. -1.
</event>
<event>
 7    1  0.6506388E-006  0.3192403E+03  0.7561462E-02  0.1075999E+00
         -2   -1    0    0    0  501 -0.00000000000E+00  0.00000000000E+00  0.18587301763E+03  0.18587301763E+03  0.00000000000E+00 0.  1.
          2   -1    0    0  501    0  0.00000000000E+00 -0.00000000000E+00 -0.62490385516E+03  0.62490385516E+03  0.00000000000E+00 0. -1.
         23    2    1    2    0    0 -0.30195746946E+02 -0.30051495646E+03 -0.87101127481E+02  0.33831280336E+03  0.12509166368E+03 0.  0.
          5    1    3    3  502    0 -0.56866808297E+02 -0.28843468166E+03 -0.64294515719E+02  0.30096454379E+03  0.41800000000E+01 0. -1.
         -5    1    3    3    0  502  0.26671061351E+02 -0.12080274803E+02 -0.22806611762E+02  0.37348259571E+02  0.41800000000E+01 0. -1.
        -11    1    1    2    0    0 -0.19515747897E+02  0.21567651957E+03 -0.25204169219E+03  0.33229842027E+03  0.00000000000E+00 0. -1.
         11    1    1    2    0    0  0.49711494843E+02  0.84838436885E+02 -0.99888017860E+02  0.14016564916E+03  0.00000000000E+00 0.  1.
</event>
<event>
 7    1  0.6506388E-006  0.1053260E+03  0.7561462E-02  0.1269479E+00
         -4   -1    0    0    0  501 -0.00000000000E+00  0.00000000000E+00  0.49529669352E+02  0.49529669352E+02  0.00000000000E+00 0.  1.
          4   -1    0    0  501    0  0.00000000000E+00 -0.00000000000E+00 -0.28141681376E+03  0.28141681376E+03  0.00000000000E+00 0. -1.
         23    2    1    2    0    0 -0.29928407703E+02  0.82812909069E+01 -0.81308167378E+02  0.15238715097E+03  0.12508611566E+03 0.  0.
          5    1    3    3  502    0  0.38815594975E+02  0.35063976643E+02 -0.48793182056E+02  0.71654587338E+02  0.41800000000E+01 0. -1.
         -5    1    3    3    0  502 -0.68744002678E+02 -0.26782685737E+02 -0.32514985322E+02  0.80732563628E+02  0.41800000000E+01 0. -1.
        -11    1    1    2    0    0  0.56733038919E+02 -0.91346387422E+01 -0.13686324665E+03  0.14843728512E+03  0.00000000000E+00 0. -1.
         11    1    1    2    0    0 -0.26804631217E+02  0.85334783534E+00 -0.13715730376E+02  0.30122047024E+02  0.00000000000E+00 0.  1.
</event>
<event>
 7    1  0.6506388E-006  0.1063988E+03  0.7561462E-02  0.1267388E+00
         -3   -1    0    0    0  501 -0.00000000000E+00  0.00000000000E+00  0.89960557577E+02  0.89960557577E+02  0.00000000000E+00 0.  1.
          3   -1    0    0  501    0  0.00000000000E+00 -0.00000000000E+00 -0.24371251801E+03  0.24371251801E+03  0.00000000000E+00 0. -1.
         23    2    1    2    0    0 -0.80708100161E+01 -0.54520286955E+02  0.11939106121E+02  0.13720056450E+03  0.12507538919E+03 0.  0.
          5    1    3    3  502    0  0.38615295119E+02 -0.49428471141E+02 -0.33917522834E+02  0.71429584429E+02  0.41800000000E+01 0.  1.
         -5    1    3    3    0  502 -0.46686105135E+02 -0.50918158142E+01  0.45856628955E+02  0.65770980075E+02  0.41800000000E+01 0.  1.
        -11    1    1    2    0    0 -0.39017242985E+02  0.32607041323E+02 -0.59549448844E+02  0.78305180235E+02  0.00000000000E+00 0.  1.
         11    1    1    2    0    0  0.47088053001E+02  0.21913245632E+02 -0.10614161771E+03  0.11816733084E+03  0.00000000000E+00 0. -1.
</event>
<event>
 7    1  0.6506388E-006  0.1124529E+03  0.7561462E-02  0.1256094E+00
         -1   -1    0    0    0  501 -0.00000000000E+00  0.00000000000E+00  0.54392838755E+02  0.54392838755E+02  0.00000000000E+00 0.  1.
          1   -1    0    0  501    0  0.00000000000E+00 -0.00000000000E+00 -0.27778035792E+03  0.27778035792E+03  0.00000000000E+00 0. -1.
         23    2    1    2    0    0 -0.24006245662E+02  0.33241263584E+02 -0.72264193733E+02  0.15016923361E+03  0.12508958227E+03 0.  0.
          5    1    3    3  502    0  0.20333379938E+02 -0.35887090379E+02 -0.50046432651E+02  0.64988055954E+02  0.41800000000E+01 0.  1.
         -5    1    3    3    0  502 -0.44339625600E+02  0.69128353963E+02 -0.22217761083E+02  0.85181177660E+02  0.41800000000E+01 0.  1.
        -11    1    1    2    0    0  0.32415342697E+02 -0.62697688740E+02 -0.11065356687E+03  0.13124772942E+03  0.00000000000E+00 0.  1.
         11    1    1    2    0    0 -0.84090970350E+01  0.29456425156E+02 -0.40469758558E+02  0.50756233643E+02  0.00000000000E+00 0. -1.
</event>
<event>
 7    1  0.6506388E-006  0.1469176E+03  0.7561462E-02  0.1204313E+00
         -2   -1    0    0    0  501 -0.00000000000E+00  0.00000000000E+00  0.34634509418E+03  0.34634509418E+03  0.00000000000E+00 0.  1.
          2   -1    0    0  501    0  0.00000000000E+00 -0.00000000000E+00 -0.79777645398E+02  0.79777645398E+02  0.00000000000E+00 0. -1.
         23    2    1    2    0    0 -0.88789970145E+02 -0.66210578551E+02  0.69790393285E+02  0.18107065779E+03  0.12509350346E+03 0.  0.
          5    1    3    3  502    0  0.29449902860E+02  0.20012442403E+01  0.63259990283E+01  0.30476095890E+02  0.41800000000E+01 0. -1.
         -5    1    3    3    0  502 -0.11823987301E+03 -0.68211822792E+02  0.63464394257E+02  0.15059456190E+03  0.41800000000E+01 0. -1.
        -11    1    1    2    0    0 -0.57698393323E+01  0.22595544707E+02  0.10070687893E+03  0.10337178120E+03  0.00000000000E+00 0.  1.
         11    1    1    2    0    0  0.94559809478E+02  0.43615033844E+02  0.96070176569E+02  0.14168030058E+03  0.00000000000E+00 0. -1.
</event>
<event>
 7    1  0.6506388E-006  0.3367993E+03  0.7561462E-02  0.1068167E+00
          2   -1    0    0  501    0  0.00000000000E+00  0.00000000000E+00  0.12026361764E+04  0.12026361764E+04  0.00000000000E+00 0. -1.
         -2   -1    0    0    0  501 -0.00000000000E+00 -0.00000000000E+00 -0.10631297067E+03  0.10631297067E+03  0.00000000000E+00 0.  1.
         23    2    1    2    0    0 -0.25688802456E+02  0.32436610470E+03  0.37270678752E+03  0.51032421251E+03  0.12508864040E+03 0.  0.
          5    1    3    3  502    0  0.47671882128E+02  0.86490850157E+02  0.90836825096E+02  0.13424632844E+03  0.41800000000E+01 0. -1.
         -5    1    3    3    0  502 -0.73360684584E+02  0.23787525454E+03  0.28186996242E+03  0.37607788406E+03  0.41800000000E+01 0. -1.
        -11    1    1    2    0    0  0.51626415225E+01 -0.16788199950E+03  0.26632969186E+03  0.31486905753E+03  0.00000000000E+00 0. -1.
         11    1    1    2    0    0  0.20526160934E+02 -0.15648410520E+03  0.45728672635E+03  0.48375587703E+03  0.00000000000E+00 0.  1.
</event>
<event>
 7    1  0.6506388E-006  0.1258224E+03  0.7561462E-02  0.1233790E+00
         -2   -1    0    0    0  501 -0.00000000000E+00  0.00000000000E+00  0.91634484983E+02  0.91634484983E+02  0.00000000000E+00 0. -1.
          2   -1    0    0  501    0  0.00000000000E+00 -0.00000000000E+00 -0.25524951707E+03  0.25524951707E+03  0.00000000000E+00 0.  1.
         23    2    1    2    0    0 -0.20808795304E+02 -0.90650322934E+02 -0.28491056378E+02  0.15845278410E+03  0.12508020421E+03 0.  0.
          5    1    3    3  502    0  0.29302368097E+02 -0.76789173203E+02 -0.55941976633E+02  0.99509713329E+02  0.41800000000E+01 0. -1.
         -5    1    3    3    0  502 -0.50111163401E+02 -0.13861149732E+02  0.27450920255E+02  0.58943070773E+02  0.41800000000E+01 0. -1.
        -11    1    1    2    0    0  0.46609513210E+02  0.45209912133E+02 -0.11571482413E+03  0.13268874632E+03  0.00000000000E+00 0.  1.
         11    1    1    2    0    0 -0.25800717905E+02  0.45440410802E+02 -0.19409151575E+02  0.55742471627E+02  0.00000000000E+00 0. -1.
</event>
<event>
 7    1  0.6506388E-006  0.3094069E+03  0.7561462E-02  0.1080631E+00
          1   -1    0    0  501    0  0.00000000000E+00  0.00000000000E+00  0.10241649409E+03  0.10241649409E+03  0.00000000000E+00 0. -1.
         -1   -1    0    0    0  501 -0.00000000000E+00 -0.00000000000E+00 -0.10935740710E+04  0.10935740710E+04  0.00000000000E+00 0.  1.
         23    2    1    2    0    0 -0.87222712499E+02  0.28321980157E+03 -0.70037626958E+03  0.77071107951E+03  0.12508953395E+03 0.  0.
          5    1    3    3  502    0 -0.15195079621E+02 -0.24366729318E+01 -0.71567192448E+01  0.17479097517E+02  0.41800000000E+01 0.  1.
         -5    1    3    3    0  502 -0.72027632877E+02  0.28565647450E+03 -0.69321955034E+03  0.75323198199E+03  0.41800000000E+01 0.  1.
        -11    1    1    2    0    0  0.60048495075E+02 -0.65613507789E+02 -0.62340056644E+02  0.10861508564E+03  0.00000000000E+00 0.  1.
         11    1    1    2    0    0  0.27174217424E+02 -0.21760629378E+03 -0.22844125070E+03  0.31666439997E+03  0.00000000000E+00 0. -1.
</event>
<event>
 7    1  0.6506388E-006  0.1150042E+03  0.7561462E-02  0.1251574E+00
         -1   -1    0    0    0  501 -0.00000000000E+00  0.00000000000E+00  0.16182297416E+03  0.16182297416E+03  0.00000000000E+00 0. -1.
          1   -1    0    0  501    0  0.00000000000E+00 -0.00000000000E+00 -0.96931164215E+02  0.96931164215E+02  0.00000000000E+00 0.  1.
         23    2    1    2    0    0 -0.61026711997E+02 -0.75411883959E+01  0.33683314974E+02  0.14339797544E+03  0.12508910645E+03 0.  0.
          5    1    3    3  502    0 -0.97165174811E+02 -0.19330739248E+02  0.13248850884E+02  0.10003875812E+03  0.41800000000E+01 0. -1.
         -5    1    3    3    0  502  0.36138462813E+02  0.11789550852E+02  0.20434464090E+02  0.43359217318E+02  0.41800000000E+01 0. -1.
        -11    1    1    2    0    0  0.76234109194E+02  0.15100768169E+01  0.49429047989E+02  0.90868864424E+02  0.00000000000E+00 0. -1.
         11    1    1    2    0    0 -0.15207397197E+02  0.60311115790E+01 -0.18220553018E+02  0.24487298517E+02  0.00000000000E+00 0.  1.
</event>
<event>
 7    1  0.6506388E-006  0.8721700E+02  0.7561462E-02  0.1309735E+00
         -2   -1    0    0    0  501 -0.00000000000E+00  0.00000000000E+00  0.18404829199E+02  0.18404829199E+02  0.00000000000E+00 0. -1.
          2   -1    0    0  501    0  0.00000000000E+00 -0.00000000000E+00 -0.66346666522E+03  0.66346666522E+03  0.00000000000E+00 0.  1.
         23    2    1    2    0    0 -0.15144924929E+02  0.14466381459E+02 -0.37927906036E+03  0.39992590934E+03  0.12509789122E+03 0.  0.
          5    1    3    3  502    0  0.38371930844E+02  0.19026505295E+02 -0.48713383822E+02  0.64999070331E+02  0.41800000000E+01 0. -1.
         -5    1    3    3    0  502 -0.53516855773E+02 -0.45601238366E+01 -0.33056567654E+03  0.33492683901E+03  0.41800000000E+01 0. -1.
        -11    1    1    2    0    0  0.43429947273E+02  0.42085382973E+01 -0.22367599164E+03  0.22789212656E+03  0.00000000000E+00 0. -1.
         11    1    1    2    0    0 -0.28285022344E+02 -0.18674919756E+02 -0.42106784021E+02  0.54053458515E+02  0.00000000000E+00 0.  1.
</event>
<event>
 7    1  0.6506388E-006  0.8984165E+02  0.7561462E-02  0.1303236E+00
          1   -1    0    0  501    0  0.00000000000E+00  0.00000000000E+00  0.64864154797E+02  0.64864154797E+02  0.00000000000E+00 0. -1.
         -1   -1    0    0    0  501 -0.00000000000E+00 -0.00000000000E+00 -0.27776130715E+03  0.27776130715E+03  0.00000000000E+00 0.  1.
         23    2    1    2    0    0  0.63020848846E+02  0.35478429369E+02 -0.15582362762E+03  0.21250648133E+03  0.12509058854E+03 0.  0.
          5    1    3    3  502    0  0.32549693971E+02  0.53397257627E+01  0.14900941304E+02  0.36434951634E+02  0.41800000000E+01 0. -1.
         -5    1    3    3    0  502  0.30471154874E+02  0.30138703606E+02 -0.17072456892E+03  0.17607152969E+03  0.41800000000E+01 0. -1.
        -11    1    1    2    0    0  0.12638300564E+02 -0.23622232049E+02 -0.45310768972E+02  0.52638410623E+02  0.00000000000E+00 0.  1.
         11    1    1    2    0    0 -0.75659149410E+02 -0.11856197320E+02 -0.11762755764E+02  0.77480570000E+02  0.00000000000E+00 0. -1.
</event>
<event>
 7    1  0.6506388E-006  0.1126745E+03  0.7561462E-02  0.1255696E+00
          2   -1    0    0  501    0  0.00000000000E+00  0.00000000000E+00  0.42920084984E+03  0.42920084984E+03  0.00000000000E+00 0. -1.
         -2   -1    0    0    0  501 -0.00000000000E+00 -0.00000000000E+00 -0.48152578241E+02  0.48152578241E+02  0.00000000000E+00 0.  1.
         23    2    1    2    0    0  0.80433259131E+02  0.50504066186E+02  0.24076095179E+03  0.28746117853E+03  0.12509165992E+03 0.  0.
          5    1    3    3  502    0  0.30578375778E+02 -0.10653848087E+01  0.20479890205E+03  0.20711406227E+03  0.41800000000E+01 0.  1.
         -5    1    3    3    0  502  0.49854883353E+02  0.51569450995E+02  0.35962049740E+02  0.80347116262E+02  0.41800000000E+01 0.  1.
        -11    1    1    2    0    0 -0.88503173795E+02 -0.19559878793E+02  0.76780561370E+02  0.11878827903E+03  0.00000000000E+00 0.  1.
         11    1    1    2    0    0  0.80699146632E+01 -0.30944187393E+02  0.63506758440E+02  0.71103970519E+02  0.00000000000E+00 0. -1.
</event>
<event>
 7    1  0.6506388E-006  0.1494512E+03  0.7561462E-02  0.1201149E+00
          2   -1    0    0  501    0  0.00000000000E+00  0.00000000000E+00  0.14381940453E+03  0.14381940453E+03  0.00000000000E+00 0.  1.
         -2   -1    0    0    0  501 -0.00000000000E+00 -0.00000000000E+00 -0.18774587153E+03  0.18774587153E+03  0.00000000000E+00 0. -1.
         23    2    1    2    0    0  0.87597370397E+02 -0.78208243700E+02 -0.27043192059E+02  0.17370100839E+03  0.12510346676E+03 0.  0.
          5    1    3    3  502    0 -0.21281002407E+02  0.15263090231E+02 -0.12772546117E+02  0.29435579172E+02  0.41800000000E+01 0. -1.
         -5    1    3    3    0  502  0.10887837280E+03 -0.93471333932E+02 -0.14270645942E+02  0.14426542922E+03  0.41800000000E+01 0. -1.
        -11    1    1    2    0    0 -0.74364172166E+01  0.38789228391E+02  0.36517666062E+02  0.53790747111E+02  0.00000000000E+00 0.  1.
         11    1    1    2    0    0 -0.80160953181E+02  0.39419015310E+02 -0.53400941002E+02  0.10407352056E+03  0.00000000000E+00 0. -1.
</event>
<event>
 7    1  0.6506388E-006  0.3034585E+03  0.7561462E-02  0.1083524E+00
          2   -1    0    0  501    0  0.00000000000E+00  0.00000000000E+00  0.11689859718E+04  0.11689859718E+04  0.00000000000E+00 0. -1.
         -2   -1    0    0    0  501 -0.00000000000E+00 -0.00000000000E+00 -0.15366169049E+03  0.15366169049E+03  0.00000000000E+00 0.  1.
         23    2    1    2    0    0  0.29946780447E+03 -0.25786015582E+02  0.79205602115E+02  0.33506263685E+03  0.12509020222E+03 0.  0.
          5    1    3    3  502    0  0.12247733181E+03  0.13854061757E+02 -0.25006408838E+02  0.12583888396E+03  0.41800000000E+01 0.  1.
         -5    1    3    3    0  502  0.17699047266E+03 -0.39640077338E+02  0.10421201095E+03  0.20922375289E+03  0.41800000000E+01 0.  1.
        -11    1    1    2    0    0 -0.12152994929E+03 -0.47631050714E+01  0.24859908608E+03  0.27675570698E+03  0.00000000000E+00 0.  1.
         11    1    1    2    0    0 -0.17793785518E+03  0.30549120653E+02  0.68751959311E+03  0.71082931846E+03  0.00000000000E+00 0. -1.
</event>
<event>
 7    1  0.6506388E-006  0.2050306E+03  0.7561462E-02  0.1145563E+00
         -2   -1    0    0    0  501 -0.00000000000E+00  0.00000000000E+00  0.12355108190E+03  0.12355108190E+03  0.00000000000E+00 0.  1.
          2   -1    0    0  501    0  0.00000000000E+00 -0.00000000000E+00 -0.37976880988E+03  0.37976880988E+03  0.00000000000E+00 0. -1.
         23    2    1    2    0    0  0.82842361311E+02  0.16629335153E+03 -0.10805016244E+03  0.24867314298E+03  0.12508860398E+03 0.  0.
          5    1    3    3  502    0  0.53499609039E+02  0.26092671071E+02 -0.84510818854E+02  0.10345330616E+03  0.41800000000E+01 0.  1.
         -5    1    3    3    0  502  0.29342752272E+02  0.14020068046E+03 -0.23539343587E+02  0.14521983683E+03  0.41800000000E+01 0.  1.
        -11    1    1    2    0    0 -0.20067412403E+02 -0.13585050625E+03 -0.97043018216E+02  0.16815293180E+03  0.00000000000E+00 0. -1.
         11    1    1    2    0    0 -0.62774948908E+02 -0.30442845274E+02 -0.51124547327E+02  0.86493816994E+02  0.00000000000E+00 0.  1.
</event>
<event>
 7    1  0.6506388E-006  0.1103554E+03  0.7561462E-02  0.1259913E+00
          1   -1    0    0  501    0  0.00000000000E+00  0.00000000000E+00  0.44443415085E+02  0.44443415085E+02  0.00000000000E+00 0. -1.
         -1   -1    0    0    0  501 -0.00000000000E+00 -0.00000000000E+00 -0.67379893171E+03  0.67379893171E+03  0.00000000000E+00 0.  1.
         23    2    1    2    0    0 -0.11896429915E+02  0.44358942568E+02 -0.59759939295E+03  0.61227619646E+03  0.12509142844E+03 0.  0.
          5    1    3    3  502    0  0.28297572139E+02  0.73597994421E+02 -0.28558288993E+03  0.29629795273E+03  0.41800000000E+01 0. -1.
         -5    1    3    3    0  502 -0.40194002054E+02 -0.29239051853E+02 -0.31201650302E+03  0.31597824373E+03  0.41800000000E+01 0. -1.
        -11    1    1    2    0    0 -0.28745729592E+01 -0.65783936839E+02 -0.41886954885E+02  0.78040415845E+02  0.00000000000E+00 0.  1.
         11    1    1    2    0    0  0.14771002874E+02  0.21424994270E+02  0.10130831214E+02  0.27925734484E+02  0.00000000000E+00 0. -1.
</event>
<event>
 7    1  0.6506388E-006  0.1044476E+03  0.7561462E-02  0.1271212E+00
         -3   -1    0    0    0  501 -0.00000000000E+00  0.00000000000E+00  0.22180530963E+03  0.22180530963E+03  0.00000000000E+00 0.  1.
          3   -1    0    0  501    0  0.00000000000E+00 -0.00000000000E+00 -0.64885702398E+02  0.64885702398E+02  0.00000000000E+00 0. -1.
         23    2    1    2    0    0  0.38476775788E+02  0.34363264813E+02  0.56759558164E+02  0.13988498069E+03  0.11698232403E+03 0.  0.
          5    1    3    3  502    0 -0.70483066982E+01  0.67628060227E+02  0.46352795406E+02  0.82397131014E+02  0.41800000000E+01 0. -1.
         -5    1    3    3    0  502  0.45525082486E+02 -0.33264795414E+02  0.10406762758E+02  0.57487849676E+02  0.41800000000E+01 0.  1.
        -11    1    1    2    0    0 -0.13890562401E+02  0.20126535365E+02 -0.58118840774E+01  0.25135694662E+02  0.00000000000E+00 0. -1.
         11    1    1    2    0    0 -0.24586213387E+02 -0.54489800178E+02  0.10597193315E+03  0.12167033668E+03  0.00000000000E+00 0.  1.
</event>
<event>
 7    1  0.6506388E-006  0.1845871E+03  0.7561462E-02  0.1163436E+00
          3   -1    0    0  501    0  0.00000000000E+00  0.00000000000E+00  0.29648424751E+02  0.29648424751E+02  0.00000000000E+00 0. -1.
         -3   -1    0    0    0  501 -0.00000000000E+00 -0.00000000000E+00 -0.13431566035E+04  0.13431566035E+04  0.00000000000E+00 0.  1.
         23    2    1    2    0    0 -0.78778887023E+01  0.15056472179E+03 -0.93668438488E+03  0.95695677263E+03  0.12512726014E+03 0.  0.
          5    1    3    3  502    0  0.25761569369E+02 -0.11741354419E+02 -0.18517205268E+03  0.18737043351E+03  0.41800000000E+01 0.  1.
         -5    1    3    3    0  502 -0.33639458071E+02  0.16230607621E+03 -0.75151233220E+03  0.76958633912E+03  0.41800000000E+01 0.  1.
        -11    1    1    2    0    0 -0.38009624772E+02 -0.97198723727E+02 -0.20148095568E+03  0.22690724751E+03  0.00000000000E+00 0. -1.
         11    1    1    2    0    0  0.45887513474E+02 -0.53365998061E+02 -0.17534283816E+03  0.18894100808E+03  0.00000000000E+00 0.  1.
</event>
<event>
 7    1  0.6506388E-006  0.1262180E+03  0.7561462E-02  0.1233178E+00
         -4   -1    0    0    0  501 -0.00000000000E+00  0.00000000000E+00  0.31679410587E+03  0.31679410587E+03  0.00000000000E+00 0.  1.
          4   -1    0    0  501    0  0.00000000000E+00 -0.00000000000E+00 -0.71663904920E+02  0.71663904920E+02  0.00000000000E+00 0. -1.
         23    2    1    2    0    0 -0.27844275559E+01 -0.89968124507E+02  0.19990444882E+03  0.25240759868E+03  0.12508313535E+03 0.  0.
          5    1    3    3  502    0  0.57292412716E+02 -0.65889904943E+02  0.13359771944E+03  0.15965501297E+03  0.41800000000E+01 0. -1.
         -5    1    3    3    0  502 -0.60076840272E+02 -0.24078219565E+02  0.66306729382E+02  0.92752585710E+02  0.41800000000E+01 0. -1.
        -11    1    1    2    0    0 -0.15656229220E+02  0.11159288257E+02 -0.23153021633E+02  0.30095010193E+02  0.00000000000E+00 0. -1.
         11    1    1    2    0    0  0.18440656776E+02  0.78808836251E+02  0.68378773760E+02  0.10595540191E+03  0.00000000000E+00 0.  1.
</event>
<event>
 7    1  0.6506388E-006  0.1392489E+03  0.7561462E-02  0.1214343E+00
          2   -1    0    0  501    0  0.00000000000E+00  0.00000000000E+00  0.23796120323E+03  0.23796120323E+03  0.00000000000E+00 0. -1.
         -2   -1    0    0    0  501 -0.00000000000E+00 -0.00000000000E+00 -0.15382982788E+03  0.15382982788E+03  0.00000000000E+00 0.  1.
         23    2    1    2    0    0  0.12092790309E+03 -0.57678933960E+02 -0.39922918108E+02  0.18759346766E+03  0.12508817909E+03 0.  0.
          5    1    3    3  502    0  0.91305291028E+02 -0.66677297028E+02 -0.78685390055E+02  0.13780922000E+03  0.41800000000E+01 0.  1.
         -5    1    3    3    0  502  0.29622612065E+02  0.89983630681E+01  0.38762471947E+02  0.49784247658E+02  0.41800000000E+01 0.  1.
        -11    1    1    2    0    0 -0.36072592736E+02  0.20358927568E+02  0.10028000187E+03  0.10849791083E+03  0.00000000000E+00 0. -1.
         11    1    1    2    0    0 -0.84855310357E+02  0.37320006392E+02  0.23774291587E+02  0.95699652629E+02  0.00000000000E+00 0.  1.
</event>
<event>
 7    1  0.6506388E-006  0.9460558E+02  0.7561462E-02  0.1292067E+00
          2   -1    0    0  501    0  0.00000000000E+00  0.00000000000E+00  0.10343463343E+03  0.10343463343E+03  0.00000000000E+00 0.  1.
         -2   -1    0    0    0  501 -0.00000000000E+00 -0.00000000000E+00 -0.20987107321E+03  0.20987107321E+03  0.00000000000E+00 0. -1.
         23    2    1    2    0    0 -0.82202245912E+02 -0.38515713384E+01 -0.30276519081E+02  0.15276167770E+03  0.12508964278E+03 0.  0.
          5    1    3    3  502    0 -0.47779043866E+02 -0.20436457435E+02  0.44591458271E+02  0.68602888977E+02  0.41800000000E+01 0.  1.
         -5    1    3    3    0  502 -0.34423202046E+02  0.16584886097E+02 -0.74867977352E+02  0.84158788720E+02  0.41800000000E+01 0.  1.
        -11    1    1    2    0    0  0.32389365840E+02  0.28426033866E+02  0.21525500762E+02  0.48171128323E+02  0.00000000000E+00 0.  1.
         11    1    1    2    0    0  0.49812880073E+02 -0.24574462527E+02 -0.97685421458E+02  0.11237290063E+03  0.00000000000E+00 0. -1.
</event>
<event>
 7    1  0.6506388E-006  0.1074476E+03  0.7561462E-02  0.1265371E+00
          2   -1    0    0  501    0  0.00000000000E+00  0.00000000000E+00  0.48568187655E+03  0.48568187655E+03  0.00000000000E+00 0. -1.
         -2   -1    0    0    0  501 -0.00000000000E+00 -0.00000000000E+00 -0.40404297412E+02  0.40404297412E+02  0.00000000000E+00 0.  1.
         23    2    1    2    0    0 -0.73227995324E+02  0.19509370359E+01  0.15143724413E+03  0.20950265884E+03  0.12486784892E+03 0.  0.
          5    1    3    3  502    0  0.15704954640E+02 -0.91686193633E+01 -0.12610875400E+02  0.22521451100E+02  0.41800000000E+01 0. -1.
         -5    1    3    3    0  502 -0.88932949963E+02  0.11119556399E+02  0.16404811953E+03  0.18698120774E+03  0.41800000000E+01 0. -1.
        -11    1    1    2    0    0  0.43249362098E+02  0.37307384515E+02  0.22315890734E+03  0.23035243907E+03  0.00000000000E+00 0. -1.
         11    1    1    2    0    0  0.29978633226E+02 -0.39258321551E+02  0.70681427670E+02  0.86231076061E+02  0.00000000000E+00 0.  1.
</event>
<event>
 7    1  0.6506388E-006  0.7917314E+02  0.7561462E-02  0.1331414E+00
         -1   -1    0    0    0  501 -0.00000000000E+00  0.00000000000E+00  0.68875040457E+02  0.68875040457E+02  0.00000000000E+00 0.  1.
          1   -1    0    0  501    0  0.00000000000E+00 -0.00000000000E+00 -0.19267716677E+03  0.19267716677E+03  0.00000000000E+00 0. -1.
         23    2    1    2    0    0 -0.31801749631E+02  0.18868547044E+02 -0.83467451204E+02  0.15486615440E+03  0.12509731021E+03 0.  0.
          5    1    3    3  502    0 -0.11720661265E+02 -0.15845044123E+02 -0.10652822022E+03  0.10841666582E+03  0.41800000000E+01 0. -1.
         -5    1    3    3    0  502 -0.20081088366E+02  0.34713591166E+02  0.23060769019E+02  0.46449488580E+02  0.41800000000E+01 0. -1.
        -11    1    1    2    0    0 -0.32097130580E+02 -0.48761336664E+01 -0.20232976398E+02  0.38254095270E+02  0.00000000000E+00 0. -1.
         11    1    1    2    0    0  0.63898880211E+02 -0.13992413377E+02 -0.20101698714E+02  0.68431957560E+02  0.00000000000E+00 0.  1.
</event>
<event>
 7    1  0.6506388E-006  0.1171238E+03  0.7561462E-02  0.1247919E+00
         -2   -1    0    0    0  501 -0.00000000000E+00  0.00000000000E+00  0.77220515332E+02  0.77220515332E+02  0.00000000000E+00 0.  1.
          2   -1    0    0  501    0  0.00000000000E+00 -0.00000000000E+00 -0.22126128817E+03  0.22126128817E+03  0.00000000000E+00 0. -1.
         23    2    1    2    0    0  0.66834009127E+02  0.11107796564E+02 -0.99048563804E+02  0.17334335412E+03  0.12508849870E+03 0.  0.
          5    1    3    3  502    0  0.57929204406E+02  0.64324439684E+02 -0.48622259561E+02  0.99373149233E+02  0.41800000000E+01 0.  1.
         -5    1    3    3    0  502  0.89048047216E+01 -0.53216643120E+02 -0.50426304243E+02  0.73970204891E+02  0.41800000000E+01 0.  1.
        -11    1    1    2    0    0 -0.47712084339E+02  0.24058892859E+02  0.12696207471E+02  0.54922372506E+02  0.00000000000E+00 0.  1.
         11    1    1    2    0    0 -0.19121924788E+02 -0.35166689422E+02 -0.57688416510E+02  0.70216076877E+02  0.00000000000E+00 0. -1.
</event>
<event>
 7    1  0.6506388E-006  0.2636399E+03  0.7561462E-02  0.1104976E+00
         -3   -1    0    0    0  501 -0.00000000000E+00  0.00000000000E+00  0.13995032494E+03  0.13995032494E+03  0.00000000000E+00 0.  1.
          3   -1    0    0  501    0  0.00000000000E+00 -0.00000000000E+00 -0.54195929081E+03  0.54195929081E+03  0.00000000000E+00 0. -1.
         23    2    1    2    0    0  0.12418008261E+03 -0.21360102604E+03 -0.14121000088E+03  0.31085967847E+03  0.12508950439E+03 0.  0.
          5    1    3    3  502    0  0.14025881839E+03 -0.13683466313E+03 -0.81805561895E+02  0.21238145759E+03  0.41800000000E+01 0. -1.
         -5    1    3    3    0  502 -0.16078735773E+02 -0.76766362907E+02 -0.59404438980E+02  0.98478220885E+02  0.41800000000E+01 0. -1.
        -11    1    1    2    0    0 -0.50467417160E+02  0.40872235189E+02 -0.24963505995E+02  0.69574969893E+02  0.00000000000E+00 0. -1.
         11    1    1    2    0    0 -0.73712665454E+02  0.17272879085E+03 -0.23583545900E+03  0.30147496739E+03  0.00000000000E+00 0.  1.
</event>
<event>
 7    1  0.6506388E-006  0.1539204E+03  0.7561462E-02  0.1195737E+00
         -1   -1    0    0    0  501 -0.00000000000E+00  0.00000000000E+00  0.91055369289E+02  0.91055369289E+02  0.00000000000E+00 0.  1.
          1   -1    0    0  501    0  0.00000000000E+00 -0.00000000000E+00 -0.50263950891E+03  0.50263950891E+03  0.00000000000E+00 0. -1.
         23    2    1    2    0    0 -0.12719327175E+03  0.24506897283E+01 -0.30234742642E+02  0.18095612207E+03  0.12508734626E+03 0.  0.
          5    1    3    3  502    0 -0.57837597431E+02  0.40639126921E+02 -0.63369935846E+02  0.95026035814E+02  0.41800000000E+01 0.  1.
         -5    1    3    3    0  502 -0.69355674319E+02 -0.38188437193E+02  0.33135193203E+02  0.85930086257E+02  0.41800000000E+01 0.  1.
        -11    1    1    2    0    0  0.34489607371E+02 -0.44208559403E+02 -0.14379116915E+03  0.15433674244E+03  0.00000000000E+00 0. -1.
         11    1    1    2    0    0  0.92703664379E+02  0.41757869675E+02 -0.23755822783E+03  0.25840201369E+03  0.00000000000E+00 0.  1.
</event>
<event>
 7    1  0.6506388E-006  0.1032106E+03  0.7561462E-02  0.1273686E+00
         -1   -1    0    0    0  501 -0.00000000000E+00  0.00000000000E+00  0.49699539297E+03  0.49699539297E+03  0.00000000000E+00 0.  1.
          1   -1    0    0  501    0  0.00000000000E+00 -0.00000000000E+00 -0.50320538583E+02  0.50320538583E+02  0.00000000000E+00 0. -1.
         23    2    1    2    0    0  0.29085151624E+02  0.34739154389E+02  0.41997604161E+03  0.44055426366E+03  0.12512165602E+03 0.  0.
          5    1    3    3  502    0 -0.28969864023E+02  0.50257769420E+02  0.30761034782E+03  0.31306020970E+03  0.41800000000E+01 0. -1.
         -5    1    3    3    0  502  0.58055015647E+02 -0.15518615031E+02  0.11236569379E+03  0.12749405396E+03  0.41800000000E+01 0. -1.
        -11    1    1    2    0    0  0.18775408393E+02  0.11050429596E+02 -0.16806340878E+02  0.27515105820E+02  0.00000000000E+00 0. -1.
         11    1    1    2    0    0 -0.47860560017E+02 -0.45789583985E+02  0.43505153656E+02  0.79246562079E+02  0.00000000000E+00 0.  1.
</event>
<event>
 7    1  0.6506388E-006  0.1435331E+03  0.7561462E-02  0.1208653E+00
         -2   -1    0    0    0  501 -0.00000000000E+00  0.00000000000E+00  0.33597515961E+02  0.33597515961E+02  0.00000000000E+00 0. -1.
          2   -1    0    0  501    0  0.00000000000E+00 -0.00000000000E+00 -0.75417573948E+03  0.75417573948E+03  0.00000000000E+00 0.  1.
         23    2    1    2    0    0  0.44441679766E+02  0.10575428211E+03 -0.35706602385E+03  0.39535198126E+03  0.12509201660E+03 0.  0.
          5    1    3    3  502    0  0.85641661720E+02  0.82906162287E+02 -0.28721480598E+03  0.31099476385E+03  0.41800000000E+01 0.  1.
         -5    1    3    3    0  502 -0.41199981954E+02  0.22848119819E+02 -0.69851217870E+02  0.84357217416E+02  0.41800000000E+01 0.  1.
        -11    1    1    2    0    0 -0.18969155135E+02 -0.10057369658E+02 -0.72651095229E+01  0.22666304228E+02  0.00000000000E+00 0. -1.
         11    1    1    2    0    0 -0.25472524631E+02 -0.95696912447E+02 -0.35624709015E+03  0.36975496995E+03  0.00000000000E+00 0.  1.
</event>
<event>
 7    1  0.6506388E-006  0.1125315E+03  0.7561462E-02  0.1255953E+00
         -1   -1    0    0    0  501 -0.00000000000E+00  0.00000000000E+00  0.15944382471E+03  0.15944382471E+03  0.00000000000E+00 0.  1.
          1   -1    0    0  501    0  0.00000000000E+00 -0.00000000000E+00 -0.17506919847E+03  0.17506919847E+03  0.00000000000E+00 0. -1.
         23    2    1    2    0    0  0.71145960299E+02  0.70002049257E+02  0.67779103246E+02  0.17379790483E+03  0.12509864236E+03 0.  0.
          5    1    3    3  502    0  0.43197896258E+02  0.30049096891E+02 -0.32658307318E+02  0.62072891845E+02  0.41800000000E+01 0.  1.
         -5    1    3    3    0  502  0.27948064040E+02  0.39952952366E+02  0.10043741056E+03  0.11172501299E+03  0.41800000000E+01 0.  1.
        -11    1    1    2    0    0  0.60139623989E+01 -0.40162502876E+02  0.34618735749E+01  0.40757563098E+02  0.00000000000E+00 0.  1.
         11    1    1    2    0    0 -0.77159922698E+02 -0.29839546381E+02 -0.86866350584E+02  0.11995755526E+03  0.00000000000E+00 0. -1.
</event>
<event>
 7    1  0.6506388E-006  0.1196551E+03  0.7561462E-02  0.1243667E+00
          2   -1    0    0  501    0  0.00000000000E+00  0.00000000000E+00  0.36490296651E+03  0.36490296651E+03  0.00000000000E+00 0. -1.
         -2   -1    0    0    0  501 -0.00000000000E+00 -0.00000000000E+00 -0.42150512806E+02  0.42150512806E+02  0.00000000000E+00 0.  1.
         23    2    1    2    0    0  0.52517194821E+02  0.18221451808E+02  0.15842639706E+03  0.20937217251E+03  0.12509079214E+03 0.  0.
          5    1    3    3  502    0  0.76174892711E+02 -0.26368142724E+02  0.12461772951E+03  0.14847539910E+03  0.41800000000E+01 0. -1.
         -5    1    3    3    0  502 -0.23657697890E+02  0.44589594531E+02  0.33808667552E+02  0.60896773408E+02  0.41800000000E+01 0. -1.
        -11    1    1    2    0    0 -0.78712682358E+02 -0.57288921134E+01  0.10232710928E+03  0.12922594114E+03  0.00000000000E+00 0.  1.
         11    1    1    2    0    0  0.26195487536E+02 -0.12492559694E+02  0.61998947360E+02  0.68455365668E+02  0.00000000000E+00 0. -1.
</event>
<event>
 7    1  0.6506388E-006  0.8988183E+02  0.7561462E-02  0.1303138E+00
          1   -1    0    0  501    0  0.00000000000E+00  0.00000000000E+00  0.76368282555E+02  0.76368282555E+02  0.00000000000E+00 0. -1.
         -1   -1    0    0    0  501 -0.00000000000E+00 -0.00000000000E+00 -0.24888584425E+03  0.24888584425E+03  0.00000000000E+00 0.  1.
         23    2    1    2    0    0 -0.10521841960E+02 -0.13855295677E+02 -0.19244923680E+03  0.23019369430E+03  0.12509895992E+03 0.  0.
          5    1    3    3  502    0  0.47742220640E+01  0.43165978075E+02 -0.20236428603E+02  0.48094493470E+02  0.41800000000E+01 0.  1.
         -5    1    3    3    0  502 -0.15296064024E+02 -0.57021273752E+02 -0.17221280820E+03  0.18209920083E+03  0.41800000000E+01 0.  1.
        -11    1    1    2    0    0  0.30386894311E+01 -0.31163975061E+02 -0.17647549887E+02  0.35942495630E+02  0.00000000000E+00 0.  1.
         11    1    1    2    0    0  0.74831525293E+01  0.45019270738E+02  0.37579224992E+02  0.59117936877E+02  0.00000000000E+00 0. -1.
</event>
<event>
 7    1  0.6506388E-006  0.7927487E+02  0.7561462E-02  0.1331122E+00
         -1   -1    0    0    0  501 -0.00000000000E+00  0.00000000000E+00  0.38217751137E+02  0.38217751137E+02  0.00000000000E+00 0.  1.
          1   -1    0    0  501    0  0.00000000000E+00 -0.00000000000E+00 -0.36792572049E+03  0.36792572049E+03  0.00000000000E+00 0. -1.
         23    2    1    2    0    0  0.11961510647E+02  0.94890259460E+01 -0.10936333692E+03  0.16685456528E+03  0.12508791766E+03 0.  0.
          5    1    3    3  502    0 -0.35073369911E+02 -0.36522696646E+01  0.10769712813E+02  0.37107134957E+02  0.41800000000E+01 0. -1.
         -5    1    3    3    0  502  0.47034880558E+02  0.13141295611E+02 -0.12013304973E+03  0.12974743033E+03  0.41800000000E+01 0. -1.
        -11    1    1    2    0    0  0.26005043000E+02 -0.21987143861E+02 -0.17732851356E+03  0.18056881923E+03  0.00000000000E+00 0. -1.
         11    1    1    2    0    0 -0.37966553647E+02  0.12498117915E+02 -0.43016118878E+02  0.58720087113E+02  0.00000000000E+00 0.  1.
</event>
<event>
 7    1  0.6506388E-006  0.1250384E+03  0.7561462E-02  0.1235009E+00
          1   -1    0    0  501    0  0.00000000000E+00  0.00000000000E+00  0.45723756132E+03  0.45723756132E+03  0.00000000000E+00 0. -1.
         -1   -1    0    0    0  501 -0.00000000000E+00 -0.00000000000E+00 -0.53654496428E+02  0.53654496428E+02  0.00000000000E+00 0.  1.
         23    2    1    2    0    0  0.86441989183E+02 -0.71160483575E+02  0.20633486547E+03  0.26599796957E+03  0.12507921965E+03 0.  0.
          5    1    3    3  502    0  0.61263041898E+02 -0.69944508002E+02  0.21864778413E+03  0.23763358435E+03  0.41800000000E+01 0. -1.
         -5    1    3    3    0  502  0.25178947285E+02 -0.12159755731E+01 -0.12312918663E+02  0.28364385221E+02  0.41800000000E+01 0. -1.
        -11    1    1    2    0    0  0.90745744363E+01  0.22481829146E+02  0.49692933418E+01  0.24748220527E+02  0.00000000000E+00 0. -1.
         11    1    1    2    0    0 -0.95516563619E+02  0.48678654429E+02  0.19227890608E+03  0.22014586765E+03  0.00000000000E+00 0.  1.
</event>
<event>
 7    1  0.6506388E-006  0.1418184E+03  0.7561462E-02  0.1210903E+00
         -2   -1    0    0    0  501 -0.00000000000E+00  0.00000000000E+00  0.13612001031E+03  0.13612001031E+03  0.00000000000E+00 0.  1.
          2   -1    0    0  501    0  0.00000000000E+00 -0.00000000000E+00 -0.19828380461E+03  0.19828380461E+03  0.00000000000E+00 0. -1.
         23    2    1    2    0    0  0.96649722619E+01  0.52511419367E+02  0.32503327558E+02  0.12874741742E+03  0.11255474374E+03 0.  0.
          5    1    3    3  502    0 -0.45126242254E+02  0.17421550573E+02  0.40281018438E+02  0.63086615148E+02  0.41800000000E+01 0. -1.
         -5    1    3    3    0  502  0.54791214516E+02  0.35089868794E+02 -0.77776908805E+01  0.65660802276E+02  0.41800000000E+01 0.  1.
        -11    1    1    2    0    0 -0.66304284621E+02  0.27562372165E+02 -0.37244444687E+01  0.71901418659E+02  0.00000000000E+00 0.  1.
         11    1    1    2    0    0  0.56639312360E+02 -0.80073791532E+02 -0.90942677391E+02  0.13375497885E+03  0.00000000000E+00 0. -1.
</event>
<event>
 7    1  0.6506388E-006  0.9669263E+02  0.7561462E-02  0.1287409E+00
          1   -1    0    0  501    0  0.00000000000E+00  0.00000000000E+00  0.97254670114E+02  0.97254670114E+02  0.00000000000E+00 0. -1.
         -1   -1    0    0    0  501 -0.00000000000E+00 -0.00000000000E+00 -0.12476085624E+03  0.12476085624E+03  0.00000000000E+00 0.  1.
         23    2    1    2    0    0  0.57905240268E+01  0.18614559041E+02 -0.21336128366E+02  0.12838590021E+03  0.12509067520E+03 0.  0.
          5    1    3    3  502    0  0.30934521566E+02  0.50940551973E+02  0.26429209244E+02  0.65328860093E+02  0.41800000000E+01 0.  1.
         -5    1    3    3    0  502 -0.25143997540E+02 -0.32325992932E+02 -0.47765337611E+02  0.63057040117E+02  0.41800000000E+01 0.  1.
        -11    1    1    2    0    0 -0.46060184818E+02  0.40972838423E+01  0.35780978424E+01  0.46380288319E+02  0.00000000000E+00 0. -1.
         11    1    1    2    0    0  0.40269660791E+02 -0.22711842883E+02 -0.97481556035E+01  0.47249337827E+02  0.00000000000E+00 0.  1.
</event>
<event>
 7    1  0.6506388E-006  0.1169275E+03  0.7561462E-02  0.1248254E+00
          1   -1    0    0  501    0  0.00000000000E+00  0.00000000000E+00  0.64870547280E+03  0.64870547280E+03  0.00000000000E+00 0. -1.
         -1   -1    0    0    0  501 -0.00000000000E+00 -0.00000000000E+00 -0.29575005401E+02  0.29575005401E+02  0.00000000000E+00 0.  1.
         23    2    1    2    0    0  0.80049738534E+02 -0.11779898448E+02  0.27164486442E+03  0.30982911784E+03  0.12512562986E+03 0.  0.
          5    1    3    3  502    0  0.77927834629E+02 -0.52282919047E+02  0.24149077983E+03  0.25911680798E+03  0.41800000000E+01 0. -1.
         -5    1    3    3    0  502  0.21219039049E+01  0.40503020598E+02  0.30154084589E+02  0.50712309858E+02  0.41800000000E+01 0. -1.
        -11    1    1    2    0    0 -0.30290201345E+01 -0.16742705405E+02  0.73398783552E+01  0.18530163559E+02  0.00000000000E+00 0.  1.
         11    1    1    2    0    0 -0.77020718400E+02  0.28522603853E+02  0.34014572462E+03  0.34992119681E+03  0.00000000000E+00 0. -1.
</event>
<event>
 7    1  0.7148143E-006  0.1773594E+03  0.7561462E-02  0.1170383E+00
          2   -1    0    0  501    0  0.00000000000E+00  0.00000000000E+00  0.80013175149E+03  0.80013175149E+03  0.00000000000E+00 0. -1.
         -2   -1    0    0    0  501 -0.00000000000E+00 -0.00000000000E+00 -0.45453250298E+02  0.45453250298E+02  0.00000000000E+00 0.  1.
         23    2    1    2    0    0  0.50114066319E+02  0.14563791557E+03  0.33403000013E+03  0.38851743997E+03  0.12509171867E+03 0.  0.
          5    1    3    3  502    0  0.74813234897E+02  0.10336913708E+03  0.14495316651E+03  0.19316079182E+03  0.41800000000E+01 0. -1.
         -5    1    3    3    0  502 -0.24699168578E+02  0.42268778490E+02  0.18907683362E+03  0.19535664815E+03  0.41800000000E+01 0. -1.
        -11    1    1    2    0    0  0.14491552856E+02 -0.94266970027E+02  0.20282642840E+03  0.22413127135E+03  0.00000000000E+00 0.  1.
         11    1    1    2    0    0 -0.64605619176E+02 -0.51370945541E+02  0.21782207266E+03  0.23293629046E+03  0.00000000000E+00 0. -1.
</event>
<event>
 7    1  0.7530645E-006  0.3078552E+03  0.7561462E-02  0.1081378E+00
          1   -1    0    0  501    0  0.00000000000E+00  0.00000000000E+00  0.15189804418E+04  0.15189804418E+04  0.00000000000E+00 0. -1.
         -1   -1    0    0    0  501 -0.00000000000E+00 -0.00000000000E+00 -0.66330052613E+02  0.66330052613E+02  0.00000000000E+00 0.  1.
         23    2    1    2    0    0 -0.26100687898E+03 -0.13849044033E+03  0.63875931970E+03  0.71481846394E+03  0.12509106662E+03 0.  0.
          5    1    3    3  502    0 -0.57772950218E+02 -0.73599662236E+02  0.30160767855E+03  0.31581527547E+03  0.41800000000E+01 0. -1.
         -5    1    3    3    0  502 -0.20323392876E+03 -0.64890778096E+02  0.33715164115E+03  0.39900318848E+03  0.41800000000E+01 0. -1.
        -11    1    1    2    0    0  0.13046186780E+03  0.11917770362E+03  0.45492075270E+03  0.48803331365E+03  0.00000000000E+00 0.  1.
         11    1    1    2    0    0  0.13054501118E+03  0.19312736713E+02  0.35897031682E+03  0.38245871686E+03  0.00000000000E+00 0. -1.
</event>
<event>
 7    1  0.6506388E-006  0.7499638E+02  0.7561462E-02  0.1343882E+00
         -2   -1    0    0    0  501 -0.00000000000E+00  0.00000000000E+00  0.20787647819E+03  0.20787647819E+03  0.00000000000E+00 0.  1.
          2   -1    0    0  501    0  0.00000000000E+00 -0.00000000000E+00 -0.75360308111E+02  0.75360308111E+02  0.00000000000E+00 0. -1.
         23    2    1    2    0    0  0.23021818948E+02  0.47545871951E+02  0.11128270286E+03  0.17556187904E+03  0.12509004489E+03 0.  0.
          5    1    3    3  502    0  0.43681441212E+02  0.28905662877E+02  0.13103831794E+03  0.14118115604E+03  0.41800000000E+01 0.  1.
         -5    1    3    3    0  502 -0.20659622264E+02  0.18640209073E+02 -0.19755615085E+02  0.34380722997E+02  0.41800000000E+01 0.  1.
        -11    1    1    2    0    0  0.49545110503E+01 -0.40036801812E+02  0.51738775485E+02  0.65607877330E+02  0.00000000000E+00 0.  1.
         11    1    1    2    0    0 -0.27976329998E+02 -0.75090701387E+01 -0.30505308266E+02  0.42067029927E+02  0.00000000000E+00 0. -1.
</event>
<event>
 7    1  0.6506388E-006  0.1092546E+03  0.7561462E-02  0.1261957E+00
          2   -1    0    0  501    0  0.00000000000E+00  0.00000000000E+00  0.68923020283E+03  0.68923020283E+03  0.00000000000E+00 0. -1.
         -2   -1    0    0    0  501 -0.00000000000E+00 -0.00000000000E+00 -0.17679523760E+02  0.17679523760E+02  0.00000000000E+00 0.  1.
         23    2    1    2    0    0 -0.28649624127E+02  0.17089209990E+02  0.38448005432E+03  0.40569068136E+03  0.12508866740E+03 0.  0.
          5    1    3    3  502    0 -0.60281648053E+02  0.52196949625E+02  0.27537059203E+03  0.28671385386E+03  0.41800000000E+01 0.  1.
         -5    1    3    3    0  502  0.31632023925E+02 -0.35107739635E+02  0.10910946229E+03  0.11897682750E+03  0.41800000000E+01 0.  1.
        -11    1    1    2    0    0  0.13965758649E+02  0.34691467862E+02  0.11519577058E+03  0.12111402032E+03  0.00000000000E+00 0.  1.
         11    1    1    2    0    0  0.14683865478E+02 -0.51780677852E+02  0.17187485416E+03  0.18010502491E+03  0.00000000000E+00 0. -1.
</event>
<event>
 7    1  0.6506388E-006  0.1882084E+03  0.7561462E-02  0.1160087E+00
          1   -1    0    0  501    0  0.00000000000E+00  0.00000000000E+00  0.19374096286E+03  0.19374096286E+03  0.00000000000E+00 0. -1.
         -1   -1    0    0    0  501 -0.00000000000E+00 -0.00000000000E+00 -0.20657807193E+03  0.20657807193E+03  0.00000000000E+00 0.  1.
         23    2    1    2    0    0 -0.23523138797E+02  0.16516880797E+03  0.73271618779E+01  0.20864986363E+03  0.12508798946E+03 0.  0.
          5    1    3    3  502    0 -0.29356175309E+02  0.17666140912E+03 -0.17889475345E+02  0.18002373240E+03  0.41800000000E+01 0. -1.
         -5    1    3    3    0  502  0.58330365116E+01 -0.11492601149E+02  0.25216637223E+02  0.28626131225E+02  0.41800000000E+01 0. -1.
        -11    1    1    2    0    0 -0.16130172392E+02 -0.25241931321E+01  0.13167313557E+02  0.20974559797E+02  0.00000000000E+00 0. -1.
         11    1    1    2    0    0  0.39653311189E+02 -0.16264461484E+03 -0.33331584497E+02  0.17069461137E+03  0.00000000000E+00 0.  1.
</event>
<event>
 7    1  0.6506388E-006  0.1075993E+03  0.7561462E-02  0.1265081E+00
         -1   -1    0    0    0  501 -0.00000000000E+00  0.00000000000E+00  0.23979080931E+03  0.23979080931E+03  0.00000000000E+00 0.  1.
          1   -1    0    0  501    0  0.00000000000E+00 -0.00000000000E+00 -0.78624356181E+02  0.78624356181E+02  0.00000000000E+00 0. -1.
         23    2    1    2    0    0 -0.44954290150E+02  0.66828109344E+01  0.17003758258E+03  0.21592981192E+03  0.12508939211E+03 0.  0.
          5    1    3    3  502    0 -0.37398897129E+02  0.53713326913E+02  0.38682141454E+02  0.76141837790E+02  0.41800000000E+01 0. -1.
         -5    1    3    3    0  502 -0.75553930212E+01 -0.47030515979E+02  0.13135544113E+03  0.13978797413E+03  0.41800000000E+01 0. -1.
        -11    1    1    2    0    0  0.55749151887E+02  0.30175178587E+02 -0.16946357787E+01  0.63414360592E+02  0.00000000000E+00 0. -1.
         11    1    1    2    0    0 -0.10794861736E+02 -0.36857989521E+02 -0.71764936707E+01  0.39070992985E+02  0.00000000000E+00 0.  1.
</event>
<event>
 7    1  0.6506388E-006  0.1055193E+03  0.7561462E-02  0.1269100E+00
          3   -1    0    0  501    0  0.00000000000E+00  0.00000000000E+00  0.55620234907E+02  0.55620234907E+02  0.00000000000E+00 0.  1.
         -3   -1    0    0    0  501 -0.00000000000E+00 -0.00000000000E+00 -0.33527580645E+03  0.33527580645E+03  0.00000000000E+00 0. -1.
         23    2    1    2    0    0 -0.40846960618E+02  0.67341762530E+02 -0.18603005579E+03  0.23760987712E+03  0.12509150601E+03 0.  0.
          5    1    3    3  502    0 -0.53991395770E+02  0.73838138615E+01 -0.16299660828E+03  0.17191555554E+03  0.41800000000E+01 0.  1.
         -5    1    3    3    0  502  0.13144435151E+02  0.59957948669E+02 -0.23033447505E+02  0.65694321581E+02  0.41800000000E+01 0.  1.
        -11    1    1    2    0    0  0.25542445546E+02  0.26422112756E+00  0.10975890920E+02  0.27802095582E+02  0.00000000000E+00 0.  1.
         11    1    1    2    0    0  0.15304515073E+02 -0.67605983658E+02 -0.10460140667E+03  0.12548406865E+03  0.00000000000E+00 0. -1.
</event>
<event>
 7    1  0.6506388E-006  0.1138659E+03  0.7561462E-02  0.1253574E+00
         -2   -1    0    0    0  501 -0.00000000000E+00  0.00000000000E+00  0.22976763771E+03  0.22976763771E+03  0.00000000000E+00 0.  1.
          2   -1    0    0  501    0  0.00000000000E+00 -0.00000000000E+00 -0.15707249088E+03  0.15707249088E+03  0.00000000000E+00 0. -1.
         23    2    1    2    0    0 -0.14741880696E+02 -0.87411772998E+02  0.16800390006E+03  0.22759366997E+03  0.12536118646E+03 0.  0.
          5    1    3    3  502    0  0.27931453889E+01 -0.81106737326E+02  0.27487416088E+02  0.85785400529E+02  0.41800000000E+01 0. -1.
         -5    1    3    3    0  502 -0.17535026084E+02 -0.63050356728E+01  0.14051648397E+03  0.14180826944E+03  0.41800000000E+01 0. -1.
        -11    1    1    2    0    0  0.49295004157E+02  0.76739696748E+02 -0.72243697513E+02  0.11635347147E+03  0.00000000000E+00 0. -1.
         11    1    1    2    0    0 -0.34553123461E+02  0.10672076251E+02 -0.23065055713E+02  0.42892987160E+02  0.00000000000E+00 0.  1.
</event>
<event>
 7    1  0.6506388E-006  0.1315191E+03  0.7561462E-02  0.1225219E+00
          1   -1    0    0  501    0  0.00000000000E+00  0.00000000000E+00  0.48554645381E+03  0.48554645381E+03  0.00000000000E+00 0. -1.
         -1   -1    0    0    0  501 -0.00000000000E+00 -0.00000000000E+00 -0.52031880008E+02  0.52031880008E+02  0.00000000000E+00 0.  1.
         23    2    1    2    0    0 -0.80746566329E+02 -0.52484933125E+02  0.11673443278E+03  0.19633689632E+03  0.12508626176E+03 0.  0.
          5    1    3    3  502    0  0.19100164952E+02  0.24706592509E+02  0.25884218731E+02  0.40776184151E+02  0.41800000000E+01 0. -1.
         -5    1    3    3    0  502 -0.99846731282E+02 -0.77191525634E+02  0.90850214052E+02  0.15556071217E+03  0.41800000000E+01 0. -1.
        -11    1    1    2    0    0  0.38761215729E+02  0.93596466771E+00  0.36729913401E+02  0.53407812285E+02  0.00000000000E+00 0.  1.
         11    1    1    2    0    0  0.41985350600E+02  0.51548968457E+02  0.28005022762E+03  0.28783362521E+03  0.00000000000E+00 0. -1.
</event>
<event>
 7    1  0.6506388E-006  0.1066202E+03  0.7561462E-02  0.1266960E+00
         -1   -1    0    0    0  501 -0.00000000000E+00  0.00000000000E+00  0.13463960019E+02  0.13463960019E+02  0.00000000000E+00 0.  1.
          1   -1    0    0  501    0  0.00000000000E+00 -0.00000000000E+00 -0.14899618026E+04  0.14899618026E+04  0.00000000000E+00 0. -1.
         23    2    1    2    0    0 -0.82737485567E+02  0.32355069026E+02 -0.93787880919E+03  0.95034294848E+03  0.12507084785E+03 0.  0.
          5    1    3    3  502    0 -0.27565062895E+02  0.23471912572E+02 -0.56819449599E+02  0.67503226774E+02  0.41800000000E+01 0. -1.
         -5    1    3    3    0  502 -0.55172422671E+02  0.88831564542E+01 -0.88105935960E+03  0.88283972171E+03  0.41800000000E+01 0. -1.
        -11    1    1    2    0    0  0.26812817031E+02  0.27798434534E+02 -0.10793575744E+03  0.11463772439E+03  0.00000000000E+00 0.  1.
         11    1    1    2    0    0  0.55924668535E+02 -0.60153503560E+02 -0.43068327591E+03  0.43844508971E+03  0.00000000000E+00 0. -1.
</event>
<event>
 7    1  0.6506388E-006  0.2228933E+03  0.7561462E-02  0.1131744E+00
         -2   -1    0    0    0  501 -0.00000000000E+00  0.00000000000E+00  0.26939968601E+03  0.26939968601E+03  0.00000000000E+00 0.  1.
          2   -1    0    0  501    0  0.00000000000E+00 -0.00000000000E+00 -0.21567163483E+03  0.21567163483E+03  0.00000000000E+00 0. -1.
         23    2    1    2    0    0 -0.14217405671E+02 -0.21410034012E+03  0.43212507990E+02  0.25210250365E+03  0.12508901325E+03 0.  0.
          5    1    3    3  502    0 -0.78977234811E+00 -0.11344039487E+03 -0.40397482957E+02  0.12049388348E+03  0.41800000000E+01 0. -1.
         -5    1    3    3    0  502 -0.13427633323E+02 -0.10065994526E+03  0.83609990947E+02  0.13160862017E+03  0.41800000000E+01 0. -1.
        -11    1    1    2    0    0  0.47131041123E+02  0.16436594608E+03 -0.59675472131E+01  0.17109386572E+03  0.00000000000E+00 0. -1.
         11    1    1    2    0    0 -0.32913635451E+02  0.49734394044E+02  0.16483090403E+02  0.61874951465E+02  0.00000000000E+00 0.  1.
</event>
<event>
 7    1  0.6506388E-006  0.9403183E+02  0.7561462E-02  0.1293372E+00
         -2   -1    0    0    0  501 -0.00000000000E+00  0.00000000000E+00  0.45448178808E+03  0.45448178808E+03  0.00000000000E+00 0.  1.
          2   -1    0    0  501    0  0.00000000000E+00 -0.00000000000E+00 -0.35588425804E+02  0.35588425804E+02  0.00000000000E+00 0. -1.
         23    2    1    2    0    0  0.23542738916E+02 -0.46671309243E+02  0.31154544541E+03  0.33976307440E+03  0.12508361408E+03 0.  0.
          5    1    3    3  502    0  0.26089251862E+01 -0.77079612553E+02  0.28173033591E+03  0.29212587652E+03  0.41800000000E+01 0. -1.
         -5    1    3    3    0  502  0.20933813730E+02  0.30408303311E+02  0.29815109502E+02  0.47637197883E+02  0.41800000000E+01 0. -1.
        -11    1    1    2    0    0  0.16710478444E+02  0.14982460675E+02  0.94993217049E+02  0.97608531917E+02  0.00000000000E+00 0.  1.
         11    1    1    2    0    0 -0.40253217361E+02  0.31688848568E+02  0.12354699817E+02  0.52698607562E+02  0.00000000000E+00 0. -1.
</event>
<event>
 7    1  0.6506388E-006  0.1037979E+03  0.7561462E-02  0.1272506E+00
         -1   -1    0    0    0  501 -0.00000000000E+00  0.00000000000E+00  0.17895346720E+03  0.17895346720E+03  0.00000000000E+00 0.  1.
          1   -1    0    0  501    0  0.00000000000E+00 -0.00000000000E+00 -0.11786269355E+03  0.11786269355E+03  0.00000000000E+00 0. -1.
         23    2    1    2    0    0 -0.36668551933E+01 -0.95569677150E+02  0.45364436909E+02  0.16386900548E+03  0.12509240506E+03 0.  0.
          5    1    3    3  502    0 -0.25316587855E+02 -0.70386253342E+02  0.84130128848E+02  0.11265214272E+03  0.41800000000E+01 0.  1.
         -5    1    3    3    0  502  0.21649732662E+02 -0.25183423808E+02 -0.38765691939E+02  0.51216862755E+02  0.41800000000E+01 0.  1.
        -11    1    1    2    0    0 -0.65308616959E+01  0.81857172757E+02 -0.27392423404E+02  0.86565545953E+02  0.00000000000E+00 0. -1.
         11    1    1    2    0    0  0.10197716889E+02  0.13712504393E+02  0.43118760142E+02  0.46381609315E+02  0.00000000000E+00 0.  1.
</event>
<event>
 7    1  0.6506388E-006  0.8148742E+02  0.7561462E-02  0.1324883E+00
         -2   -1    0    0    0  501 -0.00000000000E+00  0.00000000000E+00  0.50582329366E+02  0.50582329366E+02  0.00000000000E+00 0.  1.
          2   -1    0    0  501    0  0.00000000000E+00 -0.00000000000E+00 -0.33057906181E+03  0.33057906181E+03  0.00000000000E+00 0. -1.
         23    2    1    2    0    0  0.53869392795E+02  0.33096544582E+02 -0.10933199284E+03  0.17775806282E+03  0.12508857459E+03 0.  0.
          5    1    3    3  502    0  0.24735843329E+01  0.58488215232E+01  0.27756690206E+02  0.28779047653E+02  0.41800000000E+01 0.  1.
         -5    1    3    3    0  502  0.51395808462E+02  0.27247723059E+02 -0.13708868305E+03  0.14897901516E+03  0.41800000000E+01 0.  1.
        -11    1    1    2    0    0 -0.72547865399E+02 -0.26778363956E+02 -0.16601746645E+03  0.18314495002E+03  0.00000000000E+00 0. -1.
         11    1    1    2    0    0  0.18678472604E+02 -0.63181806265E+01 -0.46472731486E+01  0.20258378340E+02  0.00000000000E+00 0.  1.
</event>
<event>
 7    1  0.6506388E-006  0.9831304E+02  0.7561462E-02  0.1283884E+00
         -2   -1    0    0    0  501 -0.00000000000E+00  0.00000000000E+00  0.12249808488E+03  0.12249808488E+03  0.00000000000E+00 0.  1.
          2   -1    0    0  501    0  0.00000000000E+00 -0.00000000000E+00 -0.24343948573E+03  0.24343948573E+03  0.00000000000E+00 0. -1.
         23    2    1    2    0    0  0.77428732294E+02 -0.41052800685E+02  0.42916635121E+02  0.15865520627E+03  0.12509634638E+03 0.  0.
          5    1    3    3  502    0  0.18093105984E+02  0.12524443795E+02  0.70507354357E+02  0.73979602560E+02  0.41800000000E+01 0.  1.
         -5    1    3    3    0  502  0.59335626309E+02 -0.53577244480E+02 -0.27590719237E+02  0.84675603710E+02  0.41800000000E+01 0.  1.
        -11    1    1    2    0    0 -0.23591951421E+02 -0.40538940457E+01 -0.12448113050E+03  0.12676184789E+03  0.00000000000E+00 0. -1.
         11    1    1    2    0    0 -0.53836780873E+02  0.45106694731E+02 -0.39376905465E+02  0.80520516443E+02  0.00000000000E+00 0.  1.
</event>
<event>
 7    1  0.6506388E-006  0.1057929E+03  0.7561462E-02  0.1268565E+00
          1   -1    0    0  501    0  0.00000000000E+00  0.00000000000E+00  0.16866022388E+03  0.16866022388E+03  0.00000000000E+00 0. -1.
         -1   -1    0    0    0  501 -0.00000000000E+00 -0.00000000000E+00 -0.10163185725E+03  0.10163185725E+03  0.00000000000E+00 0.  1.
         23    2    1    2    0    0 -0.61801647852E+02  0.39235950020E+02  0.35906872163E+02  0.14923639869E+03  0.12499318291E+03 0.  0.
          5    1    3    3  502    0 -0.86627820446E+02 -0.28984359352E+01 -0.26545853013E+01  0.86817621651E+02  0.41800000000E+01 0.  1.
         -5    1    3    3    0  502  0.24826172593E+02  0.42134385955E+02  0.38561457464E+02  0.62418777041E+02  0.41800000000E+01 0.  1.
        -11    1    1    2    0    0  0.12297364554E+02 -0.18137148626E+02 -0.31573777903E+02  0.38432860762E+02  0.00000000000E+00 0.  1.
         11    1    1    2    0    0  0.49504283298E+02 -0.21098801394E+02  0.62695272362E+02  0.82622821676E+02  0.00000000000E+00 0. -1.
</event>
<event>
 7    1  0.6506388E-006  0.1735251E+03  0.7561462E-02  0.1174221E+00
         -4   -1    0    0    0  501 -0.00000000000E+00  0.00000000000E+00  0.66762116195E+02  0.66762116195E+02  0.00000000000E+00 0.  1.
          4   -1    0    0  501    0  0.00000000000E+00 -0.00000000000E+00 -0.52375614971E+03  0.52375614971E+03  0.00000000000E+00 0. -1.
         23    2    1    2    0    0 -0.40227272676E+02  0.13728788029E+03 -0.15769483036E+03  0.24695235904E+03  0.12510640500E+03 0.  0.
          5    1    3    3  502    0 -0.56937042804E+02  0.80727621143E+01 -0.65640054071E+02  0.87367530753E+02  0.41800000000E+01 0.  1.
         -5    1    3    3    0  502  0.16709770128E+02  0.12921511817E+03 -0.92054776287E+02  0.15958482829E+03  0.41800000000E+01 0.  1.
        -11    1    1    2    0    0  0.57790108978E+02 -0.77213991470E+02 -0.12183475110E+03  0.15538791378E+03  0.00000000000E+00 0.  1.
         11    1    1    2    0    0 -0.17562836302E+02 -0.60073888815E+02 -0.17746445206E+03  0.18817799308E+03  0.00000000000E+00 0. -1.
</event>
<event>
 7    1  0.6506388E-006  0.1070355E+03  0.7561462E-02  0.1266160E+00
         -1   -1    0    0    0  501 -0.00000000000E+00  0.00000000000E+00  0.17591227805E+03  0.17591227805E+03  0.00000000000E+00 0.  1.
          1   -1    0    0  501    0  0.00000000000E+00 -0.00000000000E+00 -0.76380933474E+02  0.76380933474E+02  0.00000000000E+00 0. -1.
         23    2    1    2    0    0 -0.28554533140E+02  0.29498552489E+02  0.45286132999E+02  0.13922167053E+03  0.12508522591E+03 0.  0.
          5    1    3    3  502    0  0.17084093630E+02 -0.37245108585E+02  0.41043354958E+02  0.58147173232E+02  0.41800000000E+01 0.  1.
         -5    1    3    3    0  502 -0.45638626770E+02  0.66743661074E+02  0.42427780412E+01  0.81074497300E+02  0.41800000000E+01 0.  1.
        -11    1    1    2    0    0  0.12534285480E+02 -0.57937422604E+02  0.54362003965E+02  0.80430595706E+02  0.00000000000E+00 0.  1.
         11    1    1    2    0    0  0.16020247660E+02  0.28438870116E+02 -0.11679239169E+00  0.32640945284E+02  0.00000000000E+00 0. -1.
</event>
<event>
 7    1  0.6506388E-006  0.1138817E+03  0.7561462E-02  0.1253546E+00
         -2   -1    0    0    0  501 -0.00000000000E+00  0.00000000000E+00  0.98235542628E+02  0.98235542628E+02  0.00000000000E+00 0.  1.
          2   -1    0    0  501    0  0.00000000000E+00 -0.00000000000E+00 -0.22041757628E+03  0.22041757628E+03  0.00000000000E+00 0. -1.
         23    2    1    2    0    0  0.49101222325E+02 -0.46210152402E+02  0.11556126345E+02  0.14257113702E+03  0.12508667729E+03 0.  0.
          5    1    3    3  502    0  0.22696814655E+02 -0.72874202687E+02 -0.33778866325E+02  0.83571999037E+02  0.41800000000E+01 0.  1.
         -5    1    3    3    0  502  0.26404407670E+02  0.26664050286E+02  0.45334992670E+02  0.58999137980E+02  0.41800000000E+01 0.  1.
        -11    1    1    2    0    0 -0.58979827694E+02 -0.70466956085E+01 -0.58456568065E+02  0.83339344512E+02  0.00000000000E+00 0.  1.
         11    1    1    2    0    0  0.98786053687E+01  0.53256848010E+02 -0.75281591931E+02  0.92742637377E+02  0.00000000000E+00 0. -1.
</event>
<event>
 6    1  0.6506388E-006  0.1198964E+03  0.7561462E-02  0.1243268E+00
          2   -1    0    0  501    0  0.00000000000E+00  0.00000000000E+00  0.78386633281E+03  0.78386633281E+03  0.00000000000E+00 0. -1.
         -2   -1    0    0    0  501 -0.00000000000E+00 -0.00000000000E+00 -0.18832366811E+02  0.18832366811E+02  0.00000000000E+00 0.  1.
          5    1    1    2  502    0 -0.41991723598E+01  0.83252539739E+02  0.25340795990E+03  0.26679895982E+03  0.41800000000E+01 0. -1.
         -5    1    1    2    0  502  0.31036798320E+02 -0.49461745679E+02  0.17881766985E+03  0.18815679256E+03  0.41800000000E+01 0.  1.
        -11    1    1    2    0    0  0.63388564593E+01 -0.56966114916E+02  0.15167709640E+03  0.16214580143E+03  0.00000000000E+00 0.  1.
         11    1    1    2    0    0 -0.33176482420E+02  0.23175320856E+02  0.18113123985E+03  0.18559714580E+03  0.00000000000E+00 0. -1.
</event>
<event>
 7    1  0.6506388E-006  0.8468266E+02  0.7561462E-02  0.1316265E+00
          2   -1    0    0  501    0  0.00000000000E+00  0.00000000000E+00  0.39167704124E+02  0.39167704124E+02  0.00000000000E+00 0. -1.
         -2   -1    0    0    0  501 -0.00000000000E+00 -0.00000000000E+00 -0.39487393356E+03  0.39487393356E+03  0.00000000000E+00 0.  1.
         23    2    1    2    0    0 -0.46427846272E+02  0.36116914140E+02 -0.22944691501E+03  0.26786840825E+03  0.12509045101E+03 0.  0.
          5    1    3    3  502    0  0.55115529638E+01  0.54735130605E+02 -0.34151444383E+02  0.64885324164E+02  0.41800000000E+01 0.  1.
         -5    1    3    3    0  502 -0.51939399235E+02 -0.18618216465E+02 -0.19529547063E+03  0.20298308409E+03  0.41800000000E+01 0.  1.
        -11    1    1    2    0    0  0.24966046753E+02 -0.20781726014E+02  0.44875723762E+01  0.32792101677E+02  0.00000000000E+00 0. -1.
         11    1    1    2    0    0  0.21461799519E+02 -0.15335188126E+02 -0.13074688680E+03  0.13338112775E+03  0.00000000000E+00 0.  1.
</event>
<event>
 7    1  0.6506388E-006  0.3890955E+03  0.7561462E-02  0.1047622E+00
          1   -1    0    0  501    0  0.00000000000E+00  0.00000000000E+00  0.71568668048E+03  0.71568668048E+03  0.00000000000E+00 0. -1.
         -1   -1    0    0    0  501 -0.00000000000E+00 -0.00000000000E+00 -0.21355258556E+03  0.21355258556E+03  0.00000000000E+00 0.  1.
         23    2    1    2    0    0  0.35967302709E+03  0.10103048939E+03  0.29887250765E+03  0.49451361085E+03  0.12508832594E+03 0.  0.
          5    1    3    3  502    0  0.16492666947E+03  0.11112315310E+03  0.15284718497E+03  0.25085632504E+03  0.41800000000E+01 0. -1.
         -5    1    3    3    0  502  0.19474635762E+03 -0.10092663711E+02  0.14602532267E+03  0.24365728581E+03  0.41800000000E+01 0. -1.
        -11    1    1    2    0    0 -0.34037956599E+03 -0.11621553219E+03  0.19204812843E+03  0.40773371519E+03  0.00000000000E+00 0.  1.
         11    1    1    2    0    0 -0.19293461103E+02  0.15185042799E+02  0.11213458836E+02  0.26991940005E+02  0.00000000000E+00 0. -1.
</event>
<event>
 7    1  0.6506388E-006  0.7747034E+02  0.7561462E-02  0.1336387E+00
          1   -1    0    0  501    0  0.00000000000E+00  0.00000000000E+00  0.49450625213E+02  0.49450625213E+02  0.00000000000E+00 0. -1.
         -1   -1    0    0    0  501 -0.00000000000E+00 -0.00000000000E+00 -0.30479770013E+03  0.30479770013E+03  0.00000000000E+00 0.  1.
         23    2    1    2    0    0 -0.53973085423E+02  0.22703632074E+02 -0.13863262660E+03  0.19569018638E+03  0.12508834889E+03 0.  0.
          5    1    3    3  502    0  0.48269465146E+01  0.44314272103E+01 -0.13353895304E+03  0.13376494809E+03  0.41800000000E+01 0. -1.
         -5    1    3    3    0  502 -0.58800031938E+02  0.18272204864E+02 -0.50936735613E+01  0.61925238287E+02  0.41800000000E+01 0. -1.
        -11    1    1    2    0    0 -0.14165026381E+02 -0.25120095022E+01 -0.74547833656E+02  0.75923235356E+02  0.00000000000E+00 0.  1.
         11    1    1    2    0    0  0.68138111805E+02 -0.20191622572E+02 -0.42166614663E+02  0.82634903609E+02  0.00000000000E+00 0. -1.
</event>
<event>
 7    1  0.6506388E-006  0.1715548E+03  0.7561462E-02  0.1176236E+00
         -2   -1    0    0    0  501 -0.00000000000E+00  0.00000000000E+00  0.15604798120E+03  0.15604798120E+03  0.00000000000E+00 0.  1.
          2   -1    0    0  501    0  0.00000000000E+00 -0.00000000000E+00 -0.22898287958E+03  0.22898287958E+03  0.00000000000E+00 0. -1.
         23    2    1    2    0    0 -0.84574239456E+02 -0.12446366778E+03 -0.60161870206E+01  0.19577674414E+03  0.12509329503E+03 0.  0.
          5    1    3    3  502    0 -0.69869695544E+02 -0.43848291983E+01  0.17919432043E+02  0.72384939920E+02  0.41800000000E+01 0.  1.
         -5    1    3    3    0  502 -0.14704543912E+02 -0.12007883859E+03 -0.23935619064E+02  0.12339180422E+03  0.41800000000E+01 0.  1.
        -11    1    1    2    0    0  0.55818028640E+02  0.63636998776E+02  0.12059216954E+02  0.85502892629E+02  0.00000000000E+00 0.  1.
         11    1    1    2    0    0  0.28756210816E+02  0.60826669009E+02 -0.78977928316E+02  0.10375122401E+03  0.00000000000E+00 0. -1.
</event>
<event>
 7    1  0.6506388E-006  0.8068469E+02  0.7561462E-02  0.1327120E+00
          2   -1    0    0  501    0  0.00000000000E+00  0.00000000000E+00  0.15081432517E+03  0.15081432517E+03  0.00000000000E+00 0. -1.
         -2   -1    0    0    0  501 -0.00000000000E+00 -0.00000000000E+00 -0.10031578859E+03  0.10031578859E+03  0.00000000000E+00 0.  1.
         23    2    1    2    0    0 -0.23687976463E+02  0.43206718458E+02  0.43598301203E+02  0.14133701158E+03  0.12508956082E+03 0.  0.
          5    1    3    3  502    0  0.18739091179E+02 -0.14071234209E+02  0.62998847263E+02  0.67345974838E+02  0.41800000000E+01 0. -1.
         -5    1    3    3    0  502 -0.42427067642E+02  0.57277952667E+02 -0.19400546060E+02  0.73991036740E+02  0.41800000000E+01 0. -1.
        -11    1    1    2    0    0  0.36897363854E+02 -0.31677787023E+02 -0.37919059366E+02  0.61666463440E+02  0.00000000000E+00 0.  1.
         11    1    1    2    0    0 -0.13209387391E+02 -0.11528931435E+02  0.44819294745E+02  0.48126638743E+02  0.00000000000E+00 0. -1.
</event>
<event>
 7    1  0.6506388E-006  0.1007976E+03  0.7561462E-02  0.1278628E+00
         -1   -1    0    0    0  501 -0.00000000000E+00  0.00000000000E+00  0.48712149307E+03  0.48712149307E+03  0.00000000000E+00 0.  1.
          1   -1    0    0  501    0  0.00000000000E+00 -0.00000000000E+00 -0.31124800804E+02  0.31124800804E+02  0.00000000000E+00 0. -1.
         23    2    1    2    0    0 -0.39091679826E+02 -0.33443214649E+02  0.31720055753E+03  0.34483407298E+03  0.12509091154E+03 0.  0.
          5    1    3    3  502    0 -0.52183593757E+02  0.18909715858E+02  0.26075843428E+03  0.26663296544E+03  0.41800000000E+01 0.  1.
         -5    1    3    3    0  502  0.13091913930E+02 -0.52352930506E+02  0.56442123259E+02  0.78201107543E+02  0.41800000000E+01 0.  1.
        -11    1    1    2    0    0  0.23806012420E+02  0.58104883125E+02  0.50838756532E+02  0.80792839015E+02  0.00000000000E+00 0. -1.
         11    1    1    2    0    0  0.15285667406E+02 -0.24661668477E+02  0.87957378200E+02  0.92619381881E+02  0.00000000000E+00 0.  1.
</event>
<event>
 7    1  0.6506388E-006  0.1350146E+03  0.7561462E-02  0.1220199E+00
          1   -1    0    0  501    0  0.00000000000E+00  0.00000000000E+00  0.89005950720E+03  0.89005950720E+03  0.00000000000E+00 0. -1.
         -1   -1    0    0    0  501 -0.00000000000E+00 -0.00000000000E+00 -0.25621159477E+02  0.25621159477E+02  0.00000000000E+00 0.  1.
         23    2    1    2    0    0  0.95615622650E+02  0.94646389015E+01  0.33980795176E+03  0.37463162843E+03  0.12508991267E+03 0.  0.
          5    1    3    3  502    0  0.11460852969E+03  0.23172769281E+02  0.19140426902E+03  0.22433269693E+03  0.41800000000E+01 0. -1.
         -5    1    3    3    0  502 -0.18992907043E+02 -0.13708130379E+02  0.14840368274E+03  0.15029893149E+03  0.41800000000E+01 0. -1.
        -11    1    1    2    0    0 -0.44897949632E+02 -0.47858770972E+02  0.20852857465E+03  0.21861027946E+03  0.00000000000E+00 0.  1.
         11    1    1    2    0    0 -0.50717673018E+02  0.38394132070E+02  0.31610182130E+03  0.32243875878E+03  0.00000000000E+00 0. -1.
</event>
<event>
 7    1  0.6506388E-006  0.2618923E+03  0.7561462E-02  0.1106012E+00
         -2   -1    0    0    0  501 -0.00000000000E+00  0.00000000000E+00  0.17150994402E+03  0.17150994402E+03  0.00000000000E+00 0. -1.
          2   -1    0    0  501    0  0.00000000000E+00 -0.00000000000E+00 -0.65941502430E+03  0.65941502430E+03  0.00000000000E+00 0.  1.
         23    2    1    2    0    0 -0.64381703021E+02 -0.25203086783E+03 -0.22543798505E+02  0.28951697237E+03  0.12508913790E+03 0.  0.
          5    1    3    3  502    0 -0.41035742832E+02 -0.21873763893E+03 -0.63681909062E+02  0.23152309780E+03  0.41800000000E+01 0.  1.
         -5    1    3    3    0  502 -0.23345960188E+02 -0.33293228896E+02  0.41138110557E+02  0.57993874570E+02  0.41800000000E+01 0.  1.
        -11    1    1    2    0    0  0.15616316371E+02  0.79770516360E+02 -0.69502869125E+02  0.10694790056E+03  0.00000000000E+00 0. -1.
         11    1    1    2    0    0  0.48765386650E+02  0.17226035147E+03 -0.39585841265E+03  0.43446009539E+03  0.00000000000E+00 0.  1.
</event>
<event>
 7    1  0.6506388E-006  0.3209157E+03  0.7561462E-02  0.1075229E+00
         -2   -1    0    0    0  501 -0.00000000000E+00  0.00000000000E+00  0.10263342982E+03  0.10263342982E+03  0.00000000000E+00 0.  1.
          2   -1    0    0  501    0  0.00000000000E+00 -0.00000000000E+00 -0.12647017702E+04  0.12647017702E+04  0.00000000000E+00 0. -1.
         23    2    1    2    0    0  0.11647125047E+03 -0.29004996634E+03 -0.31969002213E+03  0.46426658457E+03  0.12508883299E+03 0.  0.
          5    1    3    3  502    0  0.44305778621E+02 -0.26600972900E+02 -0.10396101436E+03  0.11617219412E+03  0.41800000000E+01 0. -1.
         -5    1    3    3    0  502  0.72165471846E+02 -0.26344899344E+03 -0.21572900776E+03  0.34809439045E+03  0.41800000000E+01 0. -1.
        -11    1    1    2    0    0 -0.40581469138E+02  0.46595202307E+02 -0.94486576000E+02  0.11289677391E+03  0.00000000000E+00 0. -1.
         11    1    1    2    0    0 -0.75889781329E+02  0.24345476404E+03 -0.74789174221E+03  0.79017184151E+03  0.00000000000E+00 0.  1.
</event>
<event>
 7    1  0.6506388E-006  0.1005776E+03  0.7561462E-02  0.1279086E+00
         -1   -1    0    0    0  501 -0.00000000000E+00  0.00000000000E+00  0.49273270441E+02  0.49273270441E+02  0.00000000000E+00 0.  1.
          1   -1    0    0  501    0  0.00000000000E+00 -0.00000000000E+00 -0.25338139091E+03  0.25338139091E+03  0.00000000000E+00 0. -1.
         23    2    1    2    0    0 -0.86771765085E+01  0.43724192563E+01 -0.81410162920E+02  0.14956093376E+03  0.12508575793E+03 0.  0.
          5    1    3    3  502    0  0.34380038881E+02 -0.45433984302E+02 -0.23479922839E+02  0.61765792957E+02  0.41800000000E+01 0.  1.
         -5    1    3    3    0  502 -0.43057215390E+02  0.49806403559E+02 -0.57930240081E+02  0.87795140802E+02  0.41800000000E+01 0.  1.
        -11    1    1    2    0    0  0.83119892389E+01  0.36372177575E+02 -0.19404750305E+02  0.42054355316E+02  0.00000000000E+00 0.  1.
         11    1    1    2    0    0  0.36518726953E+00 -0.40744596831E+02 -0.10329320725E+03  0.11103937228E+03  0.00000000000E+00 0. -1.
</event>
<event>
 7    1  0.6506388E-006  0.1706251E+03  0.7561462E-02  0.1177197E+00
          1   -1    0    0  501    0  0.00000000000E+00  0.00000000000E+00  0.11328466720E+03  0.11328466720E+03  0.00000000000E+00 0. -1.
         -1   -1    0    0    0  501 -0.00000000000E+00 -0.00000000000E+00 -0.32995747171E+03  0.32995747171E+03  0.00000000000E+00 0.  1.
         23    2    1    2    0    0 -0.14551839027E+03  0.12964649685E+02 -0.18829698861E+03  0.26916127947E+03  0.12509338271E+03 0.  0.
          5    1    3    3  502    0 -0.87254423704E+02 -0.35464378739E+02 -0.16456529217E+03  0.18965828324E+03  0.41800000000E+01 0.  1.
         -5    1    3    3    0  502 -0.58263966561E+02  0.48429028424E+02 -0.23731696445E+02  0.79502996231E+02  0.41800000000E+01 0.  1.
        -11    1    1    2    0    0  0.57876493803E+02 -0.49483832251E+02 -0.50650140282E+01  0.76315087343E+02  0.00000000000E+00 0.  1.
         11    1    1    2    0    0  0.87641896462E+02  0.36519182566E+02 -0.23310801872E+02  0.97765772102E+02  0.00000000000E+00 0. -1.
</event>
<event>
 7    1  0.6506388E-006  0.1023857E+03  0.7561462E-02  0.1275358E+00
         -3   -1    0    0    0  501 -0.00000000000E+00  0.00000000000E+00  0.82250605768E+02  0.82250605768E+02  0.00000000000E+00 0.  1.
          3   -1    0    0  501    0  0.00000000000E+00 -0.00000000000E+00 -0.15650874468E+03  0.15650874468E+03  0.00000000000E+00 0. -1.
         23    2    1    2    0    0 -0.28934244796E+01  0.37604890021E+01 -0.14433759230E+02  0.12601333143E+03  0.12509401708E+03 0.  0.
          5    1    3    3  502    0  0.20935311949E+02  0.54029269657E+02 -0.33496184301E+02  0.67059048822E+02  0.41800000000E+01 0.  1.
         -5    1    3    3    0  502 -0.23828736429E+02 -0.50268780655E+02  0.19062425071E+02  0.58954282609E+02  0.41800000000E+01 0.  1.
        -11    1    1    2    0    0  0.27460956361E+02 -0.39142717852E+02 -0.48718265267E+02  0.68262184669E+02  0.00000000000E+00 0.  1.
         11    1    1    2    0    0 -0.24567531882E+02  0.35382228850E+02 -0.11106114418E+02  0.44483834352E+02  0.00000000000E+00 0. -1.
</event>
<event>
 7    1  0.7503158E-006  0.2023822E+03  0.7561462E-02  0.1147745E+00
          1   -1    0    0  501    0  0.00000000000E+00  0.00000000000E+00  0.20791962376E+03  0.20791962376E+03  0.00000000000E+00 0. -1.
         -1   -1    0    0    0  501 -0.00000000000E+00 -0.00000000000E+00 -0.25071180308E+03  0.25071180308E+03  0.00000000000E+00 0.  1.
         23    2    1    2    0    0 -0.17101494995E+03  0.97193918154E+02 -0.58629959501E+02  0.24037146458E+03  0.12509275759E+03 0.  0.
          5    1    3    3  502    0 -0.16955561773E+03  0.78495147809E+02 -0.86966453434E+02  0.20613401504E+03  0.41800000000E+01 0.  1.
         -5    1    3    3    0  502 -0.14593322222E+01  0.18698770345E+02  0.28336493934E+02  0.34237449546E+02  0.41800000000E+01 0.  1.
        -11    1    1    2    0    0  0.90425618332E+02 -0.67226731461E+02  0.53087396399E+02  0.12455720585E+03  0.00000000000E+00 0. -1.
         11    1    1    2    0    0  0.80589331618E+02 -0.29967186693E+02 -0.37249616223E+02  0.93702756404E+02  0.00000000000E+00 0.  1.
</event>
<event>
 7    1  0.6506388E-006  0.8888938E+02  0.7561462E-02  0.1305564E+00
          1   -1    0    0  501    0  0.00000000000E+00  0.00000000000E+00  0.42362448714E+03  0.42362448714E+03  0.00000000000E+00 0. -1.
         -1   -1    0    0    0  501 -0.00000000000E+00 -0.00000000000E+00 -0.38156933319E+02  0.38156933319E+02  0.00000000000E+00 0.  1.
         23    2    1    2    0    0  0.94419403619E+01  0.53824245669E+02  0.14063732189E+03  0.19599242473E+03  0.12509186458E+03 0.  0.
          5    1    3    3  502    0  0.48087033152E+02  0.75116273069E+01  0.12401060297E+03  0.13328499297E+03  0.41800000000E+01 0. -1.
         -5    1    3    3    0  502 -0.38645092790E+02  0.46312618362E+02  0.16626718924E+02  0.62707431764E+02  0.41800000000E+01 0. -1.
        -11    1    1    2    0    0 -0.19599490475E+02 -0.74096583510E+01  0.53290621150E+01  0.21620406259E+02  0.00000000000E+00 0.  1.
         11    1    1    2    0    0  0.10157550113E+02 -0.46414587318E+02  0.23950116982E+03  0.24416858947E+03  0.00000000000E+00 0. -1.
</event>
<event>
 7    1  0.6506388E-006  0.1509568E+03  0.7561462E-02  0.1199302E+00
         -2   -1    0    0    0  501 -0.00000000000E+00  0.00000000000E+00  0.43253033481E+02  0.43253033481E+02  0.00000000000E+00 0.  1.
          2   -1    0    0  501    0  0.00000000000E+00 -0.00000000000E+00 -0.66022323416E+03  0.66022323416E+03  0.00000000000E+00 0. -1.
         23    2    1    2    0    0 -0.10556038052E+03 -0.18006043871E+02 -0.17476370318E+03  0.24012317586E+03  0.12509826572E+03 0.  0.
          5    1    3    3  502    0 -0.12749485505E+03  0.97207512355E+01 -0.12436958851E+03  0.17842280688E+03  0.41800000000E+01 0. -1.
         -5    1    3    3    0  502  0.21934474527E+02 -0.27726795106E+02 -0.50394114666E+02  0.61700368983E+02  0.41800000000E+01 0. -1.
        -11    1    1    2    0    0  0.32450057277E+02 -0.35263267369E+02 -0.15412249923E+03  0.16140089533E+03  0.00000000000E+00 0. -1.
         11    1    1    2    0    0  0.73110323241E+02  0.53269311240E+02 -0.28808399827E+03  0.30195219646E+03  0.00000000000E+00 0.  1.
</event>
<event>
 7    1  0.6506388E-006  0.1205744E+03  0.7561462E-02  0.1242152E+00
         -2   -1    0    0    0  501 -0.00000000000E+00  0.00000000000E+00  0.36804348474E+02  0.36804348474E+02  0.00000000000E+00 0.  1.
          2   -1    0    0  501    0  0.00000000000E+00 -0.00000000000E+00 -0.47756012696E+03  0.47756012696E+03  0.00000000000E+00 0. -1.
         23    2    1    2    0    0  0.48372675462E+02  0.37878412895E+02 -0.15298883922E+03  0.20694883766E+03  0.12509015384E+03 0.  0.
          5    1    3    3  502    0  0.18301350499E+01  0.74592495715E+02 -0.11242524250E+03  0.13499739762E+03  0.41800000000E+01 0.  1.
         -5    1    3    3    0  502  0.46542540412E+02 -0.36714082820E+02 -0.40563596719E+02  0.71951440042E+02  0.41800000000E+01 0.  1.
        -11    1    1    2    0    0  0.13297659414E+01 -0.54549551928E+02 -0.12433332669E+03  0.13577996178E+03  0.00000000000E+00 0.  1.
         11    1    1    2    0    0 -0.49702441403E+02  0.16671139034E+02 -0.16343361257E+03  0.17163567600E+03  0.00000000000E+00 0. -1.
</event>
<event>
 7    1  0.6506388E-006  0.1190678E+03  0.7561462E-02  0.1244643E+00
          1   -1    0    0  501    0  0.00000000000E+00  0.00000000000E+00  0.12530685491E+03  0.12530685491E+03  0.00000000000E+00 0. -1.
         -1   -1    0    0    0  501 -0.00000000000E+00 -0.00000000000E+00 -0.13899600968E+03  0.13899600968E+03  0.00000000000E+00 0.  1.
         23    2    1    2    0    0 -0.53038100753E+02 -0.32034221442E+02 -0.49194059708E+02  0.14801064971E+03  0.12509142833E+03 0.  0.
          5    1    3    3  502    0 -0.66264488323E+02  0.24191237980E+02  0.20307847894E+01  0.70695083949E+02  0.41800000000E+01 0.  1.
         -5    1    3    3    0  502  0.13226387570E+02 -0.56225459422E+02 -0.51224844497E+02  0.77315565762E+02  0.41800000000E+01 0.  1.
        -11    1    1    2    0    0 -0.19157676381E+02  0.32077358714E+02  0.41879703435E+01  0.37596709989E+02  0.00000000000E+00 0. -1.
         11    1    1    2    0    0  0.72195777134E+02 -0.43137272699E-01  0.31316934602E+02  0.78695504889E+02  0.00000000000E+00 0.  1.
</event>
<event>
 7    1  0.6506388E-006  0.8862786E+02  0.7561462E-02  0.1306209E+00
         -1   -1    0    0    0  501 -0.00000000000E+00  0.00000000000E+00  0.37777006026E+02  0.37777006026E+02  0.00000000000E+00 0.  1.
          1   -1    0    0  501    0  0.00000000000E+00 -0.00000000000E+00 -0.34210962023E+03  0.34210962023E+03  0.00000000000E+00 0. -1.
         23    2    1    2    0    0  0.11849796436E+02  0.45900627706E+01 -0.12112192347E+03  0.17458317207E+03  0.12508907736E+03 0.  0.
          5    1    3    3  502    0  0.51329619940E+02 -0.46286802045E+01 -0.12336672865E+03  0.13376463172E+03  0.41800000000E+01 0.  1.
         -5    1    3    3    0  502 -0.39479823504E+02  0.92187429752E+01  0.22448051799E+01  0.40818540349E+02  0.41800000000E+01 0.  1.
        -11    1    1    2    0    0  0.17328465581E+02  0.32960171922E+02 -0.41162969410E+02  0.55507104979E+02  0.00000000000E+00 0.  1.
         11    1    1    2    0    0 -0.29178262017E+02 -0.37550234692E+02 -0.14204772133E+03  0.14979634920E+03  0.00000000000E+00 0. -1.
</event>
<event>
 6    1  0.6506388E-006  0.7886721E+02  0.7561462E-02  0.1332297E+00
         -2   -1    0    0    0  501 -0.00000000000E+00  0.00000000000E+00  0.13683712052E+03  0.13683712052E+03  0.00000000000E+00 0.  1.
          2   -1    0    0  501    0  0.00000000000E+00 -0.00000000000E+00 -0.34547683191E+03  0.34547683191E+03  0.00000000000E+00 0. -1.
          5    1    1    2  502    0  0.33944573415E+02  0.29948324361E+02 -0.54767337577E+02  0.71176329363E+02  0.41800000000E+01 0. -1.
         -5    1    1    2    0  502 -0.40447216811E+02 -0.44099832720E+02  0.11893267186E+03  0.13320369901E+03  0.41800000000E+01 0.  1.
        -11    1    1    2    0    0 -0.15026271041E+02 -0.11411391174E+02 -0.75729633239E+02  0.78044769334E+02  0.00000000000E+00 0.  1.
         11    1    1    2    0    0  0.21528914437E+02  0.25562899533E+02 -0.19707541244E+03  0.19988915472E+03  0.00000000000E+00 0. -1.
</event>
<event>
 7    1  0.6506388E-006  0.1633973E+03  0.7561462E-02  0.1184914E+00
          2   -1    0    0  501    0  0.00000000000E+00  0.00000000000E+00  0.83852489985E+03  0.83852489985E+03  0.00000000000E+00 0. -1.
         -2   -1    0    0    0  501 -0.00000000000E+00 -0.00000000000E+00 -0.41485618034E+02  0.41485618034E+02  0.00000000000E+00 0.  1.
         23    2    1    2    0    0  0.42757490667E+02 -0.13155561500E+03  0.27498136070E+03  0.33226136694E+03  0.12509110435E+03 0.  0.
          5    1    3    3  502    0  0.29345693545E+02  0.18910153740E+02  0.45767778773E+02  0.57714171725E+02  0.41800000000E+01 0. -1.
         -5    1    3    3    0  502  0.13411797122E+02 -0.15046576874E+03  0.22921358192E+03  0.27454719522E+03  0.41800000000E+01 0. -1.
        -11    1    1    2    0    0 -0.34620033725E+02  0.66691881958E+02  0.12897903514E+03  0.14927138158E+03  0.00000000000E+00 0.  1.
         11    1    1    2    0    0 -0.81374569414E+01  0.64863733040E+02  0.39307888598E+03  0.39847776936E+03  0.00000000000E+00 0. -1.
</event>
<event>
 7    1  0.6506388E-006  0.1721578E+03  0.7561462E-02  0.1175616E+00
         -4   -1    0    0    0  501 -0.00000000000E+00  0.00000000000E+00  0.48554300580E+03  0.48554300580E+03  0.00000000000E+00 0.  1.
          4   -1    0    0  501    0  0.00000000000E+00 -0.00000000000E+00 -0.84582596036E+02  0.84582596036E+02  0.00000000000E+00 0. -1.
         23    2    1    2    0    0 -0.86376265621E+02 -0.12937751282E+03  0.30868932226E+03  0.36761228700E+03  0.12510114226E+03 0.  0.
          5    1    3    3  502    0 -0.15968377897E+02  0.11171761532E+02  0.12155397746E+03  0.12317726733E+03  0.41800000000E+01 0.  1.
         -5    1    3    3    0  502 -0.70407887724E+02 -0.14054927435E+03  0.18713534479E+03  0.24443501967E+03  0.41800000000E+01 0.  1.
        -11    1    1    2    0    0  0.24514938030E+02  0.91197512981E+02  0.88968607887E+02  0.12974352296E+03  0.00000000000E+00 0.  1.
         11    1    1    2    0    0  0.61861327591E+02  0.38179999835E+02  0.33024796261E+01  0.72769791881E+02  0.00000000000E+00 0. -1.
</event>
<event>
 7    1  0.6506388E-006  0.1553011E+03  0.7561462E-02  0.1194106E+00
         -3   -1    0    0    0  501 -0.00000000000E+00  0.00000000000E+00  0.22636830453E+02  0.22636830453E+02  0.00000000000E+00 0.  1.
          3   -1    0    0  501    0  0.00000000000E+00 -0.00000000000E+00 -0.13897848213E+04  0.13897848213E+04  0.00000000000E+00 0. -1.
         23    2    1    2    0    0 -0.12454612159E+03  0.62190890364E+02 -0.68373542182E+03  0.70888744685E+03  0.12509133462E+03 0.  0.
          5    1    3    3  502    0 -0.25604957465E+02  0.56064242374E+02 -0.46011945266E+03  0.46424799002E+03  0.41800000000E+01 0. -1.
         -5    1    3    3    0  502 -0.98941164123E+02  0.61266479905E+01 -0.22361596916E+03  0.24463945683E+03  0.41800000000E+01 0. -1.
        -11    1    1    2    0    0  0.74169564201E+01 -0.25965742601E+02 -0.38228096608E+02  0.46804042578E+02  0.00000000000E+00 0.  1.
         11    1    1    2    0    0  0.11712916517E+03 -0.36225147764E+02 -0.64518447240E+03  0.65673016232E+03  0.00000000000E+00 0. -1.
</event>
<event>
 7    1  0.6506388E-006  0.1594777E+03  0.7561462E-02  0.1189288E+00
          2   -1    0    0  501    0  0.00000000000E+00  0.00000000000E+00  0.46199611286E+03  0.46199611286E+03  0.00000000000E+00 0. -1.
         -2   -1    0    0    0  501 -0.00000000000E+00 -0.00000000000E+00 -0.89478203979E+02  0.89478203979E+02  0.00000000000E+00 0.  1.
         23    2    1    2    0    0  0.38167571617E+02 -0.14864108179E+03  0.90136647231E+02  0.21754045910E+03  0.12509317108E+03 0.  0.
          5    1    3    3  502    0  0.50865914282E+02 -0.14120428673E+03  0.26970113305E+02  0.15254786540E+03  0.41800000000E+01 0.  1.
         -5    1    3    3    0  502 -0.12698342665E+02 -0.74367950624E+01  0.63166533926E+02  0.64992593697E+02  0.41800000000E+01 0.  1.
        -11    1    1    2    0    0 -0.10690019078E+02  0.48990576544E+02  0.23896502427E+02  0.55546340350E+02  0.00000000000E+00 0.  1.
         11    1    1    2    0    0 -0.27477552539E+02  0.99650505248E+02  0.25848475922E+03  0.27838751739E+03  0.00000000000E+00 0. -1.
</event>
<event>
 7    1  0.8391590E-006  0.4121014E+03  0.7561462E-02  0.1039668E+00
          1   -1    0    0  501    0  0.00000000000E+00  0.00000000000E+00  0.11147229523E+04  0.11147229523E+04  0.00000000000E+00 0. -1.
         -1   -1    0    0    0  501 -0.00000000000E+00 -0.00000000000E+00 -0.15623437766E+03  0.15623437766E+03  0.00000000000E+00 0.  1.
         23    2    1    2    0    0  0.23519264022E+03  0.32441751641E+03  0.41674093082E+03  0.59150895587E+03  0.12509012146E+03 0.  0.
          5    1    3    3  502    0  0.97868100408E+02  0.23656262673E+03  0.23834093769E+03  0.34980554087E+03  0.41800000000E+01 0.  1.
         -5    1    3    3    0  502  0.13732453981E+03  0.87854889681E+02  0.17839999313E+03  0.24170341500E+03  0.41800000000E+01 0.  1.
        -11    1    1    2    0    0 -0.20104128375E+03 -0.23439771602E+03  0.36436840566E+03  0.47762351501E+03  0.00000000000E+00 0.  1.
         11    1    1    2    0    0 -0.34151356469E+02 -0.90019800394E+02  0.17737923815E+03  0.20182485907E+03  0.00000000000E+00 0. -1.
</event>
<event>
 7    1  0.6506388E-006  0.9112861E+02  0.7561462E-02  0.1300141E+00
         -2   -1    0    0    0  501 -0.00000000000E+00  0.00000000000E+00  0.13804899457E+03  0.13804899457E+03  0.00000000000E+00 0.  1.
          2   -1    0    0  501    0  0.00000000000E+00 -0.00000000000E+00 -0.12134310707E+03  0.12134310707E+03  0.00000000000E+00 0. -1.
         23    2    1    2    0    0  0.21018187061E+02 -0.63715155751E+02  0.33255040516E+02  0.14578736038E+03  0.12508665583E+03 0.  0.
          5    1    3    3  502    0  0.75642868844E+01 -0.52128213208E+01 -0.45538708412E+02  0.46643738122E+02  0.41800000000E+01 0. -1.
         -5    1    3    3    0  502  0.13453900176E+02 -0.58502334430E+02  0.78793748928E+02  0.99143622255E+02  0.41800000000E+01 0. -1.
        -11    1    1    2    0    0 -0.30103267864E+02  0.84286772559E+02 -0.93311166636E+01  0.89986312863E+02  0.00000000000E+00 0.  1.
         11    1    1    2    0    0  0.90850808029E+01 -0.20571616809E+02 -0.72180363443E+01  0.23618428398E+02  0.00000000000E+00 0. -1.
</event>
<event>
 7    1  0.6506388E-006  0.1003426E+03  0.7561462E-02  0.1279577E+00
         -2   -1    0    0    0  501 -0.00000000000E+00  0.00000000000E+00  0.31432618154E+03  0.31432618154E+03  0.00000000000E+00 0. -1.
          2   -1    0    0  501    0  0.00000000000E+00 -0.00000000000E+00 -0.60288363938E+02  0.60288363938E+02  0.00000000000E+00 0.  1.
         23    2    1    2    0    0  0.22842318225E+02  0.14815108294E+02  0.24499621092E+03  0.27489582351E+03  0.12166885994E+03 0.  0.
          5    1    3    3  502    0 -0.16628304543E+02 -0.42955166902E+02  0.52138065678E+02  0.69695747131E+02  0.41800000000E+01 0.  1.
         -5    1    3    3    0  502  0.39470622769E+02  0.57770275196E+02  0.19285814524E+03  0.20520007637E+03  0.41800000000E+01 0. -1.
        -11    1    1    2    0    0  0.28495060225E+02  0.56979382292E+01  0.28893164329E+02  0.40978651787E+02  0.00000000000E+00 0. -1.
         11    1    1    2    0    0 -0.51337378450E+02 -0.20513046523E+02 -0.19851557651E+02  0.58740070182E+02  0.00000000000E+00 0.  1.
</event>
<event>
 7    1  0.6506388E-006  0.1288491E+03  0.7561462E-02  0.1229174E+00
         -2   -1    0    0    0  501 -0.00000000000E+00  0.00000000000E+00  0.56460219987E+03  0.56460219987E+03  0.00000000000E+00 0. -1.
          2   -1    0    0  501    0  0.00000000000E+00 -0.00000000000E+00 -0.44613582798E+02  0.44613582798E+02  0.00000000000E+00 0.  1.
         23    2    1    2    0    0 -0.38979741318E+02  0.52898020926E+02  0.42762873421E+03  0.45036795064E+03  0.12508931126E+03 0.  0.
          5    1    3    3  502    0 -0.39433575902E+02 -0.29076682394E+02  0.24863804348E+03  0.25345376192E+03  0.41800000000E+01 0.  1.
         -5    1    3    3    0  502  0.45383458471E+00  0.81974703320E+02  0.17899069073E+03  0.19691418872E+03  0.41800000000E+01 0.  1.
        -11    1    1    2    0    0 -0.11955199720E+02 -0.71292969958E+02  0.36255886726E+02  0.80870907551E+02  0.00000000000E+00 0. -1.
         11    1    1    2    0    0  0.50934941037E+02  0.18394949032E+02  0.56103996134E+02  0.77976924475E+02  0.00000000000E+00 0.  1.
</event>
<event>
 7    1  0.6506388E-006  0.8119951E+02  0.7561462E-02  0.1325681E+00
         -1   -1    0    0    0  501 -0.00000000000E+00  0.00000000000E+00  0.36741819758E+02  0.36741819758E+02  0.00000000000E+00 0.  1.
          1   -1    0    0  501    0  0.00000000000E+00 -0.00000000000E+00 -0.42579641691E+03  0.42579641691E+03  0.00000000000E+00 0. -1.
         23    2    1    2    0    0 -0.44755457956E+01 -0.31684972048E+02 -0.12116644695E+03  0.17706418088E+03  0.12508576386E+03 0.  0.
          5    1    3    3  502    0  0.15645234494E+02 -0.61932144145E+02 -0.16374860045E+02  0.66075504404E+02  0.41800000000E+01 0.  1.
         -5    1    3    3    0  502 -0.20120780290E+02  0.30247172097E+02 -0.10479158691E+03  0.11098867648E+03  0.41800000000E+01 0.  1.
        -11    1    1    2    0    0  0.12401084320E+02 -0.12096500519E+02 -0.38929872759E+01  0.17755775597E+02  0.00000000000E+00 0.  1.
         11    1    1    2    0    0 -0.79255385247E+01  0.43781472567E+02 -0.26399516292E+03  0.26771828019E+03  0.00000000000E+00 0. -1.
</event>
<event>
 7    1  0.6506388E-006  0.1145241E+03  0.7561462E-02  0.1252414E+00
         -2   -1    0    0    0  501 -0.00000000000E+00  0.00000000000E+00  0.42223406780E+02  0.42223406780E+02  0.00000000000E+00 0.  1.
          2   -1    0    0  501    0  0.00000000000E+00 -0.00000000000E+00 -0.44492900943E+03  0.44492900943E+03  0.00000000000E+00 0. -1.
         23    2    1    2    0    0  0.16880386580E+02  0.71585490611E+02 -0.15036766047E+03  0.20897112909E+03  0.12509624118E+03 0.  0.
          5    1    3    3  502    0  0.48983918516E+02  0.76353681775E+02 -0.50564544187E+02  0.10394014875E+03  0.41800000000E+01 0. -1.
         -5    1    3    3    0  502 -0.32103531936E+02 -0.47681911640E+01 -0.99803116284E+02  0.10503098033E+03  0.41800000000E+01 0. -1.
        -11    1    1    2    0    0 -0.20060263237E+02  0.10991689671E+02 -0.16279292823E+02  0.28075732899E+02  0.00000000000E+00 0.  1.
         11    1    1    2    0    0  0.31798766571E+01 -0.82577180283E+02 -0.23605864936E+03  0.25010555423E+03  0.00000000000E+00 0. -1.
</event>
<event>
 7    1  0.6506388E-006  0.1939958E+03  0.7561462E-02  0.1154906E+00
         -1   -1    0    0    0  501 -0.00000000000E+00  0.00000000000E+00  0.51853439882E+02  0.51853439882E+02  0.00000000000E+00 0. -1.
          1   -1    0    0  501    0  0.00000000000E+00 -0.00000000000E+00 -0.85625087240E+03  0.85625087240E+03  0.00000000000E+00 0.  1.
         23    2    1    2    0    0 -0.21747035937E+02 -0.17142476861E+03 -0.28131628472E+03  0.35305317195E+03  0.12509318651E+03 0.  0.
          5    1    3    3  502    0 -0.54097619030E+02 -0.19279588563E+02 -0.70384534293E+02  0.90937945806E+02  0.41800000000E+01 0.  1.
         -5    1    3    3    0  502  0.32350583093E+02 -0.15214518005E+03 -0.21093175043E+03  0.26211522615E+03  0.41800000000E+01 0.  1.
        -11    1    1    2    0    0  0.21713257447E+02  0.68016763859E+02 -0.31116183827E+03  0.31924823462E+03  0.00000000000E+00 0.  1.
         11    1    1    2    0    0  0.33778489962E-01  0.10340800475E+03 -0.21191930953E+03  0.23580290571E+03  0.00000000000E+00 0. -1.
</event>
<event>
 7    1  0.6506388E-006  0.1464384E+03  0.7561462E-02  0.1204919E+00
         -2   -1    0    0    0  501 -0.00000000000E+00  0.00000000000E+00  0.12126687750E+03  0.12126687750E+03  0.00000000000E+00 0.  1.
          2   -1    0    0  501    0  0.00000000000E+00 -0.00000000000E+00 -0.28638083750E+03  0.28638083750E+03  0.00000000000E+00 0. -1.
         23    2    1    2    0    0  0.59586072460E+02  0.91281125463E+02  0.27295497540E+02  0.16815185557E+03  0.12508900211E+03 0.  0.
          5    1    3    3  502    0 -0.31775450262E+02  0.59282840332E+02  0.22838558851E+02  0.71156212432E+02  0.41800000000E+01 0.  1.
         -5    1    3    3    0  502  0.91361522722E+02  0.31998285131E+02  0.44569386890E+01  0.96995643139E+02  0.41800000000E+01 0.  1.
        -11    1    1    2    0    0 -0.72939848663E+02 -0.59536611545E+02 -0.85517619553E+02  0.12719313225E+03  0.00000000000E+00 0.  1.
         11    1    1    2    0    0  0.13353776203E+02 -0.31744513918E+02 -0.10689183799E+03  0.11230272718E+03  0.00000000000E+00 0. -1.
</event>
<event>
 6    1  0.6506388E-006  0.1193002E+03  0.7561462E-02  0.1244256E+00
          3   -1    0    0  501    0  0.00000000000E+00  0.00000000000E+00  0.20499139763E+03  0.20499139763E+03  0.00000000000E+00 0. -1.
         -3   -1    0    0    0  501 -0.00000000000E+00 -0.00000000000E+00 -0.51547559958E+03  0.51547559958E+03  0.00000000000E+00 0.  1.
          5    1    1    2  502    0  0.50939834355E+02  0.98767816063E+02 -0.34448547726E+03  0.36199124942E+03  0.41800000000E+01 0. -1.
         -5    1    1    2    0  502 -0.29060334351E+01 -0.40738804385E+02 -0.14126893345E+03  0.14711383066E+03  0.41800000000E+01 0.  1.
        -11    1    1    2    0    0 -0.46236572006E+02 -0.23694626548E+02  0.16849009748E+03  0.17631837360E+03  0.00000000000E+00 0. -1.
         11    1    1    2    0    0 -0.17972289133E+01 -0.34334385130E+02  0.67801112840E+01  0.35043543529E+02  0.00000000000E+00 0.  1.
</event>
<event>
 7    1  0.6506388E-006  0.1114606E+03  0.7561462E-02  0.1257889E+00
         -1   -1    0    0    0  501 -0.00000000000E+00  0.00000000000E+00  0.27010053486E+02  0.27010053486E+02  0.00000000000E+00 0.  1.
          1   -1    0    0  501    0  0.00000000000E+00 -0.00000000000E+00 -0.53545281837E+03  0.53545281837E+03  0.00000000000E+00 0. -1.
         23    2    1    2    0    0 -0.45188611742E+02  0.23173060998E+02 -0.27045492933E+03  0.30227769477E+03  0.12508770750E+03 0.  0.
          5    1    3    3  502    0  0.26960155857E+02 -0.21430610838E+02 -0.15568272337E+03  0.15950142270E+03  0.41800000000E+01 0. -1.
         -5    1    3    3    0  502 -0.72148767599E+02  0.44603671835E+02 -0.11477220596E+03  0.14277627207E+03  0.41800000000E+01 0. -1.
        -11    1    1    2    0    0 -0.60619095003E+01  0.29319639969E+02 -0.48567469470E+02  0.57054247216E+02  0.00000000000E+00 0.  1.
         11    1    1    2    0    0  0.51250521243E+02 -0.52492700967E+02 -0.18942036608E+03  0.20313092987E+03  0.00000000000E+00 0. -1.
</event>
<event>
 7    1  0.6506388E-006  0.1533852E+03  0.7561462E-02  0.1196374E+00
          4   -1    0    0  501    0  0.00000000000E+00  0.00000000000E+00  0.45770625102E+03  0.45770625102E+03  0.00000000000E+00 0. -1.
         -4   -1    0    0    0  501 -0.00000000000E+00 -0.00000000000E+00 -0.90502160137E+02  0.90502160137E+02  0.00000000000E+00 0.  1.
         23    2    1    2    0    0  0.70719596497E+02  0.91340492142E+02  0.20215919494E+02  0.17146239877E+03  0.12508526675E+03 0.  0.
          5    1    3    3  502    0  0.44854965785E+02 -0.17953075471E+02  0.32537349481E+02  0.58398907401E+02  0.41800000000E+01 0.  1.
         -5    1    3    3    0  502  0.25864630713E+02  0.10929356761E+03 -0.12321429986E+02  0.11306349137E+03  0.41800000000E+01 0.  1.
        -11    1    1    2    0    0 -0.20618814807E+02  0.16869104453E+02  0.80540632738E+02  0.84832162125E+02  0.00000000000E+00 0. -1.
         11    1    1    2    0    0 -0.50100781690E+02 -0.10820959659E+03  0.26644753865E+03  0.29191385026E+03  0.00000000000E+00 0.  1.
</event>
<event>
 7    1  0.6506388E-006  0.1016021E+03  0.7561462E-02  0.1276963E+00
          4   -1    0    0  501    0  0.00000000000E+00  0.00000000000E+00  0.13008953156E+03  0.13008953156E+03  0.00000000000E+00 0. -1.
         -4   -1    0    0    0  501 -0.00000000000E+00 -0.00000000000E+00 -0.14604418900E+03  0.14604418900E+03  0.00000000000E+00 0.  1.
         23    2    1    2    0    0 -0.32641307458E+02  0.21890396702E+02 -0.84425341902E+02  0.15594911865E+03  0.12509134596E+03 0.  0.
          5    1    3    3  502    0 -0.43410010248E+02  0.69317423456E+02 -0.58802618275E+02  0.10081941529E+03  0.41800000000E+01 0.  1.
         -5    1    3    3    0  502  0.10768702790E+02 -0.47427026754E+02 -0.25622723627E+02  0.55129703360E+02  0.41800000000E+01 0.  1.
        -11    1    1    2    0    0  0.19943211209E+02 -0.43261289185E+02  0.79744037437E+02  0.92889086130E+02  0.00000000000E+00 0. -1.
         11    1    1    2    0    0  0.12698096249E+02  0.21370892483E+02 -0.11273352980E+02  0.27295515772E+02  0.00000000000E+00 0.  1.
</event>
<event>
 6    1  0.6506388E-006  0.1421527E+03  0.7561462E-02  0.1210461E+00
         -2   -1    0    0    0  501 -0.00000000000E+00  0.00000000000E+00  0.12045201758E+03  0.12045201758E+03  0.00000000000E+00 0.  1.
          2   -1    0    0  501    0  0.00000000000E+00 -0.00000000000E+00 -0.20917324554E+03  0.20917324554E+03  0.00000000000E+00 0. -1.
          5    1    1    2  502    0 -0.78875807032E+02 -0.28798983608E+02 -0.23280610069E+02  0.87236652830E+02  0.41800000000E+01 0. -1.
         -5    1    1    2    0  502  0.58297206502E+02  0.82877339810E+02  0.21532688869E+02  0.10367423417E+03  0.41800000000E+01 0.  1.
        -11    1    1    2    0    0 -0.92450094433E+01 -0.66041543579E+02 -0.82794372472E+02  0.10631022430E+03  0.00000000000E+00 0. -1.
         11    1    1    2    0    0  0.29823609973E+02  0.11963187377E+02 -0.41789342870E+01  0.32404151830E+02  0.00000000000E+00 0.  1.
</event>
<event>
 7    1  0.6506388E-006  0.1023230E+03  0.7561462E-02  0.1275485E+00
         -2   -1    0    0    0  501 -0.00000000000E+00  0.00000000000E+00  0.85572152428E+02  0.85572152428E+02  0.00000000000E+00 0.  1.
          2   -1    0    0  501    0  0.00000000000E+00 -0.00000000000E+00 -0.30628485164E+03  0.30628485164E+03  0.00000000000E+00 0. -1.
         23    2    1    2    0    0 -0.60529057323E+02 -0.31415733860E+02  0.27988856364E+00  0.14247519861E+03  0.12509352009E+03 0.  0.
          5    1    3    3  502    0 -0.29461604177E+02  0.25667371681E+02 -0.47540504895E+02  0.61679592211E+02  0.41800000000E+01 0. -1.
         -5    1    3    3    0  502 -0.31067453146E+02 -0.57083105542E+02  0.47820393458E+02  0.80795606401E+02  0.41800000000E+01 0. -1.
        -11    1    1    2    0    0 -0.97632175154E+01  0.28218567747E+02 -0.18775777067E+02  0.35272337410E+02  0.00000000000E+00 0.  1.
         11    1    1    2    0    0  0.70292274839E+02  0.31971661138E+01 -0.20221681071E+03  0.21410946805E+03  0.00000000000E+00 0. -1.
</event>
<event>
 7    1  0.6506388E-006  0.1180590E+03  0.7561462E-02  0.1246334E+00
          2   -1    0    0  501    0  0.00000000000E+00  0.00000000000E+00  0.24279950798E+03  0.24279950798E+03  0.00000000000E+00 0. -1.
         -2   -1    0    0    0  501 -0.00000000000E+00 -0.00000000000E+00 -0.74547473552E+02  0.74547473552E+02  0.00000000000E+00 0.  1.
         23    2    1    2    0    0 -0.46528655142E+02  0.64283591596E+02  0.96227549339E+02  0.17665042485E+03  0.12509330697E+03 0.  0.
          5    1    3    3  502    0  0.13292682383E+02  0.53803427431E+02  0.10131904736E+03  0.11556178420E+03  0.41800000000E+01 0.  1.
         -5    1    3    3    0  502 -0.59821337524E+02  0.10480164165E+02 -0.50914980246E+01  0.61088640648E+02  0.41800000000E+01 0.  1.
        -11    1    1    2    0    0  0.36837129363E+00 -0.72734824849E+02  0.33964286548E+02  0.80274922634E+02  0.00000000000E+00 0.  1.
         11    1    1    2    0    0  0.46160283848E+02  0.84512332527E+01  0.38060198541E+02  0.60421634051E+02  0.00000000000E+00 0. -1.
</event>
<event>
 7    1  0.6506388E-006  0.1036182E+03  0.7561462E-02  0.1272866E+00
          4   -1    0    0  501    0  0.00000000000E+00  0.00000000000E+00  0.10640913656E+03  0.10640913656E+03  0.00000000000E+00 0. -1.
         -4   -1    0    0    0  501 -0.00000000000E+00 -0.00000000000E+00 -0.11098670731E+03  0.11098670731E+03  0.00000000000E+00 0.  1.
         23    2    1    2    0    0  0.31423946111E+02 -0.63291398671E+01 -0.22485450352E+02  0.13107487892E+03  0.12508999163E+03 0.  0.
          5    1    3    3  502    0  0.68608307740E+02  0.26956162784E+02  0.49019628347E+01  0.73994839297E+02  0.41800000000E+01 0. -1.
         -5    1    3    3    0  502 -0.37184361629E+02 -0.33285302651E+02 -0.27387413186E+02  0.57080039623E+02  0.41800000000E+01 0. -1.
        -11    1    1    2    0    0  0.13095219472E+02  0.30121970640E+02  0.25920572039E+00  0.32846386039E+02  0.00000000000E+00 0.  1.
         11    1    1    2    0    0 -0.44519165583E+02 -0.23792830773E+02  0.17648673881E+02  0.53474578915E+02  0.00000000000E+00 0. -1.
</event>
<event>
 7    1  0.6506388E-006  0.1490642E+03  0.7561462E-02  0.1201628E+00
         -1   -1    0    0    0  501 -0.00000000000E+00  0.00000000000E+00  0.30990067427E+03  0.30990067427E+03  0.00000000000E+00 0.  1.
          1   -1    0    0  501    0  0.00000000000E+00 -0.00000000000E+00 -0.10054798599E+03  0.10054798599E+03  0.00000000000E+00 0. -1.
         23    2    1    2    0    0 -0.51040846184E+02 -0.11292002054E+03  0.17332700601E+03  0.24707460196E+03  0.12509000322E+03 0.  0.
          5    1    3    3  502    0 -0.13554540487E+01 -0.98478648596E+02  0.44447947764E+02  0.10813405544E+03  0.41800000000E+01 0. -1.
         -5    1    3    3    0  502 -0.49685392135E+02 -0.14441371944E+02  0.12887905824E+03  0.13894054653E+03  0.41800000000E+01 0. -1.
        -11    1    1    2    0    0  0.44476873775E+02  0.11406774891E+02 -0.16622007515E+02  0.48832345305E+02  0.00000000000E+00 0. -1.
         11    1    1    2    0    0  0.65639724095E+01  0.10151324565E+03  0.52647689786E+02  0.11454171299E+03  0.00000000000E+00 0.  1.
</event>
<event>
 7    1  0.6506388E-006  0.9861080E+02  0.7561462E-02  0.1283245E+00
          1   -1    0    0  501    0  0.00000000000E+00  0.00000000000E+00  0.31511310085E+03  0.31511310085E+03  0.00000000000E+00 0. -1.
         -1   -1    0    0    0  501 -0.00000000000E+00 -0.00000000000E+00 -0.38900506529E+02  0.38900506529E+02  0.00000000000E+00 0.  1.
         23    2    1    2    0    0 -0.17460202614E+02  0.10042393416E+02  0.21150233349E+03  0.24017404146E+03  0.11200278916E+03 0.  0.
          5    1    3    3  502    0  0.45258403872E+02  0.56188914422E+01  0.55690784324E+02  0.72102918947E+02  0.41800000000E+01 0. -1.
         -5    1    3    3    0  502 -0.62718606486E+02  0.44235019742E+01  0.15581154916E+03  0.16807112251E+03  0.41800000000E+01 0.  1.
        -11    1    1    2    0    0  0.45086473963E+02  0.18458519094E+02  0.53996372851E+02  0.72726304338E+02  0.00000000000E+00 0.  1.
         11    1    1    2    0    0 -0.27626271349E+02 -0.28500912510E+02  0.10713887986E+02  0.41113261587E+02  0.00000000000E+00 0. -1.
</event>
<event>
 7    1  0.6506388E-006  0.1022634E+03  0.7561462E-02  0.1275607E+00
          1   -1    0    0  501    0  0.00000000000E+00  0.00000000000E+00  0.48405690173E+02  0.48405690173E+02  0.00000000000E+00 0.  1.
         -1   -1    0    0    0  501 -0.00000000000E+00 -0.00000000000E+00 -0.40746832574E+03  0.40746832574E+03  0.00000000000E+00 0. -1.
         23    2    1    2    0    0 -0.30310112032E+02  0.77310500401E+02 -0.14518102699E+03  0.20885590020E+03  0.12509052757E+03 0.  0.
          5    1    3    3  502    0 -0.23482918804E+01  0.67252515882E+02 -0.73806524516E+01  0.67825966988E+02  0.41800000000E+01 0.  1.
         -5    1    3    3    0  502 -0.27961820152E+02  0.10057984518E+02 -0.13780037454E+03  0.14102993321E+03  0.41800000000E+01 0.  1.
        -11    1    1    2    0    0 -0.12581732279E+02 -0.59224456501E+02 -0.56200066185E+02  0.82609222694E+02  0.00000000000E+00 0.  1.
         11    1    1    2    0    0  0.42891844311E+02 -0.18086043899E+02 -0.15768154239E+03  0.16440889302E+03  0.00000000000E+00 0. -1.
</event>
<event>
 7    1  0.6506388E-006  0.1124638E+03  0.7561462E-02  0.1256074E+00
         -2   -1    0    0    0  501 -0.00000000000E+00  0.00000000000E+00  0.97700612243E+02  0.97700612243E+02  0.00000000000E+00 0.  1.
          2   -1    0    0  501    0  0.00000000000E+00 -0.00000000000E+00 -0.27549876574E+03  0.27549876574E+03  0.00000000000E+00 0. -1.
         23    2    1    2    0    0 -0.10088958764E+03  0.31754070178E+02 -0.24516676751E+02  0.16562448768E+03  0.12507347286E+03 0.  0.
          5    1    3    3  502    0 -0.31299191041E+02  0.37626492864E+02 -0.67523620770E+02  0.83500323873E+02  0.41800000000E+01 0.  1.
         -5    1    3    3    0  502 -0.69590396595E+02 -0.58724226858E+01  0.43006944019E+02  0.82124163802E+02  0.41800000000E+01 0.  1.
        -11    1    1    2    0    0  0.33613491828E+02 -0.86153675663E+01 -0.12712362404E+03  0.13177445572E+03  0.00000000000E+00 0. -1.
         11    1    1    2    0    0  0.67276095807E+02 -0.23138702612E+02 -0.26157852706E+02  0.75800434588E+02  0.00000000000E+00 0.  1.
</event>
<event>
 7    1  0.6506388E-006  0.1347838E+03  0.7561462E-02  0.1220525E+00
         -2   -1    0    0    0  501 -0.00000000000E+00  0.00000000000E+00  0.80911182105E+02  0.80911182105E+02  0.00000000000E+00 0.  1.
          2   -1    0    0  501    0  0.00000000000E+00 -0.00000000000E+00 -0.25623621502E+03  0.25623621502E+03  0.00000000000E+00 0. -1.
         23    2    1    2    0    0 -0.80967123626E+02 -0.36679990932E+02 -0.59861080712E+02  0.16471103517E+03  0.12508109081E+03 0.  0.
          5    1    3    3  502    0 -0.86852238647E+02  0.17189902754E+02 -0.70300350678E+01  0.88913991631E+02  0.41800000000E+01 0. -1.
         -5    1    3    3    0  502  0.58851150213E+01 -0.53869893686E+02 -0.52831045645E+02  0.75797043534E+02  0.41800000000E+01 0. -1.
        -11    1    1    2    0    0  0.11014631691E+01  0.46143118612E+02 -0.55104594111E+02  0.71881269524E+02  0.00000000000E+00 0. -1.
         11    1    1    2    0    0  0.79865660457E+02 -0.94631276798E+01 -0.60359358096E+02  0.10055509244E+03  0.00000000000E+00 0.  1.
</event>
<event>
 7    1  0.6506388E-006  0.1528751E+03  0.7561462E-02  0.1196984E+00
         -1   -1    0    0    0  501 -0.00000000000E+00  0.00000000000E+00  0.69436152151E+02  0.69436152151E+02  0.00000000000E+00 0.  1.
          1   -1    0    0  501    0  0.00000000000E+00 -0.00000000000E+00 -0.38762258605E+03  0.38762258605E+03  0.00000000000E+00 0. -1.
         23    2    1    2    0    0 -0.42599499664E+02 -0.11227562492E+03 -0.20002216560E+03  0.26472175520E+03  0.12509279604E+03 0.  0.
          5    1    3    3  502    0 -0.69078690252E+02 -0.10621867444E+03 -0.10138924705E+03  0.16233152517E+03  0.41800000000E+01 0. -1.
         -5    1    3    3    0  502  0.26479190588E+02 -0.60569504804E+01 -0.98632918549E+02  0.10239023003E+03  0.41800000000E+01 0. -1.
        -11    1    1    2    0    0  0.37987728123E+02  0.12882706972E+03 -0.10821938749E+03  0.17248454195E+03  0.00000000000E+00 0. -1.
         11    1    1    2    0    0  0.46117715413E+01 -0.16551444798E+02 -0.99448808077E+01  0.19852441057E+02  0.00000000000E+00 0.  1.
</event>
<event>
 7    1  0.6506388E-006  0.1083844E+03  0.7561462E-02  0.1263591E+00
          2   -1    0    0  501    0  0.00000000000E+00  0.00000000000E+00  0.26413666007E+03  0.26413666007E+03  0.00000000000E+00 0. -1.
         -2   -1    0    0    0  501 -0.00000000000E+00 -0.00000000000E+00 -0.60433568947E+02  0.60433568947E+02  0.00000000000E+00 0.  1.
         23    2    1    2    0    0  0.26492676647E+02 -0.58711251709E+02  0.11405496269E+03  0.18111667820E+03  0.12508334668E+03 0.  0.
          5    1    3    3  502    0 -0.36752044498E+02 -0.26173715480E+02  0.98166794218E+02  0.10812015559E+03  0.41800000000E+01 0. -1.
         -5    1    3    3    0  502  0.63244721145E+02 -0.32537536229E+02  0.15888168467E+02  0.72996522615E+02  0.41800000000E+01 0. -1.
        -11    1    1    2    0    0 -0.37000652387E+02 -0.34549547243E+01  0.43961209411E+01  0.37420727792E+02  0.00000000000E+00 0.  1.
         11    1    1    2    0    0  0.10507975739E+02  0.62166206433E+02  0.85252007501E+02  0.10603282303E+03  0.00000000000E+00 0. -1.
</event>
<event>
 7    1  0.6506388E-006  0.1061990E+03  0.7561462E-02  0.1267775E+00
         -1   -1    0    0    0  501 -0.00000000000E+00  0.00000000000E+00  0.35249695883E+02  0.35249695883E+02  0.00000000000E+00 0.  1.
          1   -1    0    0  501    0  0.00000000000E+00 -0.00000000000E+00 -0.40002740199E+03  0.40002740199E+03  0.00000000000E+00 0. -1.
         23    2    1    2    0    0  0.21750889701E+02 -0.18513312645E+02 -0.13351916336E+03  0.18516012684E+03  0.12506423005E+03 0.  0.
          5    1    3    3  502    0 -0.26349015753E+02 -0.52941591105E+02 -0.31433909316E+02  0.67101756719E+02  0.41800000000E+01 0. -1.
         -5    1    3    3    0  502  0.48099905454E+02  0.34428278460E+02 -0.10208525405E+03  0.11805837012E+03  0.41800000000E+01 0. -1.
        -11    1    1    2    0    0 -0.10737542632E+02 -0.36326658104E+02 -0.72617748126E+02  0.81903957497E+02  0.00000000000E+00 0.  1.
         11    1    1    2    0    0 -0.11013347069E+02  0.54839970749E+02 -0.15864079462E+03  0.16821301354E+03  0.00000000000E+00 0. -1.
</event>
<event>
 7    1  0.6506388E-006  0.2310090E+03  0.7561462E-02  0.1125932E+00
         -2   -1    0    0    0  501 -0.00000000000E+00  0.00000000000E+00  0.82164608442E+02  0.82164608442E+02  0.00000000000E+00 0.  1.
          2   -1    0    0  501    0  0.00000000000E+00 -0.00000000000E+00 -0.11332403672E+04  0.11332403672E+04  0.00000000000E+00 0. -1.
         23    2    1    2    0    0 -0.20816726892E+03  0.61998553612E+01 -0.14885934540E+03  0.28491936005E+03  0.12509151435E+03 0.  0.
          5    1    3    3  502    0 -0.14307470513E+03  0.57542010361E+02 -0.66520676252E+02  0.16799978266E+03  0.41800000000E+01 0.  1.
         -5    1    3    3    0  502 -0.65092563792E+02 -0.51342155000E+02 -0.82338669150E+02  0.11691957740E+03  0.41800000000E+01 0.  1.
        -11    1    1    2    0    0  0.77051115223E+02 -0.43419993688E+02 -0.28538653911E+03  0.29877691831E+03  0.00000000000E+00 0.  1.
         11    1    1    2    0    0  0.13111615370E+03  0.37220138327E+02 -0.61682987421E+03  0.63170869725E+03  0.00000000000E+00 0. -1.
</event>
<event>
 7    1  0.6506388E-006  0.1249510E+03  0.7561462E-02  0.1235146E+00
          3   -1    0    0  501    0  0.00000000000E+00  0.00000000000E+00  0.25569304272E+03  0.25569304272E+03  0.00000000000E+00 0. -1.
         -3   -1    0    0    0  501 -0.00000000000E+00 -0.00000000000E+00 -0.92081976702E+02  0.92081976702E+02  0.00000000000E+00 0.  1.
         23    2    1    2    0    0  0.61541676347E+02 -0.44786431854E+02  0.96834787263E+00  0.14643340438E+03  0.12509437164E+03 0.  0.
          5    1    3    3  502    0  0.77427180629E+02  0.18023157826E+02  0.12232866106E+02  0.80541405074E+02  0.41800000000E+01 0.  1.
         -5    1    3    3    0  502 -0.15885504281E+02 -0.62809589680E+02 -0.11264518234E+02  0.65891999310E+02  0.41800000000E+01 0.  1.
        -11    1    1    2    0    0 -0.70961338158E+02  0.56238687207E+02  0.91711821522E+02  0.12887730467E+03  0.00000000000E+00 0.  1.
         11    1    1    2    0    0  0.94196618111E+01 -0.11452255353E+02  0.70930896625E+02  0.72464310370E+02  0.00000000000E+00 0. -1.
</event>
<event>
 6    1  0.6506388E-006  0.1512056E+03  0.7561462E-02  0.1198999E+00
          1   -1    0    0  501    0  0.00000000000E+00  0.00000000000E+00  0.11214939313E+03  0.11214939313E+03  0.00000000000E+00 0. -1.
         -1   -1    0    0    0  501 -0.00000000000E+00 -0.00000000000E+00 -0.27679528238E+03  0.27679528238E+03  0.00000000000E+00 0.  1.
          5    1    1    2  502    0 -0.31606828035E+02  0.11786791543E+02 -0.52877545940E+02  0.62860379398E+02  0.41800000000E+01 0. -1.
         -5    1    1    2    0  502  0.14744264475E+03  0.43012180472E+01 -0.95719027305E+02  0.17589041633E+03  0.41800000000E+01 0.  1.
        -11    1    1    2    0    0 -0.37899789481E+02  0.90505768166E+01  0.36092428930E+02  0.53112808337E+02  0.00000000000E+00 0. -1.
         11    1    1    2    0    0 -0.77936027238E+02 -0.25138586407E+02 -0.52141744928E+02  0.97081071442E+02  0.00000000000E+00 0.  1.
</event>
<event>
 7    1  0.6506388E-006  0.1363354E+03  0.7561462E-02  0.1218347E+00
          2   -1    0    0  501    0  0.00000000000E+00  0.00000000000E+00  0.60184250043E+02  0.60184250043E+02  0.00000000000E+00 0. -1.
         -2   -1    0    0    0  501 -0.00000000000E+00 -0.00000000000E+00 -0.36801179160E+03  0.36801179160E+03  0.00000000000E+00 0.  1.
         23    2    1    2    0    0 -0.79888849008E+02 -0.62143206478E+02 -0.15515420819E+03  0.22352728691E+03  0.12509042077E+03 0.  0.
          5    1    3    3  502    0 -0.26074549643E+02  0.24753175468E+02  0.17325281061E+01  0.36236389010E+02  0.41800000000E+01 0.  1.
         -5    1    3    3    0  502 -0.53814299365E+02 -0.86896381945E+02 -0.15688673629E+03  0.18729089790E+03  0.41800000000E+01 0.  1.
        -11    1    1    2    0    0  0.79676920879E+02  0.80457594026E+01 -0.72975360265E+02  0.10834458533E+03  0.00000000000E+00 0. -1.
         11    1    1    2    0    0  0.21192812881E+00  0.54097447075E+02 -0.79697973101E+02  0.96324169397E+02  0.00000000000E+00 0.  1.
</event>
<event>
 7    1  0.6506388E-006  0.1376934E+03  0.7561462E-02  0.1216467E+00
          1   -1    0    0  501    0  0.00000000000E+00  0.00000000000E+00  0.11830172974E+03  0.11830172974E+03  0.00000000000E+00 0. -1.
         -1   -1    0    0    0  501 -0.00000000000E+00 -0.00000000000E+00 -0.35670221128E+03  0.35670221128E+03  0.00000000000E+00 0.  1.
         23    2    1    2    0    0  0.99175782284E+02  0.61505276574E+02 -0.27431833387E+03  0.32329115154E+03  0.12509150863E+03 0.  0.
          5    1    3    3  502    0  0.18053478008E+02 -0.17160517038E+02  0.13904484123E+01  0.25294607331E+02  0.41800000000E+01 0. -1.
         -5    1    3    3    0  502  0.81122304276E+02  0.78665793613E+02 -0.27570878228E+03  0.29799654421E+03  0.41800000000E+01 0. -1.
        -11    1    1    2    0    0  0.29227341415E+01  0.11288643159E+02 -0.12685767768E+02  0.17230918231E+02  0.00000000000E+00 0.  1.
         11    1    1    2    0    0 -0.10209851643E+03 -0.72793919734E+02  0.48603620102E+02  0.13448187124E+03  0.00000000000E+00 0. -1.
</event>
<event>
 7    1  0.6506388E-006  0.1655157E+03  0.7561462E-02  0.1182607E+00
         -2   -1    0    0    0  501 -0.00000000000E+00  0.00000000000E+00  0.94368287402E+02  0.94368287402E+02  0.00000000000E+00 0. -1.
          2   -1    0    0  501    0  0.00000000000E+00 -0.00000000000E+00 -0.32973681613E+03  0.32973681613E+03  0.00000000000E+00 0.  1.
         23    2    1    2    0    0 -0.12047889118E+03 -0.54654094833E+02 -0.74429819290E+02  0.19669781565E+03  0.12509196369E+03 0.  0.
          5    1    3    3  502    0 -0.13043297372E+03 -0.17308518898E+02 -0.25306363100E+02  0.13405308603E+03  0.41800000000E+01 0. -1.
         -5    1    3    3    0  502  0.99540825439E+01 -0.37345575935E+02 -0.49123456190E+02  0.62644729621E+02  0.41800000000E+01 0. -1.
        -11    1    1    2    0    0  0.63262229276E+02 -0.20097770517E+02 -0.61745975629E+02  0.90656469924E+02  0.00000000000E+00 0.  1.
         11    1    1    2    0    0  0.57216661901E+02  0.74751865350E+02 -0.99192733804E+02  0.13675081796E+03  0.00000000000E+00 0. -1.
</event>
<event>
 7    1  0.6506388E-006  0.7893887E+02  0.7561462E-02  0.1332090E+00
         -2   -1    0    0    0  501 -0.00000000000E+00  0.00000000000E+00  0.39790342233E+02  0.39790342233E+02  0.00000000000E+00 0.  1.
          2   -1    0    0  501    0  0.00000000000E+00 -0.00000000000E+00 -0.40326762160E+03  0.40326762160E+03  0.00000000000E+00 0. -1.
         23    2    1    2    0    0 -0.50797348280E+02 -0.35070770941E+02 -0.23212776556E+03  0.27081517330E+03  0.12508888432E+03 0.  0.
          5    1    3    3  502    0 -0.34017679322E+02 -0.89405999786E+01  0.11532201806E+01  0.35439231809E+02  0.41800000000E+01 0. -1.
         -5    1    3    3    0  502 -0.16779668958E+02 -0.26130170963E+02 -0.23328098574E+03  0.23537594149E+03  0.41800000000E+01 0. -1.
        -11    1    1    2    0    0 -0.16649217909E+02  0.64339098640E+01  0.40363320058E+01  0.18299825933E+02  0.00000000000E+00 0.  1.
         11    1    1    2    0    0  0.67446566189E+02  0.28636861077E+02 -0.13538584581E+03  0.15394296459E+03  0.00000000000E+00 0. -1.
</event>
<event>
 7    1  0.6506388E-006  0.9578732E+02  0.7561462E-02  0.1289413E+00
         -1   -1    0    0    0  501 -0.00000000000E+00  0.00000000000E+00  0.53783915009E+02  0.53783915009E+02  0.00000000000E+00 0.  1.
          1   -1    0    0  501    0  0.00000000000E+00 -0.00000000000E+00 -0.27713337535E+03  0.27713337535E+03  0.00000000000E+00 0. -1.
         23    2    1    2    0    0 -0.51069568557E+02  0.17670829010E+02 -0.10444323830E+03  0.17168778286E+03  0.12509174923E+03 0.  0.
          5    1    3    3  502    0 -0.61907515208E+02 -0.36232402313E+01  0.23261904610E+01  0.62197683808E+02  0.41800000000E+01 0. -1.
         -5    1    3    3    0  502  0.10837946651E+02  0.21294069241E+02 -0.10676942876E+03  0.10949009905E+03  0.41800000000E+01 0. -1.
        -11    1    1    2    0    0  0.67541009834E+02 -0.39172400802E+02 -0.79655056151E+02  0.11154009577E+03  0.00000000000E+00 0.  1.
         11    1    1    2    0    0 -0.16471441277E+02  0.21501571792E+02 -0.39251165889E+02  0.47689411728E+02  0.00000000000E+00 0. -1.
</event>
<event>
 7    1  0.6506388E-006  0.9129612E+02  0.7561462E-02  0.1299743E+00
         -1   -1    0    0    0  501 -0.00000000000E+00  0.00000000000E+00  0.96876957757E+02  0.96876957757E+02  0.00000000000E+00 0.  1.
          1   -1    0    0  501    0  0.00000000000E+00 -0.00000000000E+00 -0.12632842468E+03  0.12632842468E+03  0.00000000000E+00 0. -1.
         23    2    1    2    0    0  0.18513888282E+02  0.79708967144E+01 -0.24110565219E+02  0.12891834893E+03  0.12502928490E+03 0.  0.
          5    1    3    3  502    0  0.13261634209E+02 -0.50457884511E+02  0.19337854833E+02  0.55796900279E+02  0.41800000000E+01 0. -1.
         -5    1    3    3    0  502  0.52522540729E+01  0.58428781225E+02 -0.43448420052E+02  0.73121448655E+02  0.41800000000E+01 0. -1.
        -11    1    1    2    0    0  0.64443909773E+01  0.27401596862E+02 -0.32644386619E+02  0.43104914609E+02  0.00000000000E+00 0. -1.
         11    1    1    2    0    0 -0.24958279259E+02 -0.35372493577E+02  0.27303484920E+02  0.51182118891E+02  0.00000000000E+00 0.  1.
</event>
<event>
 7    1  0.6506388E-006  0.7582640E+02  0.7561462E-02  0.1341331E+00
          2   -1    0    0  501    0  0.00000000000E+00  0.00000000000E+00  0.96145658502E+02  0.96145658502E+02  0.00000000000E+00 0. -1.
         -2   -1    0    0    0  501 -0.00000000000E+00 -0.00000000000E+00 -0.14387596148E+03  0.14387596148E+03  0.00000000000E+00 0.  1.
         23    2    1    2    0    0 -0.47296933352E+02 -0.28473099993E+01 -0.17234202624E+02  0.13485838739E+03  0.12507861460E+03 0.  0.
          5    1    3    3  502    0  0.27373487505E+02  0.70912066615E+01  0.33427059760E+02  0.43982198153E+02  0.41800000000E+01 0.  1.
         -5    1    3    3    0  502 -0.74670420858E+02 -0.99385166608E+01 -0.50661262384E+02  0.90876189240E+02  0.41800000000E+01 0.  1.
        -11    1    1    2    0    0  0.25373485795E+02  0.39173474604E+01 -0.61805730973E+02  0.66926136701E+02  0.00000000000E+00 0.  1.
         11    1    1    2    0    0  0.21923447557E+02 -0.10700374610E+01  0.31309630615E+02  0.38237095891E+02  0.00000000000E+00 0. -1.
</event>
<event>
 7    1  0.6506388E-006  0.2731242E+03  0.7561462E-02  0.1099505E+00
          1   -1    0    0  501    0  0.00000000000E+00  0.00000000000E+00  0.11855975321E+03  0.11855975321E+03  0.00000000000E+00 0. -1.
         -1   -1    0    0    0  501 -0.00000000000E+00 -0.00000000000E+00 -0.86842803682E+03  0.86842803682E+03  0.00000000000E+00 0.  1.
         23    2    1    2    0    0  0.20254470979E+03 -0.15010397498E+03 -0.63518746385E+03  0.69474177576E+03  0.12508979964E+03 0.  0.
          5    1    3    3  502    0  0.16589546568E+03 -0.16870468490E+03 -0.57448427372E+03  0.62131491966E+03  0.41800000000E+01 0.  1.
         -5    1    3    3    0  502  0.36649244110E+02  0.18600709923E+02 -0.60703190131E+02  0.73426856092E+02  0.41800000000E+01 0.  1.
        -11    1    1    2    0    0 -0.81089472373E+02  0.11709742029E+03 -0.69858060098E+02  0.15864254451E+03  0.00000000000E+00 0.  1.
         11    1    1    2    0    0 -0.12145523742E+03  0.33006554689E+02 -0.44822759663E+02  0.13360346976E+03  0.00000000000E+00 0. -1.
</event>
<event>
 7    1  0.6506388E-006  0.1782222E+03  0.7561462E-02  0.1169535E+00
         -2   -1    0    0    0  501 -0.00000000000E+00  0.00000000000E+00  0.54432626947E+02  0.54432626947E+02  0.00000000000E+00 0.  1.
          2   -1    0    0  501    0  0.00000000000E+00 -0.00000000000E+00 -0.69919022141E+03  0.69919022141E+03  0.00000000000E+00 0. -1.
         23    2    1    2    0    0  0.36460673648E+02  0.14659410724E+03 -0.22758214946E+03  0.30043522740E+03  0.12509387718E+03 0.  0.
          5    1    3    3  502    0  0.32505923224E+02 -0.17675856144E+01 -0.98058727843E+02  0.10340573441E+03  0.41800000000E+01 0. -1.
         -5    1    3    3    0  502  0.39547504241E+01  0.14836169286E+03 -0.12952342162E+03  0.19702949299E+03  0.41800000000E+01 0. -1.
        -11    1    1    2    0    0  0.25707227864E+02 -0.80084442626E+02 -0.16749933676E+03  0.18743107354E+03  0.00000000000E+00 0.  1.
         11    1    1    2    0    0 -0.62167901513E+02 -0.66509664617E+02 -0.24967610824E+03  0.26575654742E+03  0.00000000000E+00 0. -1.
</event>
<event>
 7    1  0.6506388E-006  0.1431564E+03  0.7561462E-02  0.1209144E+00
         -2   -1    0    0    0  501 -0.00000000000E+00  0.00000000000E+00  0.18486398728E+02  0.18486398728E+02  0.00000000000E+00 0.  1.
          2   -1    0    0  501    0  0.00000000000E+00 -0.00000000000E+00 -0.11191355974E+04  0.11191355974E+04  0.00000000000E+00 0. -1.
         23    2    1    2    0    0  0.14205937810E+02 -0.92707776861E+02 -0.61081686325E+03  0.63050793304E+03  0.12508586105E+03 0.  0.
          5    1    3    3  502    0 -0.37167003726E+01 -0.12176314874E+03 -0.48336233964E+03  0.49849443531E+03  0.41800000000E+01 0. -1.
         -5    1    3    3    0  502  0.17922638182E+02  0.29055371877E+02 -0.12745452360E+03  0.13201349772E+03  0.41800000000E+01 0. -1.
        -11    1    1    2    0    0  0.38478874123E+02  0.40041590848E+02 -0.24415483243E+03  0.25039076451E+03  0.00000000000E+00 0.  1.
         11    1    1    2    0    0 -0.52684811933E+02  0.52666186013E+02 -0.24567750298E+03  0.25672329857E+03  0.00000000000E+00 0. -1.
</event>
<event>
 7    1  0.6506388E-006  0.1262784E+03  0.7561462E-02  0.1233085E+00
          2   -1    0    0  501    0  0.00000000000E+00  0.00000000000E+00  0.29737002306E+03  0.29737002306E+03  0.00000000000E+00 0. -1.
         -2   -1    0    0    0  501 -0.00000000000E+00 -0.00000000000E+00 -0.87772176347E+02  0.87772176347E+02  0.00000000000E+00 0.  1.
         23    2    1    2    0    0  0.44277409072E+02  0.60749072224E+02 -0.10934552283E+01  0.14594432798E+03  0.12509041727E+03 0.  0.
          5    1    3    3  502    0  0.71024628952E+02 -0.82502832743E+01 -0.43155399376E+01  0.71754173236E+02  0.41800000000E+01 0.  1.
         -5    1    3    3    0  502 -0.26747219880E+02  0.68999355498E+02  0.32220847093E+01  0.74190154740E+02  0.41800000000E+01 0.  1.
        -11    1    1    2    0    0  0.72689124461E+01 -0.54392043172E+02  0.68198312446E+02  0.87534800331E+02  0.00000000000E+00 0.  1.
         11    1    1    2    0    0 -0.51546321518E+02 -0.63570290518E+01  0.14249298950E+03  0.15166307110E+03  0.00000000000E+00 0. -1.
</event>
<event>
 6    1  0.6506388E-006  0.1324496E+03  0.7561462E-02  0.1223866E+00
         -1   -1    0    0    0  501 -0.00000000000E+00  0.00000000000E+00  0.29456757488E+02  0.29456757488E+02  0.00000000000E+00 0.  1.
          1   -1    0    0  501    0  0.00000000000E+00 -0.00000000000E+00 -0.11512018052E+04  0.11512018052E+04  0.00000000000E+00 0. -1.
          5    1    1    2  502    0 -0.41072498239E+02 -0.30748387904E+02 -0.37894124275E+03  0.38242169306E+03  0.41800000000E+01 0. -1.
         -5    1    1    2    0  502 -0.75453272817E+02  0.30582065855E+01 -0.53110041243E+02  0.92415896290E+02  0.41800000000E+01 0.  1.
        -11    1    1    2    0    0  0.11377560303E+03  0.38997576232E+01 -0.64636779821E+03  0.65631655968E+03  0.00000000000E+00 0. -1.
         11    1    1    2    0    0  0.27501680264E+01  0.23790423695E+02 -0.43325965546E+02  0.49504413684E+02  0.00000000000E+00 0.  1.
</event>
<event>
 7    1  0.6506388E-006  0.1147994E+03  0.7561462E-02  0.1251932E+00
         -3   -1    0    0    0  501 -0.00000000000E+00  0.00000000000E+00  0.41349219772E+03  0.41349219772E+03  0.00000000000E+00 0.  1.
          3   -1    0    0  501    0  0.00000000000E+00 -0.00000000000E+00 -0.34043847086E+02  0.34043847086E+02  0.00000000000E+00 0. -1.
         23    2    1    2    0    0 -0.24299604405E+02 -0.37231723967E+02  0.26687513802E+03  0.29806822829E+03  0.12508260220E+03 0.  0.
          5    1    3    3  502    0 -0.74549718027E+02 -0.30973665706E+02  0.14469879002E+03  0.16574752083E+03  0.41800000000E+01 0. -1.
         -5    1    3    3    0  502  0.50250113622E+02 -0.62580582612E+01  0.12217634800E+03  0.13232070746E+03  0.41800000000E+01 0. -1.
        -11    1    1    2    0    0  0.56723917619E+02  0.15115497508E+02  0.73759467714E+02  0.94268447385E+02  0.00000000000E+00 0. -1.
         11    1    1    2    0    0 -0.32424313214E+02  0.22116226459E+02  0.38813744899E+02  0.55199369138E+02  0.00000000000E+00 0.  1.
</event>
<event>
 7    1  0.6506388E-006  0.2194750E+03  0.7561462E-02  0.1134275E+00
          1   -1    0    0  501    0  0.00000000000E+00  0.00000000000E+00  0.43523579845E+03  0.43523579845E+03  0.00000000000E+00 0. -1.
         -1   -1    0    0    0  501 -0.00000000000E+00 -0.00000000000E+00 -0.15119402385E+03  0.15119402385E+03  0.00000000000E+00 0.  1.
         23    2    1    2    0    0  0.15812736408E+03  0.13118317529E+03  0.23593794553E+02  0.24168746338E+03  0.12507147582E+03 0.  0.
          5    1    3    3  502    0  0.18475085390E+02  0.79033903872E+02 -0.24683360091E+02  0.84937785507E+02  0.41800000000E+01 0. -1.
         -5    1    3    3    0  502  0.13965227869E+03  0.52149271421E+02  0.48277154644E+02  0.15674967788E+03  0.41800000000E+01 0. -1.
        -11    1    1    2    0    0 -0.45705059517E+02 -0.18300318090E+02  0.13825165559E+02  0.51136966183E+02  0.00000000000E+00 0.  1.
         11    1    1    2    0    0 -0.11242230457E+03 -0.11288285720E+03  0.24662281449E+03  0.29360539273E+03  0.00000000000E+00 0. -1.
</event>
<event>
 7    1  0.6506388E-006  0.9326080E+02  0.7561462E-02  0.1295142E+00
         -2   -1    0    0    0  501 -0.00000000000E+00  0.00000000000E+00  0.61967840289E+02  0.61967840289E+02  0.00000000000E+00 0.  1.
          2   -1    0    0  501    0  0.00000000000E+00 -0.00000000000E+00 -0.27827279254E+03  0.27827279254E+03  0.00000000000E+00 0. -1.
         23    2    1    2    0    0  0.33056811987E+02 -0.63281152884E+02 -0.99838112231E+02  0.17525072645E+03  0.12509161178E+03 0.  0.
          5    1    3    3  502    0  0.40611415542E+02 -0.30165200369E+02  0.16977611832E+02  0.53525116432E+02  0.41800000000E+01 0.  1.
         -5    1    3    3    0  502 -0.75546035549E+01 -0.33115952515E+02 -0.11681572406E+03  0.12172561002E+03  0.41800000000E+01 0.  1.
        -11    1    1    2    0    0 -0.49174218913E+02  0.16200026983E+02 -0.99938616354E+02  0.11255341718E+03  0.00000000000E+00 0. -1.
         11    1    1    2    0    0  0.16117406926E+02  0.47081125901E+02 -0.16528223665E+02  0.52436489200E+02  0.00000000000E+00 0.  1.
</event>
<event>
 7    1  0.6506388E-006  0.9927440E+02  0.7561462E-02  0.1281829E+00
          1   -1    0    0  501    0  0.00000000000E+00  0.00000000000E+00  0.38946113014E+03  0.38946113014E+03  0.00000000000E+00 0. -1.
         -1   -1    0    0    0  501 -0.00000000000E+00 -0.00000000000E+00 -0.53309907305E+02  0.53309907305E+02  0.00000000000E+00 0.  1.
         23    2    1    2    0    0  0.26096051053E+01 -0.81603524160E+02  0.10827658723E+03  0.18449142644E+03  0.12508925570E+03 0.  0.
          5    1    3    3  502    0 -0.15259166844E+02  0.92553281172E+01  0.87629730112E+02  0.89526226721E+02  0.41800000000E+01 0. -1.
         -5    1    3    3    0  502  0.17868771950E+02 -0.90858852277E+02  0.20646857121E+02  0.94965199716E+02  0.41800000000E+01 0. -1.
        -11    1    1    2    0    0  0.13740286286E+02  0.51117739437E+02  0.37702956916E+02  0.64987165752E+02  0.00000000000E+00 0.  1.
         11    1    1    2    0    0 -0.16349891391E+02  0.30485784723E+02  0.19017167868E+03  0.19329244525E+03  0.00000000000E+00 0. -1.
</event>
<event>
 7    1  0.6506388E-006  0.9841077E+02  0.7561462E-02  0.1283674E+00
          1   -1    0    0  501    0  0.00000000000E+00  0.00000000000E+00  0.61484177343E+03  0.61484177343E+03  0.00000000000E+00 0. -1.
         -1   -1    0    0    0  501 -0.00000000000E+00 -0.00000000000E+00 -0.25056888334E+02  0.25056888334E+02  0.00000000000E+00 0.  1.
         23    2    1    2    0    0 -0.42821892863E+02  0.53380855733E+01  0.22538162690E+03  0.26135902862E+03  0.12509777948E+03 0.  0.
          5    1    3    3  502    0 -0.38284315986E+02 -0.38241003937E+02  0.31940874438E+02  0.62974241500E+02  0.41800000000E+01 0.  1.
         -5    1    3    3    0  502 -0.45375768772E+01  0.43579089511E+02  0.19344075247E+03  0.19838478712E+03  0.41800000000E+01 0.  1.
        -11    1    1    2    0    0 -0.27443480676E+02  0.36964587874E+01  0.15561881711E+03  0.15806335653E+03  0.00000000000E+00 0.  1.
         11    1    1    2    0    0  0.70265373540E+02 -0.90345443607E+01  0.20878444108E+03  0.22047627661E+03  0.00000000000E+00 0. -1.
</event>
<event>
 6    1  0.6506388E-006  0.1715819E+03  0.7561462E-02  0.1176208E+00
          2   -1    0    0  501    0  0.00000000000E+00  0.00000000000E+00  0.87477721620E+03  0.87477721620E+03  0.00000000000E+00 0. -1.
         -2   -1    0    0    0  501 -0.00000000000E+00 -0.00000000000E+00 -0.49021208524E+02  0.49021208524E+02  0.00000000000E+00 0.  1.
          5    1    1    2  502    0 -0.51379577112E+02 -0.12681973274E+03  0.11873609476E+03  0.18121489496E+03  0.41800000000E+01 0. -1.
         -5    1    1    2    0  502 -0.19110703385E+02 -0.16174262385E+02  0.23055616899E+03  0.23194922980E+03  0.41800000000E+01 0.  1.
        -11    1    1    2    0    0  0.61741137397E+02  0.15452910226E+03  0.40750531820E+03  0.44017246149E+03  0.00000000000E+00 0.  1.
         11    1    1    2    0    0  0.87491431004E+01 -0.11535107139E+02  0.68958425731E+02  0.70461838473E+02  0.00000000000E+00 0. -1.
</event>
<event>
 7    1  0.6506388E-006  0.9963269E+02  0.7561462E-02  0.1281070E+00
          2   -1    0    0  501    0  0.00000000000E+00  0.00000000000E+00  0.35261976540E+03  0.35261976540E+03  0.00000000000E+00 0. -1.
         -2   -1    0    0    0  501 -0.00000000000E+00 -0.00000000000E+00 -0.49940303300E+02  0.49940303300E+02  0.00000000000E+00 0.  1.
         23    2    1    2    0    0  0.63127487621E+02  0.32458753017E+02  0.12572964394E+03  0.19103331504E+03  0.12508850367E+03 0.  0.
          5    1    3    3  502    0  0.90677871090E+01  0.54263702375E+02  0.12028907793E+03  0.13233936991E+03  0.41800000000E+01 0.  1.
         -5    1    3    3    0  502  0.54059700512E+02 -0.21804949358E+02  0.54405660022E+01  0.58693945126E+02  0.41800000000E+01 0.  1.
        -11    1    1    2    0    0 -0.48133704174E+02  0.18899843187E+01  0.23558245134E+02  0.53622909581E+02  0.00000000000E+00 0.  1.
         11    1    1    2    0    0 -0.14993783448E+02 -0.34348737336E+02  0.15339157303E+03  0.15790384408E+03  0.00000000000E+00 0. -1.
</event>
<event>
 7    1  0.6506388E-006  0.1116702E+03  0.7561462E-02  0.1257508E+00
          3   -1    0    0  501    0  0.00000000000E+00  0.00000000000E+00  0.14948689662E+03  0.14948689662E+03  0.00000000000E+00 0.  1.
         -3   -1    0    0    0  501 -0.00000000000E+00 -0.00000000000E+00 -0.90060915306E+02  0.90060915306E+02  0.00000000000E+00 0. -1.
         23    2    1    2    0    0 -0.37551498338E+02 -0.10398923292E+02  0.15806497088E+02  0.13197173043E+03  0.12509372346E+03 0.  0.
          5    1    3    3  502    0  0.13229515926E+00 -0.64677194056E+02  0.79229099542E+01  0.65294730531E+02  0.41800000000E+01 0. -1.
         -5    1    3    3    0  502 -0.37683793498E+02  0.54278270764E+02  0.78835871335E+01  0.66676999899E+02  0.41800000000E+01 0. -1.
        -11    1    1    2    0    0  0.34137463696E+02 -0.33769843808E+02  0.41096857526E+02  0.63203801127E+02  0.00000000000E+00 0.  1.
         11    1    1    2    0    0  0.34140346422E+01  0.44168767100E+02  0.25226266996E+01  0.44372280369E+02  0.00000000000E+00 0. -1.
</event>
<event>
 7    1  0.6506388E-006  0.1185107E+03  0.7561462E-02  0.1245574E+00
          1   -1    0    0  501    0  0.00000000000E+00  0.00000000000E+00  0.12430266790E+03  0.12430266790E+03  0.00000000000E+00 0. -1.
         -1   -1    0    0    0  501 -0.00000000000E+00 -0.00000000000E+00 -0.12881180130E+03  0.12881180130E+03  0.00000000000E+00 0.  1.
         23    2    1    2    0    0  0.50201405596E+02  0.45016934418E+02 -0.28458196192E+02  0.14492938358E+03  0.12509177346E+03 0.  0.
          5    1    3    3  502    0 -0.25411765721E+02  0.49707482701E+02  0.14376747366E+02  0.57799264168E+02  0.41800000000E+01 0. -1.
         -5    1    3    3    0  502  0.75613171317E+02 -0.46905482831E+01 -0.42834943558E+02  0.87130119416E+02  0.41800000000E+01 0. -1.
        -11    1    1    2    0    0  0.20969003099E+02 -0.21934420580E+02  0.30309202941E+01  0.30495973095E+02  0.00000000000E+00 0.  1.
         11    1    1    2    0    0 -0.71170408695E+02 -0.23082513838E+02  0.20918142498E+02  0.77689112522E+02  0.00000000000E+00 0. -1.
</event>
<event>
 7    1  0.6506388E-006  0.6970831E+02  0.7561462E-02  0.1361088E+00
         -1   -1    0    0    0  501 -0.00000000000E+00  0.00000000000E+00  0.25232729546E+03  0.25232729546E+03  0.00000000000E+00 0.  1.
          1   -1    0    0  501    0  0.00000000000E+00 -0.00000000000E+00 -0.53871597400E+02  0.53871597400E+02  0.00000000000E+00 0. -1.
         23    2    1    2    0    0  0.26148075163E+02 -0.23514858094E+02  0.14536478360E+03  0.19497122981E+03  0.12508473031E+03 0.  0.
          5    1    3    3  502    0  0.41113986378E+01  0.59078405077E+01  0.15619887429E+03  0.15642048110E+03  0.41800000000E+01 0. -1.
         -5    1    3    3    0  502  0.22036676525E+02 -0.29422698602E+02 -0.10834090686E+02  0.38550748712E+02  0.41800000000E+01 0. -1.
        -11    1    1    2    0    0  0.31858087271E+02  0.15858419926E+02  0.35174470592E+02  0.50036692422E+02  0.00000000000E+00 0.  1.
         11    1    1    2    0    0 -0.58006162433E+02  0.76564381678E+01  0.17916443867E+02  0.61190970629E+02  0.00000000000E+00 0. -1.
</event>
<event>
 7    1  0.6506388E-006  0.8637175E+02  0.7561462E-02  0.1311884E+00
         -1   -1    0    0    0  501 -0.00000000000E+00  0.00000000000E+00  0.40655829029E+02  0.40655829029E+02  0.00000000000E+00 0.  1.
          1   -1    0    0  501    0  0.00000000000E+00 -0.00000000000E+00 -0.36486486389E+03  0.36486486389E+03  0.00000000000E+00 0. -1.
         23    2    1    2    0    0  0.55144249673E+02  0.90381980942E+01 -0.20132888521E+03  0.24352058710E+03  0.12508548687E+03 0.  0.
          5    1    3    3  502    0  0.52893824563E+02 -0.11492244936E+02 -0.21273953527E+03  0.21955730604E+03  0.41800000000E+01 0. -1.
         -5    1    3    3    0  502  0.22504251094E+01  0.20530443030E+02  0.11410650061E+02  0.23963281057E+02  0.41800000000E+01 0. -1.
        -11    1    1    2    0    0 -0.50961576730E+02  0.29321762393E+02 -0.41594607054E+02  0.72020548377E+02  0.00000000000E+00 0.  1.
         11    1    1    2    0    0 -0.41826729425E+01 -0.38359960487E+02 -0.81285542599E+02  0.89979557440E+02  0.00000000000E+00 0. -1.
</event>
<event>
 7    1  0.6506388E-006  0.9876661E+02  0.7561462E-02  0.1282911E+00
         -2   -1    0    0    0  501 -0.00000000000E+00  0.00000000000E+00  0.40638096684E+02  0.40638096684E+02  0.00000000000E+00 0.  1.
          2   -1    0    0  501    0  0.00000000000E+00 -0.00000000000E+00 -0.44408956472E+03  0.44408956472E+03  0.00000000000E+00 0. -1.
         23    2    1    2    0    0  0.57328836800E+02  0.58447230839E+02 -0.22269263645E+03  0.26822019803E+03  0.12508952788E+03 0.  0.
          5    1    3    3  502    0  0.75050305707E+02  0.31619658729E+02 -0.22121171643E+03  0.23576354063E+03  0.41800000000E+01 0. -1.
         -5    1    3    3    0  502 -0.17721468907E+02  0.26827572110E+02 -0.14809200130E+01  0.32456657401E+02  0.41800000000E+01 0. -1.
        -11    1    1    2    0    0 -0.95136724492E+01 -0.20219454354E+02  0.32514013934E+01  0.22581140557E+02  0.00000000000E+00 0.  1.
         11    1    1    2    0    0 -0.47815164351E+02 -0.38227776485E+02 -0.18401023298E+03  0.19392632281E+03  0.00000000000E+00 0. -1.
</event>
<event>
 7    1  0.6506388E-006  0.1277761E+03  0.7561462E-02  0.1230793E+00
          2   -1    0    0  501    0  0.00000000000E+00  0.00000000000E+00  0.52132982417E+03  0.52132982417E+03  0.00000000000E+00 0.  1.
         -2   -1    0    0    0  501 -0.00000000000E+00 -0.00000000000E+00 -0.53114982266E+02  0.53114982266E+02  0.00000000000E+00 0. -1.
         23    2    1    2    0    0  0.38496947941E+01 -0.94796843971E+02  0.10674399454E+03  0.18985103981E+03  0.12509146721E+03 0.  0.
          5    1    3    3  502    0 -0.49370558060E+02 -0.44628404291E+02  0.83846282218E+01  0.67208041656E+02  0.41800000000E+01 0. -1.
         -5    1    3    3    0  502  0.53220252854E+02 -0.50168439680E+02  0.98359366319E+02  0.12264299816E+03  0.41800000000E+01 0. -1.
        -11    1    1    2    0    0 -0.34923991892E+02  0.45901771940E+02  0.89166228123E+02  0.10619451076E+03  0.00000000000E+00 0. -1.
         11    1    1    2    0    0  0.31074297098E+02  0.48895072031E+02  0.27230461924E+03  0.27839925587E+03  0.00000000000E+00 0.  1.
</event>
<event>
 7    1  0.6506388E-006  0.1121632E+03  0.7561462E-02  0.1256616E+00
         -1   -1    0    0    0  501 -0.00000000000E+00  0.00000000000E+00  0.62073214899E+03  0.62073214899E+03  0.00000000000E+00 0.  1.
          1   -1    0    0  501    0  0.00000000000E+00 -0.00000000000E+00 -0.47250458267E+02  0.47250458267E+02  0.00000000000E+00 0. -1.
         23    2    1    2    0    0 -0.87272999125E+02 -0.35074061693E+01  0.49961749409E+03  0.52239270937E+03  0.12509046376E+03 0.  0.
          5    1    3    3  502    0 -0.90727239764E+02 -0.11182844162E+02  0.50384521766E+03  0.51208784773E+03  0.41800000000E+01 0. -1.
         -5    1    3    3    0  502  0.34542406393E+01  0.76754379929E+01 -0.42277235655E+01  0.10304861635E+02  0.41800000000E+01 0. -1.
        -11    1    1    2    0    0 -0.16856506494E+02 -0.79953026355E+01  0.21509937184E+02  0.28473567972E+02  0.00000000000E+00 0.  1.
         11    1    1    2    0    0  0.10412950562E+03  0.11502708805E+02  0.52354259441E+02  0.11711632991E+03  0.00000000000E+00 0. -1.
</event>
<event>
 7    1  0.6506388E-006  0.1124392E+03  0.7561462E-02  0.1256118E+00
         -2   -1    0    0    0  501 -0.00000000000E+00  0.00000000000E+00  0.15293751602E+03  0.15293751602E+03  0.00000000000E+00 0.  1.
          2   -1    0    0  501    0  0.00000000000E+00 -0.00000000000E+00 -0.10979783440E+03  0.10979783440E+03  0.00000000000E+00 0. -1.
         23    2    1    2    0    0 -0.25114493508E+02 -0.60401189265E+02  0.51005704696E+02  0.15009646481E+03  0.12509326675E+03 0.  0.
          5    1    3    3  502    0 -0.41689723335E+02 -0.87500910347E+02  0.92366832375E+01  0.97453738053E+02  0.41800000000E+01 0.  1.
         -5    1    3    3    0  502  0.16575229827E+02  0.27099721082E+02  0.41769021458E+02  0.52642726754E+02  0.41800000000E+01 0.  1.
        -11    1    1    2    0    0  0.13776083735E+02  0.75608803507E+02  0.19549080770E+02  0.79300934482E+02  0.00000000000E+00 0.  1.
         11    1    1    2    0    0  0.11338409773E+02 -0.15207614241E+02 -0.27415103839E+02  0.33337951131E+02  0.00000000000E+00 0. -1.
</event>
<event>
 7    1  0.6506388E-006  0.9013429E+02  0.7561462E-02  0.1302527E+00
         -2   -1    0    0    0  501 -0.00000000000E+00  0.00000000000E+00  0.27531846695E+03  0.27531846695E+03  0.00000000000E+00 0.  1.
          2   -1    0    0  501    0  0.00000000000E+00 -0.00000000000E+00 -0.49520931448E+02  0.49520931448E+02  0.00000000000E+00 0. -1.
         23    2    1    2    0    0 -0.22418418982E+02  0.12045397621E+02  0.17839579066E+03  0.21936371184E+03  0.12509077837E+03 0.  0.
          5    1    3    3  502    0 -0.60630405695E+02  0.33008056148E+02  0.15498052944E+03  0.16971156345E+03  0.41800000000E+01 0. -1.
         -5    1    3    3    0  502  0.38211986713E+02 -0.20962658527E+02  0.23415261225E+02  0.49652148386E+02  0.41800000000E+01 0. -1.
        -11    1    1    2    0    0  0.37612962965E+01 -0.36428709351E+02  0.61588346377E+02  0.71654187765E+02  0.00000000000E+00 0.  1.
         11    1    1    2    0    0  0.18657122686E+02  0.24383311730E+02 -0.14186601534E+02  0.33821498797E+02  0.00000000000E+00 0. -1.
</event>
<event>
 7    1  0.6506388E-006  0.1489714E+03  0.7561462E-02  0.1201743E+00
         -2   -1    0    0    0  501 -0.00000000000E+00  0.00000000000E+00  0.37693230043E+02  0.37693230043E+02  0.00000000000E+00 0.  1.
          2   -1    0    0  501    0  0.00000000000E+00 -0.00000000000E+00 -0.86286702160E+03  0.86286702160E+03  0.00000000000E+00 0. -1.
         23    2    1    2    0    0 -0.59151403187E+02  0.13103344912E+03 -0.42900543620E+03  0.46942537104E+03  0.12508341780E+03 0.  0.
          5    1    3    3  502    0 -0.42237206338E+01  0.30026896613E+02 -0.27751857205E+03  0.27920151248E+03  0.41800000000E+01 0. -1.
         -5    1    3    3    0  502 -0.54927682553E+02  0.10100655250E+03 -0.15148686414E+03  0.19022385856E+03  0.41800000000E+01 0. -1.
        -11    1    1    2    0    0 -0.18639384197E+01 -0.53905818957E+02 -0.59101454848E+02  0.80014333397E+02  0.00000000000E+00 0.  1.
         11    1    1    2    0    0  0.61015341607E+02 -0.77127630161E+02 -0.33706690051E+03  0.35112054720E+03  0.00000000000E+00 0. -1.
</event>
<event>
 6    1  0.6506388E-006  0.9063880E+02  0.7561462E-02  0.1301312E+00
         -2   -1    0    0    0  501 -0.00000000000E+00  0.00000000000E+00  0.68410751337E+02  0.68410751337E+02  0.00000000000E+00 0.  1.
          2   -1    0    0  501    0  0.00000000000E+00 -0.00000000000E+00 -0.20860318716E+03  0.20860318716E+03  0.00000000000E+00 0. -1.
          5    1    1    2  502    0  0.42613896673E+02 -0.22255254427E+02 -0.57196455737E+02  0.74834133176E+02  0.41800000000E+01 0. -1.
         -5    1    1    2    0  502 -0.63573891978E+02  0.21958041834E+02  0.12839215188E+02  0.68601116529E+02  0.41800000000E+01 0.  1.
        -11    1    1    2    0    0  0.42406550061E+02  0.73844180307E+01 -0.10153587407E+03  0.11028317569E+03  0.00000000000E+00 0. -1.
         11    1    1    2    0    0 -0.21446554757E+02 -0.70872054379E+01  0.57006787957E+01  0.23295513100E+02  0.00000000000E+00 0.  1.
</event>
<event>
 7    1  0.6506388E-006  0.1557974E+03  0.7561462E-02  0.1193525E+00
         -1   -1    0    0    0  501 -0.00000000000E+00  0.00000000000E+00  0.61801195575E+02  0.61801195575E+02  0.00000000000E+00 0.  1.
          1   -1    0    0  501    0  0.00000000000E+00 -0.00000000000E+00 -0.82454118044E+03  0.82454118044E+03  0.00000000000E+00 0. -1.
         23    2    1    2    0    0  0.14461202025E+03  0.15492247934E+02 -0.13221577700E+03  0.23298312217E+03  0.12508987721E+03 0.  0.
          5    1    3    3  502    0  0.62696776131E+02  0.31352745041E+02  0.70557543882E+01  0.70577166484E+02  0.41800000000E+01 0.  1.
         -5    1    3    3    0  502  0.81915244124E+02 -0.15860497108E+02 -0.13927153139E+03  0.16240595569E+03  0.41800000000E+01 0.  1.
        -11    1    1    2    0    0 -0.11051708373E+03  0.15691033344E+02 -0.54334537799E+03  0.55469309903E+03  0.00000000000E+00 0. -1.
         11    1    1    2    0    0 -0.34094936522E+02 -0.31183281277E+02 -0.87178829882E+02  0.98666154822E+02  0.00000000000E+00 0.  1.
</event>
<event>
 7    1  0.6506388E-006  0.1236808E+03  0.7561462E-02  0.1237145E+00
          2   -1    0    0  501    0  0.00000000000E+00  0.00000000000E+00  0.66280442522E+03  0.66280442522E+03  0.00000000000E+00 0. -1.
         -2   -1    0    0    0  501 -0.00000000000E+00 -0.00000000000E+00 -0.30202147848E+02  0.30202147848E+02  0.00000000000E+00 0.  1.
         23    2    1    2    0    0  0.73491524749E+01 -0.60489440761E+02  0.21009443972E+03  0.25202285244E+03  0.12515135662E+03 0.  0.
          5    1    3    3  502    0 -0.54519815143E+02 -0.53970276618E+02  0.11403975857E+03  0.13750541784E+03  0.41800000000E+01 0. -1.
         -5    1    3    3    0  502  0.61868967618E+02 -0.65191641430E+01  0.96054681156E+02  0.11451743460E+03  0.41800000000E+01 0. -1.
        -11    1    1    2    0    0  0.37943843761E+02  0.48022261608E+02  0.34472032049E+03  0.35011137120E+03  0.00000000000E+00 0. -1.
         11    1    1    2    0    0 -0.45292996236E+02  0.12467179153E+02  0.77787517167E+02  0.90872349431E+02  0.00000000000E+00 0.  1.
</event>
<event>
 7    1  0.6506388E-006  0.1059855E+03  0.7561462E-02  0.1268190E+00
          2   -1    0    0  501    0  0.00000000000E+00  0.00000000000E+00  0.13104157259E+03  0.13104157259E+03  0.00000000000E+00 0. -1.
         -2   -1    0    0    0  501 -0.00000000000E+00 -0.00000000000E+00 -0.17204902381E+03  0.17204902381E+03  0.00000000000E+00 0.  1.
         23    2    1    2    0    0 -0.39464034629E+00 -0.91699361953E+02 -0.69133986670E+02  0.16981301165E+03  0.12509205446E+03 0.  0.
          5    1    3    3  502    0  0.59529314435E+01 -0.18654819063E+02 -0.91008894251E+02  0.93185465068E+02  0.41800000000E+01 0.  1.
         -5    1    3    3    0  502 -0.63475717898E+01 -0.73044542890E+02  0.21874907582E+02  0.76627546583E+02  0.41800000000E+01 0.  1.
        -11    1    1    2    0    0 -0.36609722669E+02  0.33995904905E+02 -0.15154900332E+02  0.52207895459E+02  0.00000000000E+00 0.  1.
         11    1    1    2    0    0  0.37004363015E+02  0.57703457048E+02  0.43281435790E+02  0.81069689290E+02  0.00000000000E+00 0. -1.
</event>
<event>
 7    1  0.6506388E-006  0.1079311E+03  0.7561462E-02  0.1264450E+00
          2   -1    0    0  501    0  0.00000000000E+00  0.00000000000E+00  0.78633814120E+03  0.78633814120E+03  0.00000000000E+00 0.  1.
         -2   -1    0    0    0  501 -0.00000000000E+00 -0.00000000000E+00 -0.22899323272E+02  0.22899323272E+02  0.00000000000E+00 0. -1.
         23    2    1    2    0    0 -0.77745272932E+02  0.10295594088E+02  0.40967738594E+03  0.43547090273E+03  0.12509604250E+03 0.  0.
          5    1    3    3  502    0 -0.31702055708E+02 -0.29342211001E+02  0.34071822297E+03  0.34347105489E+03  0.41800000000E+01 0. -1.
         -5    1    3    3    0  502 -0.46043217224E+02  0.39637805090E+02  0.68959162974E+02  0.91999847841E+02  0.41800000000E+01 0. -1.
        -11    1    1    2    0    0  0.28213213424E+02  0.34648028270E+02  0.76878109035E+02  0.88919710546E+02  0.00000000000E+00 0. -1.
         11    1    1    2    0    0  0.49532059508E+02 -0.44943622359E+02  0.27688332295E+03  0.28484685120E+03  0.00000000000E+00 0.  1.
</event>
<event>
 7    1  0.6506388E-006  0.9289364E+02  0.7561462E-02  0.1295992E+00
          3   -1    0    0  501    0  0.00000000000E+00  0.00000000000E+00  0.14304651520E+03  0.14304651520E+03  0.00000000000E+00 0. -1.
         -3   -1    0    0    0  501 -0.00000000000E+00 -0.00000000000E+00 -0.11563184549E+03  0.11563184549E+03  0.00000000000E+00 0.  1.
         23    2    1    2    0    0 -0.45926168712E+02 -0.49505658213E+02  0.80290440387E+01  0.14240374717E+03  0.12511729893E+03 0.  0.
          5    1    3    3  502    0 -0.13183034875E+02  0.27416664276E+02  0.42033086009E+02  0.52054957573E+02  0.41800000000E+01 0.  1.
         -5    1    3    3    0  502 -0.32743133837E+02 -0.76922322488E+02 -0.34004041970E+02  0.90348789592E+02  0.41800000000E+01 0.  1.
        -11    1    1    2    0    0  0.14003002703E+02  0.32084233372E+02 -0.35872386294E+02  0.50122950972E+02  0.00000000000E+00 0.  1.
         11    1    1    2    0    0  0.31923166009E+02  0.17421424841E+02  0.55258011966E+02  0.66151662549E+02  0.00000000000E+00 0. -1.
</event>
<event>
 6    1  0.6506388E-006  0.1547250E+03  0.7561462E-02  0.1194784E+00
          2   -1    0    0  501    0  0.00000000000E+00  0.00000000000E+00  0.37618355716E+03  0.37618355716E+03  0.00000000000E+00 0.  1.
         -2   -1    0    0    0  501 -0.00000000000E+00 -0.00000000000E+00 -0.96099432335E+02  0.96099432335E+02  0.00000000000E+00 0. -1.
          5    1    1    2  502    0  0.37145414523E+02  0.13407071408E+03  0.25733391102E+03  0.29256273234E+03  0.41800000000E+01 0.  1.
         -5    1    1    2    0  502 -0.38447188138E+02 -0.13950791707E+03 -0.10854652047E+01  0.14477325663E+03  0.41800000000E+01 0. -1.
        -11    1    1    2    0    0 -0.11711459032E+02  0.41282849726E+01  0.12808473613E+02  0.17839787156E+02  0.00000000000E+00 0. -1.
         11    1    1    2    0    0  0.13013232648E+02  0.13089180230E+01  0.11027205397E+02  0.17107213367E+02  0.00000000000E+00 0.  1.
</event>
<event>
 6    1  0.6506388E-006  0.1458063E+03  0.7561462E-02  0.1205723E+00
         -2   -1    0    0    0  501 -0.00000000000E+00  0.00000000000E+00  0.51880907888E+03  0.51880907888E+03  0.00000000000E+00 0.  1.
          2   -1    0    0  501    0  0.00000000000E+00 -0.00000000000E+00 -0.50782240505E+02  0.50782240505E+02  0.00000000000E+00 0. -1.
          5    1    1    2  502    0 -0.26293334828E+02 -0.10300098236E+03  0.84857115645E+02  0.13608359306E+03  0.41800000000E+01 0. -1.
         -5    1    1    2    0  502 -0.35615582477E+02  0.39498733264E+02  0.20427248730E+03  0.21112399464E+03  0.41800000000E+01 0.  1.
        -11    1    1    2    0    0  0.70547674852E+02  0.83963864260E+02  0.15339648737E+03  0.18856666531E+03  0.00000000000E+00 0.  1.
         11    1    1    2    0    0 -0.86387575470E+01 -0.20461615161E+02  0.25500748070E+02  0.33817066388E+02  0.00000000000E+00 0. -1.
</event>
<event>
 7    1  0.6506388E-006  0.2844397E+03  0.7561462E-02  0.1093288E+00
         -2   -1    0    0    0  501 -0.00000000000E+00  0.00000000000E+00  0.98366057777E+02  0.98366057777E+02  0.00000000000E+00 0. -1.
          2   -1    0    0  501    0  0.00000000000E+00 -0.00000000000E+00 -0.97594556517E+03  0.97594556517E+03  0.00000000000E+00 0.  1.
         23    2    1    2    0    0 -0.28184922989E+03  0.19328108075E+02 -0.30978330710E+03  0.43752286076E+03  0.12509193492E+03 0.  0.
          5    1    3    3  502    0 -0.36973273131E+01 -0.15392834973E+01  0.10985912955E+02  0.12417822128E+02  0.41800000000E+01 0. -1.
         -5    1    3    3    0  502 -0.27815190257E+03  0.20867391573E+02 -0.32076922006E+03  0.42510503864E+03  0.41800000000E+01 0. -1.
        -11    1    1    2    0    0  0.11870732054E+03  0.68127191784E+01 -0.29212153290E+03  0.31539313733E+03  0.00000000000E+00 0.  1.
         11    1    1    2    0    0  0.16314190934E+03 -0.26140827254E+02 -0.27567466739E+03  0.32139562485E+03  0.00000000000E+00 0. -1.
</event>
<event>
 7    1  0.6506388E-006  0.1553355E+03  0.7561462E-02  0.1194066E+00
         -2   -1    0    0    0  501 -0.00000000000E+00  0.00000000000E+00  0.29628427215E+02  0.29628427215E+02  0.00000000000E+00 0.  1.
          2   -1    0    0  501    0  0.00000000000E+00 -0.00000000000E+00 -0.89564996074E+03  0.89564996074E+03  0.00000000000E+00 0. -1.
         23    2    1    2    0    0 -0.17391372260E+02 -0.11877876945E+03 -0.44221897583E+03  0.47499226015E+03  0.12509663752E+03 0.  0.
          5    1    3    3  502    0  0.30276927232E+02  0.19341570125E+00 -0.18578557568E+03  0.18828298453E+03  0.41800000000E+01 0.  1.
         -5    1    3    3    0  502 -0.47668299492E+02 -0.11897218515E+03 -0.25643340015E+03  0.28670927563E+03  0.41800000000E+01 0.  1.
        -11    1    1    2    0    0 -0.32399591067E+02  0.86916123973E+02 -0.27189934166E+03  0.28728626508E+03  0.00000000000E+00 0.  1.
         11    1    1    2    0    0  0.49790963327E+02  0.31862645479E+02 -0.15190321603E+03  0.16299986272E+03  0.00000000000E+00 0. -1.
</event>
<event>
 7    1  0.6506388E-006  0.1123633E+03  0.7561462E-02  0.1256255E+00
          1   -1    0    0  501    0  0.00000000000E+00  0.00000000000E+00  0.35538561623E+03  0.35538561623E+03  0.00000000000E+00 0. -1.
         -1   -1    0    0    0  501 -0.00000000000E+00 -0.00000000000E+00 -0.41588732882E+02  0.41588732882E+02  0.00000000000E+00 0.  1.
         23    2    1    2    0    0 -0.13005925735E+02  0.45074779005E+02  0.12882958326E+03  0.18558850046E+03  0.12508053474E+03 0.  0.
          5    1    3    3  502    0  0.41132717544E+02 -0.22256260019E+02  0.41361266440E+02  0.62573703135E+02  0.41800000000E+01 0. -1.
         -5    1    3    3    0  502 -0.54138643278E+02  0.67331039023E+02  0.87468316823E+02  0.12301479732E+03  0.41800000000E+01 0. -1.
        -11    1    1    2    0    0  0.41053537565E+02 -0.36069705921E+01  0.13295188707E+03  0.13919269901E+03  0.00000000000E+00 0. -1.
         11    1    1    2    0    0 -0.28047611830E+02 -0.41467808413E+02  0.52015413014E+02  0.72193149640E+02  0.00000000000E+00 0.  1.
</event>
<event>
 7    1  0.6506388E-006  0.1005035E+03  0.7561462E-02  0.1279241E+00
         -4   -1    0    0    0  501 -0.00000000000E+00  0.00000000000E+00  0.21819915818E+03  0.21819915818E+03  0.00000000000E+00 0.  1.
          4   -1    0    0  501    0  0.00000000000E+00 -0.00000000000E+00 -0.55078450526E+02  0.55078450526E+02  0.00000000000E+00 0. -1.
         23    2    1    2    0    0  0.15604514563E+02  0.30800850217E+01  0.12068975650E+03  0.17454549680E+03  0.12508847002E+03 0.  0.
          5    1    3    3  502    0  0.16268624384E+01 -0.60592016440E+02  0.56785132969E+02  0.83162869503E+02  0.41800000000E+01 0.  1.
         -5    1    3    3    0  502  0.13977652124E+02  0.63672101462E+02  0.63904623527E+02  0.91382627296E+02  0.41800000000E+01 0.  1.
        -11    1    1    2    0    0  0.23203801220E+02  0.19253301593E+02  0.44677836512E+02  0.53900047204E+02  0.00000000000E+00 0.  1.
         11    1    1    2    0    0 -0.38808315782E+02 -0.22333386614E+02 -0.22468853551E+01  0.44832064701E+02  0.00000000000E+00 0. -1.
</event>
<event>
 7    1  0.6506388E-006  0.1390433E+03  0.7561462E-02  0.1214622E+00
         -2   -1    0    0    0  501 -0.00000000000E+00  0.00000000000E+00  0.84024599265E+02  0.84024599265E+02  0.00000000000E+00 0. -1.
          2   -1    0    0  501    0  0.00000000000E+00 -0.00000000000E+00 -0.41690135197E+03  0.41690135197E+03  0.00000000000E+00 0.  1.
         23    2    1    2    0    0  0.80285163876E+02 -0.65840478297E+02 -0.23026678077E+02  0.16419147553E+03  0.12509171281E+03 0.  0.
          5    1    3    3  502    0  0.89120031727E+02 -0.90160071673E+02  0.35145848087E+01  0.12688988646E+03  0.41800000000E+01 0.  1.
         -5    1    3    3    0  502 -0.88348678508E+01  0.24319593377E+02 -0.26541262886E+02  0.37301589075E+02  0.41800000000E+01 0.  1.
        -11    1    1    2    0    0 -0.92556139936E+02  0.64229529290E+02 -0.30135043809E+03  0.32172062105E+03  0.00000000000E+00 0.  1.
         11    1    1    2    0    0  0.12270976060E+02  0.16109490068E+01 -0.84996365377E+01  0.15013854650E+02  0.00000000000E+00 0. -1.
</event>
<event>
 7    1  0.6506388E-006  0.9112008E+02  0.7561462E-02  0.1300162E+00
          1   -1    0    0  501    0  0.00000000000E+00  0.00000000000E+00  0.37175150282E+03  0.37175150282E+03  0.00000000000E+00 0. -1.
         -1   -1    0    0    0  501 -0.00000000000E+00 -0.00000000000E+00 -0.32602542204E+02  0.32602542204E+02  0.00000000000E+00 0.  1.
         23    2    1    2    0    0 -0.92633423308E+01  0.10349514084E+02  0.17463402038E+03  0.21526253296E+03  0.12509194646E+03 0.  0.
          5    1    3    3  502    0 -0.39386308696E+01  0.61264495340E+02  0.46223502548E+02  0.76960611940E+02  0.41800000000E+01 0. -1.
         -5    1    3    3    0  502 -0.53247114612E+01 -0.50914981256E+02  0.12841051783E+03  0.13830192102E+03  0.41800000000E+01 0. -1.
        -11    1    1    2    0    0  0.22596529831E+02 -0.34801013651E+02  0.28703791253E+02  0.50454150908E+02  0.00000000000E+00 0.  1.
         11    1    1    2    0    0 -0.13333187500E+02  0.24451499567E+02  0.13581114899E+03  0.13863736116E+03  0.00000000000E+00 0. -1.
</event>
<event>
 7    1  0.6506388E-006  0.9077188E+02  0.7561462E-02  0.1300993E+00
          2   -1    0    0  501    0  0.00000000000E+00  0.00000000000E+00  0.55006189730E+03  0.55006189730E+03  0.00000000000E+00 0. -1.
         -2   -1    0    0    0  501 -0.00000000000E+00 -0.00000000000E+00 -0.26987279222E+02  0.26987279222E+02  0.00000000000E+00 0.  1.
         23    2    1    2    0    0  0.13083889399E+02  0.40528720418E+02  0.22346761037E+03  0.25961318543E+03  0.12508983901E+03 0.  0.
          5    1    3    3  502    0  0.26866929402E+02 -0.75839571807E+01 -0.23051686622E+01  0.28321979178E+02  0.41800000000E+01 0.  1.
         -5    1    3    3    0  502 -0.13783040004E+02  0.48112677598E+02  0.22577277903E+03  0.23129120625E+03  0.41800000000E+01 0.  1.
        -11    1    1    2    0    0  0.36032175405E+02  0.46846762717E+01  0.79127413138E+02  0.87071300473E+02  0.00000000000E+00 0. -1.
         11    1    1    2    0    0 -0.49116064804E+02 -0.45213396689E+02  0.22047959457E+03  0.23036469062E+03  0.00000000000E+00 0.  1.
</event>
<event>
 7    1  0.6506388E-006  0.1039453E+03  0.7561462E-02  0.1272212E+00
          2   -1    0    0  501    0  0.00000000000E+00  0.00000000000E+00  0.47885871806E+03  0.47885871806E+03  0.00000000000E+00 0. -1.
         -2   -1    0    0    0  501 -0.00000000000E+00 -0.00000000000E+00 -0.24902545059E+02  0.24902545059E+02  0.00000000000E+00 0.  1.
         23    2    1    2    0    0 -0.23252990741E+02 -0.24234385077E+02  0.23775872799E+03  0.27074800970E+03  0.12508902837E+03 0.  0.
          5    1    3    3  502    0  0.25016761655E+02 -0.60967169946E+02  0.96177755163E+02  0.11666390686E+03  0.41800000000E+01 0.  1.
         -5    1    3    3    0  502 -0.48269752396E+02  0.36732784869E+02  0.14158097283E+03  0.15408410284E+03  0.41800000000E+01 0.  1.
        -11    1    1    2    0    0  0.38921953279E+02 -0.12695951030E+02  0.15109266723E+03  0.15654104801E+03  0.00000000000E+00 0. -1.
         11    1    1    2    0    0 -0.15668962538E+02  0.36930336107E+02  0.65104777781E+02  0.76472205421E+02  0.00000000000E+00 0.  1.
</event>
<event>
 7    1  0.6506388E-006  0.1068690E+03  0.7561462E-02  0.1266480E+00
          1   -1    0    0  501    0  0.00000000000E+00  0.00000000000E+00  0.29251278889E+03  0.29251278889E+03  0.00000000000E+00 0. -1.
         -1   -1    0    0    0  501 -0.00000000000E+00 -0.00000000000E+00 -0.51100791671E+02  0.51100791671E+02  0.00000000000E+00 0.  1.
         23    2    1    2    0    0 -0.11106789697E+02 -0.48580784369E+02  0.95830852033E+02  0.16526186154E+03  0.12507788489E+03 0.  0.
          5    1    3    3  502    0  0.47524919610E+02 -0.21091906147E+02  0.33288734074E+01  0.52268922765E+02  0.41800000000E+01 0.  1.
         -5    1    3    3    0  502 -0.58631709307E+02 -0.27488878222E+02  0.92501978626E+02  0.11299293877E+03  0.41800000000E+01 0.  1.
        -11    1    1    2    0    0 -0.29577555765E+02 -0.43807874391E+01  0.77110412872E+02  0.82704527548E+02  0.00000000000E+00 0. -1.
         11    1    1    2    0    0  0.40684345462E+02  0.52961571808E+02  0.68470732315E+02  0.95647191479E+02  0.00000000000E+00 0.  1.
</event>
<event>
 7    1  0.6506388E-006  0.1228481E+03  0.7561462E-02  0.1238471E+00
         -2   -1    0    0    0  501 -0.00000000000E+00  0.00000000000E+00  0.87315813696E+02  0.87315813696E+02  0.00000000000E+00 0.  1.
          2   -1    0    0  501    0  0.00000000000E+00 -0.00000000000E+00 -0.45138037345E+03  0.45138037345E+03  0.00000000000E+00 0. -1.
         23    2    1    2    0    0  0.77272826266E+01  0.68459635525E+02  0.14515978020E+02  0.14354325040E+03  0.12509004167E+03 0.  0.
          5    1    3    3  502    0  0.66213216918E+02  0.41639091908E+02  0.80290240621E+01  0.78739708514E+02  0.41800000000E+01 0.  1.
         -5    1    3    3    0  502 -0.58485934292E+02  0.26820543617E+02  0.64869539578E+01  0.64803541890E+02  0.41800000000E+01 0.  1.
        -11    1    1    2    0    0  0.27369780902E+02 -0.61210600477E+02 -0.31601688738E+03  0.32305187761E+03  0.00000000000E+00 0. -1.
         11    1    1    2    0    0 -0.35097063529E+02 -0.72490350471E+01 -0.62563650392E+02  0.72101059131E+02  0.00000000000E+00 0.  1.
</event>
<event>
 7    1  0.6506388E-006  0.1241749E+03  0.7561462E-02  0.1236364E+00
         -1   -1    0    0    0  501 -0.00000000000E+00  0.00000000000E+00  0.17027609855E+03  0.17027609855E+03  0.00000000000E+00 0.  1.
          1   -1    0    0  501    0  0.00000000000E+00 -0.00000000000E+00 -0.10436725442E+03  0.10436725442E+03  0.00000000000E+00 0. -1.
         23    2    1    2    0    0 -0.35356457912E+02  0.52563517705E+02  0.82871782024E+02  0.16286326866E+03  0.12507481566E+03 0.  0.
          5    1    3    3  502    0  0.18480167157E+01  0.87435704309E+02  0.63487925022E+02  0.10815085103E+03  0.41800000000E+01 0. -1.
         -5    1    3    3    0  502 -0.37204474628E+02 -0.34872186604E+02  0.19383857001E+02  0.54712417632E+02  0.41800000000E+01 0. -1.
        -11    1    1    2    0    0 -0.27911607551E+02 -0.86181737107E+00 -0.10444449752E+02  0.29814209630E+02  0.00000000000E+00 0. -1.
         11    1    1    2    0    0  0.63268065463E+02 -0.51701700334E+02 -0.65184881397E+01  0.81965874683E+02  0.00000000000E+00 0.  1.
</event>
<event>
 7    1  0.6506388E-006  0.1176070E+03  0.7561462E-02  0.1247098E+00
          1   -1    0    0  501    0  0.00000000000E+00  0.00000000000E+00  0.20301495597E+03  0.20301495597E+03  0.00000000000E+00 0. -1.
         -1   -1    0    0    0  501 -0.00000000000E+00 -0.00000000000E+00 -0.81679030489E+02  0.81679030489E+02  0.00000000000E+00 0.  1.
         23    2    1    2    0    0 -0.11125824492E+02 -0.41416046758E+02  0.12803199352E+02  0.13285452462E+03  0.12508928771E+03 0.  0.
          5    1    3    3  502    0 -0.62865652623E+02 -0.48914778083E+02  0.64497306911E+01  0.80023854072E+02  0.41800000000E+01 0. -1.
         -5    1    3    3    0  502  0.51739828131E+02  0.74987313249E+01  0.63534686610E+01  0.52830670548E+02  0.41800000000E+01 0. -1.
        -11    1    1    2    0    0 -0.33754638157E+02  0.46905350491E+02  0.42175245368E+02  0.71541867628E+02  0.00000000000E+00 0.  1.
         11    1    1    2    0    0  0.44880462649E+02 -0.54893037327E+01  0.66357480757E+02  0.80297594207E+02  0.00000000000E+00 0. -1.
</event>
<event>
 7    1  0.6506388E-006  0.1184334E+03  0.7561462E-02  0.1245704E+00
          1   -1    0    0  501    0  0.00000000000E+00  0.00000000000E+00  0.43097699537E+02  0.43097699537E+02  0.00000000000E+00 0. -1.
         -1   -1    0    0    0  501 -0.00000000000E+00 -0.00000000000E+00 -0.52793874660E+03  0.52793874660E+03  0.00000000000E+00 0.  1.
         23    2    1    2    0    0  0.29770583131E+02 -0.88783419681E+02 -0.34949038734E+03  0.38283025512E+03  0.12508673056E+03 0.  0.
          5    1    3    3  502    0  0.58385114134E+02 -0.11816361331E+02 -0.23109546659E+03  0.23868605955E+03  0.41800000000E+01 0.  1.
         -5    1    3    3    0  502 -0.28614531003E+02 -0.76967058351E+02 -0.11839492076E+03  0.14414419557E+03  0.41800000000E+01 0.  1.
        -11    1    1    2    0    0 -0.27787390568E+02  0.60477799018E+02 -0.20116124410E+02  0.69529574355E+02  0.00000000000E+00 0. -1.
         11    1    1    2    0    0 -0.19831925636E+01  0.28305620663E+02 -0.11523453531E+03  0.11867661666E+03  0.00000000000E+00 0.  1.
</event>
<event>
 7    1  0.6506388E-006  0.1036614E+03  0.7561462E-02  0.1272780E+00
          2   -1    0    0  501    0  0.00000000000E+00  0.00000000000E+00  0.58248523909E+02  0.58248523909E+02  0.00000000000E+00 0.  1.
         -2   -1    0    0    0  501 -0.00000000000E+00 -0.00000000000E+00 -0.32981852514E+03  0.32981852514E+03  0.00000000000E+00 0. -1.
         23    2    1    2    0    0 -0.61287114080E+02 -0.54109560767E+02 -0.18656415187E+03  0.23903340926E+03  0.12508730176E+03 0.  0.
          5    1    3    3  502    0 -0.34023463417E+02  0.24022196570E+02 -0.86096465266E+01  0.42734768096E+02  0.41800000000E+01 0.  1.
         -5    1    3    3    0  502 -0.27263650664E+02 -0.78131757337E+02 -0.17795450534E+03  0.19629864117E+03  0.41800000000E+01 0.  1.
        -11    1    1    2    0    0  0.17579137656E+02  0.23043537788E+02  0.17136970548E+02  0.33670557971E+02  0.00000000000E+00 0.  1.
         11    1    1    2    0    0  0.43707976425E+02  0.31066022979E+02 -0.10214281991E+03  0.11536308181E+03  0.00000000000E+00 0. -1.
</event>
<event>
 7    1  0.6506388E-006  0.8879026E+02  0.7561462E-02  0.1305808E+00
          2   -1    0    0  501    0  0.00000000000E+00  0.00000000000E+00  0.16355873468E+03  0.16355873468E+03  0.00000000000E+00 0.  1.
         -2   -1    0    0    0  501 -0.00000000000E+00 -0.00000000000E+00 -0.62722769965E+02  0.62722769965E+02  0.00000000000E+00 0. -1.
         23    2    1    2    0    0 -0.11819250826E+02 -0.41122988239E+02  0.33616190537E+02  0.13641735209E+03  0.12509536695E+03 0.  0.
          5    1    3    3  502    0 -0.58594399263E+02  0.73384041484E+01 -0.36800190954E+01  0.59314169816E+02  0.41800000000E+01 0. -1.
         -5    1    3    3    0  502  0.46775148437E+02 -0.48461392388E+02  0.37296209633E+02  0.77103182272E+02  0.41800000000E+01 0. -1.
        -11    1    1    2    0    0 -0.46446294165E+01  0.31474363372E+02  0.16852344791E+02  0.36002911785E+02  0.00000000000E+00 0. -1.
         11    1    1    2    0    0  0.16463880242E+02  0.96486248678E+01  0.50367429387E+02  0.53861240772E+02  0.00000000000E+00 0.  1.
</event>
<event>
 6    1  0.6506388E-006  0.9565939E+02  0.7561462E-02  0.1289698E+00
         -1   -1    0    0    0  501 -0.00000000000E+00  0.00000000000E+00  0.14073609432E+03  0.14073609432E+03  0.00000000000E+00 0.  1.
          1   -1    0    0  501    0  0.00000000000E+00 -0.00000000000E+00 -0.19610261983E+03  0.19610261983E+03  0.00000000000E+00 0. -1.
          5    1    1    2  502    0 -0.15585962018E+02 -0.53924678582E+02 -0.91612273800E+01  0.57028007675E+02  0.41800000000E+01 0. -1.
         -5    1    1    2    0  502 -0.23204480829E+02  0.36085364770E+02  0.94126546406E+02  0.10352719749E+03  0.41800000000E+01 0.  1.
        -11    1    1    2    0    0  0.63189502599E+02  0.27733816479E+01 -0.13208080725E+03  0.14644433935E+03  0.00000000000E+00 0. -1.
         11    1    1    2    0    0 -0.24399059752E+02  0.15065932164E+02 -0.82510372840E+01  0.29839169643E+02  0.00000000000E+00 0.  1.
</event>
<event>
 7    1  0.6506388E-006  0.9830157E+02  0.7561462E-02  0.1283909E+00
         -1   -1    0    0    0  501 -0.00000000000E+00  0.00000000000E+00  0.30749435047E+03  0.30749435047E+03  0.00000000000E+00 0.  1.
          1   -1    0    0  501    0  0.00000000000E+00 -0.00000000000E+00 -0.41667428052E+02  0.41667428052E+02  0.00000000000E+00 0. -1.
         23    2    1    2    0    0  0.25858409954E+02  0.23290190154E+02  0.13934537712E+03  0.19043215165E+03  0.12504471175E+03 0.  0.
          5    1    3    3  502    0 -0.37533021026E+02  0.45616039970E+02  0.86521086995E+02  0.10484713475E+03  0.41800000000E+01 0.  1.
         -5    1    3    3    0  502  0.63391430980E+02 -0.22325849816E+02  0.52824290122E+02  0.85585016905E+02  0.41800000000E+01 0.  1.
        -11    1    1    2    0    0  0.71522454462E+01  0.16713734147E+02  0.97773321063E+02  0.99449111790E+02  0.00000000000E+00 0.  1.
         11    1    1    2    0    0 -0.33010655400E+02 -0.40003924302E+02  0.28708224241E+02  0.59280515083E+02  0.00000000000E+00 0. -1.
</event>
<event>
 6    1  0.6506388E-006  0.1726733E+03  0.7561462E-02  0.1175088E+00
         -2   -1    0    0    0  501 -0.00000000000E+00  0.00000000000E+00  0.26483538470E+03  0.26483538470E+03  0.00000000000E+00 0.  1.
          2   -1    0    0  501    0  0.00000000000E+00 -0.00000000000E+00 -0.24052262436E+03  0.24052262436E+03  0.00000000000E+00 0. -1.
          5    1    1    2  502    0 -0.10108535880E+03 -0.16904070806E+02  0.25259378431E+02  0.10563856290E+03  0.41800000000E+01 0. -1.
         -5    1    1    2    0  502 -0.22837477139E+02  0.49718828532E+01  0.12999003059E+03  0.13214064642E+03  0.41800000000E+01 0.  1.
        -11    1    1    2    0    0 -0.44064828380E+02  0.24773548743E+02  0.54116982211E+01  0.50840183862E+02  0.00000000000E+00 0.  1.
         11    1    1    2    0    0  0.16798766431E+03 -0.12841360790E+02 -0.13634834690E+03  0.21673861588E+03  0.00000000000E+00 0. -1.
</event>
<event>
 7    1  0.6506388E-006  0.1117152E+03  0.7561462E-02  0.1257426E+00
         -1   -1    0    0    0  501 -0.00000000000E+00  0.00000000000E+00  0.93824104334E+02  0.93824104334E+02  0.00000000000E+00 0.  1.
          1   -1    0    0  501    0  0.00000000000E+00 -0.00000000000E+00 -0.26283079252E+03  0.26283079252E+03  0.00000000000E+00 0. -1.
         23    2    1    2    0    0 -0.62668197074E+02  0.51726342327E+02 -0.22979124257E+01  0.14919863440E+03  0.12510809203E+03 0.  0.
          5    1    3    3  502    0  0.32520567869E+01  0.58547268632E+02  0.39418045428E+02  0.70778621370E+02  0.41800000000E+01 0. -1.
         -5    1    3    3    0  502 -0.65920253861E+02 -0.68209263052E+01 -0.41715957854E+02  0.78420013035E+02  0.41800000000E+01 0. -1.
        -11    1    1    2    0    0  0.53661038791E+02 -0.87986088550E+01 -0.26392462524E+02  0.60444062405E+02  0.00000000000E+00 0.  1.
         11    1    1    2    0    0  0.90071582829E+01 -0.42927733472E+02 -0.14031631324E+03  0.14701220005E+03  0.00000000000E+00 0. -1.
</event>
<event>
 7    1  0.6506388E-006  0.1070408E+03  0.7561462E-02  0.1266150E+00
         -1   -1    0    0    0  501 -0.00000000000E+00  0.00000000000E+00  0.14980336006E+03  0.14980336006E+03  0.00000000000E+00 0.  1.
          1   -1    0    0  501    0  0.00000000000E+00 -0.00000000000E+00 -0.16337080430E+03  0.16337080430E+03  0.00000000000E+00 0. -1.
         23    2    1    2    0    0  0.26635213917E+02  0.41836839080E+02  0.82650562400E+02  0.15791740935E+03  0.12508811689E+03 0.  0.
          5    1    3    3  502    0  0.39775921909E+02  0.70199021985E+02  0.13497376365E+02  0.81912625523E+02  0.41800000000E+01 0. -1.
         -5    1    3    3    0  502 -0.13140707993E+02 -0.28362182905E+02  0.69153186035E+02  0.76004783826E+02  0.41800000000E+01 0. -1.
        -11    1    1    2    0    0 -0.42929178246E+02  0.12752056007E+02 -0.15994472927E+01  0.44811689423E+02  0.00000000000E+00 0.  1.
         11    1    1    2    0    0  0.16293964330E+02 -0.54588895086E+02 -0.94618559341E+02  0.11044506559E+03  0.00000000000E+00 0. -1.
</event>
<event>
 7    1  0.6506388E-006  0.3401130E+03  0.7561462E-02  0.1066748E+00
         -2   -1    0    0    0  501 -0.00000000000E+00  0.00000000000E+00  0.73379339599E+02  0.73379339599E+02  0.00000000000E+00 0.  1.
          2   -1    0    0  501    0  0.00000000000E+00 -0.00000000000E+00 -0.17465611997E+04  0.17465611997E+04  0.00000000000E+00 0. -1.
         23    2    1    2    0    0  0.32152170035E+03  0.84533824665E+02 -0.65406842447E+03  0.74429535667E+03  0.12509157751E+03 0.  0.
          5    1    3    3  502    0  0.22350406979E+02  0.25264190346E+02 -0.16070212579E+03  0.16425731533E+03  0.41800000000E+01 0. -1.
         -5    1    3    3    0  502  0.29917129337E+03  0.59269634319E+02 -0.49336629868E+03  0.58003804134E+03  0.41800000000E+01 0. -1.
        -11    1    1    2    0    0 -0.28890147611E+03 -0.99197410904E+02 -0.94881865383E+03  0.99677531424E+03  0.00000000000E+00 0.  1.
         11    1    1    2    0    0 -0.32620224237E+02  0.14663586239E+02 -0.70294781816E+02  0.78869868399E+02  0.00000000000E+00 0. -1.
</event>
<event>
 7    1  0.6506388E-006  0.1788323E+03  0.7561462E-02  0.1168938E+00
          2   -1    0    0  501    0  0.00000000000E+00  0.00000000000E+00  0.13262872704E+04  0.13262872704E+04  0.00000000000E+00 0. -1.
         -2   -1    0    0    0  501 -0.00000000000E+00 -0.00000000000E+00 -0.36910668723E+02  0.36910668723E+02  0.00000000000E+00 0.  1.
         23    2    1    2    0    0 -0.16392723520E+03 -0.28049822153E+02  0.37241674258E+03  0.42661535246E+03  0.12508995901E+03 0.  0.
          5    1    3    3  502    0 -0.10440071617E+03 -0.24034208465E+02  0.34415101506E+03  0.36046434814E+03  0.41800000000E+01 0. -1.
         -5    1    3    3    0  502 -0.59526519027E+02 -0.40156136881E+01  0.28265727513E+02  0.66151004320E+02  0.41800000000E+01 0. -1.
        -11    1    1    2    0    0  0.90490725170E+02 -0.31791451270E+02  0.47399005114E+03  0.48359677036E+03  0.00000000000E+00 0. -1.
         11    1    1    2    0    0  0.73436510030E+02  0.59841273424E+02  0.44296980799E+03  0.45298581634E+03  0.00000000000E+00 0.  1.
</event>
<event>
 7    1  0.6506388E-006  0.1143459E+03  0.7561462E-02  0.1252727E+00
         -1   -1    0    0    0  501 -0.00000000000E+00  0.00000000000E+00  0.17900587760E+02  0.17900587760E+02  0.00000000000E+00 0.  1.
          1   -1    0    0  501    0  0.00000000000E+00 -0.00000000000E+00 -0.11556963645E+04  0.11556963645E+04  0.00000000000E+00 0. -1.
         23    2    1    2    0    0  0.85528602890E+02  0.39858720542E+02 -0.60445238519E+03  0.62443096704E+03  0.12508991612E+03 0.  0.
          5    1    3    3  502    0  0.25944730153E+02  0.43787087411E+00 -0.48112903089E+03  0.48184638374E+03  0.41800000000E+01 0.  1.
         -5    1    3    3    0  502  0.59583872737E+02  0.39420849667E+02 -0.12332335430E+03  0.14258458330E+03  0.41800000000E+01 0.  1.
        -11    1    1    2    0    0 -0.10364908244E+03 -0.43418652946E+02 -0.45376176284E+03  0.46746983766E+03  0.00000000000E+00 0.  1.
         11    1    1    2    0    0  0.18120479547E+02  0.35599324046E+01 -0.79581628740E+02  0.81696147587E+02  0.00000000000E+00 0. -1.
</event>
<event>
 7    1  0.6506388E-006  0.1614704E+03  0.7561462E-02  0.1187047E+00
         -2   -1    0    0    0  501 -0.00000000000E+00  0.00000000000E+00  0.28213451793E+02  0.28213451793E+02  0.00000000000E+00 0.  1.
          2   -1    0    0  501    0  0.00000000000E+00 -0.00000000000E+00 -0.12848430830E+04  0.12848430830E+04  0.00000000000E+00 0. -1.
         23    2    1    2    0    0 -0.14538105992E+03  0.36810738606E+02 -0.66404695110E+03  0.69217008499E+03  0.12510151970E+03 0.  0.
          5    1    3    3  502    0 -0.61542567938E+02  0.64968220655E+01 -0.79422400158E+02  0.10077244868E+03  0.41800000000E+01 0.  1.
         -5    1    3    3    0  502 -0.83838491982E+02  0.30313916540E+02 -0.58462455094E+03  0.59139763631E+03  0.41800000000E+01 0.  1.
        -11    1    1    2    0    0  0.66063308546E+02 -0.59774277323E+02 -0.18903983908E+03  0.20898178324E+03  0.00000000000E+00 0.  1.
         11    1    1    2    0    0  0.79317751375E+02  0.22963538717E+02 -0.40354284098E+03  0.41190466652E+03  0.00000000000E+00 0. -1.
</event>
<event>
 7    1  0.6506388E-006  0.2411933E+03  0.7561462E-02  0.1119000E+00
         -2   -1    0    0    0  501 -0.00000000000E+00  0.00000000000E+00  0.82913510716E+02  0.82913510716E+02  0.00000000000E+00 0.  1.
          2   -1    0    0  501    0  0.00000000000E+00 -0.00000000000E+00 -0.11654641294E+04  0.11654641294E+04  0.00000000000E+00 0. -1.
         23    2    1    2    0    0  0.19751950716E+03  0.98559427228E+02 -0.17127638847E+03  0.30612287802E+03  0.12509076224E+03 0.  0.
          5    1    3    3  502    0  0.35994645103E+02  0.72422401035E+02 -0.20394668422E+02  0.83510679245E+02  0.41800000000E+01 0. -1.
         -5    1    3    3    0  502  0.16152486206E+03  0.26137026192E+02 -0.15088172005E+03  0.22261219878E+03  0.41800000000E+01 0. -1.
        -11    1    1    2    0    0  0.48204500928E+01 -0.20159210097E+02 -0.11944220321E+03  0.12122735005E+03  0.00000000000E+00 0.  1.
         11    1    1    2    0    0 -0.20233995725E+03 -0.78400217131E+02 -0.79183202698E+03  0.82102741203E+03  0.00000000000E+00 0. -1.
</event>
<event>
 7    1  0.6506388E-006  0.1241235E+03  0.7561462E-02  0.1236445E+00
         -1   -1    0    0    0  501 -0.00000000000E+00  0.00000000000E+00  0.35410268200E+03  0.35410268200E+03  0.00000000000E+00 0.  1.
          1   -1    0    0  501    0  0.00000000000E+00 -0.00000000000E+00 -0.56952153669E+02  0.56952153669E+02  0.00000000000E+00 0. -1.
         23    2    1    2    0    0 -0.65870879192E+02  0.65812627823E+02  0.14139152813E+03  0.21049606881E+03  0.12508699392E+03 0.  0.
          5    1    3    3  502    0 -0.66404572355E+02  0.92749843318E+01  0.13825794021E+03  0.15371507081E+03  0.41800000000E+01 0.  1.
         -5    1    3    3    0  502  0.53369316387E+00  0.56537643492E+02  0.31335879232E+01  0.56780997995E+02  0.41800000000E+01 0.  1.
        -11    1    1    2    0    0 -0.17876157128E+02 -0.26232089231E+02  0.56396218629E+02  0.64716404217E+02  0.00000000000E+00 0.  1.
         11    1    1    2    0    0  0.83747036319E+02 -0.39580538592E+02  0.99362781566E+02  0.13584236264E+03  0.00000000000E+00 0. -1.
</event>
<event>
 7    1  0.6506388E-006  0.8231816E+02  0.7561462E-02  0.1322599E+00
         -1   -1    0    0    0  501 -0.00000000000E+00  0.00000000000E+00  0.10293937214E+03  0.10293937214E+03  0.00000000000E+00 0.  1.
          1   -1    0    0  501    0  0.00000000000E+00 -0.00000000000E+00 -0.17611703711E+03  0.17611703711E+03  0.00000000000E+00 0. -1.
         23    2    1    2    0    0  0.39798230784E+02  0.68024099342E+02 -0.43594385232E+02  0.15412688041E+03  0.12507376854E+03 0.  0.
          5    1    3    3  502    0  0.33429114185E+02  0.62555247493E+02  0.32020737853E+02  0.77932436872E+02  0.41800000000E+01 0.  1.
         -5    1    3    3    0  502  0.63691165992E+01  0.54688518490E+01 -0.75615123085E+02  0.76194443537E+02  0.41800000000E+01 0.  1.
        -11    1    1    2    0    0  0.23898217710E+01 -0.20585817831E+02  0.30926031914E+02  0.37227766436E+02  0.00000000000E+00 0.  1.
         11    1    1    2    0    0 -0.42188052555E+02 -0.47438281512E+02 -0.60509311661E+02  0.87701762405E+02  0.00000000000E+00 0. -1.
</event>
<event>
 6    1  0.6506388E-006  0.2124448E+03  0.7561462E-02  0.1139644E+00
          2   -1    0    0  501    0  0.00000000000E+00  0.00000000000E+00  0.13564742983E+04  0.13564742983E+04  0.00000000000E+00 0. -1.
         -2   -1    0    0    0  501 -0.00000000000E+00 -0.00000000000E+00 -0.39294033624E+02  0.39294033624E+02  0.00000000000E+00 0.  1.
          5    1    1    2  502    0  0.46368757614E+02  0.13965740089E+03  0.57348491893E+03  0.59207826843E+03  0.41800000000E+01 0. -1.
         -5    1    1    2    0  502 -0.36950647751E+02  0.53306958545E+02  0.65204122861E+02  0.92065369367E+02  0.41800000000E+01 0.  1.
        -11    1    1    2    0    0  0.37017561214E+02 -0.48988483202E+02  0.24173174253E+03  0.24940811268E+03  0.00000000000E+00 0. -1.
         11    1    1    2    0    0 -0.46435671077E+02 -0.14397587623E+03  0.43675948039E+03  0.46221658148E+03  0.00000000000E+00 0.  1.
</event>
<event>
 7    1  0.6506388E-006  0.8977864E+02  0.7561462E-02  0.1303389E+00
          1   -1    0    0  501    0  0.00000000000E+00  0.00000000000E+00  0.32964134309E+03  0.32964134309E+03  0.00000000000E+00 0. -1.
         -1   -1    0    0    0  501 -0.00000000000E+00 -0.00000000000E+00 -0.57849853761E+02  0.57849853761E+02  0.00000000000E+00 0.  1.
         23    2    1    2    0    0  0.34124095799E+02 -0.93024499774E+01  0.39700896089E+02  0.13589211506E+03  0.12505805170E+03 0.  0.
          5    1    3    3  502    0 -0.23656630289E+02  0.51260963070E+01 -0.33431449983E+02  0.41485506721E+02  0.41800000000E+01 0. -1.
         -5    1    3    3    0  502  0.57780726089E+02 -0.14428546284E+02  0.73132346071E+02  0.94406608334E+02  0.41800000000E+01 0. -1.
        -11    1    1    2    0    0 -0.23993152293E+02 -0.39081402049E+02  0.13625792598E+03  0.14376804142E+03  0.00000000000E+00 0.  1.
         11    1    1    2    0    0 -0.10130943507E+02  0.48383852026E+02  0.95832667263E+02  0.10783104037E+03  0.00000000000E+00 0. -1.
</event>
<event>
 7    1  0.6506388E-006  0.9573049E+02  0.7561462E-02  0.1289539E+00
         -2   -1    0    0    0  501 -0.00000000000E+00  0.00000000000E+00  0.59128924696E+03  0.59128924696E+03  0.00000000000E+00 0.  1.
          2   -1    0    0  501    0  0.00000000000E+00 -0.00000000000E+00 -0.21592332607E+02  0.21592332607E+02  0.00000000000E+00 0. -1.
         23    2    1    2    0    0  0.18763534824E+02 -0.62928902299E+01  0.28364121562E+03  0.31062943245E+03  0.12508650766E+03 0.  0.
          5    1    3    3  502    0 -0.27577819130E+02  0.43565245122E+02  0.74874639807E+02  0.91006322729E+02  0.41800000000E+01 0.  1.
         -5    1    3    3    0  502  0.46341353954E+02 -0.49858135352E+02  0.20876657581E+03  0.21962310972E+03  0.41800000000E+01 0.  1.
        -11    1    1    2    0    0  0.22880490942E+02 -0.12244686743E+02  0.21220144071E+02  0.33522287117E+02  0.00000000000E+00 0. -1.
         11    1    1    2    0    0 -0.41644025766E+02  0.18537576973E+02  0.26483555466E+03  0.26872986000E+03  0.00000000000E+00 0.  1.
</event>
<event>
 7    1  0.6506388E-006  0.1105182E+03  0.7561462E-02  0.1259613E+00
         -1   -1    0    0    0  501 -0.00000000000E+00  0.00000000000E+00  0.26942536778E+03  0.26942536778E+03  0.00000000000E+00 0.  1.
          1   -1    0    0  501    0  0.00000000000E+00 -0.00000000000E+00 -0.14686058499E+03  0.14686058499E+03  0.00000000000E+00 0. -1.
         23    2    1    2    0    0  0.69330953903E+02  0.47464457994E+02  0.19304486337E+03  0.24488990273E+03  0.12508033116E+03 0.  0.
          5    1    3    3  502    0 -0.20901228151E+02  0.41293275542E+02  0.22119751725E+02  0.51466025294E+02  0.41800000000E+01 0. -1.
         -5    1    3    3    0  502  0.90232182054E+02  0.61711824515E+01  0.17092511164E+03  0.19342387743E+03  0.41800000000E+01 0. -1.
        -11    1    1    2    0    0 -0.48141657116E+02 -0.33474930940E+02 -0.10986664289E+03  0.12453461114E+03  0.00000000000E+00 0. -1.
         11    1    1    2    0    0 -0.21189296787E+02 -0.13989527053E+02  0.39386562309E+02  0.46861438902E+02  0.00000000000E+00 0.  1.
</event>
<event>
 7    1  0.6506388E-006  0.9709973E+02  0.7561462E-02  0.1286516E+00
          2   -1    0    0  501    0  0.00000000000E+00  0.00000000000E+00  0.19143191667E+03  0.19143191667E+03  0.00000000000E+00 0. -1.
         -2   -1    0    0    0  501 -0.00000000000E+00 -0.00000000000E+00 -0.10060498205E+03  0.10060498205E+03  0.00000000000E+00 0.  1.
         23    2    1    2    0    0 -0.67276750893E+02  0.53640502903E+02  0.56719566597E+02  0.16207358677E+03  0.12508906239E+03 0.  0.
          5    1    3    3  502    0 -0.71835257735E+02  0.62877501045E+02 -0.84795204509E+01  0.95933617979E+02  0.41800000000E+01 0.  1.
         -5    1    3    3    0  502  0.45585068418E+01 -0.92369981415E+01  0.65199087048E+02  0.66139968787E+02  0.41800000000E+01 0.  1.
        -11    1    1    2    0    0  0.55500581373E+02 -0.51175871635E+02  0.63216178278E+02  0.98466083330E+02  0.00000000000E+00 0. -1.
         11    1    1    2    0    0  0.11776169521E+02 -0.24646312682E+01 -0.29108810256E+02  0.31497228615E+02  0.00000000000E+00 0.  1.
</event>
<event>
 7    1  0.6506388E-006  0.1597575E+03  0.7561462E-02  0.1188971E+00
          1   -1    0    0  501    0  0.00000000000E+00  0.00000000000E+00  0.67759337700E+02  0.67759337700E+02  0.00000000000E+00 0. -1.
         -1   -1    0    0    0  501 -0.00000000000E+00 -0.00000000000E+00 -0.47742960636E+03  0.47742960636E+03  0.00000000000E+00 0.  1.
         23    2    1    2    0    0  0.11085759102E+02  0.12797140839E+03 -0.31469652642E+03  0.36218949702E+03  0.12509097728E+03 0.  0.
          5    1    3    3  502    0  0.10596422079E+02 -0.24225150073E+02 -0.40264608580E+02  0.48351351182E+02  0.41800000000E+01 0. -1.
         -5    1    3    3    0  502  0.48933702231E+00  0.15219655846E+03 -0.27443191784E+03  0.31383814584E+03  0.41800000000E+01 0. -1.
        -11    1    1    2    0    0 -0.32150790540E+02 -0.47862647266E+02 -0.91321365396E+00  0.57665763628E+02  0.00000000000E+00 0. -1.
         11    1    1    2    0    0  0.21065031438E+02 -0.80108761122E+02 -0.94060528583E+02  0.12533368340E+03  0.00000000000E+00 0.  1.
</event>
<event>
 7    1  0.6506388E-006  0.1252028E+03  0.7561462E-02  0.1234753E+00
         -1   -1    0    0    0  501 -0.00000000000E+00  0.00000000000E+00  0.26741770844E+03  0.26741770844E+03  0.00000000000E+00 0.  1.
          1   -1    0    0  501    0  0.00000000000E+00 -0.00000000000E+00 -0.68904065070E+02  0.68904065070E+02  0.00000000000E+00 0. -1.
         23    2    1    2    0    0  0.69214101770E+02 -0.50129053284E+02  0.10285735673E+03  0.18311399894E+03  0.12509031500E+03 0.  0.
          5    1    3    3  502    0 -0.15509234173E+02 -0.56872396417E+02  0.70700141693E+02  0.92146558559E+02  0.41800000000E+01 0.  1.
         -5    1    3    3    0  502  0.84723335942E+02  0.67433431330E+01  0.32157215037E+02  0.90967440377E+02  0.41800000000E+01 0.  1.
        -11    1    1    2    0    0 -0.69986211440E+02  0.15634697368E+02  0.27476836857E+02  0.76795117795E+02  0.00000000000E+00 0. -1.
         11    1    1    2    0    0  0.77210967045E+00  0.34494355916E+02  0.68179449781E+02  0.76412656778E+02  0.00000000000E+00 0.  1.
</event>
<event>
 7    1  0.6506388E-006  0.1482559E+03  0.7561462E-02  0.1202633E+00
          1   -1    0    0  501    0  0.00000000000E+00  0.00000000000E+00  0.12555353148E+03  0.12555353148E+03  0.00000000000E+00 0. -1.
         -1   -1    0    0    0  501 -0.00000000000E+00 -0.00000000000E+00 -0.32935297287E+03  0.32935297287E+03  0.00000000000E+00 0.  1.
         23    2    1    2    0    0 -0.11070352062E+03  0.70027845976E+02 -0.23267208871E+03  0.29486085754E+03  0.12508979076E+03 0.  0.
          5    1    3    3  502    0  0.23934342814E+00  0.15753404255E+02  0.12342363748E+02  0.20445864467E+02  0.41800000000E+01 0.  1.
         -5    1    3    3    0  502 -0.11094286405E+03  0.54274441721E+02 -0.24501445246E+03  0.27441499307E+03  0.41800000000E+01 0.  1.
        -11    1    1    2    0    0  0.11926834957E+03 -0.40607079607E+02  0.16781413136E+02  0.12710424836E+03  0.00000000000E+00 0. -1.
         11    1    1    2    0    0 -0.85648289486E+01 -0.29420766368E+02  0.12091234179E+02  0.32941398461E+02  0.00000000000E+00 0.  1.
</event>
<event>
 7    1  0.6506388E-006  0.1547055E+03  0.7561462E-02  0.1194807E+00
          3   -1    0    0  501    0  0.00000000000E+00  0.00000000000E+00  0.26171932574E+03  0.26171932574E+03  0.00000000000E+00 0. -1.
         -3   -1    0    0    0  501 -0.00000000000E+00 -0.00000000000E+00 -0.10960463586E+03  0.10960463586E+03  0.00000000000E+00 0.  1.
         23    2    1    2    0    0  0.12293920786E+03  0.61795782748E+01  0.15430738780E+02  0.16660647708E+03  0.11120869790E+03 0.  0.
          5    1    3    3  502    0 -0.79195183933E+01 -0.24455539713E+02  0.18770919795E+02  0.32103146640E+02  0.41800000000E+01 0. -1.
         -5    1    3    3    0  502  0.13085872625E+03  0.30635117988E+02 -0.33401810147E+01  0.13450333044E+03  0.41800000000E+01 0.  1.
        -11    1    1    2    0    0 -0.92467259724E+02  0.33963281670E+02  0.68731951508E+02  0.12011569332E+03  0.00000000000E+00 0.  1.
         11    1    1    2    0    0 -0.30471948131E+02 -0.40142859945E+02  0.67951999593E+02  0.84601791212E+02  0.00000000000E+00 0. -1.
</event>
<event>
 7    1  0.6506388E-006  0.7919419E+02  0.7561462E-02  0.1331354E+00
          1   -1    0    0  501    0  0.00000000000E+00  0.00000000000E+00  0.12545194147E+03  0.12545194147E+03  0.00000000000E+00 0. -1.
         -1   -1    0    0    0  501 -0.00000000000E+00 -0.00000000000E+00 -0.10877226969E+03  0.10877226969E+03  0.00000000000E+00 0.  1.
         23    2    1    2    0    0 -0.41165731658E+02  0.13844072375E+02  0.42180444489E+01  0.13248185280E+03  0.12508946246E+03 0.  0.
          5    1    3    3  502    0  0.24345207528E+02 -0.88645085893E+01  0.44883249046E+02  0.51992759948E+02  0.41800000000E+01 0. -1.
         -5    1    3    3    0  502 -0.65510939186E+02  0.22708580965E+02 -0.40665204597E+02  0.80489092847E+02  0.41800000000E+01 0. -1.
        -11    1    1    2    0    0  0.11401733000E+02  0.16579671629E+02  0.44256426173E+02  0.48616008519E+02  0.00000000000E+00 0. -1.
         11    1    1    2    0    0  0.29763998659E+02 -0.30423744005E+02 -0.31794798839E+02  0.53126349852E+02  0.00000000000E+00 0.  1.
</event>
<event>
 7    1  0.6506388E-006  0.9239831E+02  0.7561462E-02  0.1297146E+00
         -2   -1    0    0    0  501 -0.00000000000E+00  0.00000000000E+00  0.90758996403E+02  0.90758996403E+02  0.00000000000E+00 0.  1.
          2   -1    0    0  501    0  0.00000000000E+00 -0.00000000000E+00 -0.22636196715E+03  0.22636196715E+03  0.00000000000E+00 0. -1.
         23    2    1    2    0    0 -0.74997611883E+02  0.35632255873E+02 -0.24964113927E+02  0.15219918702E+03  0.12508831319E+03 0.  0.
          5    1    3    3  502    0 -0.57775410230E+02  0.25936883699E+02 -0.74993294485E+02  0.98245542296E+02  0.41800000000E+01 0. -1.
         -5    1    3    3    0  502 -0.17222201653E+02  0.96953721741E+01  0.50029180559E+02  0.53953644721E+02  0.41800000000E+01 0. -1.
        -11    1    1    2    0    0  0.84603201249E+02 -0.28921274554E+02 -0.48558273744E+02  0.10174501330E+03  0.00000000000E+00 0.  1.
         11    1    1    2    0    0 -0.96055893657E+01 -0.67109813185E+01 -0.62080583077E+02  0.63176763232E+02  0.00000000000E+00 0. -1.
</event>
<event>
 6    1  0.6506388E-006  0.1821322E+03  0.7561462E-02  0.1165755E+00
         -2   -1    0    0    0  501 -0.00000000000E+00  0.00000000000E+00  0.41113942838E+02  0.41113942838E+02  0.00000000000E+00 0.  1.
          2   -1    0    0  501    0  0.00000000000E+00 -0.00000000000E+00 -0.92232236198E+03  0.92232236198E+03  0.00000000000E+00 0. -1.
          5    1    1    2  502    0  0.13408833945E+03  0.28723871174E+02 -0.48978363135E+03  0.50863564709E+03  0.41800000000E+01 0. -1.
         -5    1    1    2    0  502 -0.74799554562E+02 -0.73210519954E+02 -0.19163059990E+03  0.21839073426E+03  0.41800000000E+01 0.  1.
        -11    1    1    2    0    0  0.24368720371E+02 -0.53442849693E+01 -0.20135437840E+02  0.32059815523E+02  0.00000000000E+00 0.  1.
         11    1    1    2    0    0 -0.83657505263E+02  0.49830933750E+02 -0.17965875005E+03  0.20435010794E+03  0.00000000000E+00 0. -1.
</event>
<event>
 7    1  0.6506388E-006  0.9267854E+02  0.7561462E-02  0.1296492E+00
         -1   -1    0    0    0  501 -0.00000000000E+00  0.00000000000E+00  0.14510706877E+04  0.14510706877E+04  0.00000000000E+00 0. -1.
          1   -1    0    0  501    0  0.00000000000E+00 -0.00000000000E+00 -0.16364318380E+02  0.16364318380E+02  0.00000000000E+00 0.  1.
         23    2    1    2    0    0 -0.36677641019E+02  0.21016933866E+02  0.12044054690E+04  0.12116216417E+04  0.12509000006E+03 0.  0.
          5    1    3    3  502    0  0.22053450747E+02  0.16073943536E+01  0.93113593329E+03  0.93140782532E+03  0.41800000000E+01 0.  1.
         -5    1    3    3    0  502 -0.58731091766E+02  0.19409539512E+02  0.27326953568E+03  0.28021381639E+03  0.41800000000E+01 0.  1.
        -11    1    1    2    0    0  0.61257134809E+02  0.91584349096E+01  0.83642306749E+02  0.10407857115E+03  0.00000000000E+00 0.  1.
         11    1    1    2    0    0 -0.24579493791E+02 -0.30175368775E+02  0.14665859359E+03  0.15173479321E+03  0.00000000000E+00 0. -1.
</event>
<event>
 7    1  0.6506388E-006  0.1009352E+03  0.7561462E-02  0.1278342E+00
         -3   -1    0    0    0  501 -0.00000000000E+00  0.00000000000E+00  0.13866189464E+03  0.13866189464E+03  0.00000000000E+00 0.  1.
          3   -1    0    0  501    0  0.00000000000E+00 -0.00000000000E+00 -0.16865018383E+03  0.16865018383E+03  0.00000000000E+00 0. -1.
         23    2    1    2    0    0 -0.83969695654E+02  0.10359939559E+02  0.60767196701E+02  0.15250161830E+03  0.11138156604E+03 0.  0.
          5    1    3    3  502    0 -0.48397533880E+02  0.44237638911E+02  0.76415247870E+02  0.10077724192E+03  0.41800000000E+01 0. -1.
         -5    1    3    3    0  502 -0.35572161774E+02 -0.33877699352E+02 -0.15648051169E+02  0.51724376381E+02  0.41800000000E+01 0.  1.
        -11    1    1    2    0    0  0.57713147739E+02 -0.16252883722E+02 -0.10751865975E+03  0.12310656297E+03  0.00000000000E+00 0. -1.
         11    1    1    2    0    0  0.26256547915E+02  0.58929441628E+01  0.16763173864E+02  0.31703897194E+02  0.00000000000E+00 0.  1.
</event>
<event>
 7    1  0.6506388E-006  0.6440952E+02  0.7561462E-02  0.1380207E+00
         -4   -1    0    0    0  501 -0.00000000000E+00  0.00000000000E+00  0.38741949801E+03  0.38741949801E+03  0.00000000000E+00 0.  1.
          4   -1    0    0  501    0  0.00000000000E+00 -0.00000000000E+00 -0.32090747029E+02  0.32090747029E+02  0.00000000000E+00 0. -1.
         23    2    1    2    0    0  0.26336415869E+02  0.66603006987E+01  0.20905983984E+03  0.24513472949E+03  0.12508817914E+03 0.  0.
          5    1    3    3  502    0 -0.17076000243E+02  0.12906562062E+02 -0.83145208187E+01  0.23340368142E+02  0.41800000000E+01 0. -1.
         -5    1    3    3    0  502  0.43412416111E+02 -0.62462613628E+01  0.21737436066E+03  0.22179436135E+03  0.41800000000E+01 0. -1.
        -11    1    1    2    0    0 -0.33731547454E+02  0.17276518235E+02  0.14435769997E+03  0.14924959268E+03  0.00000000000E+00 0.  1.
         11    1    1    2    0    0  0.73951315857E+01 -0.23936818934E+02  0.19112111744E+01  0.25125922868E+02  0.00000000000E+00 0. -1.
</event>
<event>
 7    1  0.6506388E-006  0.1204001E+03  0.7561462E-02  0.1242438E+00
         -1   -1    0    0    0  501 -0.00000000000E+00  0.00000000000E+00  0.39102435807E+03  0.39102435807E+03  0.00000000000E+00 0.  1.
          1   -1    0    0  501    0  0.00000000000E+00 -0.00000000000E+00 -0.39864694893E+02  0.39864694893E+02  0.00000000000E+00 0. -1.
         23    2    1    2    0    0 -0.96398320510E+01  0.65996148684E+02  0.22100919199E+03  0.26257033593E+03  0.12509876244E+03 0.  0.
          5    1    3    3  502    0 -0.30829836003E+02  0.97589625251E+02  0.17448295647E+03  0.20232643981E+03  0.41800000000E+01 0. -1.
         -5    1    3    3    0  502  0.21190003952E+02 -0.31593476568E+02  0.46526235517E+02  0.60243896127E+02  0.41800000000E+01 0. -1.
        -11    1    1    2    0    0  0.19778384144E+02  0.10870187328E+02  0.86115211063E+01  0.24155822231E+02  0.00000000000E+00 0. -1.
         11    1    1    2    0    0 -0.10138552093E+02 -0.76866336012E+02  0.12153895008E+03  0.14416289480E+03  0.00000000000E+00 0.  1.
</event>
<event>
 7    1  0.6506388E-006  0.1313769E+03  0.7561462E-02  0.1225427E+00
          2   -1    0    0  501    0  0.00000000000E+00  0.00000000000E+00  0.11483797421E+03  0.11483797421E+03  0.00000000000E+00 0.  1.
         -2   -1    0    0    0  501 -0.00000000000E+00 -0.00000000000E+00 -0.17711077189E+03  0.17711077189E+03  0.00000000000E+00 0. -1.
         23    2    1    2    0    0 -0.89998363424E+02  0.20418537099E+02 -0.34260451757E+02  0.15917815665E+03  0.12508910794E+03 0.  0.
          5    1    3    3  502    0 -0.78964427806E+02 -0.40145253659E+02 -0.39847976194E+02  0.97223226941E+02  0.41800000000E+01 0.  1.
         -5    1    3    3    0  502 -0.11033935619E+02  0.60563790759E+02  0.55875244365E+01  0.61954929712E+02  0.41800000000E+01 0.  1.
        -11    1    1    2    0    0  0.10116783814E+02  0.20320141977E+02 -0.36199353852E+02  0.42727633963E+02  0.00000000000E+00 0. -1.
         11    1    1    2    0    0  0.79881579610E+02 -0.40738679077E+02  0.81870079318E+01  0.90042955487E+02  0.00000000000E+00 0.  1.
</event>
<event>
 7    1  0.6506388E-006  0.8904780E+02  0.7561462E-02  0.1305174E+00
         -1   -1    0    0    0  501 -0.00000000000E+00  0.00000000000E+00  0.72064390259E+02  0.72064390259E+02  0.00000000000E+00 0.  1.
          1   -1    0    0  501    0  0.00000000000E+00 -0.00000000000E+00 -0.29529461494E+03  0.29529461494E+03  0.00000000000E+00 0. -1.
         23    2    1    2    0    0  0.60298697505E+02 -0.10858347279E+02 -0.30545070075E+02  0.14259836900E+03  0.12508979538E+03 0.  0.
          5    1    3    3  502    0  0.37847831969E+02  0.67489319446E+01 -0.78005079065E+02  0.87064753070E+02  0.41800000000E+01 0. -1.
         -5    1    3    3    0  502  0.22450865536E+02 -0.17607279224E+02  0.47460008990E+02  0.55533615931E+02  0.41800000000E+01 0. -1.
        -11    1    1    2    0    0  0.23723689853E+02 -0.69054321442E+01 -0.75746877745E+02  0.79674889026E+02  0.00000000000E+00 0. -1.
         11    1    1    2    0    0 -0.84022387357E+02  0.17763779424E+02 -0.11693827686E+03  0.14508574717E+03  0.00000000000E+00 0.  1.
</event>
<event>
 7    1  0.6506388E-006  0.3544449E+03  0.7561462E-02  0.1060805E+00
         -1   -1    0    0    0  501 -0.00000000000E+00  0.00000000000E+00  0.67779174535E+02  0.67779174535E+02  0.00000000000E+00 0.  1.
          1   -1    0    0  501    0  0.00000000000E+00 -0.00000000000E+00 -0.19514715715E+04  0.19514715715E+04  0.00000000000E+00 0. -1.
         23    2    1    2    0    0  0.19452337078E+03  0.28576976926E+03 -0.84514144487E+03  0.92162988637E+03  0.12503552619E+03 0.  0.
          5    1    3    3  502    0  0.28461171003E+02  0.11195301121E+03 -0.17560867102E+03  0.21023651612E+03  0.41800000000E+01 0.  1.
         -5    1    3    3    0  502  0.16606219977E+03  0.17381675806E+03 -0.66953277385E+03  0.71139337025E+03  0.41800000000E+01 0.  1.
        -11    1    1    2    0    0 -0.43913347944E+02 -0.12539803171E+03 -0.45386712907E+03  0.47291481192E+03  0.00000000000E+00 0. -1.
         11    1    1    2    0    0 -0.15061002283E+03 -0.16037173756E+03 -0.58468382306E+03  0.62470604778E+03  0.00000000000E+00 0.  1.
</event>
<event>
 7    1  0.6506388E-006  0.1049842E+03  0.7561462E-02  0.1270151E+00
          1   -1    0    0  501    0  0.00000000000E+00  0.00000000000E+00  0.36323357231E+03  0.36323357231E+03  0.00000000000E+00 0. -1.
         -1   -1    0    0    0  501 -0.00000000000E+00 -0.00000000000E+00 -0.39671433910E+02  0.39671433910E+02  0.00000000000E+00 0.  1.
         23    2    1    2    0    0  0.49121644229E+02  0.15034355685E+02  0.20487040547E+03  0.24547758902E+03  0.12509354856E+03 0.  0.
          5    1    3    3  502    0  0.11452393709E+01  0.61717432242E+02  0.13564974756E+03  0.14909285506E+03  0.41800000000E+01 0. -1.
         -5    1    3    3    0  502  0.47976404858E+02 -0.46683076556E+02  0.69220657913E+02  0.96384733967E+02  0.41800000000E+01 0. -1.
        -11    1    1    2    0    0 -0.59867297460E+02  0.31016094234E+01  0.31492449775E+02  0.67716229067E+02  0.00000000000E+00 0.  1.
         11    1    1    2    0    0  0.10745653231E+02 -0.18135965109E+02  0.87199283151E+02  0.89711188131E+02  0.00000000000E+00 0. -1.
</event>
<event>
 7    1  0.6506388E-006  0.1153468E+03  0.7561462E-02  0.1250977E+00
          2   -1    0    0  501    0  0.00000000000E+00  0.00000000000E+00  0.21904673408E+03  0.21904673408E+03  0.00000000000E+00 0. -1.
         -2   -1    0    0    0  501 -0.00000000000E+00 -0.00000000000E+00 -0.64980657593E+02  0.64980657593E+02  0.00000000000E+00 0.  1.
         23    2    1    2    0    0 -0.17449644103E+02  0.41754683253E+02  0.82811869691E+02  0.15669591964E+03  0.12509141384E+03 0.  0.
          5    1    3    3  502    0  0.29982325209E+02  0.65754437317E+02  0.72372812213E+02  0.10236152695E+03  0.41800000000E+01 0.  1.
         -5    1    3    3    0  502 -0.47431969313E+02 -0.23999754064E+02  0.10439057478E+02  0.54334392691E+02  0.41800000000E+01 0.  1.
        -11    1    1    2    0    0 -0.29493425425E+02  0.13536971241E+02  0.28142097065E+02  0.42954503383E+02  0.00000000000E+00 0.  1.
         11    1    1    2    0    0  0.46943069528E+02 -0.55291654494E+02  0.43112109735E+02  0.84376968654E+02  0.00000000000E+00 0. -1.
</event>
<event>
 7    1  0.6506388E-006  0.6988912E+02  0.7561462E-02  0.1360470E+00
         -1   -1    0    0    0  501 -0.00000000000E+00  0.00000000000E+00  0.28195635628E+02  0.28195635628E+02  0.00000000000E+00 0.  1.
          1   -1    0    0  501    0  0.00000000000E+00 -0.00000000000E+00 -0.54825417560E+03  0.54825417560E+03  0.00000000000E+00 0. -1.
         23    2    1    2    0    0  0.36516875427E+02 -0.10397993433E+02 -0.18057836522E+03  0.22292938335E+03  0.12508942207E+03 0.  0.
          5    1    3    3  502    0  0.60698676336E+00 -0.12288281736E+02  0.17373074692E+02  0.21694847895E+02  0.41800000000E+01 0. -1.
         -5    1    3    3    0  502  0.35909888664E+02  0.18902883031E+01 -0.19795143992E+03  0.20123453545E+03  0.41800000000E+01 0. -1.
        -11    1    1    2    0    0  0.14826379534E+02 -0.24404763794E+02 -0.51026995540E+02  0.58473654750E+02  0.00000000000E+00 0.  1.
         11    1    1    2    0    0 -0.51343254961E+02  0.34802757227E+02 -0.28845317920E+03  0.29504677313E+03  0.00000000000E+00 0. -1.
</event>
<event>
 7    1  0.6506388E-006  0.7612102E+02  0.7561462E-02  0.1340434E+00
          1   -1    0    0  501    0  0.00000000000E+00  0.00000000000E+00  0.61145470047E+02  0.61145470047E+02  0.00000000000E+00 0. -1.
         -1   -1    0    0    0  501 -0.00000000000E+00 -0.00000000000E+00 -0.21556511115E+03  0.21556511115E+03  0.00000000000E+00 0.  1.
         23    2    1    2    0    0  0.23062691969E+02  0.21430719800E+02 -0.11344030100E+03  0.17178103855E+03  0.12509540280E+03 0.  0.
          5    1    3    3  502    0  0.33996731101E+02  0.56105647487E+02 -0.15942337200E+02  0.67640608520E+02  0.41800000000E+01 0.  1.
         -5    1    3    3    0  502 -0.10934039132E+02 -0.34674927687E+02 -0.97497963803E+02  0.10414043003E+03  0.41800000000E+01 0.  1.
        -11    1    1    2    0    0 -0.58366679120E+01  0.11415062626E+02 -0.61308498012E+02  0.62634673109E+02  0.00000000000E+00 0.  1.
         11    1    1    2    0    0 -0.17226024057E+02 -0.32845782426E+02  0.20329157909E+02  0.42294869538E+02  0.00000000000E+00 0. -1.
</event>
<event>
 7    1  0.6506388E-006  0.1554348E+03  0.7561462E-02  0.1193949E+00
         -2   -1    0    0    0  501 -0.00000000000E+00  0.00000000000E+00  0.10016224859E+03  0.10016224859E+03  0.00000000000E+00 0.  1.
          2   -1    0    0  501    0  0.00000000000E+00 -0.00000000000E+00 -0.40404063129E+03  0.40404063129E+03  0.00000000000E+00 0. -1.
         23    2    1    2    0    0 -0.52592452882E+02  0.14228799669E+03 -0.65191977103E+02  0.20714354210E+03  0.12508642233E+03 0.  0.
          5    1    3    3  502    0 -0.40475491334E+02  0.43917427932E+02  0.32322831956E+02  0.68038545991E+02  0.41800000000E+01 0. -1.
         -5    1    3    3    0  502 -0.12116961547E+02  0.98370568760E+02 -0.97514809059E+02  0.13910499610E+03  0.41800000000E+01 0. -1.
        -11    1    1    2    0    0  0.38775658063E+02 -0.11152241204E+03 -0.23517626564E+03  0.26315143162E+03  0.00000000000E+00 0. -1.
         11    1    1    2    0    0  0.13816794819E+02 -0.30765584652E+02 -0.35101399603E+01  0.33907906166E+02  0.00000000000E+00 0.  1.
</event>
<event>
 7    1  0.6506388E-006  0.1140183E+03  0.7561462E-02  0.1253304E+00
          4   -1    0    0  501    0  0.00000000000E+00  0.00000000000E+00  0.28456421050E+03  0.28456421050E+03  0.00000000000E+00 0. -1.
         -4   -1    0    0    0  501 -0.00000000000E+00 -0.00000000000E+00 -0.79086801724E+02  0.79086801724E+02  0.00000000000E+00 0.  1.
         23    2    1    2    0    0 -0.71635587345E+02 -0.61583777352E+02  0.58386400620E+02  0.16727229866E+03  0.12508729397E+03 0.  0.
          5    1    3    3  502    0 -0.57822751977E+01  0.32598816882E+01 -0.34971037597E+02  0.35840025191E+02  0.41800000000E+01 0. -1.
         -5    1    3    3    0  502 -0.65853312147E+02 -0.64843659040E+02  0.93357438216E+02  0.13143227347E+03  0.41800000000E+01 0. -1.
        -11    1    1    2    0    0 -0.21854242796E+01  0.53355415982E+02  0.80617717596E+02  0.96699497849E+02  0.00000000000E+00 0. -1.
         11    1    1    2    0    0  0.73821011625E+02  0.82283613702E+01  0.66473290561E+02  0.99679215718E+02  0.00000000000E+00 0.  1.
</event>
<event>
 7    1  0.6506388E-006  0.1104577E+03  0.7561462E-02  0.1259725E+00
          3   -1    0    0  501    0  0.00000000000E+00  0.00000000000E+00  0.51924114741E+02  0.51924114741E+02  0.00000000000E+00 0. -1.
         -3   -1    0    0    0  501 -0.00000000000E+00 -0.00000000000E+00 -0.31783222408E+03  0.31783222408E+03  0.00000000000E+00 0.  1.
         23    2    1    2    0    0  0.30040271671E+02 -0.45293810968E+02 -0.20571416887E+03  0.24681886817E+03  0.12508911693E+03 0.  0.
          5    1    3    3  502    0  0.26895332430E+02  0.31480589809E+02 -0.13859427363E+03  0.14470739969E+03  0.41800000000E+01 0. -1.
         -5    1    3    3    0  502  0.31449392417E+01 -0.76774400778E+02 -0.67119895237E+02  0.10211146848E+03  0.41800000000E+01 0. -1.
        -11    1    1    2    0    0 -0.30829122738E+02 -0.20194465784E+02 -0.48116631404E+01  0.37167235023E+02  0.00000000000E+00 0. -1.
         11    1    1    2    0    0  0.78885106676E+00  0.65488276752E+02 -0.55382277325E+02  0.85770235628E+02  0.00000000000E+00 0.  1.
</event>
<event>
 7    1  0.6506388E-006  0.1142977E+03  0.7561462E-02  0.1252812E+00
         -3   -1    0    0    0  501 -0.00000000000E+00  0.00000000000E+00  0.20210065074E+03  0.20210065074E+03  0.00000000000E+00 0.  1.
          3   -1    0    0  501    0  0.00000000000E+00 -0.00000000000E+00 -0.10318730362E+03  0.10318730362E+03  0.00000000000E+00 0. -1.
         23    2    1    2    0    0  0.19649391700E+02 -0.92640668945E+02  0.75128777956E+02  0.17394928937E+03  0.12508249221E+03 0.  0.
          5    1    3    3  502    0 -0.20928177265E+02 -0.71941065233E+02 -0.11566516572E+02  0.75926030952E+02  0.41800000000E+01 0. -1.
         -5    1    3    3    0  502  0.40577568965E+02 -0.20699603712E+02  0.86695294528E+02  0.98023258415E+02  0.41800000000E+01 0. -1.
        -11    1    1    2    0    0 -0.37101797216E+02  0.70009063945E+02  0.49055218680E+02  0.93189199326E+02  0.00000000000E+00 0.  1.
         11    1    1    2    0    0  0.17452405516E+02  0.22631605000E+02 -0.25270649518E+02  0.38149465661E+02  0.00000000000E+00 0. -1.
</event>
<event>
 7    1  0.6506388E-006  0.1671788E+03  0.7561462E-02  0.1180822E+00
         -2   -1    0    0    0  501 -0.00000000000E+00  0.00000000000E+00  0.74088308141E+02  0.74088308141E+02  0.00000000000E+00 0.  1.
          2   -1    0    0  501    0  0.00000000000E+00 -0.00000000000E+00 -0.42735632073E+03  0.42735632073E+03  0.00000000000E+00 0. -1.
         23    2    1    2    0    0 -0.31167463404E+02  0.13154686725E+03 -0.13420571273E+03  0.22789115835E+03  0.12508883909E+03 0.  0.
          5    1    3    3  502    0 -0.69056845400E+02  0.58586123752E+02 -0.30855418942E+02  0.95763829659E+02  0.41800000000E+01 0.  1.
         -5    1    3    3    0  502  0.37889381996E+02  0.72960743494E+02 -0.10335029379E+03  0.13212732869E+03  0.41800000000E+01 0.  1.
        -11    1    1    2    0    0  0.61703002117E+02 -0.75022638511E+02 -0.10807388147E+03  0.14531214889E+03  0.00000000000E+00 0.  1.
         11    1    1    2    0    0 -0.30535538713E+02 -0.56524228735E+02 -0.11098841838E+03  0.12824132163E+03  0.00000000000E+00 0. -1.
</event>
<event>
 7    1  0.6506388E-006  0.1078557E+03  0.7561462E-02  0.1264593E+00
         -3   -1    0    0    0  501 -0.00000000000E+00  0.00000000000E+00  0.64925248961E+02  0.64925248961E+02  0.00000000000E+00 0.  1.
          3   -1    0    0  501    0  0.00000000000E+00 -0.00000000000E+00 -0.18805815845E+03  0.18805815845E+03  0.00000000000E+00 0. -1.
         23    2    1    2    0    0 -0.27434945860E+01  0.18450774133E+02 -0.51109824218E+02  0.13640543011E+03  0.12508504868E+03 0.  0.
          5    1    3    3  502    0  0.59212663327E+02 -0.48862620588E+01 -0.30650872898E+02  0.66984800250E+02  0.41800000000E+01 0. -1.
         -5    1    3    3    0  502 -0.61956157913E+02  0.23337036192E+02 -0.20458951320E+02  0.69420629864E+02  0.41800000000E+01 0. -1.
        -11    1    1    2    0    0 -0.16649347433E+02  0.31830432179E+02 -0.40536329367E+02  0.54162451765E+02  0.00000000000E+00 0. -1.
         11    1    1    2    0    0  0.19392842019E+02 -0.50281206313E+02 -0.31486755900E+02  0.62415525528E+02  0.00000000000E+00 0.  1.
</event>
<event>
 7    1  0.6506388E-006  0.9607519E+02  0.7561462E-02  0.1288773E+00
          2   -1    0    0  501    0  0.00000000000E+00  0.00000000000E+00  0.11735411061E+03  0.11735411061E+03  0.00000000000E+00 0. -1.
         -2   -1    0    0    0  501 -0.00000000000E+00 -0.00000000000E+00 -0.10452749487E+03  0.10452749487E+03  0.00000000000E+00 0.  1.
         23    2    1    2    0    0 -0.13455770987E+02 -0.16236149197E+02  0.18550602686E+02  0.12820583777E+03  0.12509173300E+03 0.  0.
          5    1    3    3  502    0 -0.42705241917E+02 -0.59613082894E+02  0.31864086244E+01  0.73519269169E+02  0.41800000000E+01 0.  1.
         -5    1    3    3    0  502  0.29249470929E+02  0.43376933697E+02  0.15364194062E+02  0.54686568605E+02  0.41800000000E+01 0.  1.
        -11    1    1    2    0    0  0.32696469801E+02 -0.95317024614E+01 -0.35964913666E+02  0.49531681823E+02  0.00000000000E+00 0.  1.
         11    1    1    2    0    0 -0.19240698814E+02  0.25767851658E+02  0.30240926716E+02  0.44144085885E+02  0.00000000000E+00 0. -1.
</event>
<event>
 7    1  0.6506388E-006  0.1013436E+03  0.7561462E-02  0.1277496E+00
          1   -1    0    0  501    0  0.00000000000E+00  0.00000000000E+00  0.63747564644E+03  0.63747564644E+03  0.00000000000E+00 0. -1.
         -1   -1    0    0    0  501 -0.00000000000E+00 -0.00000000000E+00 -0.30191615056E+02  0.30191615056E+02  0.00000000000E+00 0.  1.
         23    2    1    2    0    0 -0.47425249504E+02 -0.43159469231E+02  0.19468385680E+03  0.24012729174E+03  0.12508964013E+03 0.  0.
          5    1    3    3  502    0 -0.58735752343E+02 -0.73772569501E+01  0.19344986651E+03  0.20234780892E+03  0.41800000000E+01 0.  1.
         -5    1    3    3    0  502  0.11310502839E+02 -0.35782212281E+02  0.12339902892E+01  0.37779482821E+02  0.41800000000E+01 0.  1.
        -11    1    1    2    0    0 -0.10735989306E+02  0.46113796572E+02  0.25855284494E+03  0.26285227282E+03  0.00000000000E+00 0. -1.
         11    1    1    2    0    0  0.58161238809E+02 -0.29543273408E+01  0.15404732964E+03  0.16468769693E+03  0.00000000000E+00 0.  1.
</event>
<event>
 6    1  0.6506388E-006  0.8742064E+02  0.7561462E-02  0.1309221E+00
         -2   -1    0    0    0  501 -0.00000000000E+00  0.00000000000E+00  0.44872647579E+03  0.44872647579E+03  0.00000000000E+00 0.  1.
          2   -1    0    0  501    0  0.00000000000E+00 -0.00000000000E+00 -0.29747128110E+02  0.29747128110E+02  0.00000000000E+00 0. -1.
          5    1    1    2  502    0  0.58899434972E+02  0.26049286757E+02  0.80226590943E+02  0.10296352303E+03  0.41800000000E+01 0. -1.
         -5    1    1    2    0  502 -0.98416776384E+01 -0.40815952462E+02  0.27801890256E+03  0.28120238828E+03  0.41800000000E+01 0.  1.
        -11    1    1    2    0    0 -0.42809460503E+02  0.29578484490E+02  0.31169649706E+02  0.60655450836E+02  0.00000000000E+00 0. -1.
         11    1    1    2    0    0 -0.62482968301E+01 -0.14811818785E+02  0.29564204476E+02  0.33652241757E+02  0.00000000000E+00 0.  1.
</event>
<event>
 7    1  0.6506388E-006  0.1146728E+03  0.7561462E-02  0.1252153E+00
         -1   -1    0    0    0  501 -0.00000000000E+00  0.00000000000E+00  0.60237698292E+02  0.60237698292E+02  0.00000000000E+00 0.  1.
          1   -1    0    0  501    0  0.00000000000E+00 -0.00000000000E+00 -0.37019729529E+03  0.37019729529E+03  0.00000000000E+00 0. -1.
         23    2    1    2    0    0  0.39797922201E+02  0.93534084235E+02 -0.16503157613E+03  0.23068533241E+03  0.12509117453E+03 0.  0.
          5    1    3    3  502    0  0.15570807173E+02  0.66571784530E+02 -0.74103699059E+01  0.68895852660E+02  0.41800000000E+01 0.  1.
         -5    1    3    3    0  502  0.24227115027E+02  0.26962299704E+02 -0.15762120622E+03  0.16178947975E+03  0.41800000000E+01 0.  1.
        -11    1    1    2    0    0 -0.14081308494E+02 -0.97349837643E+02 -0.14315490662E+03  0.17369110924E+03  0.00000000000E+00 0. -1.
         11    1    1    2    0    0 -0.25716613706E+02  0.38157534080E+01 -0.17731142464E+01  0.26058551931E+02  0.00000000000E+00 0.  1.
</event>
<event>
 7    1  0.6506388E-006  0.8048954E+02  0.7561462E-02  0.1327668E+00
          1   -1    0    0  501    0  0.00000000000E+00  0.00000000000E+00  0.13197618996E+03  0.13197618996E+03  0.00000000000E+00 0. -1.
         -1   -1    0    0    0  501 -0.00000000000E+00 -0.00000000000E+00 -0.12428106149E+03  0.12428106149E+03  0.00000000000E+00 0.  1.
         23    2    1    2    0    0 -0.59134180098E+01 -0.45982404150E+02 -0.46877341194E+02  0.14140145523E+03  0.12509011319E+03 0.  0.
          5    1    3    3  502    0 -0.35908474602E+02 -0.26449463903E+02  0.31752782514E+02  0.54906322827E+02  0.41800000000E+01 0.  1.
         -5    1    3    3    0  502  0.29995056592E+02 -0.19532940247E+02 -0.78630123708E+02  0.86495132401E+02  0.41800000000E+01 0.  1.
        -11    1    1    2    0    0  0.18360986738E+02  0.59205766178E+02  0.51484230345E+01  0.62200923164E+02  0.00000000000E+00 0.  1.
         11    1    1    2    0    0 -0.12447568729E+02 -0.13223362028E+02  0.49424046635E+02  0.52654873054E+02  0.00000000000E+00 0. -1.
</event>
<event>
 7    1  0.6506388E-006  0.8520885E+02  0.7561462E-02  0.1314887E+00
         -4   -1    0    0    0  501 -0.00000000000E+00  0.00000000000E+00  0.13899640509E+03  0.13899640509E+03  0.00000000000E+00 0.  1.
          4   -1    0    0  501    0  0.00000000000E+00 -0.00000000000E+00 -0.95880556341E+02  0.95880556341E+02  0.00000000000E+00 0. -1.
         23    2    1    2    0    0  0.29696009380E+02 -0.12513393704E+02  0.50329634202E+02  0.13862776767E+03  0.12508456298E+03 0.  0.
          5    1    3    3  502    0 -0.20217340567E+02  0.28027688711E+02  0.63908034544E+02  0.72773631718E+02  0.41800000000E+01 0. -1.
         -5    1    3    3    0  502  0.49913349947E+02 -0.40541082415E+02 -0.13578400342E+02  0.65854135953E+02  0.41800000000E+01 0. -1.
        -11    1    1    2    0    0  0.12628747527E+02  0.24167609461E+02  0.28657315264E+02  0.39557557170E+02  0.00000000000E+00 0.  1.
         11    1    1    2    0    0 -0.42324756907E+02 -0.11654215757E+02 -0.35871100718E+02  0.56691636587E+02  0.00000000000E+00 0. -1.
</event>
<event>
 7    1  0.6506388E-006  0.1163584E+03  0.7561462E-02  0.1249228E+00
         -2   -1    0    0    0  501 -0.00000000000E+00  0.00000000000E+00  0.43640553792E+02  0.43640553792E+02  0.00000000000E+00 0.  1.
          2   -1    0    0  501    0  0.00000000000E+00 -0.00000000000E+00 -0.65269368627E+03  0.65269368627E+03  0.00000000000E+00 0. -1.
         23    2    1    2    0    0  0.41339401788E+02  0.29929010062E+02 -0.80605177501E+02  0.15732128926E+03  0.12509237239E+03 0.  0.
          5    1    3    3  502    0 -0.36670009867E+02 -0.15276130095E+02 -0.45322916085E+02  0.60412655104E+02  0.41800000000E+01 0.  1.
         -5    1    3    3    0  502  0.78009411655E+02  0.45205140157E+02 -0.35282261417E+02  0.96908634156E+02  0.41800000000E+01 0.  1.
        -11    1    1    2    0    0  0.23376659473E+02  0.11111358102E+02 -0.80539912185E+02  0.84596737181E+02  0.00000000000E+00 0.  1.
         11    1    1    2    0    0 -0.64716061260E+02 -0.41040368164E+02 -0.44790804279E+03  0.45441621362E+03  0.00000000000E+00 0. -1.
</event>
<event>
 7    1  0.6506388E-006  0.1103150E+03  0.7561462E-02  0.1259988E+00
         -2   -1    0    0    0  501 -0.00000000000E+00  0.00000000000E+00  0.16432589656E+03  0.16432589656E+03  0.00000000000E+00 0.  1.
          2   -1    0    0  501    0  0.00000000000E+00 -0.00000000000E+00 -0.90035681279E+02  0.90035681279E+02  0.00000000000E+00 0. -1.
         23    2    1    2    0    0 -0.17354986999E+02 -0.21980554648E+02  0.75324990728E+02  0.14510438793E+03  0.12081841256E+03 0.  0.
          5    1    3    3  502    0 -0.65142879546E+02 -0.35474016249E+01  0.65960956484E+02  0.92868180741E+02  0.41800000000E+01 0. -1.
         -5    1    3    3    0  502  0.47787892548E+02 -0.18433153023E+02  0.93640342441E+01  0.52236207192E+02  0.41800000000E+01 0.  1.
        -11    1    1    2    0    0  0.44499348177E+02 -0.23934884476E+02  0.16429542795E+02  0.53131916580E+02  0.00000000000E+00 0.  1.
         11    1    1    2    0    0 -0.27144361178E+02  0.45915439124E+02 -0.17464318245E+02  0.56125273322E+02  0.00000000000E+00 0. -1.
</event>
<event>
 7    1  0.6506388E-006  0.1303814E+03  0.7561462E-02  0.1226891E+00
         -2   -1    0    0    0  501 -0.00000000000E+00  0.00000000000E+00  0.34501367991E+03  0.34501367991E+03  0.00000000000E+00 0.  1.
          2   -1    0    0  501    0  0.00000000000E+00 -0.00000000000E+00 -0.52528245249E+02  0.52528245249E+02  0.00000000000E+00 0. -1.
         23    2    1    2    0    0  0.43199736946E+02 -0.49237216748E+02  0.13145740378E+03  0.19291941432E+03  0.12508529342E+03 0.  0.
          5    1    3    3  502    0 -0.16541890270E+02 -0.69699797857E+02  0.41385608290E+02  0.82836809020E+02  0.41800000000E+01 0. -1.
         -5    1    3    3    0  502  0.59741627216E+02  0.20462581109E+02  0.90071795486E+02  0.11008260530E+03  0.41800000000E+01 0. -1.
        -11    1    1    2    0    0 -0.59983436697E+02 -0.12899244901E+02  0.69179476805E+02  0.92467308861E+02  0.00000000000E+00 0. -1.
         11    1    1    2    0    0  0.16783699751E+02  0.62136461649E+02  0.91848554077E+02  0.11215520197E+03  0.00000000000E+00 0.  1.
</event>
<event>
 7    1  0.6506388E-006  0.5661082E+02  0.7561462E-02  0.1412631E+00
         -3   -1    0    0    0  501 -0.00000000000E+00  0.00000000000E+00  0.71504059797E+02  0.71504059797E+02  0.00000000000E+00 0.  1.
          3   -1    0    0  501    0  0.00000000000E+00 -0.00000000000E+00 -0.18278081495E+03  0.18278081495E+03  0.00000000000E+00 0. -1.
         23    2    1    2    0    0  0.47031849302E+01  0.34941544252E+02 -0.47515692001E+02  0.13837621979E+03  0.12508879148E+03 0.  0.
          5    1    3    3  502    0 -0.16760274994E+02  0.22518834412E+01  0.39343795369E+02  0.43027717008E+02  0.41800000000E+01 0.  1.
         -5    1    3    3    0  502  0.21463459924E+02  0.32689660810E+02 -0.86859487370E+02  0.95348502778E+02  0.41800000000E+01 0.  1.
        -11    1    1    2    0    0 -0.16954281935E+02 -0.39825494769E+02 -0.82399285362E+02  0.93076097564E+02  0.00000000000E+00 0. -1.
         11    1    1    2    0    0  0.12251097005E+02  0.48839505176E+01  0.18638222206E+02  0.22832557401E+02  0.00000000000E+00 0.  1.
</event>
<event>
 7    1  0.6506388E-006  0.1128739E+03  0.7561462E-02  0.1255339E+00
          1   -1    0    0  501    0  0.00000000000E+00  0.00000000000E+00  0.70469763867E+03  0.70469763867E+03  0.00000000000E+00 0. -1.
         -1   -1    0    0    0  501 -0.00000000000E+00 -0.00000000000E+00 -0.19694617992E+02  0.19694617992E+02  0.00000000000E+00 0.  1.
         23    2    1    2    0    0 -0.20042496677E+02 -0.40546241783E+02  0.33710988087E+03  0.36240403203E+03  0.12509161147E+03 0.  0.
          5    1    3    3  502    0  0.22326362672E+01 -0.80100088979E+02  0.26683244779E+03  0.27863602874E+03  0.41800000000E+01 0. -1.
         -5    1    3    3    0  502 -0.22275132944E+02  0.39553847195E+02  0.70277433075E+02  0.83768003290E+02  0.41800000000E+01 0. -1.
        -11    1    1    2    0    0  0.52542068645E+02  0.66497015546E+01  0.17596062239E+03  0.18375806959E+03  0.00000000000E+00 0. -1.
         11    1    1    2    0    0 -0.32499571967E+02  0.33896540229E+02  0.17193251742E+03  0.17823015503E+03  0.00000000000E+00 0.  1.
</event>
<event>
 7    1  0.6506388E-006  0.1139273E+03  0.7561462E-02  0.1253465E+00
          2   -1    0    0  501    0  0.00000000000E+00  0.00000000000E+00  0.20643883890E+03  0.20643883890E+03  0.00000000000E+00 0. -1.
         -2   -1    0    0    0  501 -0.00000000000E+00 -0.00000000000E+00 -0.70688663531E+02  0.70688663531E+02  0.00000000000E+00 0.  1.
         23    2    1    2    0    0 -0.37193465314E+02 -0.12896827107E+02  0.34451512113E+02  0.13558989159E+03  0.12509208609E+03 0.  0.
          5    1    3    3  502    0  0.11822392700E+02  0.48887305503E+02  0.24130100725E+02  0.55941681861E+02  0.41800000000E+01 0. -1.
         -5    1    3    3    0  502 -0.49015858014E+02 -0.61784132610E+02  0.10321411388E+02  0.79648209724E+02  0.41800000000E+01 0. -1.
        -11    1    1    2    0    0 -0.10082075201E+02  0.41798969467E+02  0.50954925119E+02  0.66672381709E+02  0.00000000000E+00 0.  1.
         11    1    1    2    0    0  0.47275540515E+02 -0.28902142359E+02  0.50343738135E+02  0.74865229134E+02  0.00000000000E+00 0. -1.
</event>
<event>
 7    1  0.6506388E-006  0.1747472E+03  0.7561462E-02  0.1172986E+00
          2   -1    0    0  501    0  0.00000000000E+00  0.00000000000E+00  0.10015294229E+04  0.10015294229E+04  0.00000000000E+00 0.  1.
         -2   -1    0    0    0  501 -0.00000000000E+00 -0.00000000000E+00 -0.37565027925E+02  0.37565027925E+02  0.00000000000E+00 0. -1.
         23    2    1    2    0    0  0.74695075179E+02 -0.13604190155E+03  0.38877115534E+03  0.43689814171E+03  0.12510084639E+03 0.  0.
          5    1    3    3  502    0  0.86514886417E+02 -0.60780719609E+02  0.30853995120E+03  0.32618015779E+03  0.41800000000E+01 0.  1.
         -5    1    3    3    0  502 -0.11819811238E+02 -0.75261181941E+02  0.80231204145E+02  0.11071798392E+03  0.41800000000E+01 0.  1.
        -11    1    1    2    0    0 -0.33511350005E+02  0.11755717602E+03  0.49790184673E+03  0.51268796474E+03  0.00000000000E+00 0.  1.
         11    1    1    2    0    0 -0.41183725173E+02  0.18484725532E+02  0.77291392915E+02  0.89508344393E+02  0.00000000000E+00 0. -1.
</event>
<event>
 7    1  0.6506388E-006  0.7390877E+02  0.7561462E-02  0.1347284E+00
         -3   -1    0    0    0  501 -0.00000000000E+00  0.00000000000E+00  0.21120597615E+02  0.21120597615E+02  0.00000000000E+00 0.  1.
          3   -1    0    0  501    0  0.00000000000E+00 -0.00000000000E+00 -0.61781538438E+03  0.61781538438E+03  0.00000000000E+00 0. -1.
         23    2    1    2    0    0  0.17563430091E+02 -0.26807982855E+02 -0.29795588388E+03  0.32473237593E+03  0.12508503195E+03 0.  0.
          5    1    3    3  502    0  0.15656576564E+02  0.90959210377E+01  0.52997345840E+01  0.19324175426E+02  0.41800000000E+01 0.  1.
         -5    1    3    3    0  502  0.19068535270E+01 -0.35903903892E+02 -0.30325561847E+03  0.30540820051E+03  0.41800000000E+01 0.  1.
        -11    1    1    2    0    0 -0.37222393729E+02 -0.20009802447E+02 -0.18299463547E+03  0.18781090330E+03  0.00000000000E+00 0. -1.
         11    1    1    2    0    0  0.19658963639E+02  0.46817785301E+02 -0.11574426741E+03  0.12639270276E+03  0.00000000000E+00 0.  1.
</event>
<event>
 7    1  0.6506388E-006  0.1227008E+03  0.7561462E-02  0.1238707E+00
          2   -1    0    0  501    0  0.00000000000E+00  0.00000000000E+00  0.33716386271E+02  0.33716386271E+02  0.00000000000E+00 0. -1.
         -2   -1    0    0    0  501 -0.00000000000E+00 -0.00000000000E+00 -0.62306679604E+03  0.62306679604E+03  0.00000000000E+00 0.  1.
         23    2    1    2    0    0  0.13578628535E+02 -0.93135453937E+02 -0.36150240756E+03  0.39394292662E+03  0.12509375214E+03 0.  0.
          5    1    3    3  502    0  0.21526349176E+02 -0.10754295894E+03 -0.36060971267E+03  0.37694258050E+03  0.41800000000E+01 0.  1.
         -5    1    3    3    0  502 -0.79477206409E+01  0.14407505004E+02 -0.89269489774E+00  0.17000346114E+02  0.41800000000E+01 0.  1.
        -11    1    1    2    0    0  0.39749807391E-01  0.10227040428E+03 -0.22363357843E+03  0.24590895586E+03  0.00000000000E+00 0.  1.
         11    1    1    2    0    0 -0.13618378343E+02 -0.91349503431E+01 -0.42144237833E+01  0.16931299840E+02  0.00000000000E+00 0. -1.
</event>
<event>
 7    1  0.6506388E-006  0.9679055E+02  0.7561462E-02  0.1287193E+00
          4   -1    0    0  501    0  0.00000000000E+00  0.00000000000E+00  0.46432866722E+03  0.46432866722E+03  0.00000000000E+00 0. -1.
         -4   -1    0    0    0  501 -0.00000000000E+00 -0.00000000000E+00 -0.42812579000E+02  0.42812579000E+02  0.00000000000E+00 0.  1.
         23    2    1    2    0    0 -0.34708198151E+02  0.10240141078E+02  0.82623988851E+02  0.15422280685E+03  0.12509368934E+03 0.  0.
          5    1    3    3  502    0 -0.64012284027E+02  0.28725372305E+02  0.66297651911E+01  0.70598482327E+02  0.41800000000E+01 0.  1.
         -5    1    3    3    0  502  0.29304085876E+02 -0.18485231227E+02  0.75994223660E+02  0.83624324525E+02  0.41800000000E+01 0.  1.
        -11    1    1    2    0    0  0.55512702735E+02 -0.26953001192E+02  0.29629138913E+03  0.30264948656E+03  0.00000000000E+00 0. -1.
         11    1    1    2    0    0 -0.20804504584E+02  0.16712860114E+02  0.42600710238E+02  0.50268952814E+02  0.00000000000E+00 0.  1.
</event>
<event>
 7    1  0.6506388E-006  0.2284174E+03  0.7561462E-02  0.1127759E+00
          1   -1    0    0  501    0  0.00000000000E+00  0.00000000000E+00  0.10566837526E+03  0.10566837526E+03  0.00000000000E+00 0. -1.
         -1   -1    0    0    0  501 -0.00000000000E+00 -0.00000000000E+00 -0.64259373598E+03  0.64259373598E+03  0.00000000000E+00 0.  1.
         23    2    1    2    0    0  0.20291263038E+03 -0.26421048686E+02 -0.44733291766E+03  0.50756824338E+03  0.12508866891E+03 0.  0.
          5    1    3    3  502    0  0.20804149299E+03 -0.27851473171E+00 -0.42225847398E+03  0.47074518758E+03  0.41800000000E+01 0.  1.
         -5    1    3    3    0  502 -0.51288626138E+01 -0.26142533954E+02 -0.25074443678E+02  0.36823055808E+02  0.41800000000E+01 0.  1.
        -11    1    1    2    0    0 -0.10640824432E+03  0.56789860663E+02 -0.63052171096E+02  0.13610062092E+03  0.00000000000E+00 0.  1.
         11    1    1    2    0    0 -0.96504386054E+02 -0.30368811977E+02 -0.26540271961E+02  0.10459324693E+03  0.00000000000E+00 0. -1.
</event>
<event>
 7    1  0.6506388E-006  0.9443210E+02  0.7561462E-02  0.1292460E+00
         -2   -1    0    0    0  501 -0.00000000000E+00  0.00000000000E+00  0.16074539052E+03  0.16074539052E+03  0.00000000000E+00 0.  1.
          2   -1    0    0  501    0  0.00000000000E+00 -0.00000000000E+00 -0.12314681162E+03  0.12314681162E+03  0.00000000000E+00 0. -1.
         23    2    1    2    0    0  0.32524867997E+02 -0.81113678690E+02  0.11606814544E+02  0.15303340090E+03  0.12508879941E+03 0.  0.
          5    1    3    3  502    0  0.14417500479E+02 -0.19171224328E+02 -0.55029275300E+02  0.60175524114E+02  0.41800000000E+01 0.  1.
         -5    1    3    3    0  502  0.18107367517E+02 -0.61942454362E+02  0.66636089844E+02  0.92857876782E+02  0.41800000000E+01 0.  1.
        -11    1    1    2    0    0 -0.41571076562E+02  0.39796449522E+02  0.54973261191E+02  0.79586250364E+02  0.00000000000E+00 0.  1.
         11    1    1    2    0    0  0.90462085651E+01  0.41317229168E+02 -0.28981496828E+02  0.51272550882E+02  0.00000000000E+00 0. -1.
</event>
<event>
 7    1  0.6506388E-006  0.1985658E+03  0.7561462E-02  0.1150955E+00
         -1   -1    0    0    0  501 -0.00000000000E+00  0.00000000000E+00  0.34587488577E+03  0.34587488577E+03  0.00000000000E+00 0. -1.
          1   -1    0    0  501    0  0.00000000000E+00 -0.00000000000E+00 -0.15366749333E+03  0.15366749333E+03  0.00000000000E+00 0.  1.
         23    2    1    2    0    0  0.80999672877E+02  0.15062756076E+03  0.21746975250E+03  0.30362384853E+03  0.12507893140E+03 0.  0.
          5    1    3    3  502    0  0.11144183417E+03  0.10670985942E+03  0.18509195054E+03  0.24100369096E+03  0.41800000000E+01 0.  1.
         -5    1    3    3    0  502 -0.30442161292E+02  0.43917701335E+02  0.32377801955E+02  0.62620157570E+02  0.41800000000E+01 0.  1.
        -11    1    1    2    0    0 -0.84015967828E+02 -0.72431601701E+02  0.72822904988E+01  0.11116677350E+03  0.00000000000E+00 0.  1.
         11    1    1    2    0    0  0.30162949513E+01 -0.78195959058E+02 -0.32544650552E+02  0.84751757078E+02  0.00000000000E+00 0. -1.
</event>
<event>
 7    1  0.6506388E-006  0.1096991E+03  0.7561462E-02  0.1261128E+00
         -1   -1    0    0    0  501 -0.00000000000E+00  0.00000000000E+00  0.11485394295E+03  0.11485394295E+03  0.00000000000E+00 0.  1.
          1   -1    0    0  501    0  0.00000000000E+00 -0.00000000000E+00 -0.20528573965E+03  0.20528573965E+03  0.00000000000E+00 0. -1.
         23    2    1    2    0    0 -0.91724828810E+02  0.18530621841E+02  0.77385003848E+01  0.15641101858E+03  0.12509074378E+03 0.  0.
          5    1    3    3  502    0 -0.32686418304E+02 -0.22139364355E+02 -0.50298787732E+02  0.64078029330E+02  0.41800000000E+01 0.  1.
         -5    1    3    3    0  502 -0.59038410506E+02  0.40669986195E+02  0.58037288117E+02  0.92332989251E+02  0.41800000000E+01 0.  1.
        -11    1    1    2    0    0  0.55083360538E+02  0.16183974844E+02 -0.48293380079E+01  0.57614409270E+02  0.00000000000E+00 0.  1.
         11    1    1    2    0    0  0.36641468272E+02 -0.34714596685E+02 -0.93340959079E+02  0.10611425475E+03  0.00000000000E+00 0. -1.
</event>
<event>
 6    1  0.6506388E-006  0.1266007E+03  0.7561462E-02  0.1232589E+00
         -1   -1    0    0    0  501 -0.00000000000E+00  0.00000000000E+00  0.12340215606E+04  0.12340215606E+04  0.00000000000E+00 0.  1.
          1   -1    0    0  501    0  0.00000000000E+00 -0.00000000000E+00 -0.27254010885E+02  0.27254010885E+02  0.00000000000E+00 0. -1.
          5    1    1    2  502    0  0.26538821363E+02  0.36890145625E+02  0.20592884730E+03  0.21092499718E+03  0.41800000000E+01 0. -1.
         -5    1    1    2    0  502 -0.91312240771E+02 -0.31415756094E+02  0.87927143218E+03  0.88456802955E+03  0.41800000000E+01 0.  1.
        -11    1    1    2    0    0  0.71973325724E+02 -0.35344729651E+02  0.73738144670E+02  0.10893449183E+03  0.00000000000E+00 0. -1.
         11    1    1    2    0    0 -0.71999063165E+01  0.29870340120E+02  0.47829125531E+02  0.56848052904E+02  0.00000000000E+00 0.  1.
</event>
<event>
 7    1  0.6506388E-006  0.1520146E+03  0.7561462E-02  0.1198019E+00
          1   -1    0    0  501    0  0.00000000000E+00  0.00000000000E+00  0.84079937440E+03  0.84079937440E+03  0.00000000000E+00 0. -1.
         -1   -1    0    0    0  501 -0.00000000000E+00 -0.00000000000E+00 -0.36404866870E+02  0.36404866870E+02  0.00000000000E+00 0.  1.
         23    2    1    2    0    0 -0.48887861126E+02 -0.12112993157E+03  0.34049563607E+03  0.38554815440E+03  0.12509043885E+03 0.  0.
          5    1    3    3  502    0 -0.38319443548E+02 -0.25778729176E+02  0.19165830531E+02  0.50176927882E+02  0.41800000000E+01 0.  1.
         -5    1    3    3    0  502 -0.10568417578E+02 -0.95351202390E+02  0.32132980554E+03  0.33537122651E+03  0.41800000000E+01 0.  1.
        -11    1    1    2    0    0  0.57846841510E+02  0.21676912767E+02  0.14880591483E+03  0.16111904266E+03  0.00000000000E+00 0.  1.
         11    1    1    2    0    0 -0.89589803845E+01  0.99453018799E+02  0.31509295663E+03  0.33053704421E+03  0.00000000000E+00 0. -1.
</event>
<event>
 7    1  0.6506388E-006  0.2044100E+03  0.7561462E-02  0.1146071E+00
         -2   -1    0    0    0  501 -0.00000000000E+00  0.00000000000E+00  0.42309625731E+02  0.42309625731E+02  0.00000000000E+00 0.  1.
          2   -1    0    0  501    0  0.00000000000E+00 -0.00000000000E+00 -0.10390430309E+04  0.10390430309E+04  0.00000000000E+00 0. -1.
         23    2    1    2    0    0 -0.16362512568E+03 -0.73012169141E+02 -0.51646208824E+03  0.56078849930E+03  0.12508674494E+03 0.  0.
          5    1    3    3  502    0 -0.17513568602E+03 -0.84102735793E+02 -0.50377974001E+03  0.53996044071E+03  0.41800000000E+01 0.  1.
         -5    1    3    3    0  502  0.11510560340E+02  0.11090566653E+02 -0.12682348231E+02  0.20828058591E+02  0.41800000000E+01 0.  1.
        -11    1    1    2    0    0  0.89767245840E+02 -0.58066628937E+01 -0.17537096165E+03  0.19709604245E+03  0.00000000000E+00 0.  1.
         11    1    1    2    0    0  0.73857879842E+02  0.78818832034E+02 -0.30490035532E+03  0.32346811493E+03  0.00000000000E+00 0. -1.
</event>
<event>
 7    1  0.6506388E-006  0.8244767E+02  0.7561462E-02  0.1322245E+00
          1   -1    0    0  501    0  0.00000000000E+00  0.00000000000E+00  0.65049582768E+03  0.65049582768E+03  0.00000000000E+00 0. -1.
         -1   -1    0    0    0  501 -0.00000000000E+00 -0.00000000000E+00 -0.26399923633E+02  0.26399923633E+02  0.00000000000E+00 0.  1.
         23    2    1    2    0    0  0.33007155817E+02 -0.45006237696E+02  0.22136124272E+03  0.26031333297E+03  0.12508875959E+03 0.  0.
          5    1    3    3  502    0  0.86618114252E+01 -0.32078562537E+02  0.22897608278E+03  0.23141214324E+03  0.41800000000E+01 0. -1.
         -5    1    3    3    0  502  0.24345344391E+02 -0.12927675160E+02 -0.76148400614E+01  0.28901189729E+02  0.41800000000E+01 0. -1.
        -11    1    1    2    0    0  0.26423278678E+02 -0.37073998644E+01  0.65966989351E+02  0.71158823444E+02  0.00000000000E+00 0. -1.
         11    1    1    2    0    0 -0.59430434494E+02  0.48713637561E+02  0.33676767198E+03  0.34542359490E+03  0.00000000000E+00 0.  1.
</event>
<event>
 7    1  0.6506388E-006  0.1766090E+03  0.7561462E-02  0.1171126E+00
         -1   -1    0    0    0  501 -0.00000000000E+00  0.00000000000E+00  0.16841333289E+03  0.16841333289E+03  0.00000000000E+00 0.  1.
          1   -1    0    0  501    0  0.00000000000E+00 -0.00000000000E+00 -0.23331670156E+03  0.23331670156E+03  0.00000000000E+00 0. -1.
         23    2    1    2    0    0 -0.82471838592E+02  0.11530576605E+03  0.51982657210E+02  0.19607803741E+03  0.12508947301E+03 0.  0.
          5    1    3    3  502    0 -0.96240284852E+02  0.35011474945E+02  0.65483121196E+01  0.10270515371E+03  0.41800000000E+01 0. -1.
         -5    1    3    3    0  502  0.13768446261E+02  0.80294291106E+02  0.45434345090E+02  0.93372883700E+02  0.41800000000E+01 0. -1.
        -11    1    1    2    0    0 -0.17618989185E+02 -0.40580256111E+02 -0.32932470340E+02  0.55151913554E+02  0.00000000000E+00 0. -1.
         11    1    1    2    0    0  0.10009082778E+03 -0.74725509940E+02 -0.83953555539E+02  0.15050008348E+03  0.00000000000E+00 0.  1.
</event>
<event>
 7    1  0.6506388E-006  0.9430843E+02  0.7561462E-02  0.1292741E+00
         -2   -1    0    0    0  501 -0.00000000000E+00  0.00000000000E+00  0.16689123462E+02  0.16689123462E+02  0.00000000000E+00 0.  1.
          2   -1    0    0  501    0  0.00000000000E+00 -0.00000000000E+00 -0.84113291089E+03  0.84113291089E+03  0.00000000000E+00 0. -1.
         23    2    1    2    0    0  0.18496127499E+01  0.47667390026E+02 -0.44696800844E+03  0.46659535706E+03  0.12512084365E+03 0.  0.
          5    1    3    3  502    0  0.38371284222E+02  0.27437770879E+02 -0.40317156875E+03  0.40594331251E+03  0.41800000000E+01 0.  1.
         -5    1    3    3    0  502 -0.36521671472E+02  0.20229619147E+02 -0.43796439697E+02  0.60652044550E+02  0.41800000000E+01 0.  1.
        -11    1    1    2    0    0  0.36362622909E+02 -0.49056630580E+02 -0.17979281936E+03  0.18987957037E+03  0.00000000000E+00 0.  1.
         11    1    1    2    0    0 -0.38212235659E+02  0.13892405537E+01 -0.19768295962E+03  0.20134710693E+03  0.00000000000E+00 0. -1.
</event>
<event>
 7    1  0.6506388E-006  0.1864590E+03  0.7561462E-02  0.1161694E+00
         -2   -1    0    0    0  501 -0.00000000000E+00  0.00000000000E+00  0.69394946216E+02  0.69394946216E+02  0.00000000000E+00 0.  1.
          2   -1    0    0  501    0  0.00000000000E+00 -0.00000000000E+00 -0.77998482971E+03  0.77998482971E+03  0.00000000000E+00 0. -1.
         23    2    1    2    0    0  0.15165097808E+03 -0.99033994893E+02 -0.18443221205E+03  0.28717427807E+03  0.12509226135E+03 0.  0.
          5    1    3    3  502    0  0.55781156720E+02 -0.54057834792E+02 -0.16074938324E+03  0.17858225992E+03  0.41800000000E+01 0.  1.
         -5    1    3    3    0  502  0.95869821361E+02 -0.44976160101E+02 -0.23682828806E+02  0.10859201815E+03  0.41800000000E+01 0.  1.
        -11    1    1    2    0    0 -0.49838571505E+02  0.64772666214E+02 -0.31320681693E+03  0.32369413289E+03  0.00000000000E+00 0. -1.
         11    1    1    2    0    0 -0.10181240657E+03  0.34261328679E+02 -0.21295085452E+03  0.23851136496E+03  0.00000000000E+00 0.  1.
</event>
<event>
 7    1  0.6506388E-006  0.2646000E+03  0.7561462E-02  0.1104411E+00
          2   -1    0    0  501    0  0.00000000000E+00  0.00000000000E+00  0.10172747205E+04  0.10172747205E+04  0.00000000000E+00 0. -1.
         -2   -1    0    0    0  501 -0.00000000000E+00 -0.00000000000E+00 -0.74846790260E+02  0.74846790260E+02  0.00000000000E+00 0.  1.
         23    2    1    2    0    0  0.99360669838E+02 -0.22718128441E+03  0.37950042760E+03  0.47026733875E+03  0.12508763589E+03 0.  0.
          5    1    3    3  502    0  0.95860544976E+02 -0.75457062320E+02  0.20841608698E+03  0.24153208907E+03  0.41800000000E+01 0. -1.
         -5    1    3    3    0  502  0.35001248625E+01 -0.15172422209E+03  0.17108434062E+03  0.22873524968E+03  0.41800000000E+01 0. -1.
        -11    1    1    2    0    0 -0.37697940017E+02  0.15888417839E+03  0.27771433393E+03  0.32216543590E+03  0.00000000000E+00 0.  1.
         11    1    1    2    0    0 -0.61662729821E+02  0.68297106026E+02  0.28521316876E+03  0.29968873615E+03  0.00000000000E+00 0. -1.
</event>
<event>
 7    1  0.6506388E-006  0.1966716E+03  0.7561462E-02  0.1152578E+00
          2   -1    0    0  501    0  0.00000000000E+00  0.00000000000E+00  0.46516471746E+03  0.46516471746E+03  0.00000000000E+00 0. -1.
         -2   -1    0    0    0  501 -0.00000000000E+00 -0.00000000000E+00 -0.10043448736E+03  0.10043448736E+03  0.00000000000E+00 0.  1.
         23    2    1    2    0    0 -0.15455794222E+03  0.10400138748E+03  0.18167918788E+03  0.28871968759E+03  0.12508910659E+03 0.  0.
          5    1    3    3  502    0  0.73221501355E+01  0.25098105870E+02 -0.74790382122E+01  0.27512491953E+02  0.41800000000E+01 0. -1.
         -5    1    3    3    0  502 -0.16188009236E+03  0.78903281612E+02  0.18915822610E+03  0.26120719563E+03  0.41800000000E+01 0. -1.
        -11    1    1    2    0    0  0.77320908857E+02 -0.59752551869E+02  0.34365295183E+02  0.10358505642E+03  0.00000000000E+00 0.  1.
         11    1    1    2    0    0  0.77237033366E+02 -0.44248835613E+02  0.14868574704E+03  0.17329446081E+03  0.00000000000E+00 0. -1.
</event>
<event>
 7    1  0.6506388E-006  0.1078175E+03  0.7561462E-02  0.1264666E+00
         -2   -1    0    0    0  501 -0.00000000000E+00  0.00000000000E+00  0.25521013489E+02  0.25521013489E+02  0.00000000000E+00 0.  1.
          2   -1    0    0  501    0  0.00000000000E+00 -0.00000000000E+00 -0.50197969334E+03  0.50197969334E+03  0.00000000000E+00 0. -1.
         23    2    1    2    0    0 -0.51822885651E+01 -0.15721329586E+02 -0.20933571191E+03  0.24442352244E+03  0.12508957479E+03 0.  0.
          5    1    3    3  502    0 -0.45608021096E+02 -0.53679569244E+02 -0.11835117442E+03  0.13778991483E+03  0.41800000000E+01 0.  1.
         -5    1    3    3    0  502  0.40425732531E+02  0.37958239659E+02 -0.90984537492E+02  0.10663360761E+03  0.41800000000E+01 0.  1.
        -11    1    1    2    0    0  0.44926507855E+02 -0.39803715359E+01 -0.17661605003E+03  0.18228401903E+03  0.00000000000E+00 0. -1.
         11    1    1    2    0    0 -0.39744219290E+02  0.19701701121E+02 -0.90506917906E+02  0.10079316536E+03  0.00000000000E+00 0.  1.
</event>
<event>
 7    1  0.6506388E-006  0.9689785E+02  0.7561462E-02  0.1286958E+00
          1   -1    0    0  501    0  0.00000000000E+00  0.00000000000E+00  0.60975008542E+03  0.60975008542E+03  0.00000000000E+00 0. -1.
         -1   -1    0    0    0  501 -0.00000000000E+00 -0.00000000000E+00 -0.22227968163E+02  0.22227968163E+02  0.00000000000E+00 0.  1.
         23    2    1    2    0    0 -0.33842183008E+02 -0.24176359058E+02  0.22726936069E+03  0.26276108635E+03  0.12514885737E+03 0.  0.
          5    1    3    3  502    0 -0.69814129057E+02 -0.30826383731E+02  0.78735092050E+02  0.10973133404E+03  0.41800000000E+01 0.  1.
         -5    1    3    3    0  502  0.35971946048E+02  0.66500246730E+01  0.14853426864E+03  0.15302975231E+03  0.41800000000E+01 0.  1.
        -11    1    1    2    0    0  0.88555962026E+01  0.46319536845E+02  0.22684940452E+03  0.23169931681E+03  0.00000000000E+00 0.  1.
         11    1    1    2    0    0  0.24986586806E+02 -0.22143177787E+02  0.13340335204E+03  0.13751765042E+03  0.00000000000E+00 0. -1.
</event>
<event>
 7    1  0.6506388E-006  0.1671492E+03  0.7561462E-02  0.1180854E+00
         -2   -1    0    0    0  501 -0.00000000000E+00  0.00000000000E+00  0.55861618309E+02  0.55861618309E+02  0.00000000000E+00 0.  1.
          2   -1    0    0  501    0  0.00000000000E+00 -0.00000000000E+00 -0.52870230932E+03  0.52870230932E+03  0.00000000000E+00 0. -1.
         23    2    1    2    0    0  0.26329893937E+02  0.13171924030E+03 -0.26736219618E+03  0.32430362211E+03  0.12508826400E+03 0.  0.
          5    1    3    3  502    0 -0.18117904293E+02  0.12901688044E+03 -0.23623934975E+03  0.26981496746E+03  0.41800000000E+01 0.  1.
         -5    1    3    3    0  502  0.44447798231E+02  0.27023598673E+01 -0.31122846425E+02  0.54488654654E+02  0.41800000000E+01 0.  1.
        -11    1    1    2    0    0 -0.38387069138E+02 -0.13957891739E+02 -0.43961794676E+02  0.60008576137E+02  0.00000000000E+00 0.  1.
         11    1    1    2    0    0  0.12057175200E+02 -0.11776134856E+03 -0.16151670016E+03  0.20025172938E+03  0.00000000000E+00 0. -1.
</event>
<event>
 7    1  0.6506388E-006  0.1350656E+03  0.7561462E-02  0.1220127E+00
         -1   -1    0    0    0  501 -0.00000000000E+00  0.00000000000E+00  0.31467193920E+02  0.31467193920E+02  0.00000000000E+00 0.  1.
          1   -1    0    0  501    0  0.00000000000E+00 -0.00000000000E+00 -0.62669481247E+03  0.62669481247E+03  0.00000000000E+00 0. -1.
         23    2    1    2    0    0 -0.71117152781E+02  0.53663000251E+02 -0.30216995021E+03  0.33895797123E+03  0.12509380655E+03 0.  0.
          5    1    3    3  502    0  0.23775016573E+02 -0.21253896574E+02 -0.53500257275E+02  0.62423789224E+02  0.41800000000E+01 0.  1.
         -5    1    3    3    0  502 -0.94892169355E+02  0.74916896825E+02 -0.24866969293E+03  0.27653418201E+03  0.41800000000E+01 0.  1.
        -11    1    1    2    0    0  0.73917490127E+02 -0.11580027434E+02 -0.24019455558E+03  0.25157765583E+03  0.00000000000E+00 0. -1.
         11    1    1    2    0    0 -0.28003373455E+01 -0.42082972817E+02 -0.52863112755E+02  0.67626379324E+02  0.00000000000E+00 0.  1.
</event>
<event>
 7    1  0.6506388E-006  0.9373773E+02  0.7561462E-02  0.1294045E+00
          2   -1    0    0  501    0  0.00000000000E+00  0.00000000000E+00  0.61224714046E+03  0.61224714046E+03  0.00000000000E+00 0. -1.
         -2   -1    0    0    0  501 -0.00000000000E+00 -0.00000000000E+00 -0.24512211529E+02  0.24512211529E+02  0.00000000000E+00 0.  1.
         23    2    1    2    0    0 -0.19597318905E+02  0.39409863631E+02  0.23419513335E+03  0.26911967621E+03  0.12506337345E+03 0.  0.
          5    1    3    3  502    0 -0.41624510064E+02 -0.18782304247E+02  0.18233157965E+03  0.18800971285E+03  0.41800000000E+01 0. -1.
         -5    1    3    3    0  502  0.22027191159E+02  0.58192167878E+02  0.51863553703E+02  0.81109963355E+02  0.41800000000E+01 0. -1.
        -11    1    1    2    0    0 -0.16632370376E+02  0.89056922192E+01  0.15992395591E+02  0.24732646744E+02  0.00000000000E+00 0.  1.
         11    1    1    2    0    0  0.36229689281E+02 -0.48315555850E+02  0.33754739999E+03  0.34290702903E+03  0.00000000000E+00 0. -1.
</event>
<event>
 7    1  0.6506388E-006  0.7770734E+02  0.7561462E-02  0.1335686E+00
         -2   -1    0    0    0  501 -0.00000000000E+00  0.00000000000E+00  0.62495675579E+02  0.62495675579E+02  0.00000000000E+00 0.  1.
          2   -1    0    0  501    0  0.00000000000E+00 -0.00000000000E+00 -0.39344267600E+03  0.39344267600E+03  0.00000000000E+00 0. -1.
         23    2    1    2    0    0 -0.50240178305E+02  0.23915648661E+02 -0.34442969483E+02  0.14117397735E+03  0.12509092679E+03 0.  0.
          5    1    3    3  502    0  0.66730430501E+01  0.29023105908E+02 -0.68297307163E+02  0.74624826605E+02  0.41800000000E+01 0. -1.
         -5    1    3    3    0  502 -0.56913221355E+02 -0.51074572471E+01  0.33854337680E+02  0.66549150741E+02  0.41800000000E+01 0. -1.
        -11    1    1    2    0    0  0.50906718283E+02 -0.73101528145E+01 -0.29338105428E+03  0.29785462110E+03  0.00000000000E+00 0. -1.
         11    1    1    2    0    0 -0.66653997754E+00 -0.16605495846E+02 -0.31229766602E+01  0.16909753134E+02  0.00000000000E+00 0.  1.
</event>
<event>
 7    1  0.6506388E-006  0.9176561E+02  0.7561462E-02  0.1298631E+00
         -1   -1    0    0    0  501 -0.00000000000E+00  0.00000000000E+00  0.19284592493E+02  0.19284592493E+02  0.00000000000E+00 0.  1.
          1   -1    0    0  501    0  0.00000000000E+00 -0.00000000000E+00 -0.68427776579E+03  0.68427776579E+03  0.00000000000E+00 0. -1.
         23    2    1    2    0    0  0.40805206264E+02  0.18514686399E+02 -0.36684817962E+03  0.38858430275E+03  0.12005130148E+03 0.  0.
          5    1    3    3  502    0 -0.18459698466E+02  0.11421450478E+02 -0.29164730885E+03  0.29248390581E+03  0.41800000000E+01 0. -1.
         -5    1    3    3    0  502  0.59264904730E+02  0.70932359210E+01 -0.75200870764E+02  0.96100396940E+02  0.41800000000E+01 0.  1.
        -11    1    1    2    0    0 -0.12581766632E+02 -0.54457167751E+02 -0.16390018997E+03  0.17316800006E+03  0.00000000000E+00 0.  1.
         11    1    1    2    0    0 -0.28223439632E+02  0.35942481352E+02 -0.13424480371E+03  0.14181005548E+03  0.00000000000E+00 0. -1.
</event>
<event>
 7    1  0.6506388E-006  0.1488956E+03  0.7561462E-02  0.1201837E+00
          2   -1    0    0  501    0  0.00000000000E+00  0.00000000000E+00  0.51427941481E+03  0.51427941481E+03  0.00000000000E+00 0. -1.
         -2   -1    0    0    0  501 -0.00000000000E+00 -0.00000000000E+00 -0.51756767144E+02  0.51756767144E+02  0.00000000000E+00 0.  1.
         23    2    1    2    0    0 -0.12252979254E+03  0.29363610511E+01  0.21286743218E+03  0.27564966404E+03  0.12509205141E+03 0.  0.
          5    1    3    3  502    0 -0.74502387087E+02  0.43895053357E+02  0.47836574725E+02  0.98910018059E+02  0.41800000000E+01 0.  1.
         -5    1    3    3    0  502 -0.48027405456E+02 -0.40958692306E+02  0.16503085745E+03  0.17673964598E+03  0.41800000000E+01 0.  1.
        -11    1    1    2    0    0  0.80353787917E+02 -0.41827944851E+02  0.16248155272E+03  0.18602839347E+03  0.00000000000E+00 0.  1.
         11    1    1    2    0    0  0.42176004626E+02  0.38891583800E+02  0.87173662774E+02  0.10435812445E+03  0.00000000000E+00 0. -1.
</event>
<event>
 7    1  0.6506388E-006  0.1189507E+03  0.7561462E-02  0.1244838E+00
          2   -1    0    0  501    0  0.00000000000E+00  0.00000000000E+00  0.32323895522E+03  0.32323895522E+03  0.00000000000E+00 0. -1.
         -2   -1    0    0    0  501 -0.00000000000E+00 -0.00000000000E+00 -0.46766556946E+02  0.46766556946E+02  0.00000000000E+00 0.  1.
         23    2    1    2    0    0  0.15327330601E+02 -0.55752262840E+02  0.13516965161E+03  0.19303171046E+03  0.12508862720E+03 0.  0.
          5    1    3    3  502    0  0.22513683074E+02 -0.94630854344E+02  0.86955929971E+02  0.13053991986E+03  0.41800000000E+01 0.  1.
         -5    1    3    3    0  502 -0.71863524730E+01  0.38878591504E+02  0.48213721636E+02  0.62491790606E+02  0.41800000000E+01 0.  1.
        -11    1    1    2    0    0 -0.41753399517E+02  0.30976167978E+01  0.31607917384E+02  0.52459527661E+02  0.00000000000E+00 0.  1.
         11    1    1    2    0    0  0.26426068916E+02  0.52654646042E+02  0.10969482928E+03  0.12451427404E+03  0.00000000000E+00 0. -1.
</event>
<event>
 7    1  0.6506388E-006  0.1733319E+03  0.7561462E-02  0.1174417E+00
          1   -1    0    0  501    0  0.00000000000E+00  0.00000000000E+00  0.66017628043E+03  0.66017628043E+03  0.00000000000E+00 0. -1.
         -1   -1    0    0    0  501 -0.00000000000E+00 -0.00000000000E+00 -0.61968238302E+02  0.61968238302E+02  0.00000000000E+00 0.  1.
         23    2    1    2    0    0 -0.48550834725E+01 -0.13890459958E+03  0.13371599222E+03  0.22988561686E+03  0.12509744459E+03 0.  0.
          5    1    3    3  502    0  0.40025310241E+02  0.29442879463E+00  0.35487837444E+02  0.53656044903E+02  0.41800000000E+01 0.  1.
         -5    1    3    3    0  502 -0.44880393713E+02 -0.13919902837E+03  0.98228154778E+02  0.17622957195E+03  0.41800000000E+01 0.  1.
        -11    1    1    2    0    0  0.35775389231E+02  0.11663800024E+03  0.31014110462E+03  0.33327437098E+03  0.00000000000E+00 0.  1.
         11    1    1    2    0    0 -0.30920305759E+02  0.22266599338E+02  0.15435094528E+03  0.15898453090E+03  0.00000000000E+00 0. -1.
</event>
<event>
 7    1  0.6506388E-006  0.8312127E+02  0.7561462E-02  0.1320420E+00
          1   -1    0    0  501    0  0.00000000000E+00  0.00000000000E+00  0.51623096212E+02  0.51623096212E+02  0.00000000000E+00 0. -1.
         -1   -1    0    0    0  501 -0.00000000000E+00 -0.00000000000E+00 -0.31735050499E+03  0.31735050499E+03  0.00000000000E+00 0.  1.
         23    2    1    2    0    0 -0.20837152685E+02  0.63090684275E+02 -0.14516623180E+03  0.20281984778E+03  0.12509210377E+03 0.  0.
          5    1    3    3  502    0  0.22920040287E+02  0.16881991841E+01 -0.12143943907E+03  0.12366562992E+03  0.41800000000E+01 0.  1.
         -5    1    3    3    0  502 -0.43757192972E+02  0.61402485091E+02 -0.23726792731E+02  0.79154217863E+02  0.41800000000E+01 0.  1.
        -11    1    1    2    0    0  0.22092436977E+01 -0.23623298844E+02 -0.12019011485E+03  0.12250961070E+03  0.00000000000E+00 0.  1.
         11    1    1    2    0    0  0.18627908987E+02 -0.39467385431E+02 -0.37106212500E+00  0.43644142712E+02  0.00000000000E+00 0. -1.
</event>
<event>
 7    1  0.6506388E-006  0.1839021E+03  0.7561462E-02  0.1164079E+00
         -1   -1    0    0    0  501 -0.00000000000E+00  0.00000000000E+00  0.99245282558E+02  0.99245282558E+02  0.00000000000E+00 0. -1.
          1   -1    0    0  501    0  0.00000000000E+00 -0.00000000000E+00 -0.43319660110E+03  0.43319660110E+03  0.00000000000E+00 0.  1.
         23    2    1    2    0    0  0.16004306459E+03 -0.89153722978E+01 -0.77470588904E+02  0.21758249340E+03  0.12508870014E+03 0.  0.
          5    1    3    3  502    0  0.16400999937E+03  0.11173543888E+02 -0.31984501128E+02  0.16752494946E+03  0.41800000000E+01 0.  1.
         -5    1    3    3    0  502 -0.39669347810E+01 -0.20088916186E+02 -0.45486087776E+02  0.50057543949E+02  0.41800000000E+01 0.  1.
        -11    1    1    2    0    0 -0.68107460503E+02  0.47209590883E+02 -0.12325519259E+03  0.14852344645E+03  0.00000000000E+00 0. -1.
         11    1    1    2    0    0 -0.91935604090E+02 -0.38294218585E+02 -0.13322553706E+03  0.16633594380E+03  0.00000000000E+00 0.  1.
</event>
<event>
 7    1  0.6506388E-006  0.1135316E+03  0.7561462E-02  0.1254166E+00
          2   -1    0    0  501    0  0.00000000000E+00  0.00000000000E+00  0.15802113964E+03  0.15802113964E+03  0.00000000000E+00 0. -1.
         -2   -1    0    0    0  501 -0.00000000000E+00 -0.00000000000E+00 -0.96190937484E+02  0.96190937484E+02  0.00000000000E+00 0.  1.
         23    2    1    2    0    0 -0.29422097781E+02  0.50562031411E+02  0.36828551276E+02  0.14292758990E+03  0.12509906038E+03 0.  0.
          5    1    3    3  502    0  0.28607985707E+02  0.68243914590E+02  0.49767549069E+01  0.74282496015E+02  0.41800000000E+01 0. -1.
         -5    1    3    3    0  502 -0.58030083488E+02 -0.17681883179E+02  0.31851796369E+02  0.68645093884E+02  0.41800000000E+01 0. -1.
        -11    1    1    2    0    0  0.22901346797E+02  0.14268044015E+02 -0.18699892575E+02  0.32828870640E+02  0.00000000000E+00 0. -1.
         11    1    1    2    0    0  0.65207509840E+01 -0.64830075427E+02  0.43701543451E+02  0.78455616581E+02  0.00000000000E+00 0.  1.
</event>
<event>
 7    1  0.6506388E-006  0.1265653E+03  0.7561462E-02  0.1232643E+00
          1   -1    0    0  501    0  0.00000000000E+00  0.00000000000E+00  0.59345793254E+03  0.59345793254E+03  0.00000000000E+00 0. -1.
         -1   -1    0    0    0  501 -0.00000000000E+00 -0.00000000000E+00 -0.35598604162E+02  0.35598604162E+02  0.00000000000E+00 0.  1.
         23    2    1    2    0    0  0.47258035778E+02 -0.83127594247E+02  0.33464812917E+03  0.36983972995E+03  0.12509411107E+03 0.  0.
          5    1    3    3  502    0  0.68302266336E+02 -0.10363079950E+03  0.29687981217E+03  0.32180683253E+03  0.41800000000E+01 0. -1.
         -5    1    3    3    0  502 -0.21044230558E+02  0.20503205253E+02  0.37768316999E+02  0.48032897418E+02  0.41800000000E+01 0. -1.
        -11    1    1    2    0    0 -0.98964740904E+01  0.44271111783E+02  0.19123432802E+03  0.19654119098E+03  0.00000000000E+00 0. -1.
         11    1    1    2    0    0 -0.37361561688E+02  0.38856482464E+02  0.31976871190E+02  0.62675615771E+02  0.00000000000E+00 0.  1.
</event>
<event>
 7    1  0.6506388E-006  0.1036347E+03  0.7561462E-02  0.1272833E+00
         -1   -1    0    0    0  501 -0.00000000000E+00  0.00000000000E+00  0.16472799443E+03  0.16472799443E+03  0.00000000000E+00 0. -1.
          1   -1    0    0  501    0  0.00000000000E+00 -0.00000000000E+00 -0.77490028313E+02  0.77490028313E+02  0.00000000000E+00 0.  1.
         23    2    1    2    0    0 -0.16162786705E+02  0.30331121408E+02  0.57174763823E+02  0.14176627678E+03  0.12509001165E+03 0.  0.
          5    1    3    3  502    0 -0.18415948220E+02 -0.38267231142E+02 -0.11898970276E+02  0.44301083754E+02  0.41800000000E+01 0.  1.
         -5    1    3    3    0  502  0.22531615151E+01  0.68598352550E+02  0.69073734100E+02  0.97465193027E+02  0.41800000000E+01 0.  1.
        -11    1    1    2    0    0 -0.30702275175E+02  0.11725009016E+02  0.11124803272E+02  0.34696783499E+02  0.00000000000E+00 0. -1.
         11    1    1    2    0    0  0.46865061880E+02 -0.42056130424E+02  0.18938399023E+02  0.65754962465E+02  0.00000000000E+00 0.  1.
</event>
<event>
 7    1  0.6506388E-006  0.9215698E+02  0.7561462E-02  0.1297711E+00
          2   -1    0    0  501    0  0.00000000000E+00  0.00000000000E+00  0.17055484193E+03  0.17055484193E+03  0.00000000000E+00 0. -1.
         -2   -1    0    0    0  501 -0.00000000000E+00 -0.00000000000E+00 -0.96385884472E+02  0.96385884472E+02  0.00000000000E+00 0.  1.
         23    2    1    2    0    0  0.32599480836E+02  0.11975342065E+02 -0.19644921586E+02  0.13129992625E+03  0.12509041818E+03 0.  0.
          5    1    3    3  502    0  0.15891957681E+02  0.66408607960E+02  0.60759868316E+01  0.68680765474E+02  0.41800000000E+01 0.  1.
         -5    1    3    3    0  502  0.16707523155E+02 -0.54433265895E+02 -0.25720908417E+02  0.62619160772E+02  0.41800000000E+01 0.  1.
        -11    1    1    2    0    0  0.63314218386E+00 -0.23595515509E+02 -0.10286821834E+02  0.25748163519E+02  0.00000000000E+00 0.  1.
         11    1    1    2    0    0 -0.33232623020E+02  0.11620173445E+02  0.10410070088E+03  0.10989263664E+03  0.00000000000E+00 0. -1.
</event>
<event>
 7    1  0.6506388E-006  0.9379966E+02  0.7561462E-02  0.1293903E+00
         -1   -1    0    0    0  501 -0.00000000000E+00  0.00000000000E+00  0.11337932713E+03  0.11337932713E+03  0.00000000000E+00 0.  1.
          1   -1    0    0  501    0  0.00000000000E+00 -0.00000000000E+00 -0.15853435253E+03  0.15853435253E+03  0.00000000000E+00 0. -1.
         23    2    1    2    0    0  0.27316928960E+02  0.96298313308E+01  0.49221747059E+02  0.13750975850E+03  0.12508878862E+03 0.  0.
          5    1    3    3  502    0  0.11703509572E+02  0.59893424969E+02  0.57635912800E+02  0.84045019693E+02  0.41800000000E+01 0.  1.
         -5    1    3    3    0  502  0.15613419388E+02 -0.50263593639E+02 -0.84141657411E+01  0.53464738806E+02  0.41800000000E+01 0.  1.
        -11    1    1    2    0    0 -0.96076983172E+01 -0.38545015833E+02 -0.92238914240E+02  0.10042929559E+03  0.00000000000E+00 0. -1.
         11    1    1    2    0    0 -0.17709230643E+02  0.28915184502E+02 -0.21378582212E+01  0.33974625569E+02  0.00000000000E+00 0.  1.
</event>
<event>
 7    1  0.6506388E-006  0.1148752E+03  0.7561462E-02  0.1251799E+00
         -1   -1    0    0    0  501 -0.00000000000E+00  0.00000000000E+00  0.45287586421E+02  0.45287586421E+02  0.00000000000E+00 0.  1.
          1   -1    0    0  501    0  0.00000000000E+00 -0.00000000000E+00 -0.46332580098E+03  0.46332580098E+03  0.00000000000E+00 0. -1.
         23    2    1    2    0    0  0.26281923310E+02 -0.80349468798E+02 -0.14369473266E+03  0.20843016660E+03  0.12509269174E+03 0.  0.
          5    1    3    3  502    0  0.48739908408E+02 -0.41229025818E+02 -0.14963796120E+03  0.16274029333E+03  0.41800000000E+01 0. -1.
         -5    1    3    3    0  502 -0.22457985098E+02 -0.39120442980E+02  0.59432285460E+01  0.45689873267E+02  0.41800000000E+01 0. -1.
        -11    1    1    2    0    0  0.62456554815E+01  0.87040626710E+02 -0.21745545444E+03  0.23431165907E+03  0.00000000000E+00 0. -1.
         11    1    1    2    0    0 -0.32527578791E+02 -0.66911579116E+01 -0.56888027454E+02  0.65871561723E+02  0.00000000000E+00 0.  1.
</event>
<event>
 6    1  0.6506388E-006  0.1328764E+03  0.7561462E-02  0.1223249E+00
         -2   -1    0    0    0  501 -0.00000000000E+00  0.00000000000E+00  0.94678078342E+02  0.94678078342E+02  0.00000000000E+00 0.  1.
          2   -1    0    0  501    0  0.00000000000E+00 -0.00000000000E+00 -0.21956280507E+03  0.21956280507E+03  0.00000000000E+00 0. -1.
          5    1    1    2  502    0 -0.82360665133E+02  0.27038180743E+02 -0.68445670137E+02  0.11052884031E+03  0.41800000000E+01 0. -1.
         -5    1    1    2    0  502  0.27838667252E+02 -0.62697242202E+02  0.15408891023E+02  0.70433244258E+02  0.41800000000E+01 0.  1.
        -11    1    1    2    0    0  0.13606341313E+02  0.60742169945E+02 -0.52871994190E+02  0.81671240368E+02  0.00000000000E+00 0. -1.
         11    1    1    2    0    0  0.40915656569E+02 -0.25083108486E+02 -0.18975953422E+02  0.51607558478E+02  0.00000000000E+00 0.  1.
</event>
<event>
 7    1  0.6506388E-006  0.9961045E+02  0.7561462E-02  0.1281117E+00
         -2   -1    0    0    0  501 -0.00000000000E+00  0.00000000000E+00  0.51157092838E+02  0.51157092838E+02  0.00000000000E+00 0.  1.
          2   -1    0    0  501    0  0.00000000000E+00 -0.00000000000E+00 -0.28506537236E+03  0.28506537236E+03  0.00000000000E+00 0. -1.
         23    2    1    2    0    0 -0.42008737421E+02  0.93502118131E+01 -0.89724835106E+02  0.15984533001E+03  0.12509125872E+03 0.  0.
          5    1    3    3  502    0 -0.20077488273E+02 -0.53304593943E+02 -0.70253551575E+02  0.90540152307E+02  0.41800000000E+01 0.  1.
         -5    1    3    3    0  502 -0.21931249148E+02  0.62654805756E+02 -0.19471283530E+02  0.69305177699E+02  0.41800000000E+01 0.  1.
        -11    1    1    2    0    0  0.30233980268E+02 -0.35670366622E+02 -0.13954702103E+03  0.14717282255E+03  0.00000000000E+00 0. -1.
         11    1    1    2    0    0  0.11774757153E+02  0.26320154809E+02 -0.46364233823E+01  0.29204312643E+02  0.00000000000E+00 0.  1.
</event>
<event>
 7    1  0.6506388E-006  0.1001642E+03  0.7561462E-02  0.1279951E+00
          1   -1    0    0  501    0  0.00000000000E+00  0.00000000000E+00  0.10609520371E+03  0.10609520371E+03  0.00000000000E+00 0. -1.
         -1   -1    0    0    0  501 -0.00000000000E+00 -0.00000000000E+00 -0.11555178155E+03  0.11555178155E+03  0.00000000000E+00 0.  1.
         23    2    1    2    0    0 -0.16956394084E+02  0.20548951530E+00 -0.20321504178E+02  0.12785997861E+03  0.12509056348E+03 0.  0.
          5    1    3    3  502    0 -0.58403943167E+02  0.23875171222E+02  0.18838127229E+02  0.65980238070E+02  0.41800000000E+01 0.  1.
         -5    1    3    3    0  502  0.41447549083E+02 -0.23669681707E+02 -0.39159631407E+02  0.61879740538E+02  0.41800000000E+01 0.  1.
        -11    1    1    2    0    0  0.39287297963E+02  0.31531500868E+02 -0.73666715660E+01  0.50911640890E+02  0.00000000000E+00 0.  1.
         11    1    1    2    0    0 -0.22330903879E+02 -0.31736990383E+02  0.18231597903E+02  0.42875365756E+02  0.00000000000E+00 0. -1.
</event>
<event>
 7    1  0.6506388E-006  0.1729966E+03  0.7561462E-02  0.1174758E+00
         -2   -1    0    0    0  501 -0.00000000000E+00  0.00000000000E+00  0.36712186666E+02  0.36712186666E+02  0.00000000000E+00 0.  1.
          2   -1    0    0  501    0  0.00000000000E+00 -0.00000000000E+00 -0.95001001760E+03  0.95001001760E+03  0.00000000000E+00 0. -1.
         23    2    1    2    0    0  0.10893516846E+01  0.14309182591E+03 -0.35320311279E+03  0.40109443142E+03  0.12509135343E+03 0.  0.
          5    1    3    3  502    0  0.30572639629E+02  0.14541726238E+03 -0.33399345620E+03  0.36558168400E+03  0.41800000000E+01 0.  1.
         -5    1    3    3    0  502 -0.29483287944E+02 -0.23254364747E+01 -0.19209656588E+02  0.35512747416E+02  0.41800000000E+01 0.  1.
        -11    1    1    2    0    0 -0.40341989280E+02 -0.38542398900E+02 -0.13422740137E+03  0.14536157639E+03  0.00000000000E+00 0.  1.
         11    1    1    2    0    0  0.39252637596E+02 -0.10454942701E+03 -0.42586731677E+03  0.44026619645E+03  0.00000000000E+00 0. -1.
</event>
<event>
 6    1  0.6506388E-006  0.8038391E+02  0.7561462E-02  0.1327965E+00
         -1   -1    0    0    0  501 -0.00000000000E+00  0.00000000000E+00  0.80658449439E+02  0.80658449439E+02  0.00000000000E+00 0.  1.
          1   -1    0    0  501    0  0.00000000000E+00 -0.00000000000E+00 -0.23397180871E+03  0.23397180871E+03  0.00000000000E+00 0. -1.
          5    1    1    2  502    0  0.59477268886E+01  0.21598308190E+02 -0.59477610638E+02  0.63693963128E+02  0.41800000000E+01 0. -1.
         -5    1    1    2    0  502  0.26798846169E+02 -0.58923422187E+02  0.43636146501E+02  0.78177576834E+02  0.41800000000E+01 0.  1.
        -11    1    1    2    0    0 -0.23400850571E+02  0.51251534447E+02 -0.14410163564E+03  0.15472427406E+03  0.00000000000E+00 0.  1.
         11    1    1    2    0    0 -0.93457224870E+01 -0.13926420450E+02  0.66297405110E+01  0.18034444117E+02  0.00000000000E+00 0. -1.
</event>
<event>
 7    1  0.6506388E-006  0.1170152E+03  0.7561462E-02  0.1248104E+00
          1   -1    0    0  501    0  0.00000000000E+00  0.00000000000E+00  0.14851028224E+02  0.14851028224E+02  0.00000000000E+00 0. -1.
         -1   -1    0    0    0  501 -0.00000000000E+00 -0.00000000000E+00 -0.12194273724E+04  0.12194273724E+04  0.00000000000E+00 0.  1.
         23    2    1    2    0    0 -0.50686586436E+02  0.46441693881E+02 -0.85900221675E+03  0.87078023999E+03  0.12508979575E+03 0.  0.
          5    1    3    3  502    0 -0.23711852995E+02 -0.39493145076E+02 -0.18134730752E+03  0.18715308927E+03  0.41800000000E+01 0. -1.
         -5    1    3    3    0  502 -0.26974733441E+02  0.85934838958E+02 -0.67765490923E+03  0.68362715072E+03  0.41800000000E+01 0. -1.
        -11    1    1    2    0    0 -0.11224438300E+02  0.90898491704E+01 -0.95028783367E+01  0.17289247230E+02  0.00000000000E+00 0. -1.
         11    1    1    2    0    0  0.61911024736E+02 -0.55531543052E+02 -0.33607124913E+03  0.34620891345E+03  0.00000000000E+00 0.  1.
</event>
<event>
 7    1  0.6506388E-006  0.1043782E+03  0.7561462E-02  0.1271350E+00
          1   -1    0    0  501    0  0.00000000000E+00  0.00000000000E+00  0.35130164831E+02  0.35130164831E+02  0.00000000000E+00 0. -1.
         -1   -1    0    0    0  501 -0.00000000000E+00 -0.00000000000E+00 -0.93084193144E+03  0.93084193144E+03  0.00000000000E+00 0.  1.
         23    2    1    2    0    0 -0.28107058646E+01 -0.10956184929E+02 -0.86278757321E+03  0.87188212623E+03  0.12509239587E+03 0.  0.
          5    1    3    3  502    0 -0.47172762974E+02  0.33282526364E+02 -0.29435899741E+03  0.29999614644E+03  0.41800000000E+01 0. -1.
         -5    1    3    3    0  502  0.44362057109E+02 -0.44238711293E+02 -0.56842857581E+03  0.57188597979E+03  0.41800000000E+01 0. -1.
        -11    1    1    2    0    0 -0.10771216085E+02 -0.36846687559E+02 -0.16041345185E+02  0.41605555343E+02  0.00000000000E+00 0.  1.
         11    1    1    2    0    0  0.13581921950E+02  0.47802872489E+02 -0.16882848215E+02  0.52484414695E+02  0.00000000000E+00 0. -1.
</event>
<event>
 7    1  0.6506388E-006  0.1124521E+03  0.7561462E-02  0.1256095E+00
          1   -1    0    0  501    0  0.00000000000E+00  0.00000000000E+00  0.58027067223E+03  0.58027067223E+03  0.00000000000E+00 0. -1.
         -1   -1    0    0    0  501 -0.00000000000E+00 -0.00000000000E+00 -0.39601034342E+02  0.39601034342E+02  0.00000000000E+00 0.  1.
         23    2    1    2    0    0  0.81397447996E+02 -0.51715685727E+02  0.20464063477E+03  0.25850483645E+03  0.12508758682E+03 0.  0.
          5    1    3    3  502    0  0.32930293513E+02 -0.17237710031E+02 -0.74965647158E+01  0.38147264128E+02  0.41800000000E+01 0.  1.
         -5    1    3    3    0  502  0.48467154483E+02 -0.34477975696E+02  0.21213719949E+03  0.22035757232E+03  0.41800000000E+01 0.  1.
        -11    1    1    2    0    0 -0.62552303163E+02  0.75166864412E+02  0.20785851406E+03  0.22971288602E+03  0.00000000000E+00 0.  1.
         11    1    1    2    0    0 -0.18845144832E+02 -0.23451178686E+02  0.12817048906E+03  0.13165398411E+03  0.00000000000E+00 0. -1.
</event>
<event>
 7    1  0.6506388E-006  0.1021096E+03  0.7561462E-02  0.1275921E+00
          1   -1    0    0  501    0  0.00000000000E+00  0.00000000000E+00  0.52516416103E+03  0.52516416103E+03  0.00000000000E+00 0. -1.
         -1   -1    0    0    0  501 -0.00000000000E+00 -0.00000000000E+00 -0.32998331681E+02  0.32998331681E+02  0.00000000000E+00 0.  1.
         23    2    1    2    0    0 -0.37649378021E+02 -0.64632818094E+02  0.25187958668E+03  0.29100506089E+03  0.12508294222E+03 0.  0.
          5    1    3    3  502    0 -0.24509811803E+02 -0.93683392704E+02  0.11499898850E+03  0.15039796773E+03  0.41800000000E+01 0.  1.
         -5    1    3    3    0  502 -0.13139566218E+02  0.29050574610E+02  0.13688059819E+03  0.14060709315E+03  0.41800000000E+01 0.  1.
        -11    1    1    2    0    0  0.19676452096E+02  0.26766563018E+02  0.12417227103E+02  0.35465464776E+02  0.00000000000E+00 0.  1.
         11    1    1    2    0    0  0.17972925925E+02  0.37866255076E+02  0.22786901556E+03  0.23169196705E+03  0.00000000000E+00 0. -1.
</event>
<event>
 7    1  0.6506388E-006  0.1239553E+03  0.7561462E-02  0.1236711E+00
         -2   -1    0    0    0  501 -0.00000000000E+00  0.00000000000E+00  0.58197124532E+02  0.58197124532E+02  0.00000000000E+00 0.  1.
          2   -1    0    0  501    0  0.00000000000E+00 -0.00000000000E+00 -0.40515856368E+03  0.40515856368E+03  0.00000000000E+00 0. -1.
         23    2    1    2    0    0  0.27275847661E+02 -0.10461126777E+03 -0.19502093721E+03  0.25569354210E+03  0.12513405735E+03 0.  0.
          5    1    3    3  502    0  0.42002059048E+02 -0.89145926816E+02 -0.52915371384E+02  0.11193157803E+03  0.41800000000E+01 0. -1.
         -5    1    3    3    0  502 -0.14726211387E+02 -0.15465340959E+02 -0.14210556583E+03  0.14376196407E+03  0.41800000000E+01 0. -1.
        -11    1    1    2    0    0  0.19005944937E+02  0.61118912297E+02 -0.31129325795E+02  0.71174309324E+02  0.00000000000E+00 0.  1.
         11    1    1    2    0    0 -0.46281792598E+02  0.43492355477E+02 -0.12081117614E+03  0.13648783679E+03  0.00000000000E+00 0. -1.
</event>
<event>
 7    1  0.6506388E-006  0.1341543E+03  0.7561462E-02  0.1221419E+00
         -1   -1    0    0    0  501 -0.00000000000E+00  0.00000000000E+00  0.83657678999E+02  0.83657678999E+02  0.00000000000E+00 0.  1.
          1   -1    0    0  501    0  0.00000000000E+00 -0.00000000000E+00 -0.32029712329E+03  0.32029712329E+03  0.00000000000E+00 0. -1.
         23    2    1    2    0    0 -0.53706109769E+02  0.10769190911E+03 -0.98054745887E+02  0.19935954310E+03  0.12509037022E+03 0.  0.
          5    1    3    3  502    0 -0.51507149250E+02  0.10712537658E+03 -0.12468042689E+03  0.17231225719E+03  0.41800000000E+01 0.  1.
         -5    1    3    3    0  502 -0.21989605186E+01  0.56653253289E+00  0.26625680998E+02  0.27047285910E+02  0.41800000000E+01 0.  1.
        -11    1    1    2    0    0  0.74277921111E+02 -0.72172993936E+02 -0.12274105290E+03  0.16059737447E+03  0.00000000000E+00 0. -1.
         11    1    1    2    0    0 -0.20571811342E+02 -0.35518915172E+02 -0.15843645500E+02  0.43997884718E+02  0.00000000000E+00 0.  1.
</event>
<event>
 7    1  0.6506388E-006  0.9716184E+02  0.7561462E-02  0.1286380E+00
         -1   -1    0    0    0  501 -0.00000000000E+00  0.00000000000E+00  0.63862907231E+03  0.63862907231E+03  0.00000000000E+00 0.  1.
          1   -1    0    0  501    0  0.00000000000E+00 -0.00000000000E+00 -0.19217691590E+02  0.19217691590E+02  0.00000000000E+00 0. -1.
         23    2    1    2    0    0  0.21197072788E+02  0.56450670710E+01  0.39163179482E+03  0.41170798719E+03  0.12508725482E+03 0.  0.
          5    1    3    3  502    0  0.44685967311E+02  0.39607074629E+02  0.34111835594E+03  0.34633042199E+03  0.41800000000E+01 0.  1.
         -5    1    3    3    0  502 -0.23488894523E+02 -0.33962007558E+02  0.50513438885E+02  0.65377565198E+02  0.41800000000E+01 0.  1.
        -11    1    1    2    0    0 -0.50408550711E+02 -0.26613594209E+02  0.12962087639E+03  0.14160111927E+03  0.00000000000E+00 0.  1.
         11    1    1    2    0    0  0.29211477922E+02  0.20968527138E+02  0.98158709503E+02  0.10453765744E+03  0.00000000000E+00 0. -1.
</event>
<event>
 7    1  0.6506388E-006  0.1083569E+03  0.7561462E-02  0.1263643E+00
         -2   -1    0    0    0  501 -0.00000000000E+00  0.00000000000E+00  0.13695864644E+03  0.13695864644E+03  0.00000000000E+00 0.  1.
          2   -1    0    0  501    0  0.00000000000E+00 -0.00000000000E+00 -0.14214987984E+03  0.14214987984E+03  0.00000000000E+00 0. -1.
         23    2    1    2    0    0 -0.25736136045E+02  0.35205808950E+02  0.73382150602E+02  0.15143425695E+03  0.12508235874E+03 0.  0.
          5    1    3    3  502    0 -0.50717313878E+01  0.73823714678E+02  0.10747927244E+02  0.74890945034E+02  0.41800000000E+01 0.  1.
         -5    1    3    3    0  502 -0.20664404657E+02 -0.38617905728E+02  0.62634223358E+02  0.76543311911E+02  0.41800000000E+01 0.  1.
        -11    1    1    2    0    0  0.28516189191E+02  0.25245031182E+02 -0.18262246841E+02  0.42237356748E+02  0.00000000000E+00 0.  1.
         11    1    1    2    0    0 -0.27800531457E+01 -0.60450840132E+02 -0.60311137161E+02  0.85436912595E+02  0.00000000000E+00 0. -1.
</event>
<event>
 7    1  0.6506388E-006  0.1070352E+03  0.7561462E-02  0.1266161E+00
          2   -1    0    0  501    0  0.00000000000E+00  0.00000000000E+00  0.33587721828E+03  0.33587721828E+03  0.00000000000E+00 0. -1.
         -2   -1    0    0    0  501 -0.00000000000E+00 -0.00000000000E+00 -0.52864852060E+02  0.52864852060E+02  0.00000000000E+00 0.  1.
         23    2    1    2    0    0  0.14385414452E+01 -0.66021088566E+02  0.21127083958E+03  0.25424980034E+03  0.12508692889E+03 0.  0.
          5    1    3    3  502    0  0.39369993357E+02 -0.41747343388E+02  0.19933786197E+03  0.20747504108E+03  0.41800000000E+01 0. -1.
         -5    1    3    3    0  502 -0.37931451912E+02 -0.24273745178E+02  0.11932977608E+02  0.46774759259E+02  0.41800000000E+01 0. -1.
        -11    1    1    2    0    0 -0.45303120356E+02  0.27989236208E+02  0.20514955036E+02  0.57066920695E+02  0.00000000000E+00 0.  1.
         11    1    1    2    0    0  0.43864578910E+02  0.38031852358E+02  0.51226571609E+02  0.77425349309E+02  0.00000000000E+00 0. -1.
</event>
<event>
 7    1  0.6506388E-006  0.9445901E+02  0.7561462E-02  0.1292399E+00
         -2   -1    0    0    0  501 -0.00000000000E+00  0.00000000000E+00  0.28388775716E+02  0.28388775716E+02  0.00000000000E+00 0.  1.
          2   -1    0    0  501    0  0.00000000000E+00 -0.00000000000E+00 -0.58769273011E+03  0.58769273011E+03  0.00000000000E+00 0. -1.
         23    2    1    2    0    0 -0.39315000084E+02  0.36744640624E+02 -0.20432890948E+03  0.24549815933E+03  0.12499282036E+03 0.  0.
          5    1    3    3  502    0 -0.28285398010E+01  0.53150514463E+02 -0.19763821013E+03  0.20472252521E+03  0.41800000000E+01 0. -1.
         -5    1    3    3    0  502 -0.36486460283E+02 -0.16405873839E+02 -0.66906993444E+01  0.40775634123E+02  0.41800000000E+01 0. -1.
        -11    1    1    2    0    0  0.24131090689E+01  0.24059147362E+02 -0.33383867553E+02  0.41220726340E+02  0.00000000000E+00 0.  1.
         11    1    1    2    0    0  0.36901891015E+02 -0.60803787986E+02 -0.32159117737E+03  0.32936262016E+03  0.00000000000E+00 0. -1.
</event>
<event>
 7    1  0.6506388E-006  0.1121041E+03  0.7561462E-02  0.1256722E+00
          1   -1    0    0  501    0  0.00000000000E+00  0.00000000000E+00  0.55875059463E+03  0.55875059463E+03  0.00000000000E+00 0. -1.
         -1   -1    0    0    0  501 -0.00000000000E+00 -0.00000000000E+00 -0.26963193002E+02  0.26963193002E+02  0.00000000000E+00 0.  1.
         23    2    1    2    0    0 -0.40433536021E+02  0.51638550587E+01  0.19588691032E+03  0.23596253451E+03  0.12508037346E+03 0.  0.
          5    1    3    3  502    0 -0.67277332003E+02  0.43466937282E+02  0.92631560877E+02  0.12253037382E+03  0.41800000000E+01 0.  1.
         -5    1    3    3    0  502  0.26843795983E+02 -0.38303082224E+02  0.10325534945E+03  0.11343216069E+03  0.41800000000E+01 0.  1.
        -11    1    1    2    0    0  0.35733363982E+02 -0.44700260932E+02  0.18208214440E+03  0.19086354796E+03  0.00000000000E+00 0.  1.
         11    1    1    2    0    0  0.47001720384E+01  0.39536405873E+02  0.15381834690E+03  0.15888770516E+03  0.00000000000E+00 0. -1.
</event>
<event>
 7    1  0.6506388E-006  0.1205398E+03  0.7561462E-02  0.1242209E+00
         -1   -1    0    0    0  501 -0.00000000000E+00  0.00000000000E+00  0.12093126106E+03  0.12093126106E+03  0.00000000000E+00 0.  1.
          1   -1    0    0  501    0  0.00000000000E+00 -0.00000000000E+00 -0.13215275684E+03  0.13215275684E+03  0.00000000000E+00 0. -1.
         23    2    1    2    0    0 -0.39283231698E+02 -0.58655667414E+02  0.18419417837E+02  0.14481157596E+03  0.12508979961E+03 0.  0.
          5    1    3    3  502    0  0.25872010997E+01  0.37316824359E+02 -0.33309561601E+01  0.37786328993E+02  0.41800000000E+01 0. -1.
         -5    1    3    3    0  502 -0.41870432798E+02 -0.95972491774E+02  0.21750373997E+02  0.10702524697E+03  0.41800000000E+01 0. -1.
        -11    1    1    2    0    0  0.55708966766E+02  0.24721273913E+02 -0.10503472064E+01  0.60956817431E+02  0.00000000000E+00 0.  1.
         11    1    1    2    0    0 -0.16425735068E+02  0.33934393501E+02 -0.28590566412E+02  0.47315624508E+02  0.00000000000E+00 0. -1.
</event>
<event>
 7    1  0.6506388E-006  0.2094859E+03  0.7561462E-02  0.1141974E+00
          2   -1    0    0  501    0  0.00000000000E+00  0.00000000000E+00  0.53060569812E+03  0.53060569812E+03  0.00000000000E+00 0. -1.
         -2   -1    0    0    0  501 -0.00000000000E+00 -0.00000000000E+00 -0.99174244815E+02  0.99174244815E+02  0.00000000000E+00 0.  1.
         23    2    1    2    0    0  0.86686127865E+02 -0.17971982628E+03  0.21536310924E+03  0.31912955156E+03  0.12509476861E+03 0.  0.
          5    1    3    3  502    0  0.86520117239E+02 -0.81645296085E+02  0.17792038316E+03  0.21406732634E+03  0.41800000000E+01 0. -1.
         -5    1    3    3    0  502  0.16601062554E+00 -0.98074530193E+02  0.37442726078E+02  0.10506222522E+03  0.41800000000E+01 0. -1.
        -11    1    1    2    0    0 -0.53633127643E+02  0.14105051042E+03  0.92442118861E+02  0.17696695796E+03  0.00000000000E+00 0.  1.
         11    1    1    2    0    0 -0.33053000222E+02  0.38669315861E+02  0.12362622520E+03  0.13368343342E+03  0.00000000000E+00 0. -1.
</event>
<event>
 7    1  0.6506388E-006  0.1097158E+03  0.7561462E-02  0.1261097E+00
         -2   -1    0    0    0  501 -0.00000000000E+00  0.00000000000E+00  0.83454323566E+02  0.83454323566E+02  0.00000000000E+00 0. -1.
          2   -1    0    0  501    0  0.00000000000E+00 -0.00000000000E+00 -0.24684843727E+03  0.24684843727E+03  0.00000000000E+00 0.  1.
         23    2    1    2    0    0 -0.50542792729E+01  0.42322897715E+02 -0.27208599882E+02  0.13492457931E+03  0.12509021058E+03 0.  0.
          5    1    3    3  502    0 -0.36685129456E+02 -0.72076115232E+01 -0.57471730999E+02  0.68689305216E+02  0.41800000000E+01 0. -1.
         -5    1    3    3    0  502  0.31630850183E+02  0.49530509239E+02  0.30263131117E+02  0.66235274090E+02  0.41800000000E+01 0. -1.
        -11    1    1    2    0    0 -0.52711732077E+02 -0.25743892463E+01 -0.10723260297E+03  0.11951562792E+03  0.00000000000E+00 0.  1.
         11    1    1    2    0    0  0.57766011350E+02 -0.39748508469E+02 -0.28952910853E+02  0.75862553606E+02  0.00000000000E+00 0. -1.
</event>
<event>
 7    1  0.6506388E-006  0.1489149E+03  0.7561462E-02  0.1201813E+00
          2   -1    0    0  501    0  0.00000000000E+00  0.00000000000E+00  0.50029731255E+03  0.50029731255E+03  0.00000000000E+00 0. -1.
         -2   -1    0    0    0  501 -0.00000000000E+00 -0.00000000000E+00 -0.45779616422E+02  0.45779616422E+02  0.00000000000E+00 0.  1.
         23    2    1    2    0    0  0.71677343572E+02 -0.84722258072E+02  0.26652514529E+03  0.31464014085E+03  0.12508901857E+03 0.  0.
          5    1    3    3  502    0 -0.22564170906E+02  0.13525688994E+02  0.75251809285E+02  0.79827271482E+02  0.41800000000E+01 0. -1.
         -5    1    3    3    0  502  0.94241514478E+02 -0.98247947066E+02  0.19127333601E+03  0.23481286937E+03  0.41800000000E+01 0. -1.
        -11    1    1    2    0    0  0.10911425348E+02  0.39187636197E+02  0.56779137533E+02  0.69846979125E+02  0.00000000000E+00 0.  1.
         11    1    1    2    0    0 -0.82588768920E+02  0.45534621875E+02  0.13121341330E+03  0.16158980900E+03  0.00000000000E+00 0. -1.
</event>
<event>
 7    1  0.6506388E-006  0.1983506E+03  0.7561462E-02  0.1151138E+00
          2   -1    0    0  501    0  0.00000000000E+00  0.00000000000E+00  0.10464751852E+03  0.10464751852E+03  0.00000000000E+00 0. -1.
         -2   -1    0    0    0  501 -0.00000000000E+00 -0.00000000000E+00 -0.43280329071E+03  0.43280329071E+03  0.00000000000E+00 0.  1.
         23    2    1    2    0    0  0.14802308020E+03  0.10134764214E+03 -0.14850449498E+03  0.26435058882E+03  0.12508186096E+03 0.  0.
          5    1    3    3  502    0 -0.18601953744E+02  0.30987923208E+02 -0.36666746002E+02  0.51654687399E+02  0.41800000000E+01 0.  1.
         -5    1    3    3    0  502  0.16662503395E+03  0.70359718931E+02 -0.11183774898E+03  0.21269590143E+03  0.41800000000E+01 0.  1.
        -11    1    1    2    0    0 -0.12756521461E+03 -0.87859685094E+02 -0.87824011288E+02  0.17805972369E+03  0.00000000000E+00 0. -1.
         11    1    1    2    0    0 -0.20457865598E+02 -0.13487957045E+02 -0.91827265914E+02  0.95040496712E+02  0.00000000000E+00 0.  1.
</event>
<event>
 7    1  0.6506388E-006  0.9658845E+02  0.7561462E-02  0.1287638E+00
         -2   -1    0    0    0  501 -0.00000000000E+00  0.00000000000E+00  0.24911438910E+02  0.24911438910E+02  0.00000000000E+00 0.  1.
          2   -1    0    0  501    0  0.00000000000E+00 -0.00000000000E+00 -0.53435720721E+03  0.53435720721E+03  0.00000000000E+00 0. -1.
         23    2    1    2    0    0  0.18307227529E+02  0.33993115448E+02 -0.31237639426E+03  0.33865937521E+03  0.12498189568E+03 0.  0.
          5    1    3    3  502    0  0.90147050107E+01  0.67835778990E+02 -0.28718980712E+03  0.29525991182E+03  0.41800000000E+01 0. -1.
         -5    1    3    3    0  502  0.92925225187E+01 -0.33842663542E+02 -0.25186587147E+02  0.43399463389E+02  0.41800000000E+01 0. -1.
        -11    1    1    2    0    0 -0.12920464871E+02  0.26003188976E+02 -0.25052330553E+02  0.38350013241E+02  0.00000000000E+00 0.  1.
         11    1    1    2    0    0 -0.53867626587E+01 -0.59996304424E+02 -0.17201704348E+03  0.18225925766E+03  0.00000000000E+00 0. -1.
</event>
<event>
 7    1  0.6506388E-006  0.1053993E+03  0.7561462E-02  0.1269335E+00
         -2   -1    0    0    0  501 -0.00000000000E+00  0.00000000000E+00  0.27899754722E+02  0.27899754722E+02  0.00000000000E+00 0.  1.
          2   -1    0    0  501    0  0.00000000000E+00 -0.00000000000E+00 -0.48157254475E+03  0.48157254475E+03  0.00000000000E+00 0. -1.
         23    2    1    2    0    0  0.36056185709E+02 -0.82447249353E+01 -0.21920111304E+03  0.25507594317E+03  0.12508630943E+03 0.  0.
          5    1    3    3  502    0  0.14449678406E+02 -0.64176107640E+02 -0.81432426690E+02  0.10476678154E+03  0.41800000000E+01 0.  1.
         -5    1    3    3    0  502  0.21606507303E+02  0.55931382705E+02 -0.13776868635E+03  0.15030916163E+03  0.41800000000E+01 0.  1.
        -11    1    1    2    0    0 -0.56019380224E+02  0.22372255499E+02 -0.93160862808E+02  0.11098484192E+03  0.00000000000E+00 0.  1.
         11    1    1    2    0    0  0.19963194515E+02 -0.14127530563E+02 -0.14131081417E+03  0.14341151438E+03  0.00000000000E+00 0. -1.
</event>
<event>
 7    1  0.6506388E-006  0.1086009E+03  0.7561462E-02  0.1263183E+00
          3   -1    0    0  501    0  0.00000000000E+00  0.00000000000E+00  0.13719263659E+03  0.13719263659E+03  0.00000000000E+00 0. -1.
         -3   -1    0    0    0  501 -0.00000000000E+00 -0.00000000000E+00 -0.11271545323E+03  0.11271545323E+03  0.00000000000E+00 0.  1.
         23    2    1    2    0    0 -0.21251086758E+02  0.51838643707E+02 -0.14831861449E+02  0.13786506819E+03  0.12509172332E+03 0.  0.
          5    1    3    3  502    0 -0.39598190139E+02  0.74274788865E+02 -0.45240018028E+02  0.95649843463E+02  0.41800000000E+01 0.  1.
         -5    1    3    3    0  502  0.18347103381E+02 -0.22436145159E+02  0.30408156578E+02  0.42215224725E+02  0.41800000000E+01 0.  1.
        -11    1    1    2    0    0  0.49125956512E+02 -0.53196096098E+01  0.27466596473E+02  0.56533810869E+02  0.00000000000E+00 0. -1.
         11    1    1    2    0    0 -0.27874869754E+02 -0.46519034097E+02  0.11842448334E+02  0.55509210764E+02  0.00000000000E+00 0.  1.
</event>
<event>
 7    1  0.6506388E-006  0.1298736E+03  0.7561462E-02  0.1227643E+00
          2   -1    0    0  501    0  0.00000000000E+00  0.00000000000E+00  0.65073041314E+03  0.65073041314E+03  0.00000000000E+00 0. -1.
         -2   -1    0    0    0  501 -0.00000000000E+00 -0.00000000000E+00 -0.44739836791E+02  0.44739836791E+02  0.00000000000E+00 0.  1.
         23    2    1    2    0    0 -0.52467665309E+02 -0.11504485855E+03  0.24884411436E+03  0.30587378691E+03  0.12508878801E+03 0.  0.
          5    1    3    3  502    0  0.66841522761E+01 -0.15379955131E+02 -0.11573783975E+02  0.20800139110E+02  0.41800000000E+01 0. -1.
         -5    1    3    3    0  502 -0.59151817585E+02 -0.99664903415E+02  0.26041789834E+03  0.28507364780E+03  0.41800000000E+01 0. -1.
        -11    1    1    2    0    0  0.32140763491E+02  0.66329214571E+02  0.31057935930E+03  0.31920546958E+03  0.00000000000E+00 0. -1.
         11    1    1    2    0    0  0.20326901818E+02  0.48715643975E+02  0.46567102688E+02  0.70390993445E+02  0.00000000000E+00 0.  1.
</event>
<event>
 7    1  0.6506388E-006  0.1143009E+03  0.7561462E-02  0.1252806E+00
         -2   -1    0    0    0  501 -0.00000000000E+00  0.00000000000E+00  0.73187547391E+02  0.73187547391E+02  0.00000000000E+00 0.  1.
          2   -1    0    0  501    0  0.00000000000E+00 -0.00000000000E+00 -0.24267065703E+03  0.24267065703E+03  0.00000000000E+00 0. -1.
         23    2    1    2    0    0  0.60948181112E+02 -0.39958027291E+02 -0.66142734124E+02  0.15916509013E+03  0.12508932773E+03 0.  0.
          5    1    3    3  502    0  0.53229420493E+02  0.38496135184E+02 -0.29531034714E+02  0.72144840712E+02  0.41800000000E+01 0.  1.
         -5    1    3    3    0  502  0.77187606185E+01 -0.78454162474E+02 -0.36611699410E+02  0.87020249417E+02  0.41800000000E+01 0.  1.
        -11    1    1    2    0    0 -0.64152901367E+02  0.25516293614E+02 -0.11745690479E+03  0.13624536864E+03  0.00000000000E+00 0. -1.
         11    1    1    2    0    0  0.32047202553E+01  0.14441733677E+02  0.14116529273E+02  0.20447745651E+02  0.00000000000E+00 0.  1.
</event>
<event>
 7    1  0.6506388E-006  0.1039663E+03  0.7561462E-02  0.1272170E+00
         -1   -1    0    0    0  501 -0.00000000000E+00  0.00000000000E+00  0.27839138900E+02  0.27839138900E+02  0.00000000000E+00 0.  1.
          1   -1    0    0  501    0  0.00000000000E+00 -0.00000000000E+00 -0.45130109635E+03  0.45130109635E+03  0.00000000000E+00 0. -1.
         23    2    1    2    0    0 -0.18233036556E+02  0.21662699768E+02 -0.21155194705E+03  0.24633988717E+03  0.12299348572E+03 0.  0.
          5    1    3    3  502    0 -0.61127915604E+01 -0.44152300815E+02 -0.14544745774E+03  0.15218156015E+03  0.41800000000E+01 0. -1.
         -5    1    3    3    0  502 -0.12120244996E+02  0.65815000583E+02 -0.66104489310E+02  0.94158327021E+02  0.41800000000E+01 0.  1.
        -11    1    1    2    0    0  0.49810098096E+02  0.10645236414E+02 -0.12102248098E+03  0.13130425672E+03  0.00000000000E+00 0.  1.
         11    1    1    2    0    0 -0.31577061540E+02 -0.32307936182E+02 -0.90887529422E+02  0.10149609135E+03  0.00000000000E+00 0. -1.
</event>
<event>
 7    1  0.6506388E-006  0.1246244E+03  0.7561462E-02  0.1235657E+00
         -2   -1    0    0    0  501 -0.00000000000E+00  0.00000000000E+00  0.66878366995E+02  0.66878366995E+02  0.00000000000E+00 0. -1.
          2   -1    0    0  501    0  0.00000000000E+00 -0.00000000000E+00 -0.30815800366E+03  0.30815800366E+03  0.00000000000E+00 0.  1.
         23    2    1    2    0    0  0.76132645212E+02 -0.30377609331E+02 -0.70656284673E+02  0.16540399667E+03  0.12508873944E+03 0.  0.
          5    1    3    3  502    0  0.95119877888E+02 -0.43938219541E+02 -0.16321311532E+02  0.10612358793E+03  0.41800000000E+01 0.  1.
         -5    1    3    3    0  502 -0.18987232676E+02  0.13560610209E+02 -0.54334973141E+02  0.59280408739E+02  0.41800000000E+01 0.  1.
        -11    1    1    2    0    0 -0.88986997440E+02  0.46226462977E+02 -0.13009726494E+03  0.16425854601E+03  0.00000000000E+00 0. -1.
         11    1    1    2    0    0  0.12854352228E+02 -0.15848853645E+02 -0.40526087048E+02  0.45373827969E+02  0.00000000000E+00 0.  1.
</event>
<event>
 7    1  0.6506388E-006  0.1304332E+03  0.7561462E-02  0.1226814E+00
          1   -1    0    0  501    0  0.00000000000E+00  0.00000000000E+00  0.66525730772E+03  0.66525730772E+03  0.00000000000E+00 0. -1.
         -1   -1    0    0    0  501 -0.00000000000E+00 -0.00000000000E+00 -0.33639203833E+02  0.33639203833E+02  0.00000000000E+00 0.  1.
         23    2    1    2    0    0  0.37102576771E+02  0.95656749684E+02  0.36455934555E+03  0.39884529503E+03  0.12508892029E+03 0.  0.
          5    1    3    3  502    0  0.28223902162E+02 -0.42643006779E+01  0.10298619781E+02  0.30631795294E+02  0.41800000000E+01 0. -1.
         -5    1    3    3    0  502  0.88786746085E+01  0.99921050362E+02  0.35426072577E+03  0.36821349974E+03  0.41800000000E+01 0. -1.
        -11    1    1    2    0    0 -0.59022241815E+02 -0.38677848480E+02  0.18322508452E+03  0.19634416872E+03  0.00000000000E+00 0.  1.
         11    1    1    2    0    0  0.21919665044E+02 -0.56978901204E+02  0.83833673817E+02  0.10370704780E+03  0.00000000000E+00 0. -1.
</event>
<event>
 7    1  0.6506388E-006  0.1013696E+03  0.7561462E-02  0.1277442E+00
         -2   -1    0    0    0  501 -0.00000000000E+00  0.00000000000E+00  0.16936474538E+03  0.16936474538E+03  0.00000000000E+00 0.  1.
          2   -1    0    0  501    0  0.00000000000E+00 -0.00000000000E+00 -0.74446240732E+02  0.74446240732E+02  0.00000000000E+00 0. -1.
         23    2    1    2    0    0  0.81143817297E+01 -0.58381129156E+01  0.86644138054E+02  0.15249689488E+03  0.12509264382E+03 0.  0.
          5    1    3    3  502    0  0.46477806413E+02 -0.44207569179E+02  0.21874178402E+02  0.67900277926E+02  0.41800000000E+01 0.  1.
         -5    1    3    3    0  502 -0.38363424683E+02  0.38369456263E+02  0.64769959652E+02  0.84596616958E+02  0.41800000000E+01 0.  1.
        -11    1    1    2    0    0  0.28393103202E+01 -0.38380099037E+02  0.21230769334E+02  0.43952693338E+02  0.00000000000E+00 0.  1.
         11    1    1    2    0    0 -0.10953692050E+02  0.44218211952E+02 -0.12956402744E+02  0.47361397887E+02  0.00000000000E+00 0. -1.
</event>
<event>
 7    1  0.6506388E-006  0.8168191E+02  0.7561462E-02  0.1324345E+00
         -3   -1    0    0    0  501 -0.00000000000E+00  0.00000000000E+00  0.13769193075E+03  0.13769193075E+03  0.00000000000E+00 0.  1.
          3   -1    0    0  501    0  0.00000000000E+00 -0.00000000000E+00 -0.11564136217E+03  0.11564136217E+03  0.00000000000E+00 0. -1.
         23    2    1    2    0    0  0.17746246732E+01  0.62980095273E+02  0.35262592264E+01  0.14010698094E+03  0.12509152614E+03 0.  0.
          5    1    3    3  502    0 -0.67018681418E+01  0.58030748023E+02 -0.55163908598E+02  0.80455030697E+02  0.41800000000E+01 0. -1.
         -5    1    3    3    0  502  0.84764928150E+01  0.49493472496E+01  0.58690167824E+02  0.59651950244E+02  0.41800000000E+01 0. -1.
        -11    1    1    2    0    0 -0.25344745517E+02 -0.65684501639E+02  0.40214991185E+02  0.81080548820E+02  0.00000000000E+00 0.  1.
         11    1    1    2    0    0  0.23570120844E+02  0.27044063669E+01 -0.21690681829E+02  0.32145763151E+02  0.00000000000E+00 0. -1.
</event>
<event>
 7    1  0.6506388E-006  0.1018459E+03  0.7561462E-02  0.1276462E+00
          1   -1    0    0  501    0  0.00000000000E+00  0.00000000000E+00  0.17201804029E+03  0.17201804029E+03  0.00000000000E+00 0.  1.
         -1   -1    0    0    0  501 -0.00000000000E+00 -0.00000000000E+00 -0.11012517494E+03  0.11012517494E+03  0.00000000000E+00 0. -1.
         23    2    1    2    0    0 -0.28726935628E+02  0.53154918653E+00 -0.47906882207E+02  0.13701110681E+03  0.12510577385E+03 0.  0.
          5    1    3    3  502    0  0.35754573199E+02 -0.38192807510E+02 -0.25923627368E+02  0.58537055837E+02  0.41800000000E+01 0.  1.
         -5    1    3    3    0  502 -0.64481508827E+02  0.38724356696E+02 -0.21983254839E+02  0.78474050969E+02  0.41800000000E+01 0.  1.
        -11    1    1    2    0    0  0.52017975035E+02  0.39115209195E+01  0.10964388668E+03  0.12142055678E+03  0.00000000000E+00 0.  1.
         11    1    1    2    0    0 -0.23291039407E+02 -0.44430701060E+01  0.15586087377E+00  0.23711551642E+02  0.00000000000E+00 0. -1.
</event>
<event>
 7    1  0.6506388E-006  0.1122690E+03  0.7561462E-02  0.1256425E+00
         -3   -1    0    0    0  501 -0.00000000000E+00  0.00000000000E+00  0.16456879924E+03  0.16456879924E+03  0.00000000000E+00 0.  1.
          3   -1    0    0  501    0  0.00000000000E+00 -0.00000000000E+00 -0.93151416153E+02  0.93151416153E+02  0.00000000000E+00 0. -1.
         23    2    1    2    0    0  0.58359946370E+02  0.19800728718E+02  0.82656036399E+01  0.13968957945E+03  0.12508759414E+03 0.  0.
          5    1    3    3  502    0  0.73441983009E+02  0.51419219276E+02  0.34049291355E+02  0.95992122703E+02  0.41800000000E+01 0.  1.
         -5    1    3    3    0  502 -0.15082036639E+02 -0.31618490558E+02 -0.25783687715E+02  0.43697456752E+02  0.41800000000E+01 0.  1.
        -11    1    1    2    0    0 -0.71461246135E+02 -0.34890719618E+02  0.47340671933E+02  0.92548426424E+02  0.00000000000E+00 0.  1.
         11    1    1    2    0    0  0.13101299765E+02  0.15089990900E+02  0.15811107512E+02  0.25482209513E+02  0.00000000000E+00 0. -1.
</event>
<event>
 7    1  0.6506388E-006  0.1542355E+03  0.7561462E-02  0.1195363E+00
         -1   -1    0    0    0  501 -0.00000000000E+00  0.00000000000E+00  0.87937400690E+02  0.87937400690E+02  0.00000000000E+00 0.  1.
          1   -1    0    0  501    0  0.00000000000E+00 -0.00000000000E+00 -0.27945323668E+03  0.27945323668E+03  0.00000000000E+00 0. -1.
         23    2    1    2    0    0  0.10695797955E+03  0.23999559868E+02 -0.10228108224E+03  0.19525644912E+03  0.12509065863E+03 0.  0.
          5    1    3    3  502    0  0.12884156456E+03  0.40819115206E+02 -0.68958724845E+02  0.15178645215E+03  0.41800000000E+01 0. -1.
         -5    1    3    3    0  502 -0.21883585006E+02 -0.16819555338E+02 -0.33322357392E+02  0.43469996971E+02  0.41800000000E+01 0. -1.
        -11    1    1    2    0    0 -0.10357581858E+03  0.16340119463E+02 -0.51617350400E+02  0.11687301041E+03  0.00000000000E+00 0. -1.
         11    1    1    2    0    0 -0.33821609688E+01 -0.40339679331E+02 -0.37617403354E+02  0.55261177842E+02  0.00000000000E+00 0.  1.
</event>
<event>
 7    1  0.6506388E-006  0.1209586E+03  0.7561462E-02  0.1241524E+00
          2   -1    0    0  501    0  0.00000000000E+00  0.00000000000E+00  0.51359896572E+03  0.51359896572E+03  0.00000000000E+00 0. -1.
         -2   -1    0    0    0  501 -0.00000000000E+00 -0.00000000000E+00 -0.29296529107E+02  0.29296529107E+02  0.00000000000E+00 0.  1.
         23    2    1    2    0    0 -0.34086626681E+02 -0.25553241876E+02  0.22095477840E+03  0.25745497285E+03  0.12508869916E+03 0.  0.
          5    1    3    3  502    0  0.47163378992E+02 -0.17729716101E+01  0.79698234202E+02  0.92718976921E+02  0.41800000000E+01 0.  1.
         -5    1    3    3    0  502 -0.81250005673E+02 -0.23780270266E+02  0.14125654420E+03  0.16473599593E+03  0.41800000000E+01 0.  1.
        -11    1    1    2    0    0 -0.54157197454E+01 -0.36125881820E+02  0.77393503748E+02  0.85581328455E+02  0.00000000000E+00 0. -1.
         11    1    1    2    0    0  0.39502346426E+02  0.61679123696E+02  0.18595415447E+03  0.19985919353E+03  0.00000000000E+00 0.  1.
</event>
<event>
 7    1  0.6506388E-006  0.1602824E+03  0.7561462E-02  0.1188378E+00
         -1   -1    0    0    0  501 -0.00000000000E+00  0.00000000000E+00  0.82160071827E+02  0.82160071827E+02  0.00000000000E+00 0.  1.
          1   -1    0    0  501    0  0.00000000000E+00 -0.00000000000E+00 -0.36037570206E+03  0.36037570206E+03  0.00000000000E+00 0. -1.
         23    2    1    2    0    0  0.77194125324E+02 -0.10571848381E+03 -0.15617969793E+03  0.23911343924E+03  0.12509119863E+03 0.  0.
          5    1    3    3  502    0 -0.93011977570E+01 -0.72792752582E+02 -0.23266073725E+02  0.77097857913E+02  0.41800000000E+01 0.  1.
         -5    1    3    3    0  502  0.86495323081E+02 -0.32925731226E+02 -0.13291362421E+03  0.16201558132E+03  0.41800000000E+01 0.  1.
        -11    1    1    2    0    0 -0.26882656518E+02  0.10026994431E+03 -0.11030950869E+03  0.15147582864E+03  0.00000000000E+00 0. -1.
         11    1    1    2    0    0 -0.50311468806E+02  0.54485394992E+01 -0.11726423602E+02  0.51946506010E+02  0.00000000000E+00 0.  1.
</event>
<event>
 7    1  0.6506388E-006  0.1264802E+03  0.7561462E-02  0.1232774E+00
          1   -1    0    0  501    0  0.00000000000E+00  0.00000000000E+00  0.51657198644E+03  0.51657198644E+03  0.00000000000E+00 0. -1.
         -1   -1    0    0    0  501 -0.00000000000E+00 -0.00000000000E+00 -0.43329537831E+02  0.43329537831E+02  0.00000000000E+00 0.  1.
         23    2    1    2    0    0  0.90164602547E+02 -0.15746238927E+02  0.16286063906E+03  0.22483192781E+03  0.12509279922E+03 0.  0.
          5    1    3    3  502    0  0.99284219652E+02  0.21966914602E+02  0.68382388363E+02  0.12261127618E+03  0.41800000000E+01 0.  1.
         -5    1    3    3    0  502 -0.91196171048E+01 -0.37713153529E+02  0.94478250693E+02  0.10222065163E+03  0.41800000000E+01 0.  1.
        -11    1    1    2    0    0 -0.52613046274E+02 -0.23698013025E+02  0.23556934986E+03  0.24253380600E+03  0.00000000000E+00 0. -1.
         11    1    1    2    0    0 -0.37551556273E+02  0.39444251952E+02  0.74812459693E+02  0.92535790459E+02  0.00000000000E+00 0.  1.
</event>
<event>
 7    1  0.6506388E-006  0.1291883E+03  0.7561462E-02  0.1228665E+00
         -1   -1    0    0    0  501 -0.00000000000E+00  0.00000000000E+00  0.21481698189E+03  0.21481698189E+03  0.00000000000E+00 0.  1.
          1   -1    0    0  501    0  0.00000000000E+00 -0.00000000000E+00 -0.13061485954E+03  0.13061485954E+03  0.00000000000E+00 0. -1.
         23    2    1    2    0    0 -0.32266118180E+02  0.94252238959E+02  0.11602030859E+03  0.19756514749E+03  0.12508672418E+03 0.  0.
          5    1    3    3  502    0 -0.15157934345E+02 -0.29671747160E+02  0.34764115396E+02  0.48334166719E+02  0.41800000000E+01 0. -1.
         -5    1    3    3    0  502 -0.17108183836E+02  0.12392398612E+03  0.81256193193E+02  0.14923098077E+03  0.41800000000E+01 0. -1.
        -11    1    1    2    0    0  0.44152913476E+01 -0.13951925324E+02 -0.57297498261E+02  0.59136742596E+02  0.00000000000E+00 0. -1.
         11    1    1    2    0    0  0.27850826833E+02 -0.80300313635E+02  0.25479312017E+02  0.88729951347E+02  0.00000000000E+00 0.  1.
</event>
<event>
 7    1  0.6506388E-006  0.1062498E+03  0.7561462E-02  0.1267677E+00
         -1   -1    0    0    0  501 -0.00000000000E+00  0.00000000000E+00  0.37731800624E+03  0.37731800624E+03  0.00000000000E+00 0.  1.
          1   -1    0    0  501    0  0.00000000000E+00 -0.00000000000E+00 -0.47295124138E+02  0.47295124138E+02  0.00000000000E+00 0. -1.
         23    2    1    2    0    0  0.78753051292E+02  0.24942804135E+01  0.18562902705E+03  0.23730264112E+03  0.12508454451E+03 0.  0.
          5    1    3    3  502    0  0.66541074242E+02 -0.41675486749E+02  0.47848896573E+02  0.92041023790E+02  0.41800000000E+01 0.  1.
         -5    1    3    3    0  502  0.12211977049E+02  0.44169767163E+02  0.13778013048E+03  0.14526161733E+03  0.41800000000E+01 0.  1.
        -11    1    1    2    0    0 -0.49826076672E+02 -0.20395254585E+02  0.14351496799E+03  0.15328127858E+03  0.00000000000E+00 0.  1.
         11    1    1    2    0    0 -0.28926974619E+02  0.17900974172E+02  0.87888706152E+00  0.34029210678E+02  0.00000000000E+00 0. -1.
</event>
<event>
 7    1  0.6506388E-006  0.1106269E+03  0.7561462E-02  0.1259413E+00
         -2   -1    0    0    0  501 -0.00000000000E+00  0.00000000000E+00  0.11685735398E+03  0.11685735398E+03  0.00000000000E+00 0.  1.
          2   -1    0    0  501    0  0.00000000000E+00 -0.00000000000E+00 -0.13223599960E+03  0.13223599960E+03  0.00000000000E+00 0. -1.
         23    2    1    2    0    0  0.23292023764E+02 -0.91251531680E+01  0.45524994119E+02  0.13545000509E+03  0.12509353299E+03 0.  0.
          5    1    3    3  502    0  0.73055755328E+02 -0.18027825796E+02  0.37202547153E+02  0.84045510315E+02  0.41800000000E+01 0.  1.
         -5    1    3    3    0  502 -0.49763731564E+02  0.89026726285E+01  0.83224469660E+01  0.51404494771E+02  0.41800000000E+01 0.  1.
        -11    1    1    2    0    0  0.21821859074E+02  0.36404569667E+02 -0.34412254602E+02  0.54641463129E+02  0.00000000000E+00 0.  1.
         11    1    1    2    0    0 -0.45113882838E+02 -0.27279416500E+02 -0.26491385136E+02  0.59001885357E+02  0.00000000000E+00 0. -1.
</event>
<event>
 7    1  0.6506388E-006  0.1258724E+03  0.7561462E-02  0.1233712E+00
         -1   -1    0    0    0  501 -0.00000000000E+00  0.00000000000E+00  0.41911348103E+02  0.41911348103E+02  0.00000000000E+00 0.  1.
          1   -1    0    0  501    0  0.00000000000E+00 -0.00000000000E+00 -0.39444643414E+03  0.39444643414E+03  0.00000000000E+00 0. -1.
         23    2    1    2    0    0  0.67559597397E+02  0.42626196256E+01 -0.21904681166E+03  0.26117562864E+03  0.12509490067E+03 0.  0.
          5    1    3    3  502    0 -0.10160075515E+02  0.49417960740E+02 -0.98506061348E+02  0.11075323246E+03  0.41800000000E+01 0.  1.
         -5    1    3    3    0  502  0.77719672911E+02 -0.45155341114E+02 -0.12054075031E+03  0.15042239618E+03  0.41800000000E+01 0.  1.
        -11    1    1    2    0    0 -0.46318847131E+01  0.36088402095E+02 -0.28091696362E+02  0.45967059143E+02  0.00000000000E+00 0.  1.
         11    1    1    2    0    0 -0.62927712683E+02 -0.40351021720E+02 -0.10539657802E+03  0.12921509446E+03  0.00000000000E+00 0. -1.
</event>
<event>
 7    1  0.6506388E-006  0.1365970E+03  0.7561462E-02  0.1217983E+00
          2   -1    0    0  501    0  0.00000000000E+00  0.00000000000E+00  0.15675386759E+03  0.15675386759E+03  0.00000000000E+00 0.  1.
         -2   -1    0    0    0  501 -0.00000000000E+00 -0.00000000000E+00 -0.33346426595E+03  0.33346426595E+03  0.00000000000E+00 0. -1.
         23    2    1    2    0    0 -0.54187989941E+01  0.96823888091E+02 -0.27982075473E+03  0.32148331937E+03  0.12509053189E+03 0.  0.
          5    1    3    3  502    0 -0.31064930780E+02 -0.85769653330E+01 -0.14394324277E+03  0.14756599811E+03  0.41800000000E+01 0. -1.
         -5    1    3    3    0  502  0.25646131786E+02  0.10540085342E+03 -0.13587751196E+03  0.17391732126E+03  0.41800000000E+01 0. -1.
        -11    1    1    2    0    0  0.31426525530E+02 -0.10102074929E+03  0.72015798674E+02  0.12798083276E+03  0.00000000000E+00 0. -1.
         11    1    1    2    0    0 -0.26007726536E+02  0.41968611998E+01  0.31094557696E+02  0.40753981423E+02  0.00000000000E+00 0.  1.
</event>
<event>
 7    1  0.6506388E-006  0.1081931E+03  0.7561462E-02  0.1263953E+00
          2   -1    0    0  501    0  0.00000000000E+00  0.00000000000E+00  0.31336375956E+03  0.31336375956E+03  0.00000000000E+00 0. -1.
         -2   -1    0    0    0  501 -0.00000000000E+00 -0.00000000000E+00 -0.58033517603E+02  0.58033517603E+02  0.00000000000E+00 0.  1.
         23    2    1    2    0    0 -0.49088840461E+01  0.57460031034E+02  0.64491292157E+02  0.15209491679E+03  0.12509190478E+03 0.  0.
          5    1    3    3  502    0 -0.42942577280E+02  0.49213209285E+01 -0.18057349189E+02  0.47030039367E+02  0.41800000000E+01 0.  1.
         -5    1    3    3    0  502  0.38033693234E+02  0.52538710105E+02  0.82548641347E+02  0.10506487743E+03  0.41800000000E+01 0.  1.
        -11    1    1    2    0    0  0.27659870304E+01  0.25163280791E+02  0.48407150067E+02  0.54626857516E+02  0.00000000000E+00 0.  1.
         11    1    1    2    0    0  0.21428970157E+01 -0.82623311825E+02  0.14243179973E+03  0.16467550285E+03  0.00000000000E+00 0. -1.
</event>
<event>
 7    1  0.6506388E-006  0.8953199E+02  0.7561462E-02  0.1303989E+00
         -2   -1    0    0    0  501 -0.00000000000E+00  0.00000000000E+00  0.26924803974E+03  0.26924803974E+03  0.00000000000E+00 0.  1.
          2   -1    0    0  501    0  0.00000000000E+00 -0.00000000000E+00 -0.10265669776E+03  0.10265669776E+03  0.00000000000E+00 0. -1.
         23    2    1    2    0    0 -0.51896562282E+02  0.18791453082E+02  0.21241600716E+03  0.25321219425E+03  0.12629126389E+03 0.  0.
          5    1    3    3  502    0  0.43229678617E+01  0.40954119830E+02  0.17962272843E+03  0.18433047754E+03  0.41800000000E+01 0. -1.
         -5    1    3    3    0  502 -0.56219530144E+02 -0.22162666748E+02  0.32793278732E+02  0.68881716710E+02  0.41800000000E+01 0.  1.
        -11    1    1    2    0    0  0.17588800927E+02  0.19110673023E+02  0.21806351658E+02  0.33913134831E+02  0.00000000000E+00 0.  1.
         11    1    1    2    0    0  0.34307761355E+02 -0.37902126106E+02 -0.67631016835E+02  0.84779408412E+02  0.00000000000E+00 0. -1.
</event>
<event>
 7    1  0.6506388E-006  0.2113314E+03  0.7561462E-02  0.1140516E+00
          2   -1    0    0  501    0  0.00000000000E+00  0.00000000000E+00  0.36671527718E+03  0.36671527718E+03  0.00000000000E+00 0. -1.
         -2   -1    0    0    0  501 -0.00000000000E+00 -0.00000000000E+00 -0.13465942263E+03  0.13465942263E+03  0.00000000000E+00 0.  1.
         23    2    1    2    0    0 -0.80158876789E+02  0.16725298202E+03  0.61336479349E+02  0.23197288131E+03  0.12510095299E+03 0.  0.
          5    1    3    3  502    0  0.37415889771E+01 -0.15226573163E+02 -0.96890843317E+01  0.18899703002E+02  0.41800000000E+01 0. -1.
         -5    1    3    3    0  502 -0.83900465766E+02  0.18247955519E+03  0.71025563681E+02  0.21307317830E+03  0.41800000000E+01 0. -1.
        -11    1    1    2    0    0  0.57736984673E+02 -0.27397971982E+02  0.33340084761E+02  0.72081686438E+02  0.00000000000E+00 0.  1.
         11    1    1    2    0    0  0.22421892116E+02 -0.13985501004E+03  0.13737929043E+03  0.19732013207E+03  0.00000000000E+00 0. -1.
</event>
<event>
 7    1  0.6506388E-006  0.1027795E+03  0.7561462E-02  0.1274557E+00
          4   -1    0    0  501    0  0.00000000000E+00  0.00000000000E+00  0.47930982034E+02  0.47930982034E+02  0.00000000000E+00 0. -1.
         -4   -1    0    0    0  501 -0.00000000000E+00 -0.00000000000E+00 -0.30639023101E+03  0.30639023101E+03  0.00000000000E+00 0.  1.
         23    2    1    2    0    0 -0.33072312246E+02  0.41632525651E+02 -0.16381018422E+03  0.21286350177E+03  0.12510015549E+03 0.  0.
          5    1    3    3  502    0 -0.35745491973E+02 -0.28207512888E+02 -0.14529838298E+02  0.47979084826E+02  0.41800000000E+01 0.  1.
         -5    1    3    3    0  502  0.26731797272E+01  0.69840038539E+02 -0.14928034592E+03  0.16488441694E+03  0.41800000000E+01 0.  1.
        -11    1    1    2    0    0  0.43279000687E+02  0.36174499685E+01 -0.82929461863E+02  0.93613318976E+02  0.00000000000E+00 0.  1.
         11    1    1    2    0    0 -0.10206688441E+02 -0.45249975619E+02 -0.11719602897E+02  0.47844392300E+02  0.00000000000E+00 0. -1.
</event>
<event>
 6    1  0.6506388E-006  0.1187320E+03  0.7561462E-02  0.1245204E+00
         -2   -1    0    0    0  501 -0.00000000000E+00  0.00000000000E+00  0.45902562358E+02  0.45902562358E+02  0.00000000000E+00 0.  1.
          2   -1    0    0  501    0  0.00000000000E+00 -0.00000000000E+00 -0.34786917377E+03  0.34786917377E+03  0.00000000000E+00 0. -1.
          5    1    1    2  502    0 -0.47815612643E+02  0.77685535091E+02 -0.68600486668E+02  0.11421416001E+03  0.41800000000E+01 0. -1.
         -5    1    1    2    0  502  0.34685984951E+02 -0.46548485271E+02 -0.52640791357E+02  0.78475501576E+02  0.41800000000E+01 0.  1.
        -11    1    1    2    0    0 -0.55646107753E+01  0.26642417390E+02 -0.62592198207E+02  0.68253692749E+02  0.00000000000E+00 0. -1.
         11    1    1    2    0    0  0.18694238468E+02 -0.57779467211E+02 -0.11813313519E+03  0.13282838180E+03  0.00000000000E+00 0.  1.
</event>
<event>
 7    1  0.6506388E-006  0.8988515E+02  0.7561462E-02  0.1303130E+00
         -1   -1    0    0    0  501 -0.00000000000E+00  0.00000000000E+00  0.19480343998E+02  0.19480343998E+02  0.00000000000E+00 0.  1.
          1   -1    0    0  501    0  0.00000000000E+00 -0.00000000000E+00 -0.60936862832E+03  0.60936862832E+03  0.00000000000E+00 0. -1.
         23    2    1    2    0    0 -0.10217117569E+02 -0.89008967555E+01 -0.32948058542E+03  0.35268730759E+03  0.12508902956E+03 0.  0.
          5    1    3    3  502    0 -0.46821682586E+02  0.16943642586E+02 -0.54067105739E+02  0.73621201479E+02  0.41800000000E+01 0.  1.
         -5    1    3    3    0  502  0.36604565016E+02 -0.25844539341E+02 -0.27541347968E+03  0.27906610611E+03  0.41800000000E+01 0.  1.
        -11    1    1    2    0    0 -0.18525976550E+02 -0.30705609372E+02 -0.16594135670E+03  0.16977214176E+03  0.00000000000E+00 0. -1.
         11    1    1    2    0    0  0.28743094120E+02  0.39606506127E+02 -0.94466342207E+02  0.10638952297E+03  0.00000000000E+00 0.  1.
</event>
<event>
 7    1  0.6506388E-006  0.7799621E+02  0.7561462E-02  0.1334836E+00
          2   -1    0    0  501    0  0.00000000000E+00  0.00000000000E+00  0.63191111533E+03  0.63191111533E+03  0.00000000000E+00 0. -1.
         -2   -1    0    0    0  501 -0.00000000000E+00 -0.00000000000E+00 -0.17062321094E+02  0.17062321094E+02  0.00000000000E+00 0.  1.
         23    2    1    2    0    0  0.14926951533E+02 -0.24789264216E+02  0.38357243154E+03  0.40166566237E+03  0.11562946245E+03 0.  0.
          5    1    3    3  502    0 -0.26663997192E+00 -0.44764020512E+02  0.50463123335E+02  0.67586151288E+02  0.41800000000E+01 0. -1.
         -5    1    3    3    0  502  0.15193591505E+02  0.19974756296E+02  0.33310930820E+03  0.33407951108E+03  0.41800000000E+01 0.  1.
        -11    1    1    2    0    0 -0.12604044639E+01 -0.29540975663E+02  0.56455232680E+02  0.63729515607E+02  0.00000000000E+00 0. -1.
         11    1    1    2    0    0 -0.13666547069E+02  0.54330239880E+02  0.17482113002E+03  0.18357825845E+03  0.00000000000E+00 0.  1.
</event>
<event>
 7    1  0.6506388E-006  0.2324869E+03  0.7561462E-02  0.1124902E+00
          1   -1    0    0  501    0  0.00000000000E+00  0.00000000000E+00  0.62815855248E+03  0.62815855248E+03  0.00000000000E+00 0. -1.
         -1   -1    0    0    0  501 -0.00000000000E+00 -0.00000000000E+00 -0.11024880541E+03  0.11024880541E+03  0.00000000000E+00 0.  1.
         23    2    1    2    0    0  0.36550781384E+02 -0.21805706927E+03  0.12294682260E+03  0.27676712854E+03  0.11224650183E+03 0.  0.
          5    1    3    3  502    0 -0.54548661965E+01 -0.11045493522E+03  0.11697017730E+03  0.16102652904E+03  0.41800000000E+01 0. -1.
         -5    1    3    3    0  502  0.42005647580E+02 -0.10760213406E+03  0.59766453010E+01  0.11574059950E+03  0.41800000000E+01 0.  1.
        -11    1    1    2    0    0 -0.52371097259E+02  0.59054610487E+02  0.12041316798E+03  0.14397746307E+03  0.00000000000E+00 0. -1.
         11    1    1    2    0    0  0.15820315875E+02  0.15900245879E+03  0.27454975649E+03  0.31766276628E+03  0.00000000000E+00 0.  1.
</event>
<event>
 7    1  0.6506388E-006  0.1015697E+03  0.7561462E-02  0.1277029E+00
          1   -1    0    0  501    0  0.00000000000E+00  0.00000000000E+00  0.10389172834E+03  0.10389172834E+03  0.00000000000E+00 0. -1.
         -1   -1    0    0    0  501 -0.00000000000E+00 -0.00000000000E+00 -0.22872088984E+03  0.22872088984E+03  0.00000000000E+00 0.  1.
         23    2    1    2    0    0 -0.14301573379E+02  0.61787074573E+02 -0.16305755315E+03  0.21507627738E+03  0.12509141404E+03 0.  0.
          5    1    3    3  502    0  0.39554442516E+02 -0.17640800425E+02 -0.41305784336E+02  0.59994932969E+02  0.41800000000E+01 0.  1.
         -5    1    3    3    0  502 -0.53856015895E+02  0.79427874998E+02 -0.12175176881E+03  0.15508134441E+03  0.41800000000E+01 0.  1.
        -11    1    1    2    0    0  0.51000677670E+01 -0.13830102022E+02 -0.30121504572E+02  0.33534869178E+02  0.00000000000E+00 0.  1.
         11    1    1    2    0    0  0.92015056122E+01 -0.47956972552E+02  0.68349896214E+02  0.84001471620E+02  0.00000000000E+00 0. -1.
</event>
<event>
 7    1  0.6506388E-006  0.1229773E+03  0.7561462E-02  0.1238265E+00
         -3   -1    0    0    0  501 -0.00000000000E+00  0.00000000000E+00  0.52275796312E+02  0.52275796312E+02  0.00000000000E+00 0.  1.
          3   -1    0    0  501    0  0.00000000000E+00 -0.00000000000E+00 -0.33223099694E+03  0.33223099694E+03  0.00000000000E+00 0. -1.
         23    2    1    2    0    0  0.75733886208E+02  0.12865639165E+00 -0.16223361223E+03  0.21840992865E+03  0.12509002327E+03 0.  0.
          5    1    3    3  502    0  0.59232268832E+02 -0.53408534339E+02 -0.53824252516E+02  0.96309167633E+02  0.41800000000E+01 0.  1.
         -5    1    3    3    0  502  0.16501617376E+02  0.53537190731E+02 -0.10840935971E+03  0.12210076101E+03  0.41800000000E+01 0.  1.
        -11    1    1    2    0    0 -0.74988391718E+02 -0.29462123695E+02 -0.57110815663E+02  0.98756877688E+02  0.00000000000E+00 0.  1.
         11    1    1    2    0    0 -0.74549448992E+00  0.29333467303E+02 -0.60610772741E+02  0.67339986920E+02  0.00000000000E+00 0. -1.
</event>
<event>
 7    1  0.6506388E-006  0.1619735E+03  0.7561462E-02  0.1186487E+00
          2   -1    0    0  501    0  0.00000000000E+00  0.00000000000E+00  0.27613429953E+03  0.27613429953E+03  0.00000000000E+00 0. -1.
         -2   -1    0    0    0  501 -0.00000000000E+00 -0.00000000000E+00 -0.11133959429E+03  0.11133959429E+03  0.00000000000E+00 0.  1.
         23    2    1    2    0    0  0.11967029922E+03  0.68332663548E+02  0.86891624133E+02  0.20539748327E+03  0.12509052069E+03 0.  0.
          5    1    3    3  502    0  0.49374264945E+02 -0.35137627788E+02  0.23876277581E+02  0.65268828368E+02  0.41800000000E+01 0. -1.
         -5    1    3    3    0  502  0.70296034275E+02  0.10347029134E+03  0.63015346552E+02  0.14012865490E+03  0.41800000000E+01 0. -1.
        -11    1    1    2    0    0 -0.46359392290E+02 -0.21978899227E+02 -0.16484067896E+02  0.53888679323E+02  0.00000000000E+00 0.  1.
         11    1    1    2    0    0 -0.73310906929E+02 -0.46353764322E+02  0.94387148995E+02  0.12818773123E+03  0.00000000000E+00 0. -1.
</event>
<event>
 7    1  0.6506388E-006  0.1162528E+03  0.7561462E-02  0.1249410E+00
         -3   -1    0    0    0  501 -0.00000000000E+00  0.00000000000E+00  0.30750508842E+03  0.30750508842E+03  0.00000000000E+00 0.  1.
          3   -1    0    0  501    0  0.00000000000E+00 -0.00000000000E+00 -0.76662268204E+02  0.76662268204E+02  0.00000000000E+00 0. -1.
         23    2    1    2    0    0 -0.54105205016E+02 -0.15432044021E+02  0.24179655231E+03  0.27798853368E+03  0.12508609417E+03 0.  0.
          5    1    3    3  502    0  0.76202384669E+00 -0.63682736536E+02  0.10621787674E+03  0.12391844638E+03  0.41800000000E+01 0.  1.
         -5    1    3    3    0  502 -0.54867228863E+02  0.48250692515E+02  0.13557867557E+03  0.15407008730E+03  0.41800000000E+01 0.  1.
        -11    1    1    2    0    0  0.10928992778E+02  0.42935375126E+02  0.17470852462E+02  0.47624783528E+02  0.00000000000E+00 0. -1.
         11    1    1    2    0    0  0.43176212238E+02 -0.27503331104E+02 -0.28424584557E+02  0.58554039419E+02  0.00000000000E+00 0.  1.
</event>
<event>
 7    1  0.6506388E-006  0.1417651E+03  0.7561462E-02  0.1210973E+00
          3   -1    0    0  501    0  0.00000000000E+00  0.00000000000E+00  0.22651285936E+02  0.22651285936E+02  0.00000000000E+00 0. -1.
         -3   -1    0    0    0  501 -0.00000000000E+00 -0.00000000000E+00 -0.10324449282E+04  0.10324449282E+04  0.00000000000E+00 0.  1.
         23    2    1    2    0    0  0.53199241859E+02  0.89461886136E+02 -0.58399025461E+03  0.60623949934E+03  0.12509246451E+03 0.  0.
          5    1    3    3  502    0  0.69778679924E+01 -0.24204005602E+02 -0.23301020324E+03  0.23440510179E+03  0.41800000000E+01 0. -1.
         -5    1    3    3    0  502  0.46221373867E+02  0.11366589174E+03 -0.35098005137E+03  0.37183439755E+03  0.41800000000E+01 0. -1.
        -11    1    1    2    0    0  0.18655153454E+02  0.21638491045E+01 -0.23730658344E+02  0.30262867325E+02  0.00000000000E+00 0. -1.
         11    1    1    2    0    0 -0.71854395313E+02 -0.91625735240E+02 -0.40207272931E+03  0.41859384747E+03  0.00000000000E+00 0.  1.
</event>
<event>
 7    1  0.6506388E-006  0.2261294E+03  0.7561462E-02  0.1129394E+00
          3   -1    0    0  501    0  0.00000000000E+00  0.00000000000E+00  0.36558198884E+02  0.36558198884E+02  0.00000000000E+00 0. -1.
         -3   -1    0    0    0  501 -0.00000000000E+00 -0.00000000000E+00 -0.15310056761E+04  0.15310056761E+04  0.00000000000E+00 0.  1.
         23    2    1    2    0    0 -0.10340059349E+03  0.17955373511E+03 -0.88762436746E+03  0.92003018989E+03  0.12508919247E+03 0.  0.
          5    1    3    3  502    0 -0.64643909332E+02  0.91040451858E+01 -0.29405281549E+03  0.30124118137E+03  0.41800000000E+01 0.  1.
         -5    1    3    3    0  502 -0.38756684161E+02  0.17044968993E+03 -0.59357155197E+03  0.61878900852E+03  0.41800000000E+01 0.  1.
        -11    1    1    2    0    0  0.85672104223E+02 -0.17307391778E+03 -0.59428043346E+03  0.62487080589E+03  0.00000000000E+00 0.  1.
         11    1    1    2    0    0  0.17728489270E+02 -0.64798173362E+01 -0.12542676258E+02  0.22662879169E+02  0.00000000000E+00 0. -1.
</event>
<event>
 7    1  0.6506388E-006  0.7034774E+02  0.7561462E-02  0.1358915E+00
         -1   -1    0    0    0  501 -0.00000000000E+00  0.00000000000E+00  0.17155495370E+03  0.17155495370E+03  0.00000000000E+00 0.  1.
          1   -1    0    0  501    0  0.00000000000E+00 -0.00000000000E+00 -0.90756481501E+02  0.90756481501E+02  0.00000000000E+00 0. -1.
         23    2    1    2    0    0 -0.54454309918E+02 -0.64135852574E+01  0.75793469056E+02  0.15619992644E+03  0.12508941251E+03 0.  0.
          5    1    3    3  502    0 -0.43190897306E+02 -0.49450872463E+01 -0.27885545713E+02  0.51816826974E+02  0.41800000000E+01 0.  1.
         -5    1    3    3    0  502 -0.11263412613E+02 -0.14684980111E+01  0.10367901477E+03  0.10438309946E+03  0.41800000000E+01 0.  1.
        -11    1    1    2    0    0  0.12692853640E+02 -0.28040051119E+02 -0.28909343845E+02  0.42226806200E+02  0.00000000000E+00 0. -1.
         11    1    1    2    0    0  0.41761456278E+02  0.34453636376E+02  0.33914346991E+02  0.63884702565E+02  0.00000000000E+00 0.  1.
</event>
<event>
 7    1  0.6506388E-006  0.2240575E+03  0.7561462E-02  0.1130894E+00
         -2   -1    0    0    0  501 -0.00000000000E+00  0.00000000000E+00  0.50427061812E+02  0.50427061812E+02  0.00000000000E+00 0.  1.
          2   -1    0    0  501    0  0.00000000000E+00 -0.00000000000E+00 -0.11814962847E+04  0.11814962847E+04  0.00000000000E+00 0. -1.
         23    2    1    2    0    0 -0.19943252547E+03  0.70292112641E+02 -0.71686556461E+03  0.75779758563E+03  0.12508648910E+03 0.  0.
          5    1    3    3  502    0 -0.20922196094E+03  0.76376703257E+02 -0.59529999369E+03  0.63561528036E+03  0.41800000000E+01 0. -1.
         -5    1    3    3    0  502  0.97894354651E+01 -0.60845906158E+01 -0.12156557092E+03  0.12218230528E+03  0.41800000000E+01 0. -1.
        -11    1    1    2    0    0  0.61389501689E+02 -0.89845544608E+01 -0.21716668111E+03  0.22585561875E+03  0.00000000000E+00 0. -1.
         11    1    1    2    0    0  0.13804302378E+03 -0.61307558180E+02 -0.19703697722E+03  0.24827014217E+03  0.00000000000E+00 0.  1.
</event>
<event>
 7    1  0.6506388E-006  0.1043170E+03  0.7561462E-02  0.1271471E+00
         -2   -1    0    0    0  501 -0.00000000000E+00  0.00000000000E+00  0.43537024760E+02  0.43537024760E+02  0.00000000000E+00 0.  1.
          2   -1    0    0  501    0  0.00000000000E+00 -0.00000000000E+00 -0.40858903348E+03  0.40858903348E+03  0.00000000000E+00 0. -1.
         23    2    1    2    0    0 -0.18905460100E+02 -0.51021458448E+02 -0.10719889466E+03  0.17349257097E+03  0.12508982181E+03 0.  0.
          5    1    3    3  502    0 -0.23005165593E+02 -0.92027620439E+02 -0.72747774044E+02  0.11961618451E+03  0.41800000000E+01 0.  1.
         -5    1    3    3    0  502  0.40997054928E+01  0.41006161992E+02 -0.34451120617E+02  0.53876386462E+02  0.41800000000E+01 0.  1.
        -11    1    1    2    0    0  0.39179761668E+01 -0.93070085483E+01  0.29534990104E+01  0.10521126450E+02  0.00000000000E+00 0.  1.
         11    1    1    2    0    0  0.14987483934E+02  0.60328466996E+02 -0.26080661307E+03  0.26811236083E+03  0.00000000000E+00 0. -1.
</event>
<event>
 7    1  0.6506388E-006  0.1529739E+03  0.7561462E-02  0.1196866E+00
          1   -1    0    0  501    0  0.00000000000E+00  0.00000000000E+00  0.10033429404E+04  0.10033429404E+04  0.00000000000E+00 0. -1.
         -1   -1    0    0    0  501 -0.00000000000E+00 -0.00000000000E+00 -0.26448008459E+02  0.26448008459E+02  0.00000000000E+00 0.  1.
         23    2    1    2    0    0  0.30155675845E+02  0.11578997862E+03  0.46708563421E+03  0.49813146218E+03  0.12509708227E+03 0.  0.
          5    1    3    3  502    0  0.76993919670E+02  0.51071691388E+02  0.22930273354E+03  0.24725209268E+03  0.41800000000E+01 0. -1.
         -5    1    3    3    0  502 -0.46838243825E+02  0.64718287236E+02  0.23778290067E+03  0.25087936950E+03  0.41800000000E+01 0. -1.
        -11    1    1    2    0    0 -0.30827211177E+02 -0.18055516523E+02  0.49245341724E+02  0.60839315474E+02  0.00000000000E+00 0.  1.
         11    1    1    2    0    0  0.67153533215E+00 -0.97734462102E+02  0.46056395605E+03  0.47082017125E+03  0.00000000000E+00 0. -1.
</event>
<event>
 7    1  0.6506388E-006  0.1193625E+03  0.7561462E-02  0.1244152E+00
         -2   -1    0    0    0  501 -0.00000000000E+00  0.00000000000E+00  0.18969804271E+03  0.18969804271E+03  0.00000000000E+00 0.  1.
          2   -1    0    0  501    0  0.00000000000E+00 -0.00000000000E+00 -0.80713672186E+02  0.80713672186E+02  0.00000000000E+00 0. -1.
         23    2    1    2    0    0 -0.31539811597E+02 -0.47372683779E+02  0.73120622587E+02  0.15567671566E+03  0.12509869490E+03 0.  0.
          5    1    3    3  502    0  0.39685837795E+02  0.80600651158E+01  0.45814681235E+02  0.61289377447E+02  0.41800000000E+01 0. -1.
         -5    1    3    3    0  502 -0.71225649392E+02 -0.55432748895E+02  0.27305941352E+02  0.94387338210E+02  0.41800000000E+01 0. -1.
        -11    1    1    2    0    0  0.64109773405E+02  0.31267247670E+02  0.15178960290E+02  0.72925336190E+02  0.00000000000E+00 0. -1.
         11    1    1    2    0    0 -0.32569961807E+02  0.16105436109E+02  0.20684787647E+02  0.41809663051E+02  0.00000000000E+00 0.  1.
</event>
<event>
 7    1  0.6506388E-006  0.1768466E+03  0.7561462E-02  0.1170890E+00
          1   -1    0    0  501    0  0.00000000000E+00  0.00000000000E+00  0.14102814755E+04  0.14102814755E+04  0.00000000000E+00 0. -1.
         -1   -1    0    0    0  501 -0.00000000000E+00 -0.00000000000E+00 -0.24011953509E+02  0.24011953509E+02  0.00000000000E+00 0.  1.
         23    2    1    2    0    0  0.41399611359E+02  0.14187890172E+03  0.66254930350E+03  0.69026234487E+03  0.12508786756E+03 0.  0.
          5    1    3    3  502    0 -0.38492795458E+02  0.88611871644E+02  0.30073731930E+03  0.31590214738E+03  0.41800000000E+01 0.  1.
         -5    1    3    3    0  502  0.79892406817E+02  0.53267030079E+02  0.36181198420E+03  0.37436019749E+03  0.41800000000E+01 0.  1.
        -11    1    1    2    0    0  0.14362068563E+02 -0.60816792286E+02  0.15964625138E+03  0.17144059267E+03  0.00000000000E+00 0.  1.
         11    1    1    2    0    0 -0.55761679923E+02 -0.81062109436E+02  0.56407396715E+03  0.57259049149E+03  0.00000000000E+00 0. -1.
</event>
<event>
 7    1  0.6506388E-006  0.1078794E+03  0.7561462E-02  0.1264548E+00
          4   -1    0    0  501    0  0.00000000000E+00  0.00000000000E+00  0.12933738120E+03  0.12933738120E+03  0.00000000000E+00 0.  1.
         -4   -1    0    0    0  501 -0.00000000000E+00 -0.00000000000E+00 -0.11614475907E+03  0.11614475907E+03  0.00000000000E+00 0. -1.
         23    2    1    2    0    0  0.23255194397E+02 -0.45711757796E+02 -0.30659906767E+01  0.13523069020E+03  0.12509024904E+03 0.  0.
          5    1    3    3  502    0  0.57353063199E+02  0.14707367180E+02  0.18977633472E+02  0.62316157454E+02  0.41800000000E+01 0.  1.
         -5    1    3    3    0  502 -0.34097868801E+02 -0.60419124976E+02 -0.22043624149E+02  0.72914532744E+02  0.41800000000E+01 0.  1.
        -11    1    1    2    0    0  0.22670424970E+02  0.31531172383E+02 -0.25600699029E+02  0.46514070892E+02  0.00000000000E+00 0. -1.
         11    1    1    2    0    0 -0.45925619367E+02  0.14180585412E+02  0.41859311844E+02  0.63737379181E+02  0.00000000000E+00 0.  1.
</event>
<event>
 7    1  0.6506388E-006  0.1229175E+03  0.7561462E-02  0.1238360E+00
          1   -1    0    0  501    0  0.00000000000E+00  0.00000000000E+00  0.25294304356E+03  0.25294304356E+03  0.00000000000E+00 0. -1.
         -1   -1    0    0    0  501 -0.00000000000E+00 -0.00000000000E+00 -0.92164647750E+02  0.92164647750E+02  0.00000000000E+00 0.  1.
         23    2    1    2    0    0  0.31151682243E+02  0.77377348581E+02  0.10859937403E+02  0.15074473495E+03  0.12509338710E+03 0.  0.
          5    1    3    3  502    0  0.52559328063E+02  0.86188101344E+02 -0.28421781585E+02  0.10495780985E+03  0.41800000000E+01 0. -1.
         -5    1    3    3    0  502 -0.21407645820E+02 -0.88107527628E+01  0.39281718988E+02  0.45786925104E+02  0.41800000000E+01 0. -1.
        -11    1    1    2    0    0  0.13072342515E+02  0.14369120339E+02  0.11714764175E+02  0.22684652473E+02  0.00000000000E+00 0.  1.
         11    1    1    2    0    0 -0.44224024758E+02 -0.91746468920E+02  0.13820369423E+03  0.17167830388E+03  0.00000000000E+00 0. -1.
</event>
<event>
 7    1  0.6506388E-006  0.1304866E+03  0.7561462E-02  0.1226736E+00
         -2   -1    0    0    0  501 -0.00000000000E+00  0.00000000000E+00  0.43993405272E+02  0.43993405272E+02  0.00000000000E+00 0.  1.
          2   -1    0    0  501    0  0.00000000000E+00 -0.00000000000E+00 -0.60322519509E+03  0.60322519509E+03  0.00000000000E+00 0. -1.
         23    2    1    2    0    0 -0.99703398243E+02 -0.23114016497E+02 -0.17001034219E+03  0.23457664549E+03  0.12509061028E+03 0.  0.
          5    1    3    3  502    0 -0.10264186474E+03 -0.44277376835E+02 -0.17895389517E+03  0.21103982443E+03  0.41800000000E+01 0. -1.
         -5    1    3    3    0  502  0.29384664957E+01  0.21163360338E+02  0.89435529789E+01  0.23536821069E+02  0.41800000000E+01 0. -1.
        -11    1    1    2    0    0  0.23385146962E+02 -0.27243596770E+02 -0.51626072061E+02  0.62883463485E+02  0.00000000000E+00 0.  1.
         11    1    1    2    0    0  0.76318251281E+02  0.50357613266E+02 -0.33759537557E+03  0.34975849138E+03  0.00000000000E+00 0. -1.
</event>
<event>
 7    1  0.6506388E-006  0.1076593E+03  0.7561462E-02  0.1264967E+00
         -1   -1    0    0    0  501 -0.00000000000E+00  0.00000000000E+00  0.12486331149E+03  0.12486331149E+03  0.00000000000E+00 0.  1.
          1   -1    0    0  501    0  0.00000000000E+00 -0.00000000000E+00 -0.16560543955E+03  0.16560543955E+03  0.00000000000E+00 0. -1.
         23    2    1    2    0    0  0.57595142979E+02  0.58108617052E+02  0.23551815174E+02  0.15141165648E+03  0.12520778670E+03 0.  0.
          5    1    3    3  502    0  0.41267718600E+02  0.64373576561E+02  0.68659549834E+02  0.10285226367E+03  0.41800000000E+01 0.  1.
         -5    1    3    3    0  502  0.16327424379E+02 -0.62649595092E+01 -0.45107734660E+02  0.48559392816E+02  0.41800000000E+01 0.  1.
        -11    1    1    2    0    0 -0.74776568458E+02 -0.67881105954E+02 -0.42318366718E+02  0.10949988081E+03  0.00000000000E+00 0.  1.
         11    1    1    2    0    0  0.17181425479E+02  0.97724889019E+01 -0.21975576523E+02  0.29557213745E+02  0.00000000000E+00 0. -1.
</event>
<event>
 7    1  0.6506388E-006  0.1163868E+03  0.7561462E-02  0.1249180E+00
          2   -1    0    0  501    0  0.00000000000E+00  0.00000000000E+00  0.30957042124E+03  0.30957042124E+03  0.00000000000E+00 0. -1.
         -2   -1    0    0    0  501 -0.00000000000E+00 -0.00000000000E+00 -0.62666865996E+02  0.62666865996E+02  0.00000000000E+00 0.  1.
         23    2    1    2    0    0  0.34995674075E+02  0.70745929989E+02  0.87983704375E+02  0.17210376412E+03  0.12509552181E+03 0.  0.
          5    1    3    3  502    0  0.72460442273E+02  0.15291562933E+02  0.71562714438E+02  0.10306814294E+03  0.41800000000E+01 0. -1.
         -5    1    3    3    0  502 -0.37464768199E+02  0.55454367056E+02  0.16420989936E+02  0.69035621184E+02  0.41800000000E+01 0. -1.
        -11    1    1    2    0    0 -0.45268636190E+02 -0.45020357219E+02  0.16014850095E+03  0.17240540695E+03  0.00000000000E+00 0. -1.
         11    1    1    2    0    0  0.10272962115E+02 -0.25725572771E+02 -0.12286500851E+01  0.27728116164E+02  0.00000000000E+00 0.  1.
</event>
<event>
 7    1  0.6506388E-006  0.7163288E+02  0.7561462E-02  0.1354627E+00
          1   -1    0    0  501    0  0.00000000000E+00  0.00000000000E+00  0.37719744845E+03  0.37719744845E+03  0.00000000000E+00 0. -1.
         -1   -1    0    0    0  501 -0.00000000000E+00 -0.00000000000E+00 -0.29362385965E+02  0.29362385965E+02  0.00000000000E+00 0.  1.
         23    2    1    2    0    0  0.20304076775E+02 -0.89280621167E+01  0.16772269258E+03  0.20335254789E+03  0.11282460415E+03 0.  0.
          5    1    3    3  502    0 -0.21119326871E+02 -0.94094045848E+01  0.15910890193E+03  0.16083431828E+03  0.41800000000E+01 0. -1.
         -5    1    3    3    0  502  0.41423403646E+02  0.48134246813E+00  0.86137906453E+01  0.42518229614E+02  0.41800000000E+01 0.  1.
        -11    1    1    2    0    0 -0.47705943766E+02 -0.39252147914E+01  0.15965297631E+03  0.16667434483E+03  0.00000000000E+00 0. -1.
         11    1    1    2    0    0  0.27401866991E+02  0.12853276908E+02  0.20459393594E+02  0.36532941684E+02  0.00000000000E+00 0.  1.
</event>
<event>
 7    1  0.6506388E-006  0.1200031E+03  0.7561462E-02  0.1243092E+00
         -3   -1    0    0    0  501 -0.00000000000E+00  0.00000000000E+00  0.34936413648E+03  0.34936413648E+03  0.00000000000E+00 0.  1.
          3   -1    0    0  501    0  0.00000000000E+00 -0.00000000000E+00 -0.75616678498E+02  0.75616678498E+02  0.00000000000E+00 0. -1.
         23    2    1    2    0    0  0.86224405303E+02 -0.50721467300E+01  0.25866786027E+03  0.30003058468E+03  0.12509562368E+03 0.  0.
          5    1    3    3  502    0  0.67892516663E+02  0.50689359075E+02  0.19851378419E+03  0.21587959574E+03  0.41800000000E+01 0. -1.
         -5    1    3    3    0  502  0.18331888640E+02 -0.55761505805E+02  0.60154076085E+02  0.84150988945E+02  0.41800000000E+01 0. -1.
        -11    1    1    2    0    0 -0.72015907943E+01 -0.13366923373E+02 -0.28905172508E+02  0.32650368270E+02  0.00000000000E+00 0. -1.
         11    1    1    2    0    0 -0.79022814509E+02  0.18439070103E+02  0.43984770217E+02  0.92299862027E+02  0.00000000000E+00 0.  1.
</event>
<event>
 6    1  0.6506388E-006  0.1183136E+03  0.7561462E-02  0.1245905E+00
          4   -1    0    0  501    0  0.00000000000E+00  0.00000000000E+00  0.30598241262E+02  0.30598241262E+02  0.00000000000E+00 0.  1.
         -4   -1    0    0    0  501 -0.00000000000E+00 -0.00000000000E+00 -0.99359167388E+03  0.99359167388E+03  0.00000000000E+00 0. -1.
          5    1    1    2  502    0 -0.87858674203E+02  0.26171247424E+02 -0.74676570988E+03  0.75238326582E+03  0.41800000000E+01 0. -1.
         -5    1    1    2    0  502  0.50801929145E+02 -0.24639215859E+02 -0.15245599690E+03  0.16262911902E+03  0.41800000000E+01 0.  1.
        -11    1    1    2    0    0 -0.24926750904E+02  0.64471613301E+01 -0.23281779267E+02  0.34712390377E+02  0.00000000000E+00 0.  1.
         11    1    1    2    0    0  0.61983495962E+02 -0.79791928950E+01 -0.40489946564E+02  0.74465139922E+02  0.00000000000E+00 0. -1.
</event>
<event>
 7    1  0.6506388E-006  0.1377294E+03  0.7561462E-02  0.1216417E+00
          3   -1    0    0  501    0  0.00000000000E+00  0.00000000000E+00  0.78608839548E+02  0.78608839548E+02  0.00000000000E+00 0. -1.
         -3   -1    0    0    0  501 -0.00000000000E+00 -0.00000000000E+00 -0.27492399753E+03  0.27492399753E+03  0.00000000000E+00 0.  1.
         23    2    1    2    0    0 -0.44648456776E+02  0.82830463816E+02 -0.12869883126E+03  0.20264583262E+03  0.12509026294E+03 0.  0.
          5    1    3    3  502    0 -0.67389790577E+02  0.11572824820E+02 -0.10249460539E+03  0.12327988758E+03  0.41800000000E+01 0. -1.
         -5    1    3    3    0  502  0.22741333801E+02  0.71257638996E+02 -0.26204225864E+02  0.79365945036E+02  0.41800000000E+01 0. -1.
        -11    1    1    2    0    0  0.39294623679E+02 -0.10348932286E+03 -0.44177425722E+02  0.11918788671E+03  0.00000000000E+00 0.  1.
         11    1    1    2    0    0  0.53538330969E+01  0.20658859040E+02 -0.23438901007E+02  0.31699117750E+02  0.00000000000E+00 0. -1.
</event>
<event>
 7    1  0.6506388E-006  0.3103812E+03  0.7561462E-02  0.1080163E+00
          1   -1    0    0  501    0  0.00000000000E+00  0.00000000000E+00  0.11088855765E+04  0.11088855765E+04  0.00000000000E+00 0. -1.
         -1   -1    0    0    0  501 -0.00000000000E+00 -0.00000000000E+00 -0.94241767630E+02  0.94241767630E+02  0.00000000000E+00 0.  1.
         23    2    1    2    0    0  0.59396596387E+02  0.29536634284E+03  0.59153035156E+03  0.67551857442E+03  0.12509178797E+03 0.  0.
          5    1    3    3  502    0  0.52331388685E+02  0.11987387281E+03  0.37198593628E+03  0.39433403203E+03  0.41800000000E+01 0. -1.
         -5    1    3    3    0  502  0.70652077027E+01  0.17549247003E+03  0.21954441528E+03  0.28118454239E+03  0.41800000000E+01 0. -1.
        -11    1    1    2    0    0 -0.55383538934E+02 -0.72129690137E+02  0.14187304747E+03  0.16851703232E+03  0.00000000000E+00 0. -1.
         11    1    1    2    0    0 -0.40130574534E+01 -0.22323665270E+03  0.28124040985E+03  0.35909173740E+03  0.00000000000E+00 0.  1.
</event>
<event>
 7    1  0.6506388E-006  0.1076955E+03  0.7561462E-02  0.1264898E+00
         -1   -1    0    0    0  501 -0.00000000000E+00  0.00000000000E+00  0.41937228255E+03  0.41937228255E+03  0.00000000000E+00 0.  1.
          1   -1    0    0  501    0  0.00000000000E+00 -0.00000000000E+00 -0.46371554943E+02  0.46371554943E+02  0.00000000000E+00 0. -1.
         23    2    1    2    0    0  0.30830028050E+02 -0.62760724564E+02  0.29245051955E+03  0.32567281309E+03  0.12508427409E+03 0.  0.
          5    1    3    3  502    0  0.58847520680E+02 -0.70026055043E+02  0.12097003749E+03  0.15171651672E+03  0.41800000000E+01 0. -1.
         -5    1    3    3    0  502 -0.28017492630E+02  0.72653304791E+01  0.17148048205E+03  0.17395629637E+03  0.41800000000E+01 0. -1.
        -11    1    1    2    0    0  0.49405254487E+01 -0.11301118373E+02 -0.11335490816E+02  0.16751639330E+02  0.00000000000E+00 0. -1.
         11    1    1    2    0    0 -0.35770553499E+02  0.74061842937E+02  0.91885698872E+02  0.12331938507E+03  0.00000000000E+00 0.  1.
</event>
<event>
 7    1  0.6506388E-006  0.6421532E+02  0.7561462E-02  0.1380948E+00
          3   -1    0    0  501    0  0.00000000000E+00  0.00000000000E+00  0.55834385094E+02  0.55834385094E+02  0.00000000000E+00 0. -1.
         -3   -1    0    0    0  501 -0.00000000000E+00 -0.00000000000E+00 -0.21781543301E+03  0.21781543301E+03  0.00000000000E+00 0.  1.
         23    2    1    2    0    0  0.11738213050E+02 -0.20148875895E+01 -0.82116554567E+02  0.15010748489E+03  0.12508910051E+03 0.  0.
          5    1    3    3  502    0 -0.16303308387E+02  0.40859977380E+02 -0.87899220869E+02  0.98382320796E+02  0.41800000000E+01 0. -1.
         -5    1    3    3    0  502  0.28041521437E+02 -0.42874864970E+02  0.57826663013E+01  0.51725164091E+02  0.41800000000E+01 0. -1.
        -11    1    1    2    0    0 -0.21742937796E+02  0.51691766142E+01 -0.99123474131E+02  0.10161170629E+03  0.00000000000E+00 0.  1.
         11    1    1    2    0    0  0.10004724746E+02 -0.31542890247E+01  0.19258980786E+02  0.21930626926E+02  0.00000000000E+00 0. -1.
</event>
<event>
 7    1  0.6506388E-006  0.7727796E+02  0.7561462E-02  0.1336959E+00
          3   -1    0    0  501    0  0.00000000000E+00  0.00000000000E+00  0.14193965599E+03  0.14193965599E+03  0.00000000000E+00 0. -1.
         -3   -1    0    0    0  501 -0.00000000000E+00 -0.00000000000E+00 -0.96459370722E+02  0.96459370722E+02  0.00000000000E+00 0.  1.
         23    2    1    2    0    0 -0.11674177491E+02 -0.31091350290E+02 -0.62496500281E+01  0.12957823358E+03  0.12509397272E+03 0.  0.
          5    1    3    3  502    0  0.37928743756E+02  0.93082359616E+00  0.39380026894E+02  0.54842638099E+02  0.41800000000E+01 0.  1.
         -5    1    3    3    0  502 -0.49602921246E+02 -0.32022173886E+02 -0.45629676922E+02  0.74735595486E+02  0.41800000000E+01 0.  1.
        -11    1    1    2    0    0 -0.18090096566E+02  0.95545832906E+01 -0.19760190636E+02  0.28443044661E+02  0.00000000000E+00 0.  1.
         11    1    1    2    0    0  0.29764274057E+02  0.21536766999E+02  0.71490125933E+02  0.80377748468E+02  0.00000000000E+00 0. -1.
</event>
<event>
 7    1  0.6506388E-006  0.8485628E+02  0.7561462E-02  0.1315809E+00
          1   -1    0    0  501    0  0.00000000000E+00  0.00000000000E+00  0.18581752570E+03  0.18581752570E+03  0.00000000000E+00 0. -1.
         -1   -1    0    0    0  501 -0.00000000000E+00 -0.00000000000E+00 -0.51953042202E+02  0.51953042202E+02  0.00000000000E+00 0.  1.
         23    2    1    2    0    0 -0.27767737386E+01  0.21982015236E+02  0.56985124881E+02  0.13923450462E+03  0.12509205951E+03 0.  0.
          5    1    3    3  502    0  0.55861436405E+02  0.35787029976E+02  0.33553936019E+02  0.74461739263E+02  0.41800000000E+01 0. -1.
         -5    1    3    3    0  502 -0.58638210144E+02 -0.13805014739E+02  0.23431188862E+02  0.64772765360E+02  0.41800000000E+01 0. -1.
        -11    1    1    2    0    0  0.93973246387E+01 -0.30585875115E+02  0.80869761517E+02  0.86969671695E+02  0.00000000000E+00 0. -1.
         11    1    1    2    0    0 -0.66205509001E+01  0.86038598790E+01 -0.39904028985E+01  0.11566391586E+02  0.00000000000E+00 0.  1.
</event>
<event>
 7    1  0.6506388E-006  0.1020488E+03  0.7561462E-02  0.1276046E+00
          1   -1    0    0  501    0  0.00000000000E+00  0.00000000000E+00  0.58180926024E+03  0.58180926024E+03  0.00000000000E+00 0. -1.
         -1   -1    0    0    0  501 -0.00000000000E+00 -0.00000000000E+00 -0.25606422567E+02  0.25606422567E+02  0.00000000000E+00 0.  1.
         23    2    1    2    0    0 -0.41213284346E+02 -0.39739617505E+02  0.30644858244E+03  0.33590990470E+03  0.12508780272E+03 0.  0.
          5    1    3    3  502    0 -0.75002059677E+02 -0.61561712219E+02  0.21777525568E+03  0.23845059814E+03  0.41800000000E+01 0.  1.
         -5    1    3    3    0  502  0.33788775331E+02  0.21822094714E+02  0.88673326762E+02  0.97459306560E+02  0.41800000000E+01 0.  1.
        -11    1    1    2    0    0 -0.50175849353E+00  0.20658087604E+02  0.34303516457E+01  0.20946972513E+02  0.00000000000E+00 0.  1.
         11    1    1    2    0    0  0.41715042840E+02  0.19081529901E+02  0.24632390359E+03  0.25055880560E+03  0.00000000000E+00 0. -1.
</event>
<event>
 7    1  0.6506388E-006  0.7114881E+02  0.7561462E-02  0.1356229E+00
          2   -1    0    0  501    0  0.00000000000E+00  0.00000000000E+00  0.21988929970E+03  0.21988929970E+03  0.00000000000E+00 0. -1.
         -2   -1    0    0    0  501 -0.00000000000E+00 -0.00000000000E+00 -0.67422790473E+02  0.67422790473E+02  0.00000000000E+00 0.  1.
         23    2    1    2    0    0  0.37675527280E+02  0.29597345402E+02  0.51692616317E+02  0.14357775225E+03  0.12508795365E+03 0.  0.
          5    1    3    3  502    0  0.39475715347E+02 -0.61777853615E+01 -0.32701526205E+02  0.51801152017E+02  0.41800000000E+01 0. -1.
         -5    1    3    3    0  502 -0.18001880663E+01  0.35775130764E+02  0.84394142522E+02  0.91776600233E+02  0.41800000000E+01 0. -1.
        -11    1    1    2    0    0 -0.38777171547E+02 -0.24118314716E+01  0.10866788007E+03  0.11540448051E+03  0.00000000000E+00 0. -1.
         11    1    1    2    0    0  0.11016442661E+01 -0.27185513931E+02 -0.78939871563E+01  0.28329857412E+02  0.00000000000E+00 0.  1.
</event>
<event>
 7    1  0.6506388E-006  0.3034982E+03  0.7561462E-02  0.1083505E+00
          2   -1    0    0  501    0  0.00000000000E+00  0.00000000000E+00  0.44487771266E+03  0.44487771266E+03  0.00000000000E+00 0. -1.
         -2   -1    0    0    0  501 -0.00000000000E+00 -0.00000000000E+00 -0.30648992095E+03  0.30648992095E+03  0.00000000000E+00 0.  1.
         23    2    1    2    0    0  0.76099645897E+02 -0.28094059841E+03 -0.13232596197E+03  0.34333406310E+03  0.12509733306E+03 0.  0.
          5    1    3    3  502    0  0.55021633115E+02 -0.67201892470E+02  0.70906329256E+01  0.87242328817E+02  0.41800000000E+01 0. -1.
         -5    1    3    3    0  502  0.21078012783E+02 -0.21373870594E+03 -0.13941659489E+03  0.25609173429E+03  0.41800000000E+01 0. -1.
        -11    1    1    2    0    0 -0.47410456545E+02  0.38443344430E+02  0.50697362044E+02  0.79346484730E+02  0.00000000000E+00 0. -1.
         11    1    1    2    0    0 -0.28689189352E+02  0.24249725398E+03  0.22001639163E+03  0.32868708578E+03  0.00000000000E+00 0.  1.
</event>
<event>
 7    1  0.6506388E-006  0.1288796E+03  0.7561462E-02  0.1229128E+00
         -2   -1    0    0    0  501 -0.00000000000E+00  0.00000000000E+00  0.47870392901E+03  0.47870392901E+03  0.00000000000E+00 0.  1.
          2   -1    0    0  501    0  0.00000000000E+00 -0.00000000000E+00 -0.73135248700E+02  0.73135248700E+02  0.00000000000E+00 0. -1.
         23    2    1    2    0    0 -0.72684340175E+02 -0.86568908965E+02  0.36378231232E+03  0.40094891182E+03  0.12508105305E+03 0.  0.
          5    1    3    3  502    0 -0.47354259669E+02  0.66545936708E+01  0.38304957839E+02  0.61412146362E+02  0.41800000000E+01 0.  1.
         -5    1    3    3    0  502 -0.25330080506E+02 -0.93223502636E+02  0.32547735448E+03  0.33953676546E+03  0.41800000000E+01 0.  1.
        -11    1    1    2    0    0  0.55571561079E+02  0.67798459390E+02  0.70543209232E+02  0.11252188172E+03  0.00000000000E+00 0.  1.
         11    1    1    2    0    0  0.17112779096E+02  0.18770449575E+02 -0.28756841240E+02  0.38368384169E+02  0.00000000000E+00 0. -1.
</event>
<event>
 6    1  0.6506388E-006  0.1372650E+03  0.7561462E-02  0.1217057E+00
         -1   -1    0    0    0  501 -0.00000000000E+00  0.00000000000E+00  0.15311727873E+04  0.15311727873E+04  0.00000000000E+00 0.  1.
          1   -1    0    0  501    0  0.00000000000E+00 -0.00000000000E+00 -0.57641432755E+02  0.57641432755E+02  0.00000000000E+00 0. -1.
          5    1    1    2  502    0 -0.95162678519E+02 -0.25688236051E+02  0.49811943163E+03  0.50779549173E+03  0.41800000000E+01 0. -1.
         -5    1    1    2    0  502  0.98827141405E+02 -0.33083990958E+01  0.98312972553E+03  0.98809882047E+03  0.41800000000E+01 0.  1.
        -11    1    1    2    0    0  0.22907879373E+02 -0.13641011460E+02  0.21984331889E+02  0.34556605441E+02  0.00000000000E+00 0.  1.
         11    1    1    2    0    0 -0.26572342258E+02  0.42637646607E+02 -0.29702134469E+02  0.58363302454E+02  0.00000000000E+00 0. -1.
</event>
<event>
 7    1  0.6506388E-006  0.1880817E+03  0.7561462E-02  0.1160203E+00
         -1   -1    0    0    0  501 -0.00000000000E+00  0.00000000000E+00  0.83272064327E+02  0.83272064327E+02  0.00000000000E+00 0.  1.
          1   -1    0    0  501    0  0.00000000000E+00 -0.00000000000E+00 -0.51026011938E+03  0.51026011938E+03  0.00000000000E+00 0. -1.
         23    2    1    2    0    0  0.15397486561E+03  0.58312184353E+02 -0.13969238200E+03  0.24954137500E+03  0.12509342975E+03 0.  0.
          5    1    3    3  502    0  0.25378306974E+02  0.52237810753E+02 -0.98292048865E+02  0.11424380336E+03  0.41800000000E+01 0.  1.
         -5    1    3    3    0  502  0.12859655864E+03  0.60743736006E+01 -0.41400333134E+02  0.13529757164E+03  0.41800000000E+01 0.  1.
        -11    1    1    2    0    0 -0.98630604222E+02 -0.82638539288E+02 -0.19154047640E+03  0.23074851758E+03  0.00000000000E+00 0.  1.
         11    1    1    2    0    0 -0.55344261388E+02  0.24326354935E+02 -0.95755196656E+02  0.11324229113E+03  0.00000000000E+00 0. -1.
</event>
<event>
 7    1  0.6506388E-006  0.6703366E+02  0.7561462E-02  0.1370481E+00
          2   -1    0    0  501    0  0.00000000000E+00  0.00000000000E+00  0.12970969415E+03  0.12970969415E+03  0.00000000000E+00 0. -1.
         -2   -1    0    0    0  501 -0.00000000000E+00 -0.00000000000E+00 -0.11715072366E+03  0.11715072366E+03  0.00000000000E+00 0.  1.
         23    2    1    2    0    0 -0.24678898993E+02 -0.29511968231E+02 -0.18790878633E+02  0.13221342676E+03  0.12508912331E+03 0.  0.
          5    1    3    3  502    0 -0.22063653904E+02 -0.43398978507E+02  0.45190013149E+02  0.66557387625E+02  0.41800000000E+01 0.  1.
         -5    1    3    3    0  502 -0.26152450891E+01  0.13887010276E+02 -0.63980891782E+02  0.65656039132E+02  0.41800000000E+01 0.  1.
        -11    1    1    2    0    0  0.40843191304E+02  0.34590949570E+02  0.60594904362E+02  0.80848268397E+02  0.00000000000E+00 0. -1.
         11    1    1    2    0    0 -0.16164292311E+02 -0.50789813398E+01 -0.29245055234E+02  0.33798722653E+02  0.00000000000E+00 0.  1.
</event>
<event>
 7    1  0.6506388E-006  0.1144039E+03  0.7561462E-02  0.1252625E+00
         -1   -1    0    0    0  501 -0.00000000000E+00  0.00000000000E+00  0.55514780252E+02  0.55514780252E+02  0.00000000000E+00 0.  1.
          1   -1    0    0  501    0  0.00000000000E+00 -0.00000000000E+00 -0.26137446848E+03  0.26137446848E+03  0.00000000000E+00 0. -1.
         23    2    1    2    0    0 -0.72991235001E+01  0.52634747691E+02 -0.12080684789E+03  0.18183961713E+03  0.12509059913E+03 0.  0.
          5    1    3    3  502    0  0.70341260292E+00  0.87682209174E+02 -0.11578569525E+03  0.14530128774E+03  0.41800000000E+01 0.  1.
         -5    1    3    3    0  502 -0.80025361030E+01 -0.35047461483E+02 -0.50211526462E+01  0.36538329387E+02  0.41800000000E+01 0.  1.
        -11    1    1    2    0    0  0.47692081552E+02 -0.16012911322E+02 -0.38346187556E+02  0.63256446879E+02  0.00000000000E+00 0. -1.
         11    1    1    2    0    0 -0.40392958052E+02 -0.36621836370E+02 -0.46706652775E+02  0.71793184723E+02  0.00000000000E+00 0.  1.
</event>
<event>
 7    1  0.6506388E-006  0.7020835E+02  0.7561462E-02  0.1359386E+00
          1   -1    0    0  501    0  0.00000000000E+00  0.00000000000E+00  0.14985875948E+03  0.14985875948E+03  0.00000000000E+00 0. -1.
         -1   -1    0    0    0  501 -0.00000000000E+00 -0.00000000000E+00 -0.97077423968E+02  0.97077423968E+02  0.00000000000E+00 0.  1.
         23    2    1    2    0    0  0.11985850197E+02 -0.33397749341E+02 -0.12069952004E+02  0.13058439944E+03  0.12509009301E+03 0.  0.
          5    1    3    3  502    0  0.28487821075E+02 -0.69248303768E+01 -0.63626224729E+02  0.70180325581E+02  0.41800000000E+01 0.  1.
         -5    1    3    3    0  502 -0.16501970878E+02 -0.26472918965E+02  0.51556272725E+02  0.60404073858E+02  0.41800000000E+01 0.  1.
        -11    1    1    2    0    0  0.24858906050E+02 -0.58068039978E+01  0.56377273239E+02  0.61887649176E+02  0.00000000000E+00 0.  1.
         11    1    1    2    0    0 -0.36844756246E+02  0.39204553339E+02  0.84740142785E+01  0.54464134835E+02  0.00000000000E+00 0. -1.
</event>
<event>
 7    1  0.6506388E-006  0.7925129E+02  0.7561462E-02  0.1331190E+00
         -2   -1    0    0    0  501 -0.00000000000E+00  0.00000000000E+00  0.17824652171E+03  0.17824652171E+03  0.00000000000E+00 0.  1.
          2   -1    0    0  501    0  0.00000000000E+00 -0.00000000000E+00 -0.88802972581E+02  0.88802972581E+02  0.00000000000E+00 0. -1.
         23    2    1    2    0    0 -0.73282605985E+01  0.51079136329E+02  0.87370850487E+02  0.16107294109E+03  0.12509214710E+03 0.  0.
          5    1    3    3  502    0 -0.10488064114E+02  0.24533668183E+02 -0.30150214680E+02  0.40477255448E+02  0.41800000000E+01 0.  1.
         -5    1    3    3    0  502  0.31598035153E+01  0.26545468146E+02  0.11752106517E+03  0.12059568564E+03  0.41800000000E+01 0.  1.
        -11    1    1    2    0    0 -0.41361035961E+02 -0.15650166223E+02  0.97179318665E+01  0.45278043226E+02  0.00000000000E+00 0.  1.
         11    1    1    2    0    0  0.48689296560E+02 -0.35428970107E+02 -0.76452332239E+01  0.60698509976E+02  0.00000000000E+00 0. -1.
</event>
<event>
 7    1  0.6506388E-006  0.1074824E+03  0.7561462E-02  0.1265304E+00
          2   -1    0    0  501    0  0.00000000000E+00  0.00000000000E+00  0.38242796871E+03  0.38242796871E+03  0.00000000000E+00 0. -1.
         -2   -1    0    0    0  501 -0.00000000000E+00 -0.00000000000E+00 -0.43720798775E+02  0.43720798775E+02  0.00000000000E+00 0.  1.
         23    2    1    2    0    0  0.41281021825E+02  0.57767050874E+02  0.19841325232E+03  0.24506447717E+03  0.12509046464E+03 0.  0.
          5    1    3    3  502    0  0.85826959194E+02  0.29369939734E+02  0.12270974430E+03  0.15265652305E+03  0.41800000000E+01 0. -1.
         -5    1    3    3    0  502 -0.44545937368E+02  0.28397111140E+02  0.75703508022E+02  0.92407954117E+02  0.41800000000E+01 0. -1.
        -11    1    1    2    0    0 -0.25049692651E+02 -0.38984555169E+02  0.14800543855E+03  0.15508994965E+03  0.00000000000E+00 0. -1.
         11    1    1    2    0    0 -0.16231329174E+02 -0.18782495705E+02 -0.77115209303E+01  0.25994340667E+02  0.00000000000E+00 0.  1.
</event>
<event>
 7    1  0.6506388E-006  0.1668289E+03  0.7561462E-02  0.1181196E+00
         -1   -1    0    0    0  501 -0.00000000000E+00  0.00000000000E+00  0.66274942942E+02  0.66274942942E+02  0.00000000000E+00 0.  1.
          1   -1    0    0  501    0  0.00000000000E+00 -0.00000000000E+00 -0.54553622297E+03  0.54553622297E+03  0.00000000000E+00 0. -1.
         23    2    1    2    0    0 -0.57793263374E+02  0.14608505476E+03 -0.22009429813E+03  0.29794198613E+03  0.12508805903E+03 0.  0.
          5    1    3    3  502    0  0.20379277388E+02  0.30436066855E+02 -0.12155739363E+03  0.12702496392E+03  0.41800000000E+01 0.  1.
         -5    1    3    3    0  502 -0.78172540761E+02  0.11564898790E+03 -0.98536904503E+02  0.17091702221E+03  0.41800000000E+01 0.  1.
        -11    1    1    2    0    0  0.18598228851E+02 -0.51373718507E+02 -0.16810354981E+03  0.17675960095E+03  0.00000000000E+00 0. -1.
         11    1    1    2    0    0  0.39195034523E+02 -0.94711336248E+02 -0.91063432087E+02  0.13710957884E+03  0.00000000000E+00 0.  1.
</event>
<event>
 7    1  0.6506388E-006  0.1590656E+03  0.7561462E-02  0.1189756E+00
         -1   -1    0    0    0  501 -0.00000000000E+00  0.00000000000E+00  0.30289469521E+03  0.30289469521E+03  0.00000000000E+00 0.  1.
          1   -1    0    0  501    0  0.00000000000E+00 -0.00000000000E+00 -0.87254911198E+02  0.87254911198E+02  0.00000000000E+00 0. -1.
         23    2    1    2    0    0 -0.62160281775E+02  0.10407529237E+03  0.11206582449E+03  0.20712859004E+03  0.12509171309E+03 0.  0.
          5    1    3    3  502    0 -0.22863511996E+02  0.12607555264E+03  0.91125135443E+02  0.15728651520E+03  0.41800000000E+01 0.  1.
         -5    1    3    3    0  502 -0.39296769779E+02 -0.22000260271E+02  0.20940689042E+02  0.49842074842E+02  0.41800000000E+01 0.  1.
        -11    1    1    2    0    0  0.81119933341E+02 -0.89461850788E+02  0.10355473130E+03  0.15908315029E+03  0.00000000000E+00 0.  1.
         11    1    1    2    0    0 -0.18959651566E+02 -0.14613441583E+02  0.19228224417E-01  0.23937866073E+02  0.00000000000E+00 0. -1.
</event>
<event>
 7    1  0.6506388E-006  0.1369112E+03  0.7561462E-02  0.1217547E+00
         -2   -1    0    0    0  501 -0.00000000000E+00  0.00000000000E+00  0.94709791481E+02  0.94709791481E+02  0.00000000000E+00 0.  1.
          2   -1    0    0  501    0  0.00000000000E+00 -0.00000000000E+00 -0.25797862168E+03  0.25797862168E+03  0.00000000000E+00 0. -1.
         23    2    1    2    0    0 -0.25091377683E+02  0.10829385522E+03 -0.69520117450E+02  0.18120750298E+03  0.12508387624E+03 0.  0.
          5    1    3    3  502    0  0.24147277592E+02 -0.77339635839E+01 -0.46331240633E+02  0.52980765061E+02  0.41800000000E+01 0.  1.
         -5    1    3    3    0  502 -0.49238655276E+02  0.11602781881E+03 -0.23188876817E+02  0.12822673792E+03  0.41800000000E+01 0.  1.
        -11    1    1    2    0    0 -0.15197490301E+02 -0.39008277031E+02  0.73106013301E+01  0.42497697352E+02  0.00000000000E+00 0.  1.
         11    1    1    2    0    0  0.40288867984E+02 -0.69285578192E+02 -0.10105931408E+03  0.12898321283E+03  0.00000000000E+00 0. -1.
</event>
<event>
 7    1  0.6506388E-006  0.1188113E+03  0.7561462E-02  0.1245071E+00
          2   -1    0    0  501    0  0.00000000000E+00  0.00000000000E+00  0.16517684212E+03  0.16517684212E+03  0.00000000000E+00 0.  1.
         -2   -1    0    0    0  501 -0.00000000000E+00 -0.00000000000E+00 -0.10457419848E+03  0.10457419848E+03  0.00000000000E+00 0. -1.
         23    2    1    2    0    0 -0.37278221775E+02  0.57524349128E+02  0.39586550609E+01  0.14270372209E+03  0.12509981929E+03 0.  0.
          5    1    3    3  502    0  0.32137731095E+02  0.61799445183E+02 -0.13034063493E+02  0.70988480727E+02  0.41800000000E+01 0. -1.
         -5    1    3    3    0  502 -0.69415952870E+02 -0.42750960547E+01  0.16992718554E+02  0.71715241358E+02  0.41800000000E+01 0. -1.
        -11    1    1    2    0    0 -0.20866713676E+02 -0.20401308030E+02  0.49803714167E+02  0.57723851688E+02  0.00000000000E+00 0.  1.
         11    1    1    2    0    0  0.58144935451E+02 -0.37123041098E+02  0.68402744051E+01  0.69323466826E+02  0.00000000000E+00 0. -1.
</event>
<event>
 7    1  0.6506388E-006  0.1297385E+03  0.7561462E-02  0.1227844E+00
          2   -1    0    0  501    0  0.00000000000E+00  0.00000000000E+00  0.21860595878E+03  0.21860595878E+03  0.00000000000E+00 0. -1.
         -2   -1    0    0    0  501 -0.00000000000E+00 -0.00000000000E+00 -0.13800355485E+03  0.13800355485E+03  0.00000000000E+00 0.  1.
         23    2    1    2    0    0 -0.73039626072E+02  0.55897817995E+02 -0.58339847319E+02  0.16585291153E+03  0.12507716596E+03 0.  0.
          5    1    3    3  502    0 -0.56528639243E+02 -0.13001772552E+02 -0.73049108197E+02  0.93371182666E+02  0.41800000000E+01 0. -1.
         -5    1    3    3    0  502 -0.16510986829E+02  0.68899590547E+02  0.14709260878E+02  0.72481728864E+02  0.41800000000E+01 0. -1.
        -11    1    1    2    0    0  0.94051049974E+02 -0.34019655857E+02  0.11234321027E+03  0.15041254562E+03  0.00000000000E+00 0. -1.
         11    1    1    2    0    0 -0.21011423902E+02 -0.21878162138E+02  0.26599040979E+02  0.40344056488E+02  0.00000000000E+00 0.  1.
</event>
<event>
 7    1  0.6506388E-006  0.1005735E+03  0.7561462E-02  0.1279095E+00
         -2   -1    0    0    0  501 -0.00000000000E+00  0.00000000000E+00  0.87429716236E+02  0.87429716236E+02  0.00000000000E+00 0.  1.
          2   -1    0    0  501    0  0.00000000000E+00 -0.00000000000E+00 -0.15848824129E+03  0.15848824129E+03  0.00000000000E+00 0. -1.
         23    2    1    2    0    0  0.67199631086E+01  0.13029433538E+02  0.28677299924E+01  0.12597732502E+03  0.12508852266E+03 0.  0.
          5    1    3    3  502    0  0.27959910744E+02  0.53664866528E+02 -0.31665411314E+02  0.68424010274E+02  0.41800000000E+01 0. -1.
         -5    1    3    3    0  502 -0.21239947636E+02 -0.40635432991E+02  0.34533141306E+02  0.57553314747E+02  0.41800000000E+01 0. -1.
        -11    1    1    2    0    0 -0.22024099943E+02  0.36488616166E+02 -0.33364967643E+02  0.54126713865E+02  0.00000000000E+00 0.  1.
         11    1    1    2    0    0  0.15304136834E+02 -0.49518049703E+02 -0.40561287399E+02  0.65813918635E+02  0.00000000000E+00 0. -1.
</event>
<event>
 7    1  0.6506388E-006  0.1821670E+03  0.7561462E-02  0.1165722E+00
         -3   -1    0    0    0  501 -0.00000000000E+00  0.00000000000E+00  0.31066593181E+03  0.31066593181E+03  0.00000000000E+00 0.  1.
          3   -1    0    0  501    0  0.00000000000E+00 -0.00000000000E+00 -0.12589169327E+03  0.12589169327E+03  0.00000000000E+00 0. -1.
         23    2    1    2    0    0  0.14944089135E+03 -0.47308792596E+02  0.15400696590E+03  0.25285635883E+03  0.12508993081E+03 0.  0.
          5    1    3    3  502    0  0.44405973780E+02  0.32441442805E+02  0.74495216775E+01  0.55653440971E+02  0.41800000000E+01 0. -1.
         -5    1    3    3    0  502  0.10503491757E+03 -0.79750235401E+02  0.14655744422E+03  0.19720291786E+03  0.41800000000E+01 0. -1.
        -11    1    1    2    0    0 -0.36231604959E+02  0.52635731152E+02 -0.68986556501E+01  0.64271617699E+02  0.00000000000E+00 0. -1.
         11    1    1    2    0    0 -0.11320928639E+03 -0.53269385563E+01  0.37665928302E+02  0.11942964855E+03  0.00000000000E+00 0.  1.
</event>
<event>
 7    1  0.6506388E-006  0.1489995E+03  0.7561462E-02  0.1201708E+00
         -3   -1    0    0    0  501 -0.00000000000E+00  0.00000000000E+00  0.14320392090E+03  0.14320392090E+03  0.00000000000E+00 0.  1.
          3   -1    0    0  501    0  0.00000000000E+00 -0.00000000000E+00 -0.20216313459E+03  0.20216313459E+03  0.00000000000E+00 0. -1.
         23    2    1    2    0    0  0.72771093616E+02  0.10866026289E+03 -0.41031546835E+02  0.18556560176E+03  0.12509324492E+03 0.  0.
          5    1    3    3  502    0  0.81216537071E+02  0.36197570066E+02  0.18969988253E+02  0.91014959357E+02  0.41800000000E+01 0. -1.
         -5    1    3    3    0  502 -0.84454434550E+01  0.72462692826E+02 -0.60001535088E+02  0.94550642407E+02  0.41800000000E+01 0. -1.
        -11    1    1    2    0    0 -0.56697007921E+02 -0.51715119538E+02  0.31253941248E+02  0.82860202387E+02  0.00000000000E+00 0.  1.
         11    1    1    2    0    0 -0.16074085694E+02 -0.56945143354E+02 -0.49181608100E+02  0.76941251340E+02  0.00000000000E+00 0. -1.
</event>
<event>
 7    1  0.6506388E-006  0.9351745E+02  0.7561462E-02  0.1294550E+00
         -2   -1    0    0    0  501 -0.00000000000E+00  0.00000000000E+00  0.51704344449E+02  0.51704344449E+02  0.00000000000E+00 0.  1.
          2   -1    0    0  501    0  0.00000000000E+00 -0.00000000000E+00 -0.32805906351E+03  0.32805906351E+03  0.00000000000E+00 0. -1.
         23    2    1    2    0    0  0.21354711820E+02 -0.19469475598E+02 -0.60210410565E+02  0.14180782218E+03  0.12509628570E+03 0.  0.
          5    1    3    3  502    0 -0.34664930220E+02 -0.94664978223E+01  0.21547770388E+02  0.42107609489E+02  0.41800000000E+01 0.  1.
         -5    1    3    3    0  502  0.56019642039E+02 -0.10002977775E+02 -0.81758180953E+02  0.99700212695E+02  0.41800000000E+01 0.  1.
        -11    1    1    2    0    0  0.32245298195E+02 -0.84913859163E+01 -0.11858337097E+03  0.12318229890E+03  0.00000000000E+00 0. -1.
         11    1    1    2    0    0 -0.53600010014E+02  0.27960861514E+02 -0.97560937523E+02  0.11477328688E+03  0.00000000000E+00 0.  1.
</event>
<event>
 7    1  0.6506388E-006  0.1240728E+03  0.7561462E-02  0.1236526E+00
          2   -1    0    0  501    0  0.00000000000E+00  0.00000000000E+00  0.10247710939E+04  0.10247710939E+04  0.00000000000E+00 0. -1.
         -2   -1    0    0    0  501 -0.00000000000E+00 -0.00000000000E+00 -0.22032562769E+02  0.22032562769E+02  0.00000000000E+00 0.  1.
         23    2    1    2    0    0  0.91760548204E+02 -0.15629632232E+02  0.38564207006E+03  0.41597100801E+03  0.12509112556E+03 0.  0.
          5    1    3    3  502    0  0.63327240449E+02 -0.43713539851E+02  0.36033491119E+03  0.36848328805E+03  0.41800000000E+01 0.  1.
         -5    1    3    3    0  502  0.28433307755E+02  0.28083907619E+02  0.25307158872E+02  0.47487719962E+02  0.41800000000E+01 0.  1.
        -11    1    1    2    0    0 -0.66816301053E+02 -0.34285476736E+02  0.34774633647E+03  0.35576316072E+03  0.00000000000E+00 0.  1.
         11    1    1    2    0    0 -0.24944247151E+02  0.49915108968E+02  0.26935012456E+03  0.27506948789E+03  0.00000000000E+00 0. -1.
</event>
<event>
 7    1  0.6506388E-006  0.8652924E+02  0.7561462E-02  0.1311481E+00
         -2   -1    0    0    0  501 -0.00000000000E+00  0.00000000000E+00  0.33592594246E+03  0.33592594246E+03  0.00000000000E+00 0.  1.
          2   -1    0    0  501    0  0.00000000000E+00 -0.00000000000E+00 -0.43682977255E+02  0.43682977255E+02  0.00000000000E+00 0. -1.
         23    2    1    2    0    0 -0.22503489322E+02 -0.12946060930E+02  0.23570093882E+03  0.26809748410E+03  0.12508925173E+03 0.  0.
          5    1    3    3  502    0 -0.67225040875E+01 -0.45727660448E+02  0.22138508202E+02  0.51417865929E+02  0.41800000000E+01 0. -1.
         -5    1    3    3    0  502 -0.15780985235E+02  0.32781599518E+02  0.21356243062E+03  0.21667961818E+03  0.41800000000E+01 0. -1.
        -11    1    1    2    0    0 -0.22679881886E+02  0.33447711534E+02  0.63019335715E+01  0.40900376722E+02  0.00000000000E+00 0. -1.
         11    1    1    2    0    0  0.45183371209E+02 -0.20501650604E+02  0.50240092815E+02  0.70611058888E+02  0.00000000000E+00 0.  1.
</event>
<event>
 7    1  0.6506388E-006  0.1084969E+03  0.7561462E-02  0.1263379E+00
          3   -1    0    0  501    0  0.00000000000E+00  0.00000000000E+00  0.20413322161E+03  0.20413322161E+03  0.00000000000E+00 0. -1.
         -3   -1    0    0    0  501 -0.00000000000E+00 -0.00000000000E+00 -0.64332651026E+02  0.64332651026E+02  0.00000000000E+00 0.  1.
         23    2    1    2    0    0 -0.24197200366E+02  0.30811252037E+02  0.84892700800E+02  0.15617094292E+03  0.12509098691E+03 0.  0.
          5    1    3    3  502    0 -0.27503252015E+02 -0.40521087301E+02  0.65808428833E+02  0.82137744630E+02  0.41800000000E+01 0.  1.
         -5    1    3    3    0  502  0.33060516491E+01  0.71332339339E+02  0.19084271967E+02  0.74033198293E+02  0.41800000000E+01 0.  1.
        -11    1    1    2    0    0 -0.10781913088E+02 -0.53527899365E+02  0.20852271383E+02  0.58449147831E+02  0.00000000000E+00 0. -1.
         11    1    1    2    0    0  0.34979113454E+02  0.22716647328E+02  0.34055598398E+02  0.53845781878E+02  0.00000000000E+00 0.  1.
</event>
<event>
 7    1  0.6506388E-006  0.1815361E+03  0.7561462E-02  0.1166325E+00
          2   -1    0    0  501    0  0.00000000000E+00  0.00000000000E+00  0.99116371229E+03  0.99116371229E+03  0.00000000000E+00 0. -1.
         -2   -1    0    0    0  501 -0.00000000000E+00 -0.00000000000E+00 -0.37051622223E+02  0.37051622223E+02  0.00000000000E+00 0.  1.
         23    2    1    2    0    0 -0.15504894878E+03  0.17914767016E+02  0.46029333884E+03  0.50187532644E+03  0.12509104728E+03 0.  0.
          5    1    3    3  502    0 -0.15208988839E+03 -0.10068945037E+02  0.44317668714E+03  0.46867447789E+03  0.41800000000E+01 0. -1.
         -5    1    3    3    0  502 -0.29590603929E+01  0.27983712053E+02  0.17116651706E+02  0.33200848548E+02  0.41800000000E+01 0. -1.
        -11    1    1    2    0    0  0.71798137669E+02 -0.55552264271E+02  0.24502345745E+03  0.26129967727E+03  0.00000000000E+00 0.  1.
         11    1    1    2    0    0  0.83250811115E+02  0.37637497254E+02  0.24879529377E+03  0.26504033081E+03  0.00000000000E+00 0. -1.
</event>
<event>
 7    1  0.6506388E-006  0.1040499E+03  0.7561462E-02  0.1272003E+00
         -1   -1    0    0    0  501 -0.00000000000E+00  0.00000000000E+00  0.30409424599E+03  0.30409424599E+03  0.00000000000E+00 0.  1.
          1   -1    0    0  501    0  0.00000000000E+00 -0.00000000000E+00 -0.67297635345E+02  0.67297635345E+02  0.00000000000E+00 0. -1.
         23    2    1    2    0    0  0.48205499692E+02  0.49345372226E+02  0.21098020109E+03  0.25479284459E+03  0.12509201591E+03 0.  0.
          5    1    3    3  502    0 -0.15669751073E+02  0.70885126100E+01  0.16377588792E+03  0.16472948119E+03  0.41800000000E+01 0.  1.
         -5    1    3    3    0  502  0.63875250765E+02  0.42256859616E+02  0.47204313164E+02  0.90063363396E+02  0.41800000000E+01 0.  1.
        -11    1    1    2    0    0 -0.26453055703E+02 -0.75313420302E+02  0.17568540709E+02  0.81734503462E+02  0.00000000000E+00 0.  1.
         11    1    1    2    0    0 -0.21752443989E+02  0.25968048076E+02  0.82478688465E+01  0.34864533281E+02  0.00000000000E+00 0. -1.
</event>
<event>
 7    1  0.6506388E-006  0.1882780E+03  0.7561462E-02  0.1160024E+00
         -2   -1    0    0    0  501 -0.00000000000E+00  0.00000000000E+00  0.47245641820E+03  0.47245641820E+03  0.00000000000E+00 0.  1.
          2   -1    0    0  501    0  0.00000000000E+00 -0.00000000000E+00 -0.91166227465E+02  0.91166227465E+02  0.00000000000E+00 0. -1.
         23    2    1    2    0    0  0.12738021687E+03 -0.94329019026E+02  0.30488410600E+03  0.36568389361E+03  0.12508680373E+03 0.  0.
          5    1    3    3  502    0 -0.59708812801E+01  0.18222680558E+02  0.72117135720E+02  0.74740023912E+02  0.41800000000E+01 0. -1.
         -5    1    3    3    0  502  0.13335109815E+03 -0.11255169958E+03  0.23276697028E+03  0.29094386969E+03  0.41800000000E+01 0. -1.
        -11    1    1    2    0    0 -0.17404189416E+02  0.66772442378E+02  0.33623288578E+02  0.76759301750E+02  0.00000000000E+00 0.  1.
         11    1    1    2    0    0 -0.10997602745E+03  0.27556576648E+02  0.42782796151E+02  0.12117945031E+03  0.00000000000E+00 0. -1.
</event>
<event>
 6    1  0.6506388E-006  0.2042632E+03  0.7561462E-02  0.1146191E+00
         -2   -1    0    0    0  501 -0.00000000000E+00  0.00000000000E+00  0.42747398897E+02  0.42747398897E+02  0.00000000000E+00 0.  1.
          2   -1    0    0  501    0  0.00000000000E+00 -0.00000000000E+00 -0.17922669986E+04  0.17922669986E+04  0.00000000000E+00 0. -1.
          5    1    1    2  502    0 -0.53257609608E+02  0.64488637246E+02 -0.10295848233E+04  0.10329847714E+04  0.41800000000E+01 0. -1.
         -5    1    1    2    0  502 -0.52658087985E+02 -0.15424615628E+03 -0.20332394549E+03  0.26062012618E+03  0.41800000000E+01 0.  1.
        -11    1    1    2    0    0  0.99673523780E+02  0.10530155137E+03 -0.47142791268E+03  0.49322155764E+03  0.00000000000E+00 0. -1.
         11    1    1    2    0    0  0.62421738131E+01 -0.15544032330E+02 -0.45182918217E+02  0.48187942201E+02  0.00000000000E+00 0.  1.
</event>
<event>
 7    1  0.6506388E-006  0.8848718E+02  0.7561462E-02  0.1306557E+00
         -2   -1    0    0    0  501 -0.00000000000E+00  0.00000000000E+00  0.50185756602E+03  0.50185756602E+03  0.00000000000E+00 0.  1.
          2   -1    0    0  501    0  0.00000000000E+00 -0.00000000000E+00 -0.36192375280E+02  0.36192375280E+02  0.00000000000E+00 0. -1.
         23    2    1    2    0    0  0.29489232989E+00 -0.16473520122E+02  0.41143128122E+03  0.42766280882E+03  0.11553490838E+03 0.  0.
          5    1    3    3  502    0  0.40329281809E+02  0.31320368903E+02  0.13856482143E+03  0.14773320080E+03  0.41800000000E+01 0. -1.
         -5    1    3    3    0  502 -0.40034389479E+02 -0.47793889026E+02  0.27286645979E+03  0.27992960802E+03  0.41800000000E+01 0.  1.
        -11    1    1    2    0    0 -0.15486566871E+02  0.35603925685E+02  0.70886094188E+02  0.80822717270E+02  0.00000000000E+00 0.  1.
         11    1    1    2    0    0  0.15191674541E+02 -0.19130405562E+02 -0.16652184671E+02  0.29564415209E+02  0.00000000000E+00 0. -1.
</event>
<event>
 7    1  0.6506388E-006  0.8719954E+02  0.7561462E-02  0.1309779E+00
         -2   -1    0    0    0  501 -0.00000000000E+00  0.00000000000E+00  0.38143504545E+02  0.38143504545E+02  0.00000000000E+00 0.  1.
          2   -1    0    0  501    0  0.00000000000E+00 -0.00000000000E+00 -0.33785488610E+03  0.33785488610E+03  0.00000000000E+00 0. -1.
         23    2    1    2    0    0 -0.10382903806E+02  0.38690150164E+02 -0.15756951451E+03  0.20513691172E+03  0.12509303831E+03 0.  0.
          5    1    3    3  502    0  0.30116917358E+02  0.18042288802E+02 -0.15546771157E+03  0.15943724357E+03  0.41800000000E+01 0. -1.
         -5    1    3    3    0  502 -0.40499821164E+02  0.20647861362E+02 -0.21018029402E+01  0.45699668147E+02  0.41800000000E+01 0. -1.
        -11    1    1    2    0    0 -0.17369227011E+02 -0.57368134158E+02 -0.76484904186E+02  0.97173728096E+02  0.00000000000E+00 0.  1.
         11    1    1    2    0    0  0.27752130817E+02  0.18677983994E+02 -0.65656962862E+02  0.73687750836E+02  0.00000000000E+00 0. -1.
</event>
<event>
 7    1  0.6506388E-006  0.1731188E+03  0.7561462E-02  0.1174634E+00
          1   -1    0    0  501    0  0.00000000000E+00  0.00000000000E+00  0.51902509327E+02  0.51902509327E+02  0.00000000000E+00 0.  1.
         -1   -1    0    0    0  501 -0.00000000000E+00 -0.00000000000E+00 -0.61829489325E+03  0.61829489325E+03  0.00000000000E+00 0. -1.
         23    2    1    2    0    0 -0.62770615363E+02 -0.12657671741E+03 -0.31293486385E+03  0.36542677088E+03  0.12508669120E+03 0.  0.
          5    1    3    3  502    0 -0.63563121578E+02 -0.59379674676E+01 -0.74681094424E+02  0.98337521561E+02  0.41800000000E+01 0.  1.
         -5    1    3    3    0  502  0.79250621498E+00 -0.12063874994E+03 -0.23825376943E+03  0.26708924932E+03  0.41800000000E+01 0.  1.
        -11    1    1    2    0    0  0.29675057196E+02 -0.10556681030E+01 -0.17486000610E+02  0.34459884968E+02  0.00000000000E+00 0. -1.
         11    1    1    2    0    0  0.33095558167E+02  0.12763238551E+03 -0.23597151946E+03  0.27031074673E+03  0.00000000000E+00 0.  1.
</event>
<event>
 7    1  0.6506388E-006  0.1395568E+03  0.7561462E-02  0.1213927E+00
          1   -1    0    0  501    0  0.00000000000E+00  0.00000000000E+00  0.20022377185E+03  0.20022377185E+03  0.00000000000E+00 0. -1.
         -1   -1    0    0    0  501 -0.00000000000E+00 -0.00000000000E+00 -0.14112201152E+03  0.14112201152E+03  0.00000000000E+00 0.  1.
         23    2    1    2    0    0 -0.76312751754E+02  0.84970116170E+02 -0.28659160535E+02  0.17182855602E+03  0.12514051486E+03 0.  0.
          5    1    3    3  502    0 -0.85645728658E+01  0.68377618765E+02  0.34910504632E+02  0.77363210830E+02  0.41800000000E+01 0.  1.
         -5    1    3    3    0  502 -0.67748178888E+02  0.16592497405E+02 -0.63569665166E+02  0.94465345192E+02  0.41800000000E+01 0.  1.
        -11    1    1    2    0    0 -0.13081625775E+01 -0.58017425751E+02  0.58215173495E+02  0.82199388107E+02  0.00000000000E+00 0.  1.
         11    1    1    2    0    0  0.77620914332E+02 -0.26952690419E+02  0.29545747363E+02  0.87317839241E+02  0.00000000000E+00 0. -1.
</event>
<event>
 7    1  0.6506388E-006  0.7113142E+02  0.7561462E-02  0.1356287E+00
          2   -1    0    0  501    0  0.00000000000E+00  0.00000000000E+00  0.18195458484E+03  0.18195458484E+03  0.00000000000E+00 0. -1.
         -2   -1    0    0    0  501 -0.00000000000E+00 -0.00000000000E+00 -0.89218777297E+02  0.89218777297E+02  0.00000000000E+00 0.  1.
         23    2    1    2    0    0  0.26058192442E+02  0.63024335772E+02  0.44182080644E+02  0.14916659919E+03  0.12509005464E+03 0.  0.
          5    1    3    3  502    0  0.16573035527E+02  0.61104949095E+02 -0.32827087036E+02  0.71439277388E+02  0.41800000000E+01 0.  1.
         -5    1    3    3    0  502  0.94851569154E+01  0.19193866772E+01  0.77009167681E+02  0.77727321798E+02  0.41800000000E+01 0.  1.
        -11    1    1    2    0    0 -0.14916492987E+02 -0.40044415721E+02 -0.21216421155E+02  0.47709469920E+02  0.00000000000E+00 0.  1.
         11    1    1    2    0    0 -0.11141699456E+02 -0.22979920051E+02  0.69770148051E+02  0.74297293028E+02  0.00000000000E+00 0. -1.
</event>
<event>
 7    1  0.6506388E-006  0.1158527E+03  0.7561462E-02  0.1250100E+00
         -2   -1    0    0    0  501 -0.00000000000E+00  0.00000000000E+00  0.31132542504E+03  0.31132542504E+03  0.00000000000E+00 0.  1.
          2   -1    0    0  501    0  0.00000000000E+00 -0.00000000000E+00 -0.47406872959E+02  0.47406872959E+02  0.00000000000E+00 0. -1.
         23    2    1    2    0    0 -0.22607739107E+02  0.61451623279E+02  0.14006888352E+03  0.19888566775E+03  0.12509518309E+03 0.  0.
          5    1    3    3  502    0  0.45711698893E+02 -0.38910354854E+01  0.38185348103E+02  0.59835547818E+02  0.41800000000E+01 0.  1.
         -5    1    3    3    0  502 -0.68319438000E+02  0.65342658764E+02  0.10188353542E+03  0.13905011993E+03  0.41800000000E+01 0.  1.
        -11    1    1    2    0    0  0.43963042086E+02 -0.30908638295E+02  0.10529157068E+03  0.11821339961E+03  0.00000000000E+00 0. -1.
         11    1    1    2    0    0 -0.21355302980E+02 -0.30542984984E+02  0.18558097882E+02  0.41633230647E+02  0.00000000000E+00 0.  1.
</event>
<event>
 7    1  0.6506388E-006  0.9011956E+02  0.7561462E-02  0.1302562E+00
         -1   -1    0    0    0  501 -0.00000000000E+00  0.00000000000E+00  0.22319935010E+02  0.22319935010E+02  0.00000000000E+00 0.  1.
          1   -1    0    0  501    0  0.00000000000E+00 -0.00000000000E+00 -0.52885823623E+03  0.52885823623E+03  0.00000000000E+00 0. -1.
         23    2    1    2    0    0 -0.15904010905E+02 -0.66250114928E+01 -0.28068191506E+03  0.30777695024E+03  0.12508990893E+03 0.  0.
          5    1    3    3  502    0 -0.87826879675E+01  0.40509099322E+02 -0.27053278346E+02  0.49673685237E+02  0.41800000000E+01 0. -1.
         -5    1    3    3    0  502 -0.71213229371E+01 -0.47134110814E+02 -0.25362863672E+03  0.25810326500E+03  0.41800000000E+01 0. -1.
        -11    1    1    2    0    0  0.74623600024E+01 -0.41348314424E+02 -0.10634951650E+03  0.11434854429E+03  0.00000000000E+00 0.  1.
         11    1    1    2    0    0  0.84416509022E+01  0.47973325917E+02 -0.11950686966E+03  0.12905267671E+03  0.00000000000E+00 0. -1.
</event>
<event>
 7    1  0.6506388E-006  0.8354996E+02  0.7561462E-02  0.1319269E+00
         -2   -1    0    0    0  501 -0.00000000000E+00  0.00000000000E+00  0.79082419563E+02  0.79082419563E+02  0.00000000000E+00 0.  1.
          2   -1    0    0  501    0  0.00000000000E+00 -0.00000000000E+00 -0.26668416964E+03  0.26668416964E+03  0.00000000000E+00 0. -1.
         23    2    1    2    0    0 -0.66114488097E+02 -0.24991981450E+02 -0.25335943150E+02  0.14589331204E+03  0.12508886365E+03 0.  0.
          5    1    3    3  502    0 -0.72376670758E+02 -0.12822909679E+02  0.36675706215E+02  0.82251986657E+02  0.41800000000E+01 0.  1.
         -5    1    3    3    0  502  0.62621826608E+01 -0.12169071771E+02 -0.62011649366E+02  0.63641325383E+02  0.41800000000E+01 0.  1.
        -11    1    1    2    0    0  0.60138095802E+02  0.74044339073E+01 -0.16944970286E+03  0.17995726717E+03  0.00000000000E+00 0. -1.
         11    1    1    2    0    0  0.59763922953E+01  0.17587547542E+02  0.71838959305E+01  0.19916009996E+02  0.00000000000E+00 0.  1.
</event>
<event>
 7    1  0.6506388E-006  0.1012854E+03  0.7561462E-02  0.1277616E+00
         -1   -1    0    0    0  501 -0.00000000000E+00  0.00000000000E+00  0.23867205338E+03  0.23867205338E+03  0.00000000000E+00 0.  1.
          1   -1    0    0  501    0  0.00000000000E+00 -0.00000000000E+00 -0.49428196437E+02  0.49428196437E+02  0.00000000000E+00 0. -1.
         23    2    1    2    0    0 -0.30015866229E+01 -0.74716660132E+01  0.11564347856E+03  0.17054510930E+03  0.12508950739E+03 0.  0.
          5    1    3    3  502    0 -0.63266808799E+02 -0.12737528546E+02  0.61773792510E+02  0.89433816704E+02  0.41800000000E+01 0.  1.
         -5    1    3    3    0  502  0.60265222176E+02  0.52658625328E+01  0.53869686050E+02  0.81111292600E+02  0.41800000000E+01 0.  1.
        -11    1    1    2    0    0 -0.29953952704E+02  0.25815460079E+02  0.57951282680E+01  0.39965744999E+02  0.00000000000E+00 0. -1.
         11    1    1    2    0    0  0.32955539326E+02 -0.18343794066E+02  0.67805250110E+02  0.77589395509E+02  0.00000000000E+00 0.  1.
</event>
<event>
 7    1  0.6506388E-006  0.1121380E+03  0.7561462E-02  0.1256661E+00
          1   -1    0    0  501    0  0.00000000000E+00  0.00000000000E+00  0.28657718498E+03  0.28657718498E+03  0.00000000000E+00 0. -1.
         -1   -1    0    0    0  501 -0.00000000000E+00 -0.00000000000E+00 -0.74854145686E+02  0.74854145686E+02  0.00000000000E+00 0.  1.
         23    2    1    2    0    0 -0.17876888934E+02 -0.35347868968E+02  0.48778363159E+01  0.13130244559E+03  0.12508990339E+03 0.  0.
          5    1    3    3  502    0  0.42915482885E+02  0.14064495718E+02 -0.19181538417E+02  0.49243806992E+02  0.41800000000E+01 0. -1.
         -5    1    3    3    0  502 -0.60792371819E+02 -0.49412364686E+02  0.24059374733E+02  0.82058638594E+02  0.41800000000E+01 0. -1.
        -11    1    1    2    0    0  0.52749841057E+02  0.28904716261E+01  0.98514456441E+02  0.11178550302E+03  0.00000000000E+00 0.  1.
         11    1    1    2    0    0 -0.34872952122E+02  0.32457397342E+02  0.10833074654E+03  0.11834338206E+03  0.00000000000E+00 0. -1.
</event>
<event>
 7    1  0.6506388E-006  0.1053452E+03  0.7561462E-02  0.1269441E+00
         -1   -1    0    0    0  501 -0.00000000000E+00  0.00000000000E+00  0.10597744263E+04  0.10597744263E+04  0.00000000000E+00 0.  1.
          1   -1    0    0  501    0  0.00000000000E+00 -0.00000000000E+00 -0.27328496701E+02  0.27328496701E+02  0.00000000000E+00 0. -1.
         23    2    1    2    0    0 -0.60775920402E+02 -0.45570686965E+02  0.89015650094E+03  0.90210651835E+03  0.12508866564E+03 0.  0.
          5    1    3    3  502    0 -0.85734292828E+02 -0.21962284421E+02  0.80955557261E+03  0.81438959254E+03  0.41800000000E+01 0.  1.
         -5    1    3    3    0  502  0.24958372426E+02 -0.23608402544E+02  0.80600928338E+02  0.87716925812E+02  0.41800000000E+01 0.  1.
        -11    1    1    2    0    0  0.31568481052E+02  0.48773132647E+02  0.14428849606E+03  0.15554599821E+03  0.00000000000E+00 0.  1.
         11    1    1    2    0    0  0.29207439350E+02 -0.32024456815E+01 -0.19990673580E+01  0.29450406483E+02  0.00000000000E+00 0. -1.
</event>
<event>
 7    1  0.6506388E-006  0.8818234E+02  0.7561462E-02  0.1307314E+00
         -1   -1    0    0    0  501 -0.00000000000E+00  0.00000000000E+00  0.13494643447E+03  0.13494643447E+03  0.00000000000E+00 0.  1.
          1   -1    0    0  501    0  0.00000000000E+00 -0.00000000000E+00 -0.14985540562E+03  0.14985540562E+03  0.00000000000E+00 0. -1.
         23    2    1    2    0    0  0.18599189383E+02 -0.28097602224E+02  0.82438132853E+02  0.14192869304E+03  0.11050928948E+03 0.  0.
          5    1    3    3  502    0 -0.28033450509E+02  0.16562158330E+01 -0.13243655721E+02  0.31328648474E+02  0.41800000000E+01 0. -1.
         -5    1    3    3    0  502  0.46632639891E+02 -0.29753818057E+02  0.95681788575E+02  0.11060004456E+03  0.41800000000E+01 0.  1.
        -11    1    1    2    0    0  0.32369497689E+02  0.25946303251E+02 -0.77938801373E+02  0.88291855754E+02  0.00000000000E+00 0.  1.
         11    1    1    2    0    0 -0.50968687072E+02  0.21512989727E+01 -0.19408302624E+02  0.54581291298E+02  0.00000000000E+00 0. -1.
</event>
<event>
 7    1  0.6506388E-006  0.9184964E+02  0.7561462E-02  0.1298433E+00
         -1   -1    0    0    0  501 -0.00000000000E+00  0.00000000000E+00  0.37223439512E+02  0.37223439512E+02  0.00000000000E+00 0.  1.
          1   -1    0    0  501    0  0.00000000000E+00 -0.00000000000E+00 -0.34209035918E+03  0.34209035918E+03  0.00000000000E+00 0. -1.
         23    2    1    2    0    0 -0.70312212400E+01 -0.32705774534E+01 -0.12179530578E+03  0.17476216910E+03  0.12509030534E+03 0.  0.
          5    1    3    3  502    0 -0.60248634760E+02  0.24475189811E+02 -0.64076576825E+02  0.91390442632E+02  0.41800000000E+01 0.  1.
         -5    1    3    3    0  502  0.53217413520E+02 -0.27745767264E+02 -0.57718728956E+02  0.83371726473E+02  0.41800000000E+01 0.  1.
        -11    1    1    2    0    0  0.17913271650E+02  0.26922978589E+02 -0.17400207408E+03  0.17698150712E+03  0.00000000000E+00 0. -1.
         11    1    1    2    0    0 -0.10882050410E+02 -0.23652401136E+02 -0.90695398038E+01  0.27570122467E+02  0.00000000000E+00 0.  1.
</event>
<event>
 7    1  0.6506388E-006  0.2171560E+03  0.7561462E-02  0.1136021E+00
         -2   -1    0    0    0  501 -0.00000000000E+00  0.00000000000E+00  0.40499567080E+02  0.40499567080E+02  0.00000000000E+00 0.  1.
          2   -1    0    0  501    0  0.00000000000E+00 -0.00000000000E+00 -0.14000106055E+04  0.14000106055E+04  0.00000000000E+00 0. -1.
         23    2    1    2    0    0 -0.40638161118E+02  0.20681141320E+03 -0.64511068851E+03  0.69009957845E+03  0.12508879637E+03 0.  0.
          5    1    3    3  502    0  0.77152218912E+01  0.98235532092E+02 -0.45718989955E+03  0.46770698206E+03  0.41800000000E+01 0.  1.
         -5    1    3    3    0  502 -0.48353383009E+02  0.10857588111E+03 -0.18792078896E+03  0.22239259639E+03  0.41800000000E+01 0.  1.
        -11    1    1    2    0    0  0.25211957288E-01 -0.12885068665E+03 -0.29524576537E+03  0.32213748937E+03  0.00000000000E+00 0.  1.
         11    1    1    2    0    0  0.40612949161E+02 -0.77960726547E+02 -0.41915458456E+03  0.42827310478E+03  0.00000000000E+00 0. -1.
</event>
<event>
 7    1  0.6506388E-006  0.1092262E+03  0.7561462E-02  0.1262010E+00
         -1   -1    0    0    0  501 -0.00000000000E+00  0.00000000000E+00  0.33232889500E+03  0.33232889500E+03  0.00000000000E+00 0.  1.
          1   -1    0    0  501    0  0.00000000000E+00 -0.00000000000E+00 -0.59277740009E+02  0.59277740009E+02  0.00000000000E+00 0. -1.
         23    2    1    2    0    0  0.52992228110E+02  0.70367287191E+02  0.13747576288E+03  0.20568852578E+03  0.12509377648E+03 0.  0.
          5    1    3    3  502    0  0.16621176840E+02 -0.31979142850E+01  0.12053436096E+03  0.12178872997E+03  0.41800000000E+01 0. -1.
         -5    1    3    3    0  502  0.36371051269E+02  0.73565201476E+02  0.16941401915E+02  0.83899795813E+02  0.41800000000E+01 0. -1.
        -11    1    1    2    0    0  0.17829582228E+02 -0.35897615897E+02  0.16935296316E+02  0.43512493503E+02  0.00000000000E+00 0. -1.
         11    1    1    2    0    0 -0.70821810337E+02 -0.34469671294E+02  0.11864009580E+03  0.14240561573E+03  0.00000000000E+00 0.  1.
</event>
<event>
 7    1  0.6506388E-006  0.1106525E+03  0.7561462E-02  0.1259366E+00
          2   -1    0    0  501    0  0.00000000000E+00  0.00000000000E+00  0.43748793151E+03  0.43748793151E+03  0.00000000000E+00 0. -1.
         -2   -1    0    0    0  501 -0.00000000000E+00 -0.00000000000E+00 -0.30271495056E+02  0.30271495056E+02  0.00000000000E+00 0.  1.
         23    2    1    2    0    0  0.12320436643E+02 -0.30829010341E+02  0.26264592819E+03  0.29280335074E+03  0.12509475437E+03 0.  0.
          5    1    3    3  502    0  0.44072189185E+02 -0.65736521556E+02  0.19232117267E+03  0.20801094679E+03  0.41800000000E+01 0. -1.
         -5    1    3    3    0  502 -0.31751752542E+02  0.34907511215E+02  0.70324755522E+02  0.84792403952E+02  0.41800000000E+01 0. -1.
        -11    1    1    2    0    0 -0.40180205679E+02 -0.13443801937E+02  0.41171646556E+02  0.59078669747E+02  0.00000000000E+00 0.  1.
         11    1    1    2    0    0  0.27859769036E+02  0.44272812278E+02  0.10339886170E+03  0.11587740608E+03  0.00000000000E+00 0. -1.
</event>
<event>
 7    1  0.6506388E-006  0.8190568E+02  0.7561462E-02  0.1323729E+00
          2   -1    0    0  501    0  0.00000000000E+00  0.00000000000E+00  0.10506834769E+03  0.10506834769E+03  0.00000000000E+00 0. -1.
         -2   -1    0    0    0  501 -0.00000000000E+00 -0.00000000000E+00 -0.12882398290E+03  0.12882398290E+03  0.00000000000E+00 0.  1.
         23    2    1    2    0    0  0.27971278841E+02 -0.99922897300E+01 -0.26758706213E+02  0.13132231351E+03  0.12508910174E+03 0.  0.
          5    1    3    3  502    0  0.57642370561E+02 -0.36930966191E+00 -0.61534629157E+02  0.84420153156E+02  0.41800000000E+01 0.  1.
         -5    1    3    3    0  502 -0.29671091720E+02 -0.96229800681E+01  0.34775922943E+02  0.46902160353E+02  0.41800000000E+01 0.  1.
        -11    1    1    2    0    0 -0.16457805974E+02 -0.29297202623E+02 -0.33695932805E+02  0.47587827715E+02  0.00000000000E+00 0.  1.
         11    1    1    2    0    0 -0.11513472867E+02  0.39289492353E+02  0.36699003813E+02  0.54982189368E+02  0.00000000000E+00 0. -1.
</event>
<event>
 7    1  0.6506388E-006  0.1863606E+03  0.7561462E-02  0.1161785E+00
          2   -1    0    0  501    0  0.00000000000E+00  0.00000000000E+00  0.25737446885E+03  0.25737446885E+03  0.00000000000E+00 0. -1.
         -2   -1    0    0    0  501 -0.00000000000E+00 -0.00000000000E+00 -0.16211759678E+03  0.16211759678E+03  0.00000000000E+00 0.  1.
         23    2    1    2    0    0 -0.28122393298E+02  0.16135930895E+03 -0.67344285329E+01  0.20620563226E+03  0.12509082564E+03 0.  0.
          5    1    3    3  502    0 -0.57819859888E+02  0.14997069157E+03 -0.33722612152E+02  0.16428338777E+03  0.41800000000E+01 0.  1.
         -5    1    3    3    0  502  0.29697466591E+02  0.11388617378E+02  0.26988183619E+02  0.41922244486E+02  0.41800000000E+01 0.  1.
        -11    1    1    2    0    0 -0.25213024353E+02 -0.39843415023E+02  0.21190274322E+01  0.47198353731E+02  0.00000000000E+00 0.  1.
         11    1    1    2    0    0  0.53335417651E+02 -0.12151589392E+03  0.99872273166E+02  0.16608807964E+03  0.00000000000E+00 0. -1.
</event>
<event>
 7    1  0.6506388E-006  0.1211105E+03  0.7561462E-02  0.1241276E+00
         -1   -1    0    0    0  501 -0.00000000000E+00  0.00000000000E+00  0.33648380941E+02  0.33648380941E+02  0.00000000000E+00 0.  1.
          1   -1    0    0  501    0  0.00000000000E+00 -0.00000000000E+00 -0.48184040962E+03  0.48184040962E+03  0.00000000000E+00 0. -1.
         23    2    1    2    0    0  0.64561485947E+02  0.95718502316E+00 -0.22361768829E+03  0.26423468231E+03  0.12508395240E+03 0.  0.
          5    1    3    3  502    0 -0.28541829464E+02  0.25254975759E+02 -0.10285840039E+03  0.10977145695E+03  0.41800000000E+01 0.  1.
         -5    1    3    3    0  502  0.93103315411E+02 -0.24297790736E+02 -0.12075928790E+03  0.15446322536E+03  0.41800000000E+01 0.  1.
        -11    1    1    2    0    0 -0.81348455696E+02 -0.18354294633E+02 -0.13682937095E+03  0.16023959601E+03  0.00000000000E+00 0. -1.
         11    1    1    2    0    0  0.16786969749E+02  0.17397109610E+02 -0.87744969436E+02  0.91014512236E+02  0.00000000000E+00 0.  1.
</event>
<event>
 7    1  0.6506388E-006  0.1248971E+03  0.7561462E-02  0.1235230E+00
         -3   -1    0    0    0  501 -0.00000000000E+00  0.00000000000E+00  0.53539319679E+03  0.53539319679E+03  0.00000000000E+00 0.  1.
          3   -1    0    0  501    0  0.00000000000E+00 -0.00000000000E+00 -0.42112048394E+02  0.42112048394E+02  0.00000000000E+00 0. -1.
         23    2    1    2    0    0 -0.33077132835E+02 -0.97194105725E+02  0.29461064112E+03  0.33612981947E+03  0.12508810804E+03 0.  0.
          5    1    3    3  502    0 -0.59463974549E+02 -0.10359387900E+03  0.16559934212E+03  0.20422602809E+03  0.41800000000E+01 0.  1.
         -5    1    3    3    0  502  0.26386841714E+02  0.63997732789E+01  0.12901129899E+03  0.13190379138E+03  0.41800000000E+01 0.  1.
        -11    1    1    2    0    0  0.11790735899E+02  0.27270616932E+02  0.25919135694E-01  0.29710413540E+02  0.00000000000E+00 0. -1.
         11    1    1    2    0    0  0.21286396936E+02  0.69923488793E+02  0.19864458814E+03  0.21166501217E+03  0.00000000000E+00 0.  1.
</event>
<event>
 7    1  0.6506388E-006  0.9887502E+02  0.7561462E-02  0.1282680E+00
          4   -1    0    0  501    0  0.00000000000E+00  0.00000000000E+00  0.10345617323E+03  0.10345617323E+03  0.00000000000E+00 0. -1.
         -4   -1    0    0    0  501 -0.00000000000E+00 -0.00000000000E+00 -0.14656133660E+03  0.14656133660E+03  0.00000000000E+00 0.  1.
         23    2    1    2    0    0  0.16317479774E+02  0.50238135906E+02 -0.16275872854E+02  0.13675801398E+03  0.12509084661E+03 0.  0.
          5    1    3    3  502    0  0.46052859179E+02  0.26698981456E+02 -0.58934156653E+02  0.79526150855E+02  0.41800000000E+01 0. -1.
         -5    1    3    3    0  502 -0.29735379404E+02  0.23539154449E+02  0.42658283799E+02  0.57231863129E+02  0.41800000000E+01 0. -1.
        -11    1    1    2    0    0 -0.52301619058E+02 -0.11937873259E+02 -0.28366112353E+02  0.60684499702E+02  0.00000000000E+00 0. -1.
         11    1    1    2    0    0  0.35984139283E+02 -0.38300262647E+02  0.15368218400E+01  0.52574996150E+02  0.00000000000E+00 0.  1.
</event>
<event>
 7    1  0.6506388E-006  0.1055947E+03  0.7561462E-02  0.1268952E+00
         -1   -1    0    0    0  501 -0.00000000000E+00  0.00000000000E+00  0.38437622675E+02  0.38437622675E+02  0.00000000000E+00 0.  1.
          1   -1    0    0  501    0  0.00000000000E+00 -0.00000000000E+00 -0.43930547580E+03  0.43930547580E+03  0.00000000000E+00 0. -1.
         23    2    1    2    0    0  0.11246764435E+02  0.50270057717E+02 -0.13144935040E+03  0.18860395477E+03  0.12505579403E+03 0.  0.
          5    1    3    3  502    0 -0.28303592371E+02 -0.26653053321E+02 -0.76868380070E+02  0.86242094403E+02  0.41800000000E+01 0. -1.
         -5    1    3    3    0  502  0.39550356806E+02  0.76923111037E+02 -0.54580970335E+02  0.10236186037E+03  0.41800000000E+01 0. -1.
        -11    1    1    2    0    0 -0.37996394314E+02 -0.43774060543E+02 -0.24678768964E+03  0.25350356627E+03  0.00000000000E+00 0. -1.
         11    1    1    2    0    0  0.26749629879E+02 -0.64959971737E+01 -0.22630813080E+02  0.35635577428E+02  0.00000000000E+00 0.  1.
</event>
<event>
 7    1  0.1006491E-005  0.8289507E+02  0.7561462E-02  0.1321031E+00
          1   -1    0    0  501    0  0.00000000000E+00  0.00000000000E+00  0.15875689158E+03  0.15875689158E+03  0.00000000000E+00 0. -1.
         -1   -1    0    0    0  501 -0.00000000000E+00 -0.00000000000E+00 -0.92417187421E+02  0.92417187421E+02  0.00000000000E+00 0.  1.
         23    2    1    2    0    0  0.38647022102E+02  0.47261976623E+01 -0.78280367178E+00  0.13101284474E+03  0.12509126046E+03 0.  0.
          5    1    3    3  502    0 -0.17007214587E+02  0.19262741338E+02 -0.49231039310E+02  0.55690808788E+02  0.41800000000E+01 0.  1.
         -5    1    3    3    0  502  0.55654236688E+02 -0.14536543676E+02  0.48448235638E+02  0.75322035951E+02  0.41800000000E+01 0.  1.
        -11    1    1    2    0    0 -0.47778232317E+02  0.22903043999E+02  0.73269785167E+02  0.90419966413E+02  0.00000000000E+00 0. -1.
         11    1    1    2    0    0  0.91312102154E+01 -0.27629241662E+02 -0.61472773330E+01  0.29741267851E+02  0.00000000000E+00 0.  1.
</event>
<event>
 7    1  0.6506388E-006  0.1598683E+03  0.7561462E-02  0.1188845E+00
          2   -1    0    0  501    0  0.00000000000E+00  0.00000000000E+00  0.18344123953E+03  0.18344123953E+03  0.00000000000E+00 0. -1.
         -2   -1    0    0    0  501 -0.00000000000E+00 -0.00000000000E+00 -0.17783261440E+03  0.17783261440E+03  0.00000000000E+00 0.  1.
         23    2    1    2    0    0 -0.72136444570E+01  0.13974432617E+03 -0.97031349705E+01  0.18794120141E+03  0.12508889237E+03 0.  0.
          5    1    3    3  502    0 -0.42538425266E+02  0.12142034078E+03  0.29350894544E+02  0.13202789171E+03  0.41800000000E+01 0. -1.
         -5    1    3    3    0  502  0.35324780809E+02  0.18323985396E+02 -0.39054029515E+02  0.55913309698E+02  0.41800000000E+01 0. -1.
        -11    1    1    2    0    0 -0.21475110285E+02 -0.26149310975E+02 -0.32381895148E+02  0.46835392169E+02  0.00000000000E+00 0.  1.
         11    1    1    2    0    0  0.28688754742E+02 -0.11359501520E+03  0.47693655253E+02  0.12649726036E+03  0.00000000000E+00 0. -1.
</event>
<event>
 7    1  0.6506388E-006  0.7568723E+02  0.7561462E-02  0.1341756E+00
         -4   -1    0    0    0  501 -0.00000000000E+00  0.00000000000E+00  0.18258998994E+02  0.18258998994E+02  0.00000000000E+00 0.  1.
          4   -1    0    0  501    0  0.00000000000E+00 -0.00000000000E+00 -0.66537823153E+03  0.66537823153E+03  0.00000000000E+00 0. -1.
         23    2    1    2    0    0 -0.11039532942E+01  0.51190408555E-01 -0.32680631811E+03  0.34992895303E+03  0.12508669504E+03 0.  0.
          5    1    3    3  502    0  0.28864190485E+02  0.51318729287E+01 -0.31602284066E+03  0.31740728698E+03  0.41800000000E+01 0. -1.
         -5    1    3    3    0  502 -0.29968143779E+02 -0.50806825201E+01 -0.10783477453E+02  0.32521666046E+02  0.41800000000E+01 0. -1.
        -11    1    1    2    0    0 -0.52914099748E+01 -0.45185427142E+02 -0.12154734318E+03  0.12978242747E+03  0.00000000000E+00 0.  1.
         11    1    1    2    0    0  0.63953632689E+01  0.45134236733E+02 -0.19876557125E+03  0.20392585003E+03  0.00000000000E+00 0. -1.
</event>
<event>
 7    1  0.6506388E-006  0.9688710E+02  0.7561462E-02  0.1286982E+00
          1   -1    0    0  501    0  0.00000000000E+00  0.00000000000E+00  0.18098033306E+02  0.18098033306E+02  0.00000000000E+00 0. -1.
         -1   -1    0    0    0  501 -0.00000000000E+00 -0.00000000000E+00 -0.80116204590E+03  0.80116204590E+03  0.00000000000E+00 0.  1.
         23    2    1    2    0    0 -0.37864130703E+02  0.18498453673E+02 -0.54070681761E+03  0.55658590683E+03  0.12509246138E+03 0.  0.
          5    1    3    3  502    0 -0.50161720969E+02 -0.18598646878E+02 -0.94672152141E+02  0.10882277660E+03  0.41800000000E+01 0.  1.
         -5    1    3    3    0  502  0.12297590267E+02  0.37097100551E+02 -0.44603466547E+03  0.44776313023E+03  0.41800000000E+01 0.  1.
        -11    1    1    2    0    0 -0.11489654593E+01  0.34765251435E+02 -0.96235093395E+02  0.10232856898E+03  0.00000000000E+00 0. -1.
         11    1    1    2    0    0  0.39013096162E+02 -0.53263705108E+02 -0.14612210159E+03  0.16034560339E+03  0.00000000000E+00 0.  1.
</event>
<event>
 7    1  0.6506388E-006  0.1366303E+03  0.7561462E-02  0.1217936E+00
         -1   -1    0    0    0  501 -0.00000000000E+00  0.00000000000E+00  0.13493929150E+03  0.13493929150E+03  0.00000000000E+00 0.  1.
          1   -1    0    0  501    0  0.00000000000E+00 -0.00000000000E+00 -0.15144339927E+03  0.15144339927E+03  0.00000000000E+00 0. -1.
         23    2    1    2    0    0  0.91664863387E+02 -0.20498414368E+02 -0.13846019712E+02  0.15704083265E+03  0.12508988243E+03 0.  0.
          5    1    3    3  502    0  0.16007941997E+01  0.40975812453E+02 -0.23572820202E+02  0.47483997310E+02  0.41800000000E+01 0.  1.
         -5    1    3    3    0  502  0.90064069187E+02 -0.61474226821E+02  0.97268004898E+01  0.10955683534E+03  0.41800000000E+01 0.  1.
        -11    1    1    2    0    0  0.12653078302E+02 -0.77549829770E+01  0.13502685696E+02  0.20063964526E+02  0.00000000000E+00 0.  1.
         11    1    1    2    0    0 -0.10431794169E+03  0.28253397345E+02 -0.16160773751E+02  0.10927789359E+03  0.00000000000E+00 0. -1.
</event>
<event>
 7    1  0.6506388E-006  0.1114475E+03  0.7561462E-02  0.1257913E+00
         -1   -1    0    0    0  501 -0.00000000000E+00  0.00000000000E+00  0.40643483317E+03  0.40643483317E+03  0.00000000000E+00 0.  1.
          1   -1    0    0  501    0  0.00000000000E+00 -0.00000000000E+00 -0.46841805802E+02  0.46841805802E+02  0.00000000000E+00 0. -1.
         23    2    1    2    0    0 -0.28873974099E+02  0.66003985850E+02  0.26966273389E+03  0.30587018716E+03  0.12509336040E+03 0.  0.
          5    1    3    3  502    0  0.27057432257E+02 -0.18377398528E+02  0.26035556459E+02  0.42013759855E+02  0.41800000000E+01 0.  1.
         -5    1    3    3    0  502 -0.55931406357E+02  0.84381384378E+02  0.24362717743E+03  0.26385642730E+03  0.41800000000E+01 0.  1.
        -11    1    1    2    0    0 -0.14894267580E+02 -0.21716616088E+02  0.80165221109E+02  0.84379578670E+02  0.00000000000E+00 0.  1.
         11    1    1    2    0    0  0.43768241679E+02 -0.44287369762E+02  0.97650723719E+01  0.63026873146E+02  0.00000000000E+00 0. -1.
</event>
<event>
 7    1  0.6506388E-006  0.9021194E+02  0.7561462E-02  0.1302339E+00
         -2   -1    0    0    0  501 -0.00000000000E+00  0.00000000000E+00  0.11841540868E+03  0.11841540868E+03  0.00000000000E+00 0.  1.
          2   -1    0    0  501    0  0.00000000000E+00 -0.00000000000E+00 -0.11911205178E+03  0.11911205178E+03  0.00000000000E+00 0. -1.
         23    2    1    2    0    0 -0.34130084973E+02 -0.19426760830E+02  0.28035644078E+02  0.13407424951E+03  0.12509054843E+03 0.  0.
          5    1    3    3  502    0 -0.56183460165E+02  0.32596467075E+02 -0.99713052048E+01  0.65848387902E+02  0.41800000000E+01 0.  1.
         -5    1    3    3    0  502  0.22053375191E+02 -0.52023227905E+02  0.38006949283E+02  0.68225861613E+02  0.41800000000E+01 0.  1.
        -11    1    1    2    0    0  0.26207300098E+02 -0.10113927234E+02 -0.55889293100E+02  0.62551796023E+02  0.00000000000E+00 0. -1.
         11    1    1    2    0    0  0.79227848757E+01  0.29540688064E+02  0.27157005930E+02  0.40901414922E+02  0.00000000000E+00 0.  1.
</event>
<event>
 7    1  0.6506388E-006  0.1877904E+03  0.7561462E-02  0.1160469E+00
         -2   -1    0    0    0  501 -0.00000000000E+00  0.00000000000E+00  0.24615690285E+02  0.24615690285E+02  0.00000000000E+00 0.  1.
          2   -1    0    0  501    0  0.00000000000E+00 -0.00000000000E+00 -0.16097550366E+04  0.16097550366E+04  0.00000000000E+00 0. -1.
         23    2    1    2    0    0 -0.15991698877E+03  0.48420378234E+02 -0.77588322965E+03  0.80346793720E+03  0.12509182114E+03 0.  0.
          5    1    3    3  502    0 -0.52578000959E+02  0.78603980800E+02 -0.29527350788E+03  0.31007571469E+03  0.41800000000E+01 0. -1.
         -5    1    3    3    0  502 -0.10733898781E+03 -0.30183602566E+02 -0.48060972178E+03  0.49339222251E+03  0.41800000000E+01 0. -1.
        -11    1    1    2    0    0  0.47009635776E+02 -0.27650671847E+02 -0.11570525843E+03  0.12791470728E+03  0.00000000000E+00 0.  1.
         11    1    1    2    0    0  0.11290735299E+03 -0.20769706387E+02 -0.69355085825E+03  0.70298808244E+03  0.00000000000E+00 0. -1.
</event>
<event>
 7    1  0.6506388E-006  0.7473092E+02  0.7561462E-02  0.1344706E+00
         -2   -1    0    0    0  501 -0.00000000000E+00  0.00000000000E+00  0.14123047839E+04  0.14123047839E+04  0.00000000000E+00 0.  1.
          2   -1    0    0  501    0  0.00000000000E+00 -0.00000000000E+00 -0.15902993052E+02  0.15902993052E+02  0.00000000000E+00 0. -1.
         23    2    1    2    0    0 -0.32480665081E+02 -0.47962254983E+01  0.12190709546E+04  0.12259111048E+04  0.12508416045E+03 0.  0.
          5    1    3    3  502    0  0.62034727131E+01  0.16193247401E+02  0.10763930056E+04  0.10765407931E+04  0.41800000000E+01 0. -1.
         -5    1    3    3    0  502 -0.38684137794E+02 -0.20989472900E+02  0.14267794905E+03  0.14937031175E+03  0.41800000000E+01 0. -1.
        -11    1    1    2    0    0  0.29829082767E+02  0.41227550501E+02  0.56371554741E+02  0.75942328664E+02  0.00000000000E+00 0. -1.
         11    1    1    2    0    0  0.26515823145E+01 -0.36431325003E+02  0.12095928154E+03  0.12635434350E+03  0.00000000000E+00 0.  1.
</event>
<event>
 7    1  0.6506388E-006  0.1670312E+03  0.7561462E-02  0.1180980E+00
         -1   -1    0    0    0  501 -0.00000000000E+00  0.00000000000E+00  0.16879745940E+03  0.16879745940E+03  0.00000000000E+00 0.  1.
          1   -1    0    0  501    0  0.00000000000E+00 -0.00000000000E+00 -0.17037320280E+03  0.17037320280E+03  0.00000000000E+00 0. -1.
         23    2    1    2    0    0 -0.80479134959E+02  0.10196304230E+03 -0.37556416461E+00  0.18033018829E+03  0.12508190357E+03 0.  0.
          5    1    3    3  502    0 -0.74232130015E+02  0.12807851946E+03  0.15423839150E+02  0.14889554556E+03  0.41800000000E+01 0. -1.
         -5    1    3    3    0  502 -0.62470049437E+01 -0.26115477161E+02 -0.15799403315E+02  0.31434642725E+02  0.41800000000E+01 0. -1.
        -11    1    1    2    0    0  0.30628400357E+02  0.13162602145E+02  0.12666014839E+01  0.33361014418E+02  0.00000000000E+00 0. -1.
         11    1    1    2    0    0  0.49850734602E+02 -0.11512564445E+03 -0.24667807211E+01  0.12547945950E+03  0.00000000000E+00 0.  1.
</event>
<event>
 7    1  0.6506388E-006  0.1504374E+03  0.7561462E-02  0.1199937E+00
          1   -1    0    0  501    0  0.00000000000E+00  0.00000000000E+00  0.13503569012E+03  0.13503569012E+03  0.00000000000E+00 0. -1.
         -1   -1    0    0    0  501 -0.00000000000E+00 -0.00000000000E+00 -0.17222412294E+03  0.17222412294E+03  0.00000000000E+00 0.  1.
         23    2    1    2    0    0  0.10322271365E+03 -0.27687808500E+02 -0.34909098589E+02  0.16819229273E+03  0.12509380008E+03 0.  0.
          5    1    3    3  502    0  0.13882540883E+02  0.45793455841E+02 -0.17580654823E+02  0.51149949787E+02  0.41800000000E+01 0. -1.
         -5    1    3    3    0  502  0.89340172763E+02 -0.73481264341E+02 -0.17328443766E+02  0.11704234294E+03  0.41800000000E+01 0. -1.
        -11    1    1    2    0    0 -0.62776735985E+01  0.38985371480E+02  0.98993359249E+01  0.40709522559E+02  0.00000000000E+00 0.  1.
         11    1    1    2    0    0 -0.96945040047E+02 -0.11297562980E+02 -0.12178670162E+02  0.98357997773E+02  0.00000000000E+00 0. -1.
</event>
<event>
 7    1  0.6506388E-006  0.9908344E+02  0.7561462E-02  0.1282235E+00
          2   -1    0    0  501    0  0.00000000000E+00  0.00000000000E+00  0.59397311644E+03  0.59397311644E+03  0.00000000000E+00 0. -1.
         -2   -1    0    0    0  501 -0.00000000000E+00 -0.00000000000E+00 -0.22189022976E+02  0.22189022976E+02  0.00000000000E+00 0.  1.
         23    2    1    2    0    0  0.87692600841E+01  0.28073190108E+02  0.25756073199E+03  0.28783309187E+03  0.12508139026E+03 0.  0.
          5    1    3    3  502    0  0.56159557462E+02  0.34850641277E+02  0.21010653110E+03  0.22029682227E+03  0.41800000000E+01 0.  1.
         -5    1    3    3    0  502 -0.47390297378E+02 -0.67774511685E+01  0.47454200883E+02  0.67536269599E+02  0.41800000000E+01 0.  1.
        -11    1    1    2    0    0  0.25277040468E+02  0.14681460664E+02  0.45332311877E+02  0.53939712293E+02  0.00000000000E+00 0.  1.
         11    1    1    2    0    0 -0.34046300552E+02 -0.42754650773E+02  0.26889104960E+03  0.27438933525E+03  0.00000000000E+00 0. -1.
</event>
<event>
 7    1  0.6506388E-006  0.1277360E+03  0.7561462E-02  0.1230854E+00
          1   -1    0    0  501    0  0.00000000000E+00  0.00000000000E+00  0.16295944985E+03  0.16295944985E+03  0.00000000000E+00 0. -1.
         -1   -1    0    0    0  501 -0.00000000000E+00 -0.00000000000E+00 -0.12800100860E+03  0.12800100860E+03  0.00000000000E+00 0.  1.
         23    2    1    2    0    0  0.96953146608E+01  0.77265377783E+02 -0.36578493345E+02  0.15181533952E+03  0.12508386550E+03 0.  0.
          5    1    3    3  502    0 -0.28398143346E+02  0.91155682527E+02 -0.51312448137E+02  0.10847235932E+03  0.41800000000E+01 0. -1.
         -5    1    3    3    0  502  0.38093458006E+02 -0.13890304744E+02  0.14733954793E+02  0.43342980200E+02  0.41800000000E+01 0. -1.
        -11    1    1    2    0    0 -0.49698111870E+02 -0.33989537179E+02  0.32068730247E+02  0.68217258965E+02  0.00000000000E+00 0.  1.
         11    1    1    2    0    0  0.40002797209E+02 -0.43275840605E+02  0.39468204348E+02  0.70927859964E+02  0.00000000000E+00 0. -1.
</event>
<event>
 7    1  0.6506388E-006  0.1331374E+03  0.7561462E-02  0.1222873E+00
         -3   -1    0    0    0  501 -0.00000000000E+00  0.00000000000E+00  0.18156541538E+03  0.18156541538E+03  0.00000000000E+00 0.  1.
          3   -1    0    0  501    0  0.00000000000E+00 -0.00000000000E+00 -0.14377599769E+03  0.14377599769E+03  0.00000000000E+00 0. -1.
         23    2    1    2    0    0 -0.75317003024E+02  0.70674746662E+02  0.97174154075E+02  0.18061374224E+03  0.11185229951E+03 0.  0.
          5    1    3    3  502    0 -0.27516661531E+02 -0.19537165106E+02 -0.69729546179E+01  0.34712562255E+02  0.41800000000E+01 0. -1.
         -5    1    3    3    0  502 -0.47800341493E+02  0.90211911768E+02  0.10414710869E+03  0.14590117998E+03  0.41800000000E+01 0.  1.
        -11    1    1    2    0    0  0.70957910060E+02 -0.87531317591E+02 -0.42367932947E+02  0.12038188527E+03  0.00000000000E+00 0. -1.
         11    1    1    2    0    0  0.43590929642E+01  0.16856570929E+02 -0.17016803441E+02  0.24345785555E+02  0.00000000000E+00 0.  1.
</event>
<event>
 7    1  0.6506388E-006  0.9433927E+02  0.7561462E-02  0.1292671E+00
          3   -1    0    0  501    0  0.00000000000E+00  0.00000000000E+00  0.11346070441E+03  0.11346070441E+03  0.00000000000E+00 0. -1.
         -3   -1    0    0    0  501 -0.00000000000E+00 -0.00000000000E+00 -0.11564439974E+03  0.11564439974E+03  0.00000000000E+00 0.  1.
         23    2    1    2    0    0 -0.46240429956E+01  0.24285669655E+02 -0.19911284555E+02  0.12908017375E+03  0.12511617193E+03 0.  0.
          5    1    3    3  502    0  0.37624760025E+02  0.57856665731E+02  0.53564220073E+01  0.69348251551E+02  0.41800000000E+01 0.  1.
         -5    1    3    3    0  502 -0.42248803021E+02 -0.33570996075E+02 -0.25267706562E+02  0.59731922195E+02  0.41800000000E+01 0.  1.
        -11    1    1    2    0    0  0.31220081918E+02 -0.30299951689E+01 -0.28656965761E+02  0.42486422211E+02  0.00000000000E+00 0.  1.
         11    1    1    2    0    0 -0.26596038922E+02 -0.21255674487E+02  0.46384554980E+02  0.57538508192E+02  0.00000000000E+00 0. -1.
</event>
<event>
 7    1  0.6506388E-006  0.2757117E+03  0.7561462E-02  0.1098054E+00
          2   -1    0    0  501    0  0.00000000000E+00  0.00000000000E+00  0.12688308359E+04  0.12688308359E+04  0.00000000000E+00 0. -1.
         -2   -1    0    0    0  501 -0.00000000000E+00 -0.00000000000E+00 -0.11281568074E+03  0.11281568074E+03  0.00000000000E+00 0.  1.
         23    2    1    2    0    0 -0.25955284190E+03  0.13658549285E+02  0.12346933831E+03  0.31376046815E+03  0.12508685049E+03 0.  0.
          5    1    3    3  502    0 -0.15788819744E+03  0.57648160676E+02  0.11264304917E+03  0.20238063703E+03  0.41800000000E+01 0.  1.
         -5    1    3    3    0  502 -0.10166464446E+03 -0.43989611391E+02  0.10826289142E+02  0.11137983112E+03  0.41800000000E+01 0.  1.
        -11    1    1    2    0    0  0.12692564366E+03  0.34175517775E+02  0.50390446744E+03  0.52076654783E+03  0.00000000000E+00 0.  1.
         11    1    1    2    0    0  0.13262719824E+03 -0.47834067060E+02  0.52864134943E+03  0.54711950067E+03  0.00000000000E+00 0. -1.
</event>
<event>
 7    1  0.6506388E-006  0.1241298E+03  0.7561462E-02  0.1236436E+00
         -2   -1    0    0    0  501 -0.00000000000E+00  0.00000000000E+00  0.10705571774E+03  0.10705571774E+03  0.00000000000E+00 0.  1.
          2   -1    0    0  501    0  0.00000000000E+00 -0.00000000000E+00 -0.15892077946E+03  0.15892077946E+03  0.00000000000E+00 0. -1.
         23    2    1    2    0    0  0.33596903944E+02  0.56008284332E+02  0.25538850355E+01  0.14113795924E+03  0.12509085235E+03 0.  0.
          5    1    3    3  502    0  0.75618343771E+02  0.56134448807E+02  0.18373511606E+02  0.96043055898E+02  0.41800000000E+01 0.  1.
         -5    1    3    3    0  502 -0.42021439828E+02 -0.12616447492E+00 -0.15819626571E+02  0.45094903343E+02  0.41800000000E+01 0.  1.
        -11    1    1    2    0    0 -0.22786934261E+02 -0.81206130509E+02 -0.46438860164E+02  0.96282125748E+02  0.00000000000E+00 0.  1.
         11    1    1    2    0    0 -0.10809969682E+02  0.25197846177E+02 -0.79800865850E+01  0.28556412212E+02  0.00000000000E+00 0. -1.
</event>
<event>
 7    1  0.6506388E-006  0.2330097E+03  0.7561462E-02  0.1124539E+00
          1   -1    0    0  501    0  0.00000000000E+00  0.00000000000E+00  0.25032265555E+03  0.25032265555E+03  0.00000000000E+00 0. -1.
         -1   -1    0    0    0  501 -0.00000000000E+00 -0.00000000000E+00 -0.25492284284E+03  0.25492284284E+03  0.00000000000E+00 0.  1.
         23    2    1    2    0    0  0.22586343165E+03  0.13484424085E+02  0.13993888899E+02  0.25891498183E+03  0.12508005213E+03 0.  0.
          5    1    3    3  502    0  0.21572302140E+02 -0.15045434598E+01  0.46516056760E+02  0.51466919542E+02  0.41800000000E+01 0.  1.
         -5    1    3    3    0  502  0.20429112951E+03  0.14988967545E+02 -0.32522167861E+02  0.20744806229E+03  0.41800000000E+01 0.  1.
        -11    1    1    2    0    0 -0.11356950041E+03 -0.45496709166E+02 -0.37676713776E+02  0.12801373649E+03  0.00000000000E+00 0.  1.
         11    1    1    2    0    0 -0.11229393124E+03  0.32012285081E+02  0.19082637583E+02  0.11831678007E+03  0.00000000000E+00 0. -1.
</event>
<event>
 7    1  0.6506388E-006  0.8456060E+02  0.7561462E-02  0.1316586E+00
          2   -1    0    0  501    0  0.00000000000E+00  0.00000000000E+00  0.21485069189E+03  0.21485069189E+03  0.00000000000E+00 0. -1.
         -2   -1    0    0    0  501 -0.00000000000E+00 -0.00000000000E+00 -0.87738901780E+02  0.87738901780E+02  0.00000000000E+00 0.  1.
         23    2    1    2    0    0 -0.16144884171E+02  0.47395933680E+02 -0.44936696130E+01  0.13481406456E+03  0.12509039581E+03 0.  0.
          5    1    3    3  502    0 -0.52666906914E+02  0.15463611870E+02 -0.45293508748E+02  0.71287451284E+02  0.41800000000E+01 0. -1.
         -5    1    3    3    0  502  0.36522022743E+02  0.31932321811E+02  0.40799839135E+02  0.63526613280E+02  0.41800000000E+01 0. -1.
        -11    1    1    2    0    0  0.30518231547E+02 -0.29741648934E+02  0.13775377599E+03  0.14419442062E+03  0.00000000000E+00 0. -1.
         11    1    1    2    0    0 -0.14373347376E+02 -0.17654284746E+02 -0.61483162645E+01  0.23581108489E+02  0.00000000000E+00 0.  1.
</event>
<event>
 7    1  0.6506388E-006  0.1079089E+03  0.7561462E-02  0.1264492E+00
         -2   -1    0    0    0  501 -0.00000000000E+00  0.00000000000E+00  0.71837013373E+03  0.71837013373E+03  0.00000000000E+00 0.  1.
          2   -1    0    0  501    0  0.00000000000E+00 -0.00000000000E+00 -0.18661820616E+02  0.18661820616E+02  0.00000000000E+00 0. -1.
         23    2    1    2    0    0 -0.30194323035E+02 -0.22314057385E+02  0.45882766690E+03  0.47633697289E+03  0.12232934860E+03 0.  0.
          5    1    3    3  502    0 -0.71656007985E+02 -0.19397534061E+02  0.18568035517E+03  0.20001378578E+03  0.41800000000E+01 0. -1.
         -5    1    3    3    0  502  0.41461684949E+02 -0.29165233244E+01  0.27314731173E+03  0.27632318711E+03  0.41800000000E+01 0.  1.
        -11    1    1    2    0    0 -0.30368721209E+02  0.24604485460E+02  0.94608950587E+02  0.10236451272E+03  0.00000000000E+00 0. -1.
         11    1    1    2    0    0  0.60563044244E+02 -0.22904280749E+01  0.14627169563E+03  0.15833046874E+03  0.00000000000E+00 0.  1.
</event>
<event>
 7    1  0.6506388E-006  0.8877030E+02  0.7561462E-02  0.1305857E+00
          1   -1    0    0  501    0  0.00000000000E+00  0.00000000000E+00  0.27186789018E+02  0.27186789018E+02  0.00000000000E+00 0. -1.
         -1   -1    0    0    0  501 -0.00000000000E+00 -0.00000000000E+00 -0.69398973058E+03  0.69398973058E+03  0.00000000000E+00 0.  1.
         23    2    1    2    0    0  0.65700243001E+01  0.13107681029E+02 -0.58311124146E+03  0.59655800457E+03  0.12509099240E+03 0.  0.
          5    1    3    3  502    0 -0.24798456418E+02  0.43392721502E+02 -0.10413563079E+03  0.11558370871E+03  0.41800000000E+01 0.  1.
         -5    1    3    3    0  502  0.31368480718E+02 -0.30285040473E+02 -0.47897561067E+03  0.48097429586E+03  0.41800000000E+01 0.  1.
        -11    1    1    2    0    0 -0.42678021579E+02 -0.19489126997E+02 -0.19740729257E+02  0.50901237594E+02  0.00000000000E+00 0. -1.
         11    1    1    2    0    0  0.36107997279E+02  0.63814459677E+01 -0.63950970846E+02  0.73717277434E+02  0.00000000000E+00 0.  1.
</event>
<event>
 7    1  0.6506388E-006  0.1336197E+03  0.7561462E-02  0.1222181E+00
         -1   -1    0    0    0  501 -0.00000000000E+00  0.00000000000E+00  0.82950065623E+02  0.82950065623E+02  0.00000000000E+00 0.  1.
          1   -1    0    0  501    0  0.00000000000E+00 -0.00000000000E+00 -0.33163188011E+03  0.33163188011E+03  0.00000000000E+00 0. -1.
         23    2    1    2    0    0  0.73982333505E+02 -0.64887988536E+02 -0.34979075066E+02  0.16295558528E+03  0.12508857004E+03 0.  0.
          5    1    3    3  502    0  0.16577865410E+02 -0.80194605823E+02 -0.56557077487E+02  0.99610119157E+02  0.41800000000E+01 0. -1.
         -5    1    3    3    0  502  0.57404468095E+02  0.15306617287E+02  0.21578002421E+02  0.63345466125E+02  0.41800000000E+01 0. -1.
        -11    1    1    2    0    0 -0.16010388751E+02  0.65786538834E+02 -0.73626996341E+02  0.10002567585E+03  0.00000000000E+00 0.  1.
         11    1    1    2    0    0 -0.57971944754E+02 -0.89855029738E+00 -0.14007574308E+03  0.15160068460E+03  0.00000000000E+00 0. -1.
</event>
<event>
 6    1  0.6506388E-006  0.1322899E+03  0.7561462E-02  0.1224097E+00
          1   -1    0    0  501    0  0.00000000000E+00  0.00000000000E+00  0.45607395031E+02  0.45607395031E+02  0.00000000000E+00 0. -1.
         -1   -1    0    0    0  501 -0.00000000000E+00 -0.00000000000E+00 -0.70270890844E+03  0.70270890844E+03  0.00000000000E+00 0.  1.
          5    1    1    2  502    0 -0.28949139939E+02  0.47897442901E+02 -0.82624159915E+02  0.99882140252E+02  0.41800000000E+01 0. -1.
         -5    1    1    2    0  502  0.93952504365E+02 -0.21102826202E+02 -0.50334594238E+03  0.51249098768E+03  0.41800000000E+01 0.  1.
        -11    1    1    2    0    0 -0.27532078433E+02 -0.57420003560E+02 -0.23046200370E+02  0.67721484798E+02  0.00000000000E+00 0. -1.
         11    1    1    2    0    0 -0.37471285994E+02  0.30625386862E+02 -0.48085210750E+02  0.68221690739E+02  0.00000000000E+00 0.  1.
</event>
<event>
 7    1  0.6506388E-006  0.1172871E+03  0.7561462E-02  0.1247641E+00
          1   -1    0    0  501    0  0.00000000000E+00  0.00000000000E+00  0.69685166825E+03  0.69685166825E+03  0.00000000000E+00 0. -1.
         -1   -1    0    0    0  501 -0.00000000000E+00 -0.00000000000E+00 -0.23006332151E+02  0.23006332151E+02  0.00000000000E+00 0.  1.
         23    2    1    2    0    0  0.52682301660E+02  0.20053839988E+02  0.28276161256E+03  0.31429091454E+03  0.12508824094E+03 0.  0.
          5    1    3    3  502    0  0.82627645977E+02  0.39058636226E+02  0.24847715496E+03  0.26478533548E+03  0.41800000000E+01 0. -1.
         -5    1    3    3    0  502 -0.29945344317E+02 -0.19004796238E+02  0.34284457593E+02  0.49505579067E+02  0.41800000000E+01 0. -1.
        -11    1    1    2    0    0 -0.85202055107E+01  0.35440448581E+02  0.13830294058E+03  0.14302560145E+03  0.00000000000E+00 0.  1.
         11    1    1    2    0    0 -0.44162096149E+02 -0.55494288569E+02  0.25278078296E+03  0.26254148441E+03  0.00000000000E+00 0. -1.
</event>
<event>
 7    1  0.6506388E-006  0.6556909E+02  0.7561462E-02  0.1375843E+00
          1   -1    0    0  501    0  0.00000000000E+00  0.00000000000E+00  0.29512074163E+03  0.29512074163E+03  0.00000000000E+00 0. -1.
         -1   -1    0    0    0  501 -0.00000000000E+00 -0.00000000000E+00 -0.45676020827E+02  0.45676020827E+02  0.00000000000E+00 0.  1.
         23    2    1    2    0    0 -0.20553262416E+02  0.84923009325E+01  0.88894229327E+02  0.15506078410E+03  0.12508839670E+03 0.  0.
          5    1    3    3  502    0  0.79326951207E+01  0.85944469634E+01  0.11531626527E+03  0.11598321261E+03  0.41800000000E+01 0. -1.
         -5    1    3    3    0  502 -0.28485957536E+02 -0.10214603090E+00 -0.26422035944E+02  0.39077571496E+02  0.41800000000E+01 0. -1.
        -11    1    1    2    0    0  0.53237248341E+02  0.71094416239E+01  0.70147367395E+02  0.88348185740E+02  0.00000000000E+00 0. -1.
         11    1    1    2    0    0 -0.32683985926E+02 -0.15601742556E+02  0.90403124082E+02  0.97387792616E+02  0.00000000000E+00 0.  1.
</event>
<event>
 7    1  0.6506388E-006  0.1064114E+03  0.7561462E-02  0.1267363E+00
          2   -1    0    0  501    0  0.00000000000E+00  0.00000000000E+00  0.23386708936E+03  0.23386708936E+03  0.00000000000E+00 0. -1.
         -2   -1    0    0    0  501 -0.00000000000E+00 -0.00000000000E+00 -0.77650530813E+02  0.77650530813E+02  0.00000000000E+00 0.  1.
         23    2    1    2    0    0  0.77130035431E+02  0.21024458056E+02  0.73071165968E+02  0.16546603609E+03  0.12509413896E+03 0.  0.
          5    1    3    3  502    0  0.87991429999E+02 -0.77525211427E+01  0.26091807866E+01  0.88469619428E+02  0.41800000000E+01 0. -1.
         -5    1    3    3    0  502 -0.10861394568E+02  0.28776979199E+02  0.70461985181E+02  0.76996416666E+02  0.41800000000E+01 0. -1.
        -11    1    1    2    0    0 -0.75382638414E+02 -0.32104397400E+01  0.16752811540E+02  0.77288458337E+02  0.00000000000E+00 0.  1.
         11    1    1    2    0    0 -0.17473970177E+01 -0.17814018316E+02  0.66392581043E+02  0.68763125746E+02  0.00000000000E+00 0. -1.
</event>
<event>
 7    1  0.6506388E-006  0.1137432E+03  0.7561462E-02  0.1253791E+00
         -3   -1    0    0    0  501 -0.00000000000E+00  0.00000000000E+00  0.74881946211E+02  0.74881946211E+02  0.00000000000E+00 0.  1.
          3   -1    0    0  501    0  0.00000000000E+00 -0.00000000000E+00 -0.23538089004E+03  0.23538089004E+03  0.00000000000E+00 0. -1.
         23    2    1    2    0    0 -0.66760321612E+02  0.22056890178E+02 -0.53662353943E+02  0.15325395608E+03  0.12515462388E+03 0.  0.
          5    1    3    3  502    0  0.26154424129E+02 -0.25070241607E+02 -0.10970926775E+01  0.36486256702E+02  0.41800000000E+01 0.  1.
         -5    1    3    3    0  502 -0.92914745741E+02  0.47127131785E+02 -0.52565261265E+02  0.11676769938E+03  0.41800000000E+01 0.  1.
        -11    1    1    2    0    0  0.23576861055E+02 -0.34520618612E+02 -0.76834477404E+00  0.41810666585E+02  0.00000000000E+00 0. -1.
         11    1    1    2    0    0  0.43183460557E+02  0.12463728434E+02 -0.10606824512E+03  0.11519821359E+03  0.00000000000E+00 0.  1.
</event>
<event>
 7    1  0.6506388E-006  0.7875802E+02  0.7561462E-02  0.1332613E+00
         -1   -1    0    0    0  501 -0.00000000000E+00  0.00000000000E+00  0.74266412836E+03  0.74266412836E+03  0.00000000000E+00 0.  1.
          1   -1    0    0  501    0  0.00000000000E+00 -0.00000000000E+00 -0.38719146855E+02  0.38719146855E+02  0.00000000000E+00 0. -1.
         23    2    1    2    0    0  0.19119920750E+02  0.65123345511E+02  0.62875912077E+03  0.64439885078E+03  0.12371428955E+03 0.  0.
          5    1    3    3  502    0  0.33304393909E+02  0.13926339296E+02  0.53744688653E+03  0.53867407012E+03  0.41800000000E+01 0.  1.
         -5    1    3    3    0  502 -0.14184473159E+02  0.51197006215E+02  0.91312234241E+02  0.10572478066E+03  0.41800000000E+01 0.  1.
        -11    1    1    2    0    0 -0.77751488184E+01 -0.28920654884E+02  0.91060411826E+02  0.95858519809E+02  0.00000000000E+00 0.  1.
         11    1    1    2    0    0 -0.11344771932E+02 -0.36202690628E+02 -0.15874551090E+02  0.41125904624E+02  0.00000000000E+00 0. -1.
</event>
<event>
 7    1  0.6506388E-006  0.1114886E+03  0.7561462E-02  0.1257838E+00
          1   -1    0    0  501    0  0.00000000000E+00  0.00000000000E+00  0.39846401369E+03  0.39846401369E+03  0.00000000000E+00 0. -1.
         -1   -1    0    0    0  501 -0.00000000000E+00 -0.00000000000E+00 -0.44250694962E+02  0.44250694962E+02  0.00000000000E+00 0.  1.
         23    2    1    2    0    0  0.53944677572E+02 -0.40304573520E+02  0.13790316931E+03  0.19798737360E+03  0.12508888484E+03 0.  0.
          5    1    3    3  502    0  0.69745075719E+02  0.22598297307E+02  0.50727084748E+02  0.89251152123E+02  0.41800000000E+01 0.  1.
         -5    1    3    3    0  502 -0.15800398147E+02 -0.62902870827E+02  0.87176084565E+02  0.10873622147E+03  0.41800000000E+01 0.  1.
        -11    1    1    2    0    0 -0.51995512636E+02  0.84976257674E+01  0.41584148365E+02  0.67119180367E+02  0.00000000000E+00 0.  1.
         11    1    1    2    0    0 -0.19491649367E+01  0.31806947753E+02  0.17472600105E+03  0.17760815469E+03  0.00000000000E+00 0. -1.
</event>
<event>
 7    1  0.6506388E-006  0.1117849E+03  0.7561462E-02  0.1257300E+00
         -3   -1    0    0    0  501 -0.00000000000E+00  0.00000000000E+00  0.37368025801E+02  0.37368025801E+02  0.00000000000E+00 0.  1.
          3   -1    0    0  501    0  0.00000000000E+00 -0.00000000000E+00 -0.33941194552E+03  0.33941194552E+03  0.00000000000E+00 0. -1.
         23    2    1    2    0    0 -0.25822938728E+01  0.30467995553E+02 -0.16096972211E+03  0.20614185512E+03  0.12509294944E+03 0.  0.
          5    1    3    3  502    0  0.58139437635E+02  0.33087758658E+02 -0.95932908236E+02  0.11702815586E+03  0.41800000000E+01 0.  1.
         -5    1    3    3    0  502 -0.60721731508E+02 -0.26197631052E+01 -0.65036813876E+02  0.89113699256E+02  0.41800000000E+01 0.  1.
        -11    1    1    2    0    0 -0.23456182372E+01  0.32438328143E+02 -0.41016521768E+02  0.52345984713E+02  0.00000000000E+00 0. -1.
         11    1    1    2    0    0  0.49279121100E+01 -0.62906323696E+02 -0.10005767584E+03  0.11829213150E+03  0.00000000000E+00 0.  1.
</event>
<event>
 7    1  0.6506388E-006  0.1117183E+03  0.7561462E-02  0.1257420E+00
         -2   -1    0    0    0  501 -0.00000000000E+00  0.00000000000E+00  0.64602880570E+02  0.64602880570E+02  0.00000000000E+00 0.  1.
          2   -1    0    0  501    0  0.00000000000E+00 -0.00000000000E+00 -0.44519069345E+03  0.44519069345E+03  0.00000000000E+00 0. -1.
         23    2    1    2    0    0  0.41976823863E+02  0.27073365151E+01 -0.16517914769E+02  0.13300288377E+03  0.12509013618E+03 0.  0.
          5    1    3    3  502    0  0.52283740989E+02  0.53187503507E+02  0.92070044202E+01  0.75264476557E+02  0.41800000000E+01 0. -1.
         -5    1    3    3    0  502 -0.10306917126E+02 -0.50480166991E+02 -0.25724919190E+02  0.57738407213E+02  0.41800000000E+01 0. -1.
        -11    1    1    2    0    0 -0.13606447937E+01  0.38887003579E+02 -0.14122175924E+03  0.14648425064E+03  0.00000000000E+00 0.  1.
         11    1    1    2    0    0 -0.40616179069E+02 -0.41594340094E+02 -0.22284813887E+03  0.23030643961E+03  0.00000000000E+00 0. -1.
</event>
<event>
 7    1  0.6506388E-006  0.8284887E+02  0.7561462E-02  0.1321156E+00
         -2   -1    0    0    0  501 -0.00000000000E+00  0.00000000000E+00  0.36985149568E+03  0.36985149568E+03  0.00000000000E+00 0. -1.
          2   -1    0    0  501    0  0.00000000000E+00 -0.00000000000E+00 -0.50462244827E+02  0.50462244827E+02  0.00000000000E+00 0.  1.
         23    2    1    2    0    0 -0.60058517756E+02  0.51016198296E+02  0.13578618803E+03  0.20073687820E+03  0.12509087643E+03 0.  0.
          5    1    3    3  502    0 -0.24418538270E+01  0.21436157841E+02 -0.21403081986E+02  0.30676307333E+02  0.41800000000E+01 0.  1.
         -5    1    3    3    0  502 -0.57616663929E+02  0.29580040455E+02  0.15718927001E+03  0.17006057086E+03  0.41800000000E+01 0.  1.
        -11    1    1    2    0    0  0.76714124454E+01 -0.72969463250E+01 -0.98390076375E+01  0.14453444775E+02  0.00000000000E+00 0.  1.
         11    1    1    2    0    0  0.52387105310E+02 -0.43719251971E+02  0.19344207047E+03  0.20512341754E+03  0.00000000000E+00 0. -1.
</event>
<event>
 7    1  0.6506388E-006  0.1345048E+03  0.7561462E-02  0.1220920E+00
         -3   -1    0    0    0  501 -0.00000000000E+00  0.00000000000E+00  0.23723256559E+03  0.23723256559E+03  0.00000000000E+00 0.  1.
          3   -1    0    0  501    0  0.00000000000E+00 -0.00000000000E+00 -0.12853999981E+03  0.12853999981E+03  0.00000000000E+00 0. -1.
         23    2    1    2    0    0 -0.10421225101E+03 -0.23209401291E+02  0.14687807043E+03  0.22049816419E+03  0.12508958098E+03 0.  0.
          5    1    3    3  502    0  0.74205756221E+00  0.22051411464E+02  0.90005084800E+02  0.92764233878E+02  0.41800000000E+01 0.  1.
         -5    1    3    3    0  502 -0.10495430857E+03 -0.45260812756E+02  0.56872985632E+02  0.12773393031E+03  0.41800000000E+01 0.  1.
        -11    1    1    2    0    0  0.23716176644E+02  0.43160854881E+02  0.86949965133E+01  0.50009193085E+02  0.00000000000E+00 0.  1.
         11    1    1    2    0    0  0.80496074364E+02 -0.19951453589E+02 -0.46880501163E+02  0.95265208117E+02  0.00000000000E+00 0. -1.
</event>
<event>
 7    1  0.6506388E-006  0.1316657E+03  0.7561462E-02  0.1225005E+00
          1   -1    0    0  501    0  0.00000000000E+00  0.00000000000E+00  0.10730500095E+04  0.10730500095E+04  0.00000000000E+00 0. -1.
         -1   -1    0    0    0  501 -0.00000000000E+00 -0.00000000000E+00 -0.17983289688E+02  0.17983289688E+02  0.00000000000E+00 0.  1.
         23    2    1    2    0    0  0.29656539390E+02  0.74636511483E+02  0.44752499201E+03  0.47156960851E+03  0.12509659477E+03 0.  0.
          5    1    3    3  502    0  0.23914187650E+01  0.10644594101E+03  0.32072489776E+03  0.33796211280E+03  0.41800000000E+01 0. -1.
         -5    1    3    3    0  502  0.27265120625E+02 -0.31809429529E+02  0.12680009425E+03  0.13360749572E+03  0.41800000000E+01 0. -1.
        -11    1    1    2    0    0  0.12399544424E+02  0.12693105634E+02  0.40780660001E+02  0.44473878431E+02  0.00000000000E+00 0.  1.
         11    1    1    2    0    0 -0.42056083814E+02 -0.87329617118E+02  0.56676106784E+03  0.57498981228E+03  0.00000000000E+00 0. -1.
</event>
<event>
 7    1  0.6506388E-006  0.1394011E+03  0.7561462E-02  0.1214137E+00
         -1   -1    0    0    0  501 -0.00000000000E+00  0.00000000000E+00  0.10677400642E+03  0.10677400642E+03  0.00000000000E+00 0.  1.
          1   -1    0    0  501    0  0.00000000000E+00 -0.00000000000E+00 -0.22965643786E+03  0.22965643786E+03  0.00000000000E+00 0. -1.
         23    2    1    2    0    0 -0.92893978320E+02  0.24099496417E+02 -0.64421655484E+02  0.17032131000E+03  0.12509645082E+03 0.  0.
          5    1    3    3  502    0 -0.64142801211E+02 -0.27030228259E+02 -0.83229033907E+02  0.10857935656E+03  0.41800000000E+01 0. -1.
         -5    1    3    3    0  502 -0.28751177109E+02  0.51129724677E+02  0.18807378422E+02  0.61741953434E+02  0.41800000000E+01 0. -1.
        -11    1    1    2    0    0  0.12006237620E+03 -0.26621359470E+02 -0.63433635719E+02  0.13837448139E+03  0.00000000000E+00 0.  1.
         11    1    1    2    0    0 -0.27168397882E+02  0.25218630522E+01  0.49728597654E+01  0.27734652891E+02  0.00000000000E+00 0. -1.
</event>
<event>
 6    1  0.6506388E-006  0.9405074E+02  0.7561462E-02  0.1293328E+00
         -1   -1    0    0    0  501 -0.00000000000E+00  0.00000000000E+00  0.14548934767E+03  0.14548934767E+03  0.00000000000E+00 0.  1.
          1   -1    0    0  501    0  0.00000000000E+00 -0.00000000000E+00 -0.22226199225E+03  0.22226199225E+03  0.00000000000E+00 0. -1.
          5    1    1    2  502    0 -0.40132899442E+02  0.97483067159E+01  0.10594919218E+03  0.11379096108E+03  0.41800000000E+01 0. -1.
         -5    1    1    2    0  502  0.58422933025E+02 -0.61770767360E+00 -0.11688885384E+02  0.59730420286E+02  0.41800000000E+01 0.  1.
        -11    1    1    2    0    0 -0.41123566956E+02 -0.34647482778E+02 -0.75080475143E+02  0.92350817915E+02  0.00000000000E+00 0.  1.
         11    1    1    2    0    0  0.22833533373E+02  0.25516883735E+02 -0.95952476226E+02  0.10187914063E+03  0.00000000000E+00 0. -1.
</event>
<event>
 6    1  0.6506388E-006  0.1579198E+03  0.7561462E-02  0.1191066E+00
          1   -1    0    0  501    0  0.00000000000E+00  0.00000000000E+00  0.39867644652E+03  0.39867644652E+03  0.00000000000E+00 0. -1.
         -1   -1    0    0    0  501 -0.00000000000E+00 -0.00000000000E+00 -0.88928267824E+02  0.88928267824E+02  0.00000000000E+00 0.  1.
          5    1    1    2  502    0  0.31820763289E+01  0.10353771739E+03  0.23432047934E+02  0.10628601884E+03  0.41800000000E+01 0. -1.
         -5    1    1    2    0  502 -0.49878618682E+02 -0.13215627032E+03  0.18590481098E+03  0.23351922305E+03  0.41800000000E+01 0.  1.
        -11    1    1    2    0    0  0.15239069475E+02 -0.12056049447E+02 -0.12929651702E+02  0.23339954153E+02  0.00000000000E+00 0.  1.
         11    1    1    2    0    0  0.31457472878E+02  0.40674602383E+02  0.11334097148E+03  0.12445951830E+03  0.00000000000E+00 0. -1.
</event>
<event>
 7    1  0.6506388E-006  0.8707653E+02  0.7561462E-02  0.1310090E+00
         -1   -1    0    0    0  501 -0.00000000000E+00  0.00000000000E+00  0.56363899218E+02  0.56363899218E+02  0.00000000000E+00 0.  1.
          1   -1    0    0  501    0  0.00000000000E+00 -0.00000000000E+00 -0.21959990138E+03  0.21959990138E+03  0.00000000000E+00 0. -1.
         23    2    1    2    0    0 -0.95490973640E+01  0.65142589152E+01 -0.67277832302E+02  0.14250718227E+03  0.12509344287E+03 0.  0.
          5    1    3    3  502    0  0.18616608842E+02 -0.53966066153E+02 -0.42183033376E+02  0.71104114689E+02  0.41800000000E+01 0. -1.
         -5    1    3    3    0  502 -0.28165706206E+02  0.60480325068E+02 -0.25094798925E+02  0.71403067578E+02  0.41800000000E+01 0. -1.
        -11    1    1    2    0    0  0.29350371588E+02 -0.73139903983E+01 -0.10670735062E+03  0.11091166505E+03  0.00000000000E+00 0. -1.
         11    1    1    2    0    0 -0.19801274224E+02  0.79973148305E+00  0.10749180761E+02  0.22544953280E+02  0.00000000000E+00 0.  1.
</event>
<event>
 7    1  0.6506388E-006  0.1063983E+03  0.7561462E-02  0.1267389E+00
          2   -1    0    0  501    0  0.00000000000E+00  0.00000000000E+00  0.44034254461E+03  0.44034254461E+03  0.00000000000E+00 0. -1.
         -2   -1    0    0    0  501 -0.00000000000E+00 -0.00000000000E+00 -0.45879193128E+02  0.45879193128E+02  0.00000000000E+00 0.  1.
         23    2    1    2    0    0  0.21802619453E+02 -0.87463738158E+02  0.18370002943E+03  0.23982900802E+03  0.12508793933E+03 0.  0.
          5    1    3    3  502    0  0.19964092098E+02 -0.67365725485E+02  0.17730630135E+02  0.72584802737E+02  0.41800000000E+01 0. -1.
         -5    1    3    3    0  502  0.18385273553E+01 -0.20098012673E+02  0.16596939930E+03  0.16724420528E+03  0.41800000000E+01 0. -1.
        -11    1    1    2    0    0  0.31270338701E+02  0.26663234942E+02  0.39190340527E+02  0.56785957513E+02  0.00000000000E+00 0.  1.
         11    1    1    2    0    0 -0.53072958155E+02  0.60800503216E+02  0.17157298152E+03  0.18960677220E+03  0.00000000000E+00 0. -1.
</event>
<event>
 7    1  0.6506388E-006  0.1374885E+03  0.7561462E-02  0.1216749E+00
         -1   -1    0    0    0  501 -0.00000000000E+00  0.00000000000E+00  0.47906737857E+02  0.47906737857E+02  0.00000000000E+00 0.  1.
          1   -1    0    0  501    0  0.00000000000E+00 -0.00000000000E+00 -0.53125060566E+03  0.53125060566E+03  0.00000000000E+00 0. -1.
         23    2    1    2    0    0 -0.63044941077E+02  0.88169267916E+02 -0.23231465873E+03  0.28523948032E+03  0.12507188361E+03 0.  0.
          5    1    3    3  502    0 -0.12083737780E+02 -0.32209953257E+02 -0.45585965478E+02  0.57262993775E+02  0.41800000000E+01 0. -1.
         -5    1    3    3    0  502 -0.50961203298E+02  0.12037922117E+03 -0.18672869326E+03  0.22797648654E+03  0.41800000000E+01 0. -1.
        -11    1    1    2    0    0  0.53728856214E+02 -0.83018809281E+02 -0.26113996289E+03  0.27923644623E+03  0.00000000000E+00 0. -1.
         11    1    1    2    0    0  0.93160848638E+01 -0.51504586352E+01  0.10110753823E+02  0.14681416969E+02  0.00000000000E+00 0.  1.
</event>
<event>
 7    1  0.6506388E-006  0.1031904E+03  0.7561462E-02  0.1273727E+00
         -2   -1    0    0    0  501 -0.00000000000E+00  0.00000000000E+00  0.55462897451E+02  0.55462897451E+02  0.00000000000E+00 0.  1.
          2   -1    0    0  501    0  0.00000000000E+00 -0.00000000000E+00 -0.29613700937E+03  0.29613700937E+03  0.00000000000E+00 0. -1.
         23    2    1    2    0    0  0.61899224879E+01  0.38899793555E+02 -0.57945054648E+02  0.14336604460E+03  0.12507871244E+03 0.  0.
          5    1    3    3  502    0 -0.52072064100E+02  0.14312227360E+02  0.45555376128E+01  0.54355910760E+02  0.41800000000E+01 0. -1.
         -5    1    3    3    0  502  0.58261986588E+02  0.24587566195E+02 -0.62500592261E+02  0.89010133836E+02  0.41800000000E+01 0. -1.
        -11    1    1    2    0    0 -0.62205386172E+01  0.24582883434E+02 -0.10426820788E+03  0.10730737362E+03  0.00000000000E+00 0. -1.
         11    1    1    2    0    0  0.30616129322E-01 -0.63482676989E+02 -0.78460849394E+02  0.10092648861E+03  0.00000000000E+00 0.  1.
</event>
<event>
 7    1  0.6506388E-006  0.1225241E+03  0.7561462E-02  0.1238990E+00
         -4   -1    0    0    0  501 -0.00000000000E+00  0.00000000000E+00  0.56875002026E+03  0.56875002026E+03  0.00000000000E+00 0. -1.
          4   -1    0    0  501    0  0.00000000000E+00 -0.00000000000E+00 -0.35475941916E+02  0.35475941916E+02  0.00000000000E+00 0.  1.
         23    2    1    2    0    0 -0.21111200733E+02  0.93868499163E+02  0.30835313529E+03  0.34638989191E+03  0.12508926109E+03 0.  0.
          5    1    3    3  502    0 -0.17207880214E+02  0.11114248818E+03  0.30829344363E+03  0.32819366783E+03  0.41800000000E+01 0.  1.
         -5    1    3    3    0  502 -0.39033205195E+01 -0.17273989015E+02  0.59691662240E-01  0.18196224077E+02  0.41800000000E+01 0.  1.
        -11    1    1    2    0    0 -0.21897982586E+02 -0.26444929949E+02  0.24879774550E+02  0.42401169123E+02  0.00000000000E+00 0.  1.
         11    1    1    2    0    0  0.43009183319E+02 -0.67423569215E+02  0.20004116851E+03  0.21543490115E+03  0.00000000000E+00 0. -1.
</event>
<event>
 7    1  0.6506388E-006  0.1001414E+03  0.7561462E-02  0.1279999E+00
         -3   -1    0    0    0  501 -0.00000000000E+00  0.00000000000E+00  0.12333858149E+03  0.12333858149E+03  0.00000000000E+00 0. -1.
          3   -1    0    0  501    0  0.00000000000E+00 -0.00000000000E+00 -0.12428098314E+03  0.12428098314E+03  0.00000000000E+00 0.  1.
         23    2    1    2    0    0 -0.24273230836E+02 -0.41735877786E+01  0.56556949577E+02  0.13947601070E+03  0.12509300718E+03 0.  0.
          5    1    3    3  502    0  0.50071046874E+02  0.94702012280E+01  0.29828146654E+02  0.59194469161E+02  0.41800000000E+01 0. -1.
         -5    1    3    3    0  502 -0.74344277711E+02 -0.13643789007E+02  0.26728802923E+02  0.80281541543E+02  0.41800000000E+01 0. -1.
        -11    1    1    2    0    0 -0.10535033241E+02 -0.25576978988E+02 -0.55848967242E+02  0.62323959450E+02  0.00000000000E+00 0.  1.
         11    1    1    2    0    0  0.34808264078E+02  0.29750566767E+02 -0.16503839811E+01  0.45819594480E+02  0.00000000000E+00 0. -1.
</event>
<event>
 7    1  0.6506388E-006  0.9094831E+02  0.7561462E-02  0.1300571E+00
          1   -1    0    0  501    0  0.00000000000E+00  0.00000000000E+00  0.27782014007E+03  0.27782014007E+03  0.00000000000E+00 0. -1.
         -1   -1    0    0    0  501 -0.00000000000E+00 -0.00000000000E+00 -0.58132432669E+02  0.58132432669E+02  0.00000000000E+00 0.  1.
         23    2    1    2    0    0  0.37413500335E+02  0.38495549119E+02  0.72524390170E+02  0.15422804597E+03  0.12507927760E+03 0.  0.
          5    1    3    3  502    0  0.32126195531E+02 -0.26569142944E+02  0.78047210317E+02  0.88582454439E+02  0.41800000000E+01 0. -1.
         -5    1    3    3    0  502  0.52873048040E+01  0.65064692063E+02 -0.55228201471E+01  0.65645591533E+02  0.41800000000E+01 0. -1.
        -11    1    1    2    0    0 -0.10842303342E+02 -0.45769686703E+02  0.19158002613E+02  0.50788274501E+02  0.00000000000E+00 0. -1.
         11    1    1    2    0    0 -0.26571196993E+02  0.72741375840E+01  0.12800531461E+03  0.13093625226E+03  0.00000000000E+00 0.  1.
</event>
<event>
 7    1  0.6506388E-006  0.1136832E+03  0.7561462E-02  0.1253897E+00
         -1   -1    0    0    0  501 -0.00000000000E+00  0.00000000000E+00  0.36698783480E+03  0.36698783480E+03  0.00000000000E+00 0.  1.
          1   -1    0    0  501    0  0.00000000000E+00 -0.00000000000E+00 -0.64387492727E+02  0.64387492727E+02  0.00000000000E+00 0. -1.
         23    2    1    2    0    0 -0.81913238865E+02 -0.37833964202E+02  0.24931321723E+03  0.29316588903E+03  0.12509184890E+03 0.  0.
          5    1    3    3  502    0 -0.39272667653E+02 -0.68361621862E+02  0.21820451537E+03  0.23204813444E+03  0.41800000000E+01 0.  1.
         -5    1    3    3    0  502 -0.42640571213E+02  0.30527657660E+02  0.31108701853E+02  0.61117754593E+02  0.41800000000E+01 0.  1.
        -11    1    1    2    0    0  0.51969520674E+02  0.40298335787E+02 -0.11531132225E+02  0.66766413388E+02  0.00000000000E+00 0. -1.
         11    1    1    2    0    0  0.29943718191E+02 -0.24643715848E+01  0.64818257076E+02  0.71443025110E+02  0.00000000000E+00 0.  1.
</event>
<event>
 7    1  0.6506388E-006  0.7960745E+02  0.7561462E-02  0.1330169E+00
         -2   -1    0    0    0  501 -0.00000000000E+00  0.00000000000E+00  0.40532834080E+03  0.40532834080E+03  0.00000000000E+00 0. -1.
          2   -1    0    0  501    0  0.00000000000E+00 -0.00000000000E+00 -0.31784699808E+02  0.31784699808E+02  0.00000000000E+00 0.  1.
         23    2    1    2    0    0 -0.34478985465E+02  0.41881769515E+01  0.22785541257E+03  0.26169029075E+03  0.12392488841E+03 0.  0.
          5    1    3    3  502    0  0.13459608097E+02 -0.11754427233E+00  0.20955381805E+03  0.21002725996E+03  0.41800000000E+01 0. -1.
         -5    1    3    3    0  502 -0.47938593562E+02  0.43057212239E+01  0.18301594522E+02  0.51663030786E+02  0.41800000000E+01 0.  1.
        -11    1    1    2    0    0  0.51641493632E+00  0.40597652764E+02  0.73083743500E+02  0.83604244261E+02  0.00000000000E+00 0.  1.
         11    1    1    2    0    0  0.33962570529E+02 -0.44785829716E+02  0.72604484916E+02  0.91818505598E+02  0.00000000000E+00 0. -1.
</event>
<event>
 6    1  0.6506388E-006  0.1341480E+03  0.7561462E-02  0.1221427E+00
         -3   -1    0    0    0  501 -0.00000000000E+00  0.00000000000E+00  0.46672624244E+03  0.46672624244E+03  0.00000000000E+00 0.  1.
          3   -1    0    0  501    0  0.00000000000E+00 -0.00000000000E+00 -0.65130523723E+02  0.65130523723E+02  0.00000000000E+00 0. -1.
          5    1    1    2  502    0 -0.32366244018E+02  0.65870747854E+02  0.10923285493E+03  0.13166555423E+03  0.41800000000E+01 0. -1.
         -5    1    1    2    0  502  0.50903005695E+02 -0.11373861273E+03  0.26412696174E+03  0.29207552505E+03  0.41800000000E+01 0.  1.
        -11    1    1    2    0    0  0.97808632235E+01  0.39329405021E+02 -0.24711680350E+02  0.47467194255E+02  0.00000000000E+00 0. -1.
         11    1    1    2    0    0 -0.28317624901E+02  0.85384598522E+01  0.52947582398E+02  0.60648492631E+02  0.00000000000E+00 0.  1.
</event>
<event>
 7    1  0.6506388E-006  0.1633744E+03  0.7561462E-02  0.1184939E+00
          3   -1    0    0  501    0  0.00000000000E+00  0.00000000000E+00  0.10262442203E+03  0.10262442203E+03  0.00000000000E+00 0. -1.
         -3   -1    0    0    0  501 -0.00000000000E+00 -0.00000000000E+00 -0.36059781118E+03  0.36059781118E+03  0.00000000000E+00 0.  1.
         23    2    1    2    0    0 -0.43662437946E+02  0.14053226568E+03 -0.21117397740E+03  0.28617765968E+03  0.12508987961E+03 0.  0.
          5    1    3    3  502    0 -0.51755123133E+02  0.14519773874E+03 -0.22262871485E+03  0.27081726898E+03  0.41800000000E+01 0.  1.
         -5    1    3    3    0  502  0.80926851872E+01 -0.46654730543E+01  0.11454737445E+02  0.15360390695E+02  0.41800000000E+01 0.  1.
        -11    1    1    2    0    0  0.57111199559E+02 -0.69201535606E+02  0.17079123834E+01  0.89741064234E+02  0.00000000000E+00 0.  1.
         11    1    1    2    0    0 -0.13448761612E+02 -0.71330730076E+02 -0.48507324130E+02  0.87303509301E+02  0.00000000000E+00 0. -1.
</event>
<event>
 7    1  0.6506388E-006  0.1108686E+03  0.7561462E-02  0.1258970E+00
         -2   -1    0    0    0  501 -0.00000000000E+00  0.00000000000E+00  0.32597041743E+03  0.32597041743E+03  0.00000000000E+00 0.  1.
          2   -1    0    0  501    0  0.00000000000E+00 -0.00000000000E+00 -0.68472544900E+02  0.68472544900E+02  0.00000000000E+00 0. -1.
         23    2    1    2    0    0  0.62043273845E+02  0.65204765839E+02  0.17640318175E+03  0.23423842286E+03  0.12509407218E+03 0.  0.
          5    1    3    3  502    0  0.19200232881E+01 -0.18535337590E+02  0.10976974737E+03  0.11141864775E+03  0.41800000000E+01 0.  1.
         -5    1    3    3    0  502  0.60123250557E+02  0.83740103429E+02  0.66633434379E+02  0.12281977511E+03  0.41800000000E+01 0.  1.
        -11    1    1    2    0    0  0.47283892496E+00 -0.25290824474E+02 -0.21779730353E+02  0.33379724886E+02  0.00000000000E+00 0. -1.
         11    1    1    2    0    0 -0.62516112770E+02 -0.39913941365E+02  0.10287442113E+03  0.12682481458E+03  0.00000000000E+00 0.  1.
</event>
<event>
 7    1  0.6506388E-006  0.7010816E+02  0.7561462E-02  0.1359726E+00
          2   -1    0    0  501    0  0.00000000000E+00  0.00000000000E+00  0.23259088546E+03  0.23259088546E+03  0.00000000000E+00 0.  1.
         -2   -1    0    0    0  501 -0.00000000000E+00 -0.00000000000E+00 -0.44304090330E+02  0.44304090330E+02  0.00000000000E+00 0. -1.
         23    2    1    2    0    0 -0.26013936755E+02 -0.18244070858E+02  0.94185233206E+02  0.15976979354E+03  0.12508380290E+03 0.  0.
          5    1    3    3  502    0  0.20708110413E+02 -0.74862684052E+01 -0.23590820668E+02  0.32540271531E+02  0.41800000000E+01 0. -1.
         -5    1    3    3    0  502 -0.46722047168E+02 -0.10757802453E+02  0.11777605387E+03  0.12722952201E+03  0.41800000000E+01 0. -1.
        -11    1    1    2    0    0 -0.19987769834E+02  0.11840545984E+02  0.33688056122E+02  0.40921810778E+02  0.00000000000E+00 0.  1.
         11    1    1    2    0    0  0.46001706589E+02  0.64035248737E+01  0.60413505803E+02  0.76203371470E+02  0.00000000000E+00 0. -1.
</event>
<event>
 7    1  0.6506388E-006  0.1253782E+03  0.7561462E-02  0.1234479E+00
          1   -1    0    0  501    0  0.00000000000E+00  0.00000000000E+00  0.10614267785E+03  0.10614267785E+03  0.00000000000E+00 0. -1.
         -1   -1    0    0    0  501 -0.00000000000E+00 -0.00000000000E+00 -0.17550288643E+03  0.17550288643E+03  0.00000000000E+00 0.  1.
         23    2    1    2    0    0  0.35017170987E+02  0.60083064014E+02 -0.85268231361E+02  0.16659803553E+03  0.12509219527E+03 0.  0.
          5    1    3    3  502    0  0.41049843078E+01  0.92150020265E+02 -0.33613472875E+02  0.98264007091E+02  0.41800000000E+01 0.  1.
         -5    1    3    3    0  502  0.30912186679E+02 -0.32066956250E+02 -0.51654758487E+02  0.68334028439E+02  0.41800000000E+01 0.  1.
        -11    1    1    2    0    0  0.23035510813E+02 -0.49605915410E+02  0.11523247149E+02  0.55894246814E+02  0.00000000000E+00 0. -1.
         11    1    1    2    0    0 -0.58052681799E+02 -0.10477148605E+02  0.43847756327E+01  0.59153281940E+02  0.00000000000E+00 0.  1.
</event>
<event>
 7    1  0.6506388E-006  0.1464321E+03  0.7561462E-02  0.1204927E+00
         -3   -1    0    0    0  501 -0.00000000000E+00  0.00000000000E+00  0.21666325116E+03  0.21666325116E+03  0.00000000000E+00 0.  1.
          3   -1    0    0  501    0  0.00000000000E+00 -0.00000000000E+00 -0.12557265116E+03  0.12557265116E+03  0.00000000000E+00 0. -1.
         23    2    1    2    0    0 -0.64210736931E+02 -0.87109307734E+02  0.11108026604E+03  0.19924208390E+03  0.12509009659E+03 0.  0.
          5    1    3    3  502    0 -0.95431854466E+02 -0.35711591388E+02  0.50576378904E+02  0.11383320741E+03  0.41800000000E+01 0. -1.
         -5    1    3    3    0  502  0.31221117535E+02 -0.51397716347E+02  0.60503887132E+02  0.85408876493E+02  0.41800000000E+01 0. -1.
        -11    1    1    2    0    0  0.97346789086E+01  0.73911011757E+02  0.16179921392E+02  0.76284936185E+02  0.00000000000E+00 0.  1.
         11    1    1    2    0    0  0.54476058022E+02  0.13198295977E+02 -0.36169587432E+02  0.66708882237E+02  0.00000000000E+00 0. -1.
</event>
<event>
 7    1  0.6506388E-006  0.1360848E+03  0.7561462E-02  0.1218696E+00
         -2   -1    0    0    0  501 -0.00000000000E+00  0.00000000000E+00  0.16664134477E+03  0.16664134477E+03  0.00000000000E+00 0.  1.
          2   -1    0    0  501    0  0.00000000000E+00 -0.00000000000E+00 -0.13463960232E+03  0.13463960232E+03  0.00000000000E+00 0. -1.
         23    2    1    2    0    0  0.13836277138E+02 -0.96550704543E+02  0.49144644988E+02  0.16606306032E+03  0.12509301643E+03 0.  0.
          5    1    3    3  502    0  0.11185840321E+02  0.29402099497E+02  0.31779540741E+01  0.31893232363E+02  0.41800000000E+01 0.  1.
         -5    1    3    3    0  502  0.26504368166E+01 -0.12595280404E+03  0.45966690914E+02  0.13416982796E+03  0.41800000000E+01 0.  1.
        -11    1    1    2    0    0  0.19222407557E+02  0.68127621487E+02  0.24520127274E+02  0.74914020072E+02  0.00000000000E+00 0.  1.
         11    1    1    2    0    0 -0.33058684695E+02  0.28423083056E+02 -0.41663029814E+02  0.60303866687E+02  0.00000000000E+00 0. -1.
</event>
<event>
 7    1  0.6506388E-006  0.1008372E+03  0.7561462E-02  0.1278545E+00
         -4   -1    0    0    0  501 -0.00000000000E+00  0.00000000000E+00  0.28270282365E+03  0.28270282365E+03  0.00000000000E+00 0.  1.
          4   -1    0    0  501    0  0.00000000000E+00 -0.00000000000E+00 -0.49081589577E+02  0.49081589577E+02  0.00000000000E+00 0. -1.
         23    2    1    2    0    0  0.34880311182E+02 -0.21281881907E+02  0.10253781808E+03  0.16681270609E+03  0.12507166014E+03 0.  0.
          5    1    3    3  502    0  0.53483374157E+02 -0.54316731033E+02  0.24882434048E+02  0.80295619466E+02  0.41800000000E+01 0.  1.
         -5    1    3    3    0  502 -0.18603062975E+02  0.33034849126E+02  0.77655384029E+02  0.86517086622E+02  0.41800000000E+01 0.  1.
        -11    1    1    2    0    0 -0.50901363649E+02 -0.10155573160E+02  0.34968810049E+02  0.62585159293E+02  0.00000000000E+00 0. -1.
         11    1    1    2    0    0  0.16021052467E+02  0.31437455066E+02  0.96114605944E+02  0.10238654784E+03  0.00000000000E+00 0.  1.
</event>
<event>
 7    1  0.6506388E-006  0.1802664E+03  0.7561462E-02  0.1167545E+00
         -1   -1    0    0    0  501 -0.00000000000E+00  0.00000000000E+00  0.30752181583E+03  0.30752181583E+03  0.00000000000E+00 0.  1.
          1   -1    0    0  501    0  0.00000000000E+00 -0.00000000000E+00 -0.12701781958E+03  0.12701781958E+03  0.00000000000E+00 0. -1.
         23    2    1    2    0    0  0.13333349896E+03  0.95476280744E+02  0.75726334897E+02  0.21971668080E+03  0.12508956749E+03 0.  0.
          5    1    3    3  502    0  0.55455503815E+02  0.74940287651E+02 -0.19076321596E+02  0.95250921582E+02  0.41800000000E+01 0. -1.
         -5    1    3    3    0  502  0.77877995145E+02  0.20535993093E+02  0.94802656493E+02  0.12446575922E+03  0.41800000000E+01 0. -1.
        -11    1    1    2    0    0 -0.95267986779E+02 -0.13551730711E+02  0.64958853896E+02  0.11610035060E+03  0.00000000000E+00 0. -1.
         11    1    1    2    0    0 -0.38065512180E+02 -0.81924550032E+02  0.39818807458E+02  0.98722604012E+02  0.00000000000E+00 0.  1.
</event>
<event>
 7    1  0.6506388E-006  0.2588951E+03  0.7561462E-02  0.1107809E+00
          1   -1    0    0  501    0  0.00000000000E+00  0.00000000000E+00  0.24326917843E+03  0.24326917843E+03  0.00000000000E+00 0. -1.
         -1   -1    0    0    0  501 -0.00000000000E+00 -0.00000000000E+00 -0.32105988400E+03  0.32105988400E+03  0.00000000000E+00 0.  1.
         23    2    1    2    0    0  0.75944562372E+02 -0.24568318377E+03 -0.31074294326E+02  0.28764755247E+03  0.12509076437E+03 0.  0.
          5    1    3    3  502    0  0.33254010375E+02 -0.52604586590E+02 -0.61430353049E+02  0.87545601900E+02  0.41800000000E+01 0.  1.
         -5    1    3    3    0  502  0.42690551997E+02 -0.19307859719E+03  0.30356058723E+02  0.20010195057E+03  0.41800000000E+01 0.  1.
        -11    1    1    2    0    0 -0.40793973107E+02  0.15754977924E+03 -0.72786785166E+02  0.17828066994E+03  0.00000000000E+00 0.  1.
         11    1    1    2    0    0 -0.35150589266E+02  0.88133404538E+02  0.26070373921E+02  0.98400840025E+02  0.00000000000E+00 0. -1.
</event>
<event>
 7    1  0.6506388E-006  0.1130654E+03  0.7561462E-02  0.1254996E+00
         -1   -1    0    0    0  501 -0.00000000000E+00  0.00000000000E+00  0.43962717619E+03  0.43962717619E+03  0.00000000000E+00 0.  1.
          1   -1    0    0  501    0  0.00000000000E+00 -0.00000000000E+00 -0.49640879092E+02  0.49640879092E+02  0.00000000000E+00 0. -1.
         23    2    1    2    0    0  0.54758680752E+02 -0.77620905972E+02  0.26290462372E+03  0.30625094305E+03  0.12508909140E+03 0.  0.
          5    1    3    3  502    0  0.59435284122E+02 -0.24786287475E+02  0.23964800849E+03  0.24818451486E+03  0.41800000000E+01 0.  1.
         -5    1    3    3    0  502 -0.46766033701E+01 -0.52834618498E+02  0.23256615226E+02  0.58066428189E+02  0.41800000000E+01 0.  1.
        -11    1    1    2    0    0  0.52315854044E+01  0.33548103952E+02  0.96926769460E+02  0.10270172054E+03  0.00000000000E+00 0. -1.
         11    1    1    2    0    0 -0.59990266156E+02  0.44072802020E+02  0.30154903927E+02  0.80315391689E+02  0.00000000000E+00 0.  1.
</event>
<event>
 7    1  0.6506388E-006  0.2119589E+03  0.7561462E-02  0.1140024E+00
         -1   -1    0    0    0  501 -0.00000000000E+00  0.00000000000E+00  0.45873395194E+03  0.45873395194E+03  0.00000000000E+00 0.  1.
          1   -1    0    0  501    0  0.00000000000E+00 -0.00000000000E+00 -0.11120520021E+03  0.11120520021E+03  0.00000000000E+00 0. -1.
         23    2    1    2    0    0 -0.13376054884E+03  0.12537639645E+03  0.27274985259E+03  0.35163946739E+03  0.12508680076E+03 0.  0.
          5    1    3    3  502    0  0.19048401977E+02 -0.54789676726E+01  0.31958603267E+02  0.37837619209E+02  0.41800000000E+01 0. -1.
         -5    1    3    3    0  502 -0.15280895082E+03  0.13085536412E+03  0.24079124932E+03  0.31380184818E+03  0.41800000000E+01 0. -1.
        -11    1    1    2    0    0  0.10333803065E+03 -0.38313805376E+02  0.23186255652E+02  0.11262459195E+03  0.00000000000E+00 0.  1.
         11    1    1    2    0    0  0.30422518189E+02 -0.87062591073E+02  0.51592643492E+02  0.10567509281E+03  0.00000000000E+00 0. -1.
</event>
<event>
 7    1  0.6506388E-006  0.2317663E+03  0.7561462E-02  0.1125403E+00
         -1   -1    0    0    0  501 -0.00000000000E+00  0.00000000000E+00  0.76783437753E+02  0.76783437753E+02  0.00000000000E+00 0.  1.
          1   -1    0    0  501    0  0.00000000000E+00 -0.00000000000E+00 -0.82451304869E+03  0.82451304869E+03  0.00000000000E+00 0. -1.
         23    2    1    2    0    0  0.15726804632E+03  0.13805058836E+03 -0.22687172710E+03  0.33302442404E+03  0.12507311104E+03 0.  0.
          5    1    3    3  502    0  0.22615629667E+02  0.98401868395E+02 -0.11784260106E+03  0.15523770622E+03  0.41800000000E+01 0. -1.
         -5    1    3    3    0  502  0.13465241665E+03  0.39648719967E+02 -0.10902912605E+03  0.17778671782E+03  0.41800000000E+01 0. -1.
        -11    1    1    2    0    0 -0.16140029335E+03 -0.11389130937E+03 -0.49335520456E+03  0.53143263253E+03  0.00000000000E+00 0.  1.
         11    1    1    2    0    0  0.41322470248E+01 -0.24159278990E+02 -0.27502679269E+02  0.36839429879E+02  0.00000000000E+00 0. -1.
</event>
<event>
 7    1  0.6506388E-006  0.1214828E+03  0.7561462E-02  0.1240671E+00
         -2   -1    0    0    0  501 -0.00000000000E+00  0.00000000000E+00  0.97454144548E+02  0.97454144548E+02  0.00000000000E+00 0. -1.
          2   -1    0    0  501    0  0.00000000000E+00 -0.00000000000E+00 -0.26554806967E+03  0.26554806967E+03  0.00000000000E+00 0.  1.
         23    2    1    2    0    0  0.57882905692E+02  0.30363360725E+02  0.21809947677E+02  0.14281250835E+03  0.12508946510E+03 0.  0.
          5    1    3    3  502    0  0.77485684291E+00 -0.40331778818E+02 -0.16910308570E+02  0.43939546216E+02  0.41800000000E+01 0.  1.
         -5    1    3    3    0  502  0.57108048850E+02  0.70695139542E+02  0.38720256247E+02  0.98872962139E+02  0.41800000000E+01 0.  1.
        -11    1    1    2    0    0  0.24665585456E+02 -0.73890244005E+01 -0.42603740506E+02  0.49780191769E+02  0.00000000000E+00 0. -1.
         11    1    1    2    0    0 -0.82548491148E+02 -0.22974336324E+02 -0.14730013229E+03  0.17040951409E+03  0.00000000000E+00 0.  1.
</event>
<event>
 7    1  0.6506388E-006  0.1382709E+03  0.7561462E-02  0.1215675E+00
          2   -1    0    0  501    0  0.00000000000E+00  0.00000000000E+00  0.23221465658E+03  0.23221465658E+03  0.00000000000E+00 0. -1.
         -2   -1    0    0    0  501 -0.00000000000E+00 -0.00000000000E+00 -0.11921470063E+03  0.11921470063E+03  0.00000000000E+00 0.  1.
         23    2    1    2    0    0  0.11078750127E+03  0.52266075603E+02  0.28259633156E+02  0.17734604723E+03  0.12508956993E+03 0.  0.
          5    1    3    3  502    0  0.26554545312E+02 -0.19592883963E+02 -0.36198869051E+02  0.49161524583E+02  0.41800000000E+01 0.  1.
         -5    1    3    3    0  502  0.84232955960E+02  0.71858959566E+02  0.64458502207E+02  0.12818452265E+03  0.41800000000E+01 0.  1.
        -11    1    1    2    0    0 -0.10322885959E+03 -0.61798640151E+02  0.38581089426E+02  0.12634781295E+03  0.00000000000E+00 0.  1.
         11    1    1    2    0    0 -0.75586416848E+01  0.95325645471E+01  0.46159233374E+02  0.47735497029E+02  0.00000000000E+00 0. -1.
</event>
<event>
 7    1  0.6506388E-006  0.1369725E+03  0.7561462E-02  0.1217462E+00
          2   -1    0    0  501    0  0.00000000000E+00  0.00000000000E+00  0.61727326695E+03  0.61727326695E+03  0.00000000000E+00 0. -1.
         -2   -1    0    0    0  501 -0.00000000000E+00 -0.00000000000E+00 -0.37253434076E+02  0.37253434076E+02  0.00000000000E+00 0.  1.
         23    2    1    2    0    0  0.85643765001E+02 -0.31837219007E+02  0.19570732742E+03  0.24959411192E+03  0.12508956671E+03 0.  0.
          5    1    3    3  502    0  0.55101403759E+02 -0.78004662583E+02  0.96023075908E+02  0.13549463306E+03  0.41800000000E+01 0. -1.
         -5    1    3    3    0  502  0.30542361243E+02  0.46167443576E+02  0.99684251507E+02  0.11409947886E+03  0.41800000000E+01 0. -1.
        -11    1    1    2    0    0  0.82276075341E+01  0.27676078582E+02  0.14474661602E+03  0.14759824423E+03  0.00000000000E+00 0. -1.
         11    1    1    2    0    0 -0.93871372535E+02  0.41611404247E+01  0.23956588944E+03  0.25733434488E+03  0.00000000000E+00 0.  1.
</event>
<event>
 7    1  0.6506388E-006  0.9854533E+02  0.7561462E-02  0.1283385E+00
         -1   -1    0    0    0  501 -0.00000000000E+00  0.00000000000E+00  0.35946592957E+02  0.35946592957E+02  0.00000000000E+00 0.  1.
          1   -1    0    0  501    0  0.00000000000E+00 -0.00000000000E+00 -0.37670423418E+03  0.37670423418E+03  0.00000000000E+00 0. -1.
         23    2    1    2    0    0  0.28539701637E+02  0.24323542263E+01 -0.13229828879E+03  0.18430625012E+03  0.12508207585E+03 0.  0.
          5    1    3    3  502    0  0.74179696817E+02 -0.12150288128E+02 -0.54876402433E+02  0.93161949666E+02  0.41800000000E+01 0.  1.
         -5    1    3    3    0  502 -0.45639995180E+02  0.14582642355E+02 -0.77421886353E+02  0.91144300450E+02  0.41800000000E+01 0.  1.
        -11    1    1    2    0    0  0.10382701106E+02  0.24345581665E+02 -0.15395982755E+03  0.15621823302E+03  0.00000000000E+00 0. -1.
         11    1    1    2    0    0 -0.38922402743E+02 -0.26777935891E+02 -0.54499524883E+02  0.72126343997E+02  0.00000000000E+00 0.  1.
</event>
<event>
 7    1  0.6506388E-006  0.1115853E+03  0.7561462E-02  0.1257662E+00
          1   -1    0    0  501    0  0.00000000000E+00  0.00000000000E+00  0.25381082415E+03  0.25381082415E+03  0.00000000000E+00 0. -1.
         -1   -1    0    0    0  501 -0.00000000000E+00 -0.00000000000E+00 -0.63903395856E+02  0.63903395856E+02  0.00000000000E+00 0.  1.
         23    2    1    2    0    0  0.48391940450E+02 -0.17999087985E+02  0.37319807489E+02  0.13339754015E+03  0.11720234050E+03 0.  0.
          5    1    3    3  502    0  0.74775860450E+02  0.23051604651E+02  0.29856643961E+02  0.83855216723E+02  0.41800000000E+01 0. -1.
         -5    1    3    3    0  502 -0.26383920000E+02 -0.41050692637E+02  0.74631635283E+01  0.49542323425E+02  0.41800000000E+01 0.  1.
        -11    1    1    2    0    0 -0.71176227795E+02  0.16071377011E+02  0.80309273080E+02  0.10850771357E+03  0.00000000000E+00 0.  1.
         11    1    1    2    0    0  0.22784287345E+02  0.19277109743E+01  0.72278347728E+02  0.75808966289E+02  0.00000000000E+00 0. -1.
</event>
<event>
 6    1  0.6506388E-006  0.9607971E+02  0.7561462E-02  0.1288763E+00
         -2   -1    0    0    0  501 -0.00000000000E+00  0.00000000000E+00  0.74184297560E+02  0.74184297560E+02  0.00000000000E+00 0.  1.
          2   -1    0    0  501    0  0.00000000000E+00 -0.00000000000E+00 -0.37872399578E+03  0.37872399578E+03  0.00000000000E+00 0. -1.
          5    1    1    2  502    0 -0.40332344537E+02  0.38429399145E+02 -0.16360468965E+03  0.17287996879E+03  0.41800000000E+01 0. -1.
         -5    1    1    2    0  502  0.18112251347E+02 -0.42531876512E+02  0.49310483121E+02  0.67720087966E+02  0.41800000000E+01 0.  1.
        -11    1    1    2    0    0 -0.29363501635E+02  0.20429660303E+02 -0.46153904109E+02  0.58393228314E+02  0.00000000000E+00 0. -1.
         11    1    1    2    0    0  0.51583594826E+02 -0.16327182937E+02 -0.14409158759E+03  0.15391500827E+03  0.00000000000E+00 0.  1.
</event>
<event>
 7    1  0.6506388E-006  0.1487690E+03  0.7561462E-02  0.1201994E+00
         -2   -1    0    0    0  501 -0.00000000000E+00  0.00000000000E+00  0.11017075753E+03  0.11017075753E+03  0.00000000000E+00 0.  1.
          2   -1    0    0  501    0  0.00000000000E+00 -0.00000000000E+00 -0.25117495795E+03  0.25117495795E+03  0.00000000000E+00 0. -1.
         23    2    1    2    0    0 -0.11336598700E+03 -0.54200622384E+02 -0.78391923789E+02  0.19386113179E+03  0.12508912913E+03 0.  0.
          5    1    3    3  502    0 -0.72030029359E+01 -0.52995640010E+02 -0.68705481726E+02  0.87168438844E+02  0.41800000000E+01 0.  1.
         -5    1    3    3    0  502 -0.10616298406E+03 -0.12049823735E+01 -0.96864420630E+01  0.10669269294E+03  0.41800000000E+01 0.  1.
        -11    1    1    2    0    0  0.97081016682E+02  0.66120166058E+02 -0.18409563878E+02  0.11889286018E+03  0.00000000000E+00 0.  1.
         11    1    1    2    0    0  0.16284970317E+02 -0.11919543674E+02 -0.44202712754E+02  0.48591723518E+02  0.00000000000E+00 0. -1.
</event>
<event>
 7    1  0.6506388E-006  0.1187384E+03  0.7561462E-02  0.1245193E+00
         -2   -1    0    0    0  501 -0.00000000000E+00  0.00000000000E+00  0.33230164038E+02  0.33230164038E+02  0.00000000000E+00 0. -1.
          2   -1    0    0  501    0  0.00000000000E+00 -0.00000000000E+00 -0.49844894694E+03  0.49844894694E+03  0.00000000000E+00 0.  1.
         23    2    1    2    0    0  0.37537247643E+02 -0.42211026112E+02 -0.17610110188E+03  0.22327127136E+03  0.12509055458E+03 0.  0.
          5    1    3    3  502    0  0.73020940737E+02  0.36077734456E+01 -0.12957413048E+03  0.14883548470E+03  0.41800000000E+01 0.  1.
         -5    1    3    3    0  502 -0.35483693094E+02 -0.45818799558E+02 -0.46526971396E+02  0.74435786661E+02  0.41800000000E+01 0.  1.
        -11    1    1    2    0    0  0.27339193947E+02 -0.23479975463E+01 -0.96649269901E+02  0.10046903001E+03  0.00000000000E+00 0.  1.
         11    1    1    2    0    0 -0.64876441590E+02  0.44559023658E+02 -0.19246841113E+03  0.20793880961E+03  0.00000000000E+00 0. -1.
</event>
<event>
 7    1  0.6506388E-006  0.8414370E+02  0.7561462E-02  0.1317687E+00
          1   -1    0    0  501    0  0.00000000000E+00  0.00000000000E+00  0.62190521877E+02  0.62190521877E+02  0.00000000000E+00 0. -1.
         -1   -1    0    0    0  501 -0.00000000000E+00 -0.00000000000E+00 -0.19579401615E+03  0.19579401615E+03  0.00000000000E+00 0.  1.
         23    2    1    2    0    0  0.19682070161E+02  0.34587489874E+01 -0.86067788715E+02  0.15392761706E+03  0.12604245400E+03 0.  0.
          5    1    3    3  502    0 -0.80415559852E+01  0.58085372838E+02 -0.68071495620E+02  0.89943193607E+02  0.41800000000E+01 0.  1.
         -5    1    3    3    0  502  0.27723626146E+02 -0.54626623851E+02 -0.17996293095E+02  0.63984423457E+02  0.41800000000E+01 0. -1.
        -11    1    1    2    0    0 -0.22213116599E+02  0.16693868837E+02 -0.69073281266E+02  0.74452844073E+02  0.00000000000E+00 0.  1.
         11    1    1    2    0    0  0.25310464386E+01 -0.20152617824E+02  0.21537575706E+02  0.29604076890E+02  0.00000000000E+00 0. -1.
</event>
<event>
 7    1  0.9745305E-006  0.1904390E+03  0.7561462E-02  0.1158066E+00
          1   -1    0    0  501    0  0.00000000000E+00  0.00000000000E+00  0.77153021783E+02  0.77153021783E+02  0.00000000000E+00 0. -1.
         -1   -1    0    0    0  501 -0.00000000000E+00 -0.00000000000E+00 -0.47991552067E+03  0.47991552067E+03  0.00000000000E+00 0.  1.
         23    2    1    2    0    0 -0.58696958021E+02  0.14645841401E+03 -0.22552465421E+03  0.30233162037E+03  0.12509052365E+03 0.  0.
          5    1    3    3  502    0  0.27656099828E+02  0.96299626434E+02 -0.97005316828E+02  0.13952054258E+03  0.41800000000E+01 0. -1.
         -5    1    3    3    0  502 -0.86353057849E+02  0.50158787571E+02 -0.12851933738E+03  0.16281107779E+03  0.41800000000E+01 0. -1.
        -11    1    1    2    0    0 -0.16002202593E+02 -0.77000364787E+02 -0.97509771791E+02  0.12527283129E+03  0.00000000000E+00 0.  1.
         11    1    1    2    0    0  0.74699160614E+02 -0.69458049218E+02 -0.79728072885E+02  0.12946409079E+03  0.00000000000E+00 0. -1.
</event>
<event>
 7    1  0.6506388E-006  0.4101040E+02  0.7561462E-02  0.1500905E+00
          1   -1    0    0  501    0  0.00000000000E+00  0.00000000000E+00  0.67268270026E+02  0.67268270026E+02  0.00000000000E+00 0. -1.
         -1   -1    0    0    0  501 -0.00000000000E+00 -0.00000000000E+00 -0.19450933630E+03  0.19450933630E+03  0.00000000000E+00 0.  1.
         23    2    1    2    0    0 -0.16662592706E+02  0.33724915836E+02 -0.78631634382E+02  0.15246081604E+03  0.12508538907E+03 0.  0.
          5    1    3    3  502    0 -0.31023019230E+00  0.18565556179E+02 -0.11117383421E+03  0.11279126709E+03  0.41800000000E+01 0.  1.
         -5    1    3    3    0  502 -0.16352362514E+02  0.15159359657E+02  0.32542199824E+02  0.39669548956E+02  0.41800000000E+01 0.  1.
        -11    1    1    2    0    0  0.35873841931E+01 -0.23312217211E+02 -0.74697751340E+02  0.78333152955E+02  0.00000000000E+00 0.  1.
         11    1    1    2    0    0  0.13075208513E+02 -0.10412698625E+02  0.26088319449E+02  0.30983637327E+02  0.00000000000E+00 0. -1.
</event>
<event>
 7    1  0.6506388E-006  0.1524522E+03  0.7561462E-02  0.1197492E+00
         -3   -1    0    0    0  501 -0.00000000000E+00  0.00000000000E+00  0.17781130479E+03  0.17781130479E+03  0.00000000000E+00 0.  1.
          3   -1    0    0  501    0  0.00000000000E+00 -0.00000000000E+00 -0.14528571504E+03  0.14528571504E+03  0.00000000000E+00 0. -1.
         23    2    1    2    0    0 -0.93950847898E+02  0.50898895916E+02 -0.45366356830E+00  0.16450747212E+03  0.12508014689E+03 0.  0.
          5    1    3    3  502    0 -0.10275560329E+03  0.81110033405E+02 -0.10000863309E+02  0.13135844546E+03  0.41800000000E+01 0.  1.
         -5    1    3    3    0  502  0.88047553877E+01 -0.30211137490E+02  0.95471997409E+01  0.33149026664E+02  0.41800000000E+01 0.  1.
        -11    1    1    2    0    0  0.69587344008E+01 -0.54667985165E+02 -0.17649824964E+02  0.57866474817E+02  0.00000000000E+00 0. -1.
         11    1    1    2    0    0  0.86992113497E+02  0.37690892495E+01  0.50629078290E+02  0.10072307289E+03  0.00000000000E+00 0.  1.
</event>
<event>
 7    1  0.6506388E-006  0.2818109E+03  0.7561462E-02  0.1094704E+00
          2   -1    0    0  501    0  0.00000000000E+00  0.00000000000E+00  0.14522943577E+04  0.14522943577E+04  0.00000000000E+00 0. -1.
         -2   -1    0    0    0  501 -0.00000000000E+00 -0.00000000000E+00 -0.59637380878E+02  0.59637380878E+02  0.00000000000E+00 0.  1.
         23    2    1    2    0    0 -0.10099854267E+03  0.24742740495E+03  0.58581702876E+03  0.65593625973E+03  0.12509899801E+03 0.  0.
          5    1    3    3  502    0  0.15730046657E+02  0.65225545729E+02  0.22851259513E+03  0.23819589567E+03  0.41800000000E+01 0. -1.
         -5    1    3    3    0  502 -0.11672858933E+03  0.18220185922E+03  0.35730443363E+03  0.41774036406E+03  0.41800000000E+01 0. -1.
        -11    1    1    2    0    0 -0.72421875304E+01 -0.81735215603E+02  0.16405771293E+03  0.18343398792E+03  0.00000000000E+00 0.  1.
         11    1    1    2    0    0  0.10824073021E+03 -0.16569218934E+03  0.64278223510E+03  0.67256149090E+03  0.00000000000E+00 0. -1.
</event>
<event>
 7    1  0.6506388E-006  0.1097743E+03  0.7561462E-02  0.1260988E+00
          1   -1    0    0  501    0  0.00000000000E+00  0.00000000000E+00  0.51020890757E+03  0.51020890757E+03  0.00000000000E+00 0. -1.
         -1   -1    0    0    0  501 -0.00000000000E+00 -0.00000000000E+00 -0.28056364315E+02  0.28056364315E+02  0.00000000000E+00 0.  1.
         23    2    1    2    0    0 -0.20366101330E+02  0.72408664203E+01  0.17049887080E+03  0.21256850242E+03  0.12509314548E+03 0.  0.
          5    1    3    3  502    0 -0.93004413894E+01 -0.58788997948E+02  0.74337983626E+02  0.95321837474E+02  0.41800000000E+01 0. -1.
         -5    1    3    3    0  502 -0.11065659940E+02  0.66029864369E+02  0.96160887175E+02  0.11724666494E+03  0.41800000000E+01 0. -1.
        -11    1    1    2    0    0  0.54318701630E+02  0.91746859394E+01  0.21502530062E+03  0.22196976397E+03  0.00000000000E+00 0. -1.
         11    1    1    2    0    0 -0.33952600300E+02 -0.16415552360E+02  0.96628371829E+02  0.10372700549E+03  0.00000000000E+00 0.  1.
</event>
<event>
 7    1  0.6506388E-006  0.1032437E+03  0.7561462E-02  0.1273619E+00
         -1   -1    0    0    0  501 -0.00000000000E+00  0.00000000000E+00  0.45823539311E+03  0.45823539311E+03  0.00000000000E+00 0.  1.
          1   -1    0    0  501    0  0.00000000000E+00 -0.00000000000E+00 -0.30196614469E+02  0.30196614469E+02  0.00000000000E+00 0. -1.
         23    2    1    2    0    0 -0.57662106384E+01  0.81130742067E+01  0.32988228708E+03  0.35293640670E+03  0.12507083066E+03 0.  0.
          5    1    3    3  502    0 -0.35246395547E+02 -0.41964430114E+02  0.23703620332E+03  0.24332479503E+03  0.41800000000E+01 0.  1.
         -5    1    3    3    0  502  0.29480184908E+02  0.50077504321E+02  0.92846083761E+02  0.10961161166E+03  0.41800000000E+01 0.  1.
        -11    1    1    2    0    0  0.43062247012E+02  0.19088176174E+02  0.53271283555E+02  0.71109389246E+02  0.00000000000E+00 0.  1.
         11    1    1    2    0    0 -0.37296036374E+02 -0.27201250380E+02  0.44885208002E+02  0.64386211636E+02  0.00000000000E+00 0. -1.
</event>
<event>
 7    1  0.8573032E-006  0.9207209E+02  0.7561462E-02  0.1297910E+00
         -3   -1    0    0    0  501 -0.00000000000E+00  0.00000000000E+00  0.34114996797E+03  0.34114996797E+03  0.00000000000E+00 0.  1.
          3   -1    0    0  501    0  0.00000000000E+00 -0.00000000000E+00 -0.38410190112E+02  0.38410190112E+02  0.00000000000E+00 0. -1.
         23    2    1    2    0    0 -0.64955038714E+01  0.73353985885E+01  0.23090238230E+03  0.26279138025E+03  0.12508956685E+03 0.  0.
          5    1    3    3  502    0  0.10400779669E+02 -0.45204498764E+02  0.32445467981E+02  0.56760934794E+02  0.41800000000E+01 0. -1.
         -5    1    3    3    0  502 -0.16896283540E+02  0.52539897352E+02  0.19845691432E+03  0.20603044545E+03  0.41800000000E+01 0. -1.
        -11    1    1    2    0    0 -0.25783196083E+02  0.25440036300E+02  0.58617059438E+02  0.68905212462E+02  0.00000000000E+00 0.  1.
         11    1    1    2    0    0  0.32278699955E+02 -0.32775434889E+02  0.13220336112E+02  0.47863565369E+02  0.00000000000E+00 0. -1.
</event>
<event>
 7    1  0.6506388E-006  0.9887990E+02  0.7561462E-02  0.1282669E+00
          1   -1    0    0  501    0  0.00000000000E+00  0.00000000000E+00  0.42269364783E+02  0.42269364783E+02  0.00000000000E+00 0.  1.
         -1   -1    0    0    0  501 -0.00000000000E+00 -0.00000000000E+00 -0.37550479646E+03  0.37550479646E+03  0.00000000000E+00 0. -1.
         23    2    1    2    0    0  0.31418596779E+02 -0.24652661648E+02 -0.26793019041E+03  0.29837642380E+03  0.12508805455E+03 0.  0.
          5    1    3    3  502    0  0.62058859327E+02 -0.37867303456E+02 -0.83011495295E+02  0.11042470486E+03  0.41800000000E+01 0.  1.
         -5    1    3    3    0  502 -0.30640262547E+02  0.13214641808E+02 -0.18491869512E+03  0.18795171894E+03  0.41800000000E+01 0.  1.
        -11    1    1    2    0    0 -0.50165382711E+02 -0.10701297277E+02 -0.60148340165E+02  0.79050023470E+02  0.00000000000E+00 0. -1.
         11    1    1    2    0    0  0.18746785932E+02  0.35353958925E+02 -0.51569011010E+01  0.40347713980E+02  0.00000000000E+00 0.  1.
</event>
<event>
 7    1  0.6506388E-006  0.1735258E+03  0.7561462E-02  0.1174220E+00
         -2   -1    0    0    0  501 -0.00000000000E+00  0.00000000000E+00  0.68962150326E+02  0.68962150326E+02  0.00000000000E+00 0.  1.
          2   -1    0    0  501    0  0.00000000000E+00 -0.00000000000E+00 -0.49151061983E+03  0.49151061983E+03  0.00000000000E+00 0. -1.
         23    2    1    2    0    0 -0.14112983387E+03  0.44222177237E+02 -0.21991376472E+03  0.29306289979E+03  0.12510223162E+03 0.  0.
          5    1    3    3  502    0 -0.13553808977E+02 -0.24276253651E+02  0.18505880822E+01  0.28176928601E+02  0.41800000000E+01 0.  1.
         -5    1    3    3    0  502 -0.12757602489E+03  0.68498430888E+02 -0.22176435280E+03  0.26488597119E+03  0.41800000000E+01 0.  1.
        -11    1    1    2    0    0  0.39477494649E+02  0.28838348632E+02 -0.48801069528E+02  0.69077256189E+02  0.00000000000E+00 0.  1.
         11    1    1    2    0    0  0.10165233922E+03 -0.73060525869E+02 -0.15383363525E+03  0.19833261417E+03  0.00000000000E+00 0. -1.
</event>
<event>
 7    1  0.6506388E-006  0.2336322E+03  0.7561462E-02  0.1124109E+00
          1   -1    0    0  501    0  0.00000000000E+00  0.00000000000E+00  0.91527219424E+02  0.91527219424E+02  0.00000000000E+00 0. -1.
         -1   -1    0    0    0  501 -0.00000000000E+00 -0.00000000000E+00 -0.68450600879E+03  0.68450600879E+03  0.00000000000E+00 0.  1.
         23    2    1    2    0    0 -0.12621974912E+03  0.17580514359E+03 -0.40017796537E+03  0.47183770545E+03  0.12509813242E+03 0.  0.
          5    1    3    3  502    0  0.12510567133E+02  0.76857368814E+02 -0.10221467629E+03  0.12856469920E+03  0.41800000000E+01 0.  1.
         -5    1    3    3    0  502 -0.13873031626E+03  0.98947774773E+02 -0.29796328908E+03  0.34327300625E+03  0.41800000000E+01 0.  1.
        -11    1    1    2    0    0  0.22390530667E+02 -0.13468201427E+02 -0.72405214102E+02  0.76975602254E+02  0.00000000000E+00 0.  1.
         11    1    1    2    0    0  0.10382921846E+03 -0.16233694216E+03 -0.12039560989E+03  0.22721992051E+03  0.00000000000E+00 0. -1.
</event>
<event>
 7    1  0.6506388E-006  0.1030269E+03  0.7561462E-02  0.1274057E+00
         -1   -1    0    0    0  501 -0.00000000000E+00  0.00000000000E+00  0.18462836535E+03  0.18462836535E+03  0.00000000000E+00 0.  1.
          1   -1    0    0  501    0  0.00000000000E+00 -0.00000000000E+00 -0.75751587896E+02  0.75751587896E+02  0.00000000000E+00 0. -1.
         23    2    1    2    0    0  0.39229797678E+02  0.36375500168E+02  0.81899720414E+02  0.15879824752E+03  0.12508862928E+03 0.  0.
          5    1    3    3  502    0  0.46267955812E+00  0.75763881053E+02  0.26343202481E+02  0.80323200020E+02  0.41800000000E+01 0. -1.
         -5    1    3    3    0  502  0.38767118120E+02 -0.39388380884E+02  0.55556517933E+02  0.78475047505E+02  0.41800000000E+01 0. -1.
        -11    1    1    2    0    0 -0.52246357287E+02 -0.30134155672E+02  0.47303393431E+02  0.76650898350E+02  0.00000000000E+00 0.  1.
         11    1    1    2    0    0  0.13016559609E+02 -0.62413444965E+01 -0.20326336389E+02  0.24930807372E+02  0.00000000000E+00 0. -1.
</event>
<event>
 6    1  0.6506388E-006  0.1173463E+03  0.7561462E-02  0.1247540E+00
          1   -1    0    0  501    0  0.00000000000E+00  0.00000000000E+00  0.70224567447E+03  0.70224567447E+03  0.00000000000E+00 0. -1.
         -1   -1    0    0    0  501 -0.00000000000E+00 -0.00000000000E+00 -0.22057180584E+02  0.22057180584E+02  0.00000000000E+00 0.  1.
          5    1    1    2  502    0  0.81724330248E+00 -0.76492742030E+02  0.16580608335E+03  0.18264976635E+03  0.41800000000E+01 0. -1.
         -5    1    1    2    0  502 -0.26274428305E+02  0.66412386755E+02  0.16979811051E+03  0.18425477315E+03  0.41800000000E+01 0.  1.
        -11    1    1    2    0    0 -0.29660736236E+02 -0.32295772403E+01  0.57628612122E+02  0.64894116670E+02  0.00000000000E+00 0.  1.
         11    1    1    2    0    0  0.55117921239E+02  0.13309932516E+02  0.28695568791E+03  0.29250419889E+03  0.00000000000E+00 0. -1.
</event>
<event>
 7    1  0.6506388E-006  0.9028222E+02  0.7561462E-02  0.1302170E+00
         -1   -1    0    0    0  501 -0.00000000000E+00  0.00000000000E+00  0.14458936269E+02  0.14458936269E+02  0.00000000000E+00 0.  1.
          1   -1    0    0  501    0  0.00000000000E+00 -0.00000000000E+00 -0.86177158383E+03  0.86177158383E+03  0.00000000000E+00 0. -1.
         23    2    1    2    0    0  0.97411952244E+01 -0.15597827616E+02 -0.55308782796E+03  0.56735475777E+03  0.12508833927E+03 0.  0.
          5    1    3    3  502    0 -0.27852468455E+02  0.25006376106E+02 -0.43768925877E+03  0.43930677036E+03  0.41800000000E+01 0. -1.
         -5    1    3    3    0  502  0.37593663679E+02 -0.40604203721E+02 -0.11539856919E+03  0.12804798741E+03  0.41800000000E+01 0. -1.
        -11    1    1    2    0    0  0.37280377621E+02 -0.16653252663E+01 -0.72236279687E+02  0.81306088128E+02  0.00000000000E+00 0.  1.
         11    1    1    2    0    0 -0.47021572845E+02  0.17263152882E+02 -0.22198853992E+03  0.22756967420E+03  0.00000000000E+00 0. -1.
</event>
<event>
 7    1  0.6506388E-006  0.6423059E+02  0.7561462E-02  0.1380889E+00
          2   -1    0    0  501    0  0.00000000000E+00  0.00000000000E+00  0.17932125084E+03  0.17932125084E+03  0.00000000000E+00 0.  1.
         -2   -1    0    0    0  501 -0.00000000000E+00 -0.00000000000E+00 -0.72348388659E+02  0.72348388659E+02  0.00000000000E+00 0. -1.
         23    2    1    2    0    0 -0.20176440235E+02  0.21394576892E+02  0.31028270914E+02  0.13219256397E+03  0.12508918303E+03 0.  0.
          5    1    3    3  502    0 -0.43870623365E+02  0.28602752831E+02 -0.33933985527E+02  0.62543879298E+02  0.41800000000E+01 0. -1.
         -5    1    3    3    0  502  0.23694183130E+02 -0.72081759389E+01  0.64962256441E+02  0.69648684672E+02  0.41800000000E+01 0. -1.
        -11    1    1    2    0    0 -0.48247807799E+01 -0.25075994838E+02  0.87890505046E+02  0.91524996061E+02  0.00000000000E+00 0.  1.
         11    1    1    2    0    0  0.25001221015E+02  0.36814179463E+01 -0.11945913783E+02  0.27952079465E+02  0.00000000000E+00 0. -1.
</event>
<event>
 7    1  0.6506388E-006  0.7354048E+02  0.7561462E-02  0.1348451E+00
         -2   -1    0    0    0  501 -0.00000000000E+00  0.00000000000E+00  0.10935117495E+03  0.10935117495E+03  0.00000000000E+00 0.  1.
          2   -1    0    0  501    0  0.00000000000E+00 -0.00000000000E+00 -0.12637611202E+03  0.12637611202E+03  0.00000000000E+00 0. -1.
         23    2    1    2    0    0  0.46948758713E+01  0.19144177175E+02  0.32196904242E+02  0.13066258942E+03  0.12509008855E+03 0.  0.
          5    1    3    3  502    0  0.10974841464E+02 -0.16975289760E+02 -0.42556485175E+02  0.47298355554E+02  0.41800000000E+01 0. -1.
         -5    1    3    3    0  502 -0.62799655928E+01  0.36119466935E+02  0.74753389418E+02  0.83364233871E+02  0.41800000000E+01 0. -1.
        -11    1    1    2    0    0  0.31772677542E+02  0.18795886435E+02 -0.69493517484E+01  0.37564369751E+02  0.00000000000E+00 0.  1.
         11    1    1    2    0    0 -0.36467553413E+02 -0.37940063610E+02 -0.42272489562E+02  0.67500327795E+02  0.00000000000E+00 0. -1.
</event>
<event>
 7    1  0.6506388E-006  0.1170055E+03  0.7561462E-02  0.1248120E+00
          1   -1    0    0  501    0  0.00000000000E+00  0.00000000000E+00  0.18877663620E+02  0.18877663620E+02  0.00000000000E+00 0. -1.
         -1   -1    0    0    0  501 -0.00000000000E+00 -0.00000000000E+00 -0.11198948402E+04  0.11198948402E+04  0.00000000000E+00 0.  1.
         23    2    1    2    0    0 -0.23702577324E+02  0.49231459042E+02 -0.90738341765E+03  0.91759299868E+03  0.12508675338E+03 0.  0.
          5    1    3    3  502    0  0.45965528071E+02 -0.65809791922E+01 -0.34988855188E+03  0.35298103376E+03  0.41800000000E+01 0. -1.
         -5    1    3    3    0  502 -0.69668105395E+02  0.55812438234E+02 -0.55749486578E+03  0.56461196493E+03  0.41800000000E+01 0. -1.
        -11    1    1    2    0    0 -0.24767289854E+02 -0.42360130871E+02 -0.52804143735E+02  0.72083818778E+02  0.00000000000E+00 0.  1.
         11    1    1    2    0    0  0.48469867178E+02 -0.68713281710E+01 -0.14082961517E+03  0.14909568633E+03  0.00000000000E+00 0. -1.
</event>
<event>
 7    1  0.6506388E-006  0.1148206E+03  0.7561462E-02  0.1251895E+00
          1   -1    0    0  501    0  0.00000000000E+00  0.00000000000E+00  0.16812828897E+03  0.16812828897E+03  0.00000000000E+00 0. -1.
         -1   -1    0    0    0  501 -0.00000000000E+00 -0.00000000000E+00 -0.89839914712E+02  0.89839914712E+02  0.00000000000E+00 0.  1.
         23    2    1    2    0    0  0.58237017298E+02 -0.62154748855E+00  0.53044008393E+02  0.14782893338E+03  0.12509112764E+03 0.  0.
          5    1    3    3  502    0  0.84334338983E+01 -0.56118433429E+02  0.12022642803E+01  0.56915017502E+02  0.41800000000E+01 0.  1.
         -5    1    3    3    0  502  0.49803583399E+02  0.55496885940E+02  0.51841744113E+02  0.90913915883E+02  0.41800000000E+01 0.  1.
        -11    1    1    2    0    0  0.19563839658E+02 -0.45356352420E+01 -0.12351536439E+02  0.23577028261E+02  0.00000000000E+00 0.  1.
         11    1    1    2    0    0 -0.77800856955E+02  0.51571827306E+01  0.37595902307E+02  0.86562242040E+02  0.00000000000E+00 0. -1.
</event>
<event>
 7    1  0.6506388E-006  0.1097462E+03  0.7561462E-02  0.1261041E+00
          2   -1    0    0  501    0  0.00000000000E+00  0.00000000000E+00  0.11284705793E+03  0.11284705793E+03  0.00000000000E+00 0.  1.
         -2   -1    0    0    0  501 -0.00000000000E+00 -0.00000000000E+00 -0.12086743903E+03  0.12086743903E+03  0.00000000000E+00 0. -1.
         23    2    1    2    0    0 -0.19548479645E+02  0.30344435666E+02 -0.39184313654E+02  0.13595874913E+03  0.12508574337E+03 0.  0.
          5    1    3    3  502    0  0.50694705627E+02  0.24424387508E+02 -0.32276225215E+02  0.65005622817E+02  0.41800000000E+01 0.  1.
         -5    1    3    3    0  502 -0.70243185271E+02  0.59200481579E+01 -0.69080884383E+01  0.70953126310E+02  0.41800000000E+01 0.  1.
        -11    1    1    2    0    0  0.10402524900E+02  0.29826014019E+02  0.13757900459E+02  0.34454077576E+02  0.00000000000E+00 0.  1.
         11    1    1    2    0    0  0.91459547444E+01 -0.60170449684E+02  0.17406032095E+02  0.63301670252E+02  0.00000000000E+00 0. -1.
</event>
<event>
 7    1  0.6506388E-006  0.1044532E+03  0.7561462E-02  0.1271201E+00
         -3   -1    0    0    0  501 -0.00000000000E+00  0.00000000000E+00  0.21636650712E+03  0.21636650712E+03  0.00000000000E+00 0.  1.
          3   -1    0    0  501    0  0.00000000000E+00 -0.00000000000E+00 -0.14825825778E+03  0.14825825778E+03  0.00000000000E+00 0. -1.
         23    2    1    2    0    0  0.39482628266E+02  0.48665196560E+02  0.16730045040E+03  0.21634615329E+03  0.12202064599E+03 0.  0.
          5    1    3    3  502    0 -0.20664714628E+02 -0.13307097308E+02 -0.32388563073E+01  0.25141039350E+02  0.41800000000E+01 0. -1.
         -5    1    3    3    0  502  0.60147342894E+02  0.61972293868E+02  0.17053930671E+03  0.19120511394E+03  0.41800000000E+01 0.  1.
        -11    1    1    2    0    0 -0.57635156004E+02 -0.53593946383E+02 -0.44433837435E+02  0.90379689121E+02  0.00000000000E+00 0.  1.
         11    1    1    2    0    0  0.18152527738E+02  0.49287498231E+01 -0.54758363624E+02  0.57898922485E+02  0.00000000000E+00 0. -1.
</event>
<event>
 7    1  0.6506388E-006  0.1092998E+03  0.7561462E-02  0.1261872E+00
          2   -1    0    0  501    0  0.00000000000E+00  0.00000000000E+00  0.29262940350E+03  0.29262940350E+03  0.00000000000E+00 0. -1.
         -2   -1    0    0    0  501 -0.00000000000E+00 -0.00000000000E+00 -0.61835359992E+02  0.61835359992E+02  0.00000000000E+00 0.  1.
         23    2    1    2    0    0 -0.70660660432E+02 -0.41732572429E+02  0.10360142699E+03  0.17803285696E+03  0.11928078616E+03 0.  0.
          5    1    3    3  502    0  0.11459329609E+02  0.23597455725E+02  0.57500617382E+02  0.63339952251E+02  0.41800000000E+01 0. -1.
         -5    1    3    3    0  502 -0.82119990041E+02 -0.65330028154E+02  0.46100809611E+02  0.11469290471E+03  0.41800000000E+01 0.  1.
        -11    1    1    2    0    0  0.68442913510E+02  0.29407819854E+02  0.13995902035E+03  0.15854898188E+03  0.00000000000E+00 0. -1.
         11    1    1    2    0    0  0.22177469226E+01  0.12324752575E+02 -0.12766403834E+02  0.17882924657E+02  0.00000000000E+00 0.  1.
</event>
<event>
 7    1  0.6506388E-006  0.1026601E+03  0.7561462E-02  0.1274800E+00
          1   -1    0    0  501    0  0.00000000000E+00  0.00000000000E+00  0.49205899577E+03  0.49205899577E+03  0.00000000000E+00 0. -1.
         -1   -1    0    0    0  501 -0.00000000000E+00 -0.00000000000E+00 -0.34499637133E+02  0.34499637133E+02  0.00000000000E+00 0.  1.
         23    2    1    2    0    0 -0.46202741514E+02 -0.67319155770E+02  0.23148367798E+03  0.26911187312E+03  0.11031747380E+03 0.  0.
          5    1    3    3  502    0  0.16442015552E+02  0.53237530265E+01 -0.76663148664E+00  0.17797256686E+02  0.41800000000E+01 0. -1.
         -5    1    3    3    0  502 -0.62644757066E+02 -0.72642908797E+02  0.23225030947E+03  0.25131461643E+03  0.41800000000E+01 0.  1.
        -11    1    1    2    0    0  0.40594917579E+02  0.22613070782E+02  0.27871651122E+02  0.54186042850E+02  0.00000000000E+00 0.  1.
         11    1    1    2    0    0  0.56078239341E+01  0.44706084988E+02  0.19820402954E+03  0.20326071694E+03  0.00000000000E+00 0. -1.
</event>
<event>
 7    1  0.6506388E-006  0.1004463E+03  0.7561462E-02  0.1279360E+00
          3   -1    0    0  501    0  0.00000000000E+00  0.00000000000E+00  0.15479394169E+02  0.15479394169E+02  0.00000000000E+00 0. -1.
         -3   -1    0    0    0  501 -0.00000000000E+00 -0.00000000000E+00 -0.12106184119E+04  0.12106184119E+04  0.00000000000E+00 0.  1.
         23    2    1    2    0    0 -0.57445726152E+02 -0.20246821170E+02 -0.91015917775E+03  0.92073149950E+03  0.12508725000E+03 0.  0.
          5    1    3    3  502    0 -0.74127375897E+02 -0.17613843571E+02 -0.89313959575E+03  0.89639328714E+03  0.41800000000E+01 0. -1.
         -5    1    3    3    0  502  0.16681649746E+02 -0.26329775992E+01 -0.17019581998E+02  0.24338212356E+02  0.41800000000E+01 0. -1.
        -11    1    1    2    0    0  0.63556087444E+02 -0.19885305814E+02 -0.14390235986E+03  0.15856446894E+03  0.00000000000E+00 0. -1.
         11    1    1    2    0    0 -0.61103612919E+01  0.40132126984E+02 -0.14107748009E+03  0.14680183759E+03  0.00000000000E+00 0.  1.
</event>
<event>
 7    1  0.6506388E-006  0.8997786E+02  0.7561462E-02  0.1302905E+00
         -2   -1    0    0    0  501 -0.00000000000E+00  0.00000000000E+00  0.11173985180E+03  0.11173985180E+03  0.00000000000E+00 0.  1.
          2   -1    0    0  501    0  0.00000000000E+00 -0.00000000000E+00 -0.39923866365E+03  0.39923866365E+03  0.00000000000E+00 0. -1.
         23    2    1    2    0    0  0.25810240631E+02  0.16569095226E+02  0.47188409013E+02  0.12425878036E+03  0.11078264807E+03 0.  0.
          5    1    3    3  502    0 -0.83431203937E+01  0.80949161840E+01 -0.33730099096E+02  0.35921126248E+02  0.41800000000E+01 0. -1.
         -5    1    3    3    0  502  0.34153361025E+02  0.84741790420E+01  0.80918508109E+02  0.88337654114E+02  0.41800000000E+01 0.  1.
        -11    1    1    2    0    0 -0.30973240253E+02  0.53547149128E+02 -0.30361625520E+03  0.30985394820E+03  0.00000000000E+00 0.  1.
         11    1    1    2    0    0  0.51629996225E+01 -0.70116244354E+02 -0.31070965653E+02  0.76865786889E+02  0.00000000000E+00 0. -1.
</event>
<event>
 7    1  0.6506388E-006  0.3956384E+03  0.7561462E-02  0.1045300E+00
         -1   -1    0    0    0  501 -0.00000000000E+00  0.00000000000E+00  0.46354773500E+03  0.46354773500E+03  0.00000000000E+00 0.  1.
          1   -1    0    0  501    0  0.00000000000E+00 -0.00000000000E+00 -0.35586616971E+03  0.35586616971E+03  0.00000000000E+00 0. -1.
         23    2    1    2    0    0  0.37618066175E+03  0.90539286227E+02 -0.42251870351E+01  0.40666286760E+03  0.12509029958E+03 0.  0.
          5    1    3    3  502    0  0.35098352809E+01  0.25015213931E+02  0.11181827587E+02  0.27938960967E+02  0.41800000000E+01 0.  1.
         -5    1    3    3    0  502  0.37267082647E+03  0.65524072296E+02 -0.15407014622E+02  0.37872390663E+03  0.41800000000E+01 0.  1.
        -11    1    1    2    0    0 -0.13573312565E+03 -0.40704676572E+02 -0.27780443150E+01  0.14173238735E+03  0.00000000000E+00 0.  1.
         11    1    1    2    0    0 -0.24044753611E+03 -0.49834609655E+02  0.11468479665E+03  0.27101864977E+03  0.00000000000E+00 0. -1.
</event>
<event>
 7    1  0.6506388E-006  0.1101620E+03  0.7561462E-02  0.1260270E+00
         -1   -1    0    0    0  501 -0.00000000000E+00  0.00000000000E+00  0.33602235573E+03  0.33602235573E+03  0.00000000000E+00 0.  1.
          1   -1    0    0  501    0  0.00000000000E+00 -0.00000000000E+00 -0.61691861568E+02  0.61691861568E+02  0.00000000000E+00 0. -1.
         23    2    1    2    0    0  0.21151187214E+02  0.76266963780E+02  0.22582908978E+03  0.27001896889E+03  0.12508974091E+03 0.  0.
          5    1    3    3  502    0  0.66794607397E+02  0.27120246864E+02  0.16186356151E+03  0.17724083139E+03  0.41800000000E+01 0. -1.
         -5    1    3    3    0  502 -0.45643420183E+02  0.49146716916E+02  0.63965528274E+02  0.92778137494E+02  0.41800000000E+01 0. -1.
        -11    1    1    2    0    0  0.28048984852E+01 -0.11994658988E+02  0.57238787434E+02  0.58549279130E+02  0.00000000000E+00 0.  1.
         11    1    1    2    0    0 -0.23956085700E+02 -0.64272304792E+02 -0.87373830575E+01  0.69145969282E+02  0.00000000000E+00 0. -1.
</event>
<event>
 7    1  0.6506388E-006  0.1021794E+03  0.7561462E-02  0.1275779E+00
         -2   -1    0    0    0  501 -0.00000000000E+00  0.00000000000E+00  0.27825096775E+02  0.27825096775E+02  0.00000000000E+00 0.  1.
          2   -1    0    0  501    0  0.00000000000E+00 -0.00000000000E+00 -0.47350906894E+03  0.47350906894E+03  0.00000000000E+00 0. -1.
         23    2    1    2    0    0 -0.21210189723E+02  0.80320728000E+00 -0.18938717743E+03  0.22795883356E+03  0.12508880658E+03 0.  0.
          5    1    3    3  502    0  0.26828203513E+02  0.41594100656E+02 -0.33910494913E+02  0.60143293710E+02  0.41800000000E+01 0.  1.
         -5    1    3    3    0  502 -0.48038393235E+02 -0.40790893376E+02 -0.15547668252E+03  0.16781553985E+03  0.41800000000E+01 0.  1.
        -11    1    1    2    0    0 -0.33949487555E+02  0.98485796760E+01 -0.64880074777E+02  0.73884953339E+02  0.00000000000E+00 0.  1.
         11    1    1    2    0    0  0.55159677277E+02 -0.10651786956E+02 -0.19141671995E+03  0.19949037882E+03  0.00000000000E+00 0. -1.
</event>
<event>
 7    1  0.6506388E-006  0.1067005E+03  0.7561462E-02  0.1266805E+00
         -2   -1    0    0    0  501 -0.00000000000E+00  0.00000000000E+00  0.55915286529E+03  0.55915286529E+03  0.00000000000E+00 0.  1.
          2   -1    0    0  501    0  0.00000000000E+00 -0.00000000000E+00 -0.25754591831E+02  0.25754591831E+02  0.00000000000E+00 0. -1.
         23    2    1    2    0    0  0.50561055211E+02 -0.46210064882E+02  0.30243688982E+03  0.33437673958E+03  0.12509173133E+03 0.  0.
          5    1    3    3  502    0  0.69861469260E+02 -0.61557612914E+02  0.29329319333E+03  0.30774719211E+03  0.41800000000E+01 0.  1.
         -5    1    3    3    0  502 -0.19300414048E+02  0.15347548032E+02  0.91436964879E+01  0.26629547471E+02  0.41800000000E+01 0.  1.
        -11    1    1    2    0    0 -0.66127573948E+02  0.29694522083E+02  0.19465773056E+03  0.20771676086E+03  0.00000000000E+00 0.  1.
         11    1    1    2    0    0  0.15566518737E+02  0.16515542799E+02  0.36303653085E+02  0.42813956683E+02  0.00000000000E+00 0. -1.
</event>
<event>
 7    1  0.6506388E-006  0.1078872E+03  0.7561462E-02  0.1264533E+00
          3   -1    0    0  501    0  0.00000000000E+00  0.00000000000E+00  0.52222198003E+03  0.52222198003E+03  0.00000000000E+00 0. -1.
         -3   -1    0    0    0  501 -0.00000000000E+00 -0.00000000000E+00 -0.36358534902E+02  0.36358534902E+02  0.00000000000E+00 0.  1.
         23    2    1    2    0    0  0.12723716387E+02  0.75485697153E+02  0.19130989047E+03  0.24105426244E+03  0.12509076632E+03 0.  0.
          5    1    3    3  502    0 -0.29907724775E+01  0.87701665578E+02  0.20037445311E+03  0.21878738703E+03  0.41800000000E+01 0. -1.
         -5    1    3    3    0  502  0.15714488865E+02 -0.12215968426E+02 -0.90645626399E+01  0.22266875414E+02  0.41800000000E+01 0. -1.
        -11    1    1    2    0    0  0.29228436092E+02 -0.12236641219E+02  0.15941084135E+03  0.16252954563E+03  0.00000000000E+00 0. -1.
         11    1    1    2    0    0 -0.41952152479E+02 -0.63249055934E+02  0.13514271332E+03  0.15499670686E+03  0.00000000000E+00 0.  1.
</event>
<event>
 7    1  0.6506388E-006  0.1424667E+03  0.7561462E-02  0.1210048E+00
          3   -1    0    0  501    0  0.00000000000E+00  0.00000000000E+00  0.79033334342E+02  0.79033334342E+02  0.00000000000E+00 0. -1.
         -3   -1    0    0    0  501 -0.00000000000E+00 -0.00000000000E+00 -0.32234992009E+03  0.32234992009E+03  0.00000000000E+00 0.  1.
         23    2    1    2    0    0  0.51729930542E+02 -0.82513041543E+02 -0.21219764411E+03  0.26469331984E+03  0.12470094492E+03 0.  0.
          5    1    3    3  502    0  0.45606798002E+02 -0.11420637014E+03 -0.14607234270E+03  0.19099130008E+03  0.41800000000E+01 0. -1.
         -5    1    3    3    0  502  0.61231325401E+01  0.31693328599E+02 -0.66125301410E+02  0.73702019758E+02  0.41800000000E+01 0.  1.
        -11    1    1    2    0    0  0.20744671640E+02  0.40659656719E+02 -0.26700989511E+02  0.52881867656E+02  0.00000000000E+00 0.  1.
         11    1    1    2    0    0 -0.72474602182E+02  0.41853384824E+02 -0.44179521273E+01  0.83808066936E+02  0.00000000000E+00 0. -1.
</event>
<event>
 7    1  0.6506388E-006  0.1652507E+03  0.7561462E-02  0.1182893E+00
         -1   -1    0    0    0  501 -0.00000000000E+00  0.00000000000E+00  0.11610959601E+03  0.11610959601E+03  0.00000000000E+00 0.  1.
          1   -1    0    0  501    0  0.00000000000E+00 -0.00000000000E+00 -0.24690188204E+03  0.24690188204E+03  0.00000000000E+00 0. -1.
         23    2    1    2    0    0 -0.12634747640E+03  0.29532992722E+02 -0.70773301412E+02  0.19363056358E+03  0.12509217604E+03 0.  0.
          5    1    3    3  502    0 -0.50695339579E+02  0.75459950779E+02 -0.27776583395E+02  0.95148476665E+02  0.41800000000E+01 0. -1.
         -5    1    3    3    0  502 -0.75652136824E+02 -0.45926958057E+02 -0.42996718017E+02  0.98482086913E+02  0.41800000000E+01 0. -1.
        -11    1    1    2    0    0  0.11759959843E+03 -0.50647507091E+02 -0.68241124710E+02  0.14509199367E+03  0.00000000000E+00 0.  1.
         11    1    1    2    0    0  0.87478779695E+01  0.21114514370E+02  0.82221400934E+01  0.24288920803E+02  0.00000000000E+00 0. -1.
</event>
<event>
 7    1  0.6506388E-006  0.1096094E+03  0.7561462E-02  0.1261295E+00
         -1   -1    0    0    0  501 -0.00000000000E+00  0.00000000000E+00  0.33484686801E+02  0.33484686801E+02  0.00000000000E+00 0. -1.
          1   -1    0    0  501    0  0.00000000000E+00 -0.00000000000E+00 -0.49038512934E+03  0.49038512934E+03  0.00000000000E+00 0.  1.
         23    2    1    2    0    0  0.44533686698E+02  0.87413376500E+01 -0.15388596288E+03  0.20344798733E+03  0.12510209328E+03 0.  0.
          5    1    3    3  502    0  0.81990245910E+02 -0.27134579874E+01 -0.60266192979E+02  0.10187860273E+03  0.41800000000E+01 0. -1.
         -5    1    3    3    0  502 -0.37456559213E+02  0.11454795637E+02 -0.93619769897E+02  0.10156938459E+03  0.41800000000E+01 0. -1.
        -11    1    1    2    0    0 -0.66788089818E+02 -0.23703131592E+02 -0.16114738610E+03  0.17604251599E+03  0.00000000000E+00 0. -1.
         11    1    1    2    0    0  0.22254403120E+02  0.14961793942E+02 -0.14186709356E+03  0.14437931283E+03  0.00000000000E+00 0.  1.
</event>
<event>
 7    1  0.6506388E-006  0.8830086E+02  0.7561462E-02  0.1307019E+00
          1   -1    0    0  501    0  0.00000000000E+00  0.00000000000E+00  0.15909360665E+03  0.15909360665E+03  0.00000000000E+00 0. -1.
         -1   -1    0    0    0  501 -0.00000000000E+00 -0.00000000000E+00 -0.10320094472E+03  0.10320094472E+03  0.00000000000E+00 0.  1.
         23    2    1    2    0    0 -0.48383385012E+02  0.29791584587E+02 -0.79644365588E+01  0.13761952234E+03  0.12508880933E+03 0.  0.
          5    1    3    3  502    0  0.14484173664E+02 -0.28452377299E+02 -0.35095967217E+02  0.47629070698E+02  0.41800000000E+01 0. -1.
         -5    1    3    3    0  502 -0.62867558676E+02  0.58243961886E+02  0.27131530658E+02  0.89990451637E+02  0.41800000000E+01 0. -1.
        -11    1    1    2    0    0  0.26266873387E+02 -0.24363543674E+02  0.85844120569E+02  0.93020126500E+02  0.00000000000E+00 0. -1.
         11    1    1    2    0    0  0.22116511624E+02 -0.54280409131E+01 -0.21987022085E+02  0.31654902539E+02  0.00000000000E+00 0.  1.
</event>
<event>
 7    1  0.6506388E-006  0.1113677E+03  0.7561462E-02  0.1258058E+00
          1   -1    0    0  501    0  0.00000000000E+00  0.00000000000E+00  0.41210292480E+03  0.41210292480E+03  0.00000000000E+00 0. -1.
         -1   -1    0    0    0  501 -0.00000000000E+00 -0.00000000000E+00 -0.43389499900E+02  0.43389499900E+02  0.00000000000E+00 0.  1.
         23    2    1    2    0    0  0.70880109540E+02  0.37747198497E+02  0.20352166988E+03  0.25202677437E+03  0.12509030325E+03 0.  0.
          5    1    3    3  502    0  0.54906831111E+02  0.59337863776E+02  0.47926278344E+02  0.94075197242E+02  0.41800000000E+01 0. -1.
         -5    1    3    3    0  502  0.15973278429E+02 -0.21590665280E+02  0.15559539153E+03  0.15795157713E+03  0.41800000000E+01 0. -1.
        -11    1    1    2    0    0 -0.81366698257E+02 -0.64802063622E+01  0.13964093252E+03  0.16174709485E+03  0.00000000000E+00 0. -1.
         11    1    1    2    0    0  0.10486588717E+02 -0.31266992135E+02  0.25550822503E+02  0.41718555472E+02  0.00000000000E+00 0.  1.
</event>
<event>
 7    1  0.1374219E-005  0.2528611E+03  0.7561462E-02  0.1111510E+00
         -1   -1    0    0    0  501 -0.00000000000E+00  0.00000000000E+00  0.10213680964E+03  0.10213680964E+03  0.00000000000E+00 0.  1.
          1   -1    0    0  501    0  0.00000000000E+00 -0.00000000000E+00 -0.67088832412E+03  0.67088832412E+03  0.00000000000E+00 0. -1.
         23    2    1    2    0    0  0.17753462593E+03 -0.15765878015E+03 -0.30645922417E+03  0.40735725377E+03  0.12509133368E+03 0.  0.
          5    1    3    3  502    0  0.11977066458E+03 -0.38084767043E+02 -0.20372629979E+03  0.23941039910E+03  0.41800000000E+01 0. -1.
         -5    1    3    3    0  502  0.57763961353E+02 -0.11957401311E+03 -0.10273292438E+03  0.16794685467E+03  0.41800000000E+01 0. -1.
        -11    1    1    2    0    0 -0.80587219239E+02  0.28205872361E+02 -0.50541433102E+02  0.99218484167E+02  0.00000000000E+00 0.  1.
         11    1    1    2    0    0 -0.96947406694E+02  0.12945290779E+03 -0.21175085722E+03  0.26644939582E+03  0.00000000000E+00 0. -1.
</event>
<event>
 7    1  0.6506388E-006  0.8746414E+02  0.7561462E-02  0.1309111E+00
          1   -1    0    0  501    0  0.00000000000E+00  0.00000000000E+00  0.55848352349E+02  0.55848352349E+02  0.00000000000E+00 0. -1.
         -1   -1    0    0    0  501 -0.00000000000E+00 -0.00000000000E+00 -0.25611320455E+03  0.25611320455E+03  0.00000000000E+00 0.  1.
         23    2    1    2    0    0  0.29526973259E+02  0.35901169839E+02 -0.13893867226E+03  0.19264665457E+03  0.12509213693E+03 0.  0.
          5    1    3    3  502    0 -0.26636698159E+02 -0.13141646711E+02 -0.10752295595E+03  0.11162828953E+03  0.41800000000E+01 0.  1.
         -5    1    3    3    0  502  0.56163671419E+02  0.49042816551E+02 -0.31415716313E+02  0.81018365041E+02  0.41800000000E+01 0.  1.
        -11    1    1    2    0    0 -0.27748903830E+00  0.13145185176E+02  0.17554814503E+02  0.21932724539E+02  0.00000000000E+00 0. -1.
         11    1    1    2    0    0 -0.29249484221E+02 -0.49046355015E+02 -0.78880994449E+02  0.97382177798E+02  0.00000000000E+00 0.  1.
</event>
<event>
 7    1  0.6506388E-006  0.1103767E+03  0.7561462E-02  0.1259874E+00
         -4   -1    0    0    0  501 -0.00000000000E+00  0.00000000000E+00  0.45653151977E+03  0.45653151977E+03  0.00000000000E+00 0. -1.
          4   -1    0    0  501    0  0.00000000000E+00 -0.00000000000E+00 -0.43852078161E+02  0.43852078161E+02  0.00000000000E+00 0.  1.
         23    2    1    2    0    0  0.29362869255E+02 -0.36373872550E+02  0.36288030141E+03  0.38666355349E+03  0.12506539790E+03 0.  0.
          5    1    3    3  502    0 -0.40258893167E+02 -0.28532908168E+02  0.24085344666E+03  0.24589176581E+03  0.41800000000E+01 0.  1.
         -5    1    3    3    0  502  0.69621762422E+02 -0.78409643824E+01  0.12202685475E+03  0.14077178768E+03  0.41800000000E+01 0.  1.
        -11    1    1    2    0    0 -0.21734837427E+02  0.66503517238E+02  0.26255970786E+02  0.74729491935E+02  0.00000000000E+00 0. -1.
         11    1    1    2    0    0 -0.76280318278E+01 -0.30129644688E+02  0.23543169409E+02  0.38990552502E+02  0.00000000000E+00 0.  1.
</event>
<event>
 7    1  0.6506388E-006  0.1794363E+03  0.7561462E-02  0.1168350E+00
         -1   -1    0    0    0  501 -0.00000000000E+00  0.00000000000E+00  0.71935445938E+02  0.71935445938E+02  0.00000000000E+00 0.  1.
          1   -1    0    0  501    0  0.00000000000E+00 -0.00000000000E+00 -0.61842165215E+03  0.61842165215E+03  0.00000000000E+00 0. -1.
         23    2    1    2    0    0  0.10875782603E+03  0.99660249896E+02 -0.11420264513E+03  0.22461363545E+03  0.12509440811E+03 0.  0.
          5    1    3    3  502    0  0.12095159910E+03  0.43268035999E+02 -0.49256967786E+02  0.13764132206E+03  0.41800000000E+01 0.  1.
         -5    1    3    3    0  502 -0.12193773067E+02  0.56392213897E+02 -0.64945677341E+02  0.86972313383E+02  0.41800000000E+01 0.  1.
        -11    1    1    2    0    0 -0.80535807851E+02 -0.13276123140E+02 -0.22756615819E+03  0.24176151089E+03  0.00000000000E+00 0. -1.
         11    1    1    2    0    0 -0.28222018180E+02 -0.86384126756E+02 -0.20471740290E+03  0.22398195176E+03  0.00000000000E+00 0.  1.
</event>
<event>
 7    1  0.6506388E-006  0.9807235E+02  0.7561462E-02  0.1284403E+00
         -1   -1    0    0    0  501 -0.00000000000E+00  0.00000000000E+00  0.40875364284E+02  0.40875364284E+02  0.00000000000E+00 0.  1.
          1   -1    0    0  501    0  0.00000000000E+00 -0.00000000000E+00 -0.37973709440E+03  0.37973709440E+03  0.00000000000E+00 0. -1.
         23    2    1    2    0    0  0.33092524422E+02 -0.48156417523E+02 -0.21994070156E+03  0.25968453248E+03  0.12509192014E+03 0.  0.
          5    1    3    3  502    0 -0.15201079507E+02  0.12373407797E+02  0.59076136433E+01  0.20893691336E+02  0.41800000000E+01 0.  1.
         -5    1    3    3    0  502  0.48293603930E+02 -0.60529825320E+02 -0.22584831520E+03  0.23879084114E+03  0.41800000000E+01 0.  1.
        -11    1    1    2    0    0 -0.58128140961E+02  0.21475060409E+02 -0.39506558722E+02  0.73490320269E+02  0.00000000000E+00 0.  1.
         11    1    1    2    0    0  0.25035616538E+02  0.26681357114E+02 -0.79414469833E+02  0.87437605935E+02  0.00000000000E+00 0. -1.
</event>
<event>
 7    1  0.6506388E-006  0.8856242E+02  0.7561462E-02  0.1306371E+00
         -2   -1    0    0    0  501 -0.00000000000E+00  0.00000000000E+00  0.82770731077E+03  0.82770731077E+03  0.00000000000E+00 0.  1.
          2   -1    0    0  501    0  0.00000000000E+00 -0.00000000000E+00 -0.19477573466E+02  0.19477573466E+02  0.00000000000E+00 0. -1.
         23    2    1    2    0    0 -0.10724987077E+01  0.12096398238E+01  0.66505437764E+03  0.67671501806E+03  0.12507308649E+03 0.  0.
          5    1    3    3  502    0 -0.28278165557E+02 -0.33153816745E+02  0.91072814113E+02  0.10104731606E+03  0.41800000000E+01 0. -1.
         -5    1    3    3    0  502  0.27205666850E+02  0.34363456569E+02  0.57398156353E+03  0.57566770200E+03  0.41800000000E+01 0. -1.
        -11    1    1    2    0    0  0.39272500106E+02 -0.22831063279E+02  0.94962901739E+02  0.10526889104E+03  0.00000000000E+00 0.  1.
         11    1    1    2    0    0 -0.38200001398E+02  0.21621423455E+02  0.48212457917E+02  0.65200975127E+02  0.00000000000E+00 0. -1.
</event>
<event>
 7    1  0.6506388E-006  0.8678534E+02  0.7561462E-02  0.1310829E+00
         -2   -1    0    0    0  501 -0.00000000000E+00  0.00000000000E+00  0.54089763872E+03  0.54089763872E+03  0.00000000000E+00 0. -1.
          2   -1    0    0  501    0  0.00000000000E+00 -0.00000000000E+00 -0.23588036157E+02  0.23588036157E+02  0.00000000000E+00 0.  1.
         23    2    1    2    0    0 -0.15314001727E+02  0.12754012044E+02  0.35617671287E+03  0.37815008551E+03  0.12545299082E+03 0.  0.
          5    1    3    3  502    0 -0.36356897866E+02  0.51844375585E+02  0.29890094942E+03  0.30556327212E+03  0.41800000000E+01 0. -1.
         -5    1    3    3    0  502  0.21042896139E+02 -0.39090363541E+02  0.57275763454E+02  0.72586813396E+02  0.41800000000E+01 0. -1.
        -11    1    1    2    0    0  0.39769368785E+02 -0.67429084026E+01  0.15534392289E+03  0.16049549491E+03  0.00000000000E+00 0. -1.
         11    1    1    2    0    0 -0.24455367058E+02 -0.60111036410E+01  0.57889668005E+01  0.25840094457E+02  0.00000000000E+00 0.  1.
</event>
<event>
 7    1  0.6506388E-006  0.1117526E+03  0.7561462E-02  0.1257358E+00
          1   -1    0    0  501    0  0.00000000000E+00  0.00000000000E+00  0.32867367239E+02  0.32867367239E+02  0.00000000000E+00 0. -1.
         -1   -1    0    0    0  501 -0.00000000000E+00 -0.00000000000E+00 -0.43156379932E+03  0.43156379932E+03  0.00000000000E+00 0.  1.
         23    2    1    2    0    0  0.45714643855E+02  0.70417527789E+01 -0.25771252416E+03  0.29017644319E+03  0.12508880096E+03 0.  0.
          5    1    3    3  502    0  0.86459608542E+02 -0.12617571940E+02 -0.15792862826E+03  0.18053639814E+03  0.41800000000E+01 0. -1.
         -5    1    3    3    0  502 -0.40744964687E+02  0.19659324719E+02 -0.99783895904E+02  0.10964004505E+03  0.41800000000E+01 0. -1.
        -11    1    1    2    0    0 -0.22915295953E+02 -0.42591424240E+02 -0.11477927858E+03  0.12455289237E+03  0.00000000000E+00 0.  1.
         11    1    1    2    0    0 -0.22799347902E+02  0.35549671461E+02 -0.26204629341E+02  0.49701830999E+02  0.00000000000E+00 0. -1.
</event>
<event>
 7    1  0.6506388E-006  0.8868486E+02  0.7561462E-02  0.1306068E+00
         -1   -1    0    0    0  501 -0.00000000000E+00  0.00000000000E+00  0.29760945441E+03  0.29760945441E+03  0.00000000000E+00 0.  1.
          1   -1    0    0  501    0  0.00000000000E+00 -0.00000000000E+00 -0.54757414033E+02  0.54757414033E+02  0.00000000000E+00 0. -1.
         23    2    1    2    0    0  0.41762237010E+02 -0.10669176404E+02  0.24822402013E+03  0.28128489960E+03  0.12509242506E+03 0.  0.
          5    1    3    3  502    0 -0.47616940361E+01  0.51762260592E+02  0.12528118003E+03  0.13570133316E+03  0.41800000000E+01 0. -1.
         -5    1    3    3    0  502  0.46523931046E+02 -0.62431436996E+02  0.12294284010E+03  0.14558356644E+03  0.41800000000E+01 0. -1.
        -11    1    1    2    0    0 -0.28004680628E+02  0.16278281706E+02 -0.28797631476E+02  0.43342221575E+02  0.00000000000E+00 0. -1.
         11    1    1    2    0    0 -0.13757556383E+02 -0.56091053023E+01  0.23425651722E+02  0.27739747269E+02  0.00000000000E+00 0.  1.
</event>
<event>
 7    1  0.6506388E-006  0.9670063E+02  0.7561462E-02  0.1287391E+00
          2   -1    0    0  501    0  0.00000000000E+00  0.00000000000E+00  0.22003432761E+02  0.22003432761E+02  0.00000000000E+00 0. -1.
         -2   -1    0    0    0  501 -0.00000000000E+00 -0.00000000000E+00 -0.73806676808E+03  0.73806676808E+03  0.00000000000E+00 0.  1.
         23    2    1    2    0    0  0.28257931264E+02  0.65874270977E+01 -0.57239694636E+03  0.58662628986E+03  0.12510089881E+03 0.  0.
          5    1    3    3  502    0  0.60382816450E+02  0.29663503187E+02 -0.17979773411E+03  0.19201746154E+03  0.41800000000E+01 0. -1.
         -5    1    3    3    0  502 -0.32124885186E+02 -0.23076076089E+02 -0.39259921224E+03  0.39460882832E+03  0.41800000000E+01 0. -1.
        -11    1    1    2    0    0 -0.29426432562E+02  0.34370857172E+02 -0.11459308657E+03  0.12320246038E+03  0.00000000000E+00 0.  1.
         11    1    1    2    0    0  0.11685012975E+01 -0.40958284270E+02 -0.29073302395E+02  0.50241450594E+02  0.00000000000E+00 0. -1.
</event>
<event>
 7    1  0.6506388E-006  0.1146648E+03  0.7561462E-02  0.1252167E+00
         -1   -1    0    0    0  501 -0.00000000000E+00  0.00000000000E+00  0.46869368797E+02  0.46869368797E+02  0.00000000000E+00 0.  1.
          1   -1    0    0  501    0  0.00000000000E+00 -0.00000000000E+00 -0.54625493221E+03  0.54625493221E+03  0.00000000000E+00 0. -1.
         23    2    1    2    0    0 -0.16431251611E+02 -0.57113943727E+02 -0.81698706548E+02  0.16078733144E+03  0.12508356688E+03 0.  0.
          5    1    3    3  502    0  0.29803804314E+02  0.15742559467E+02 -0.64218018833E+02  0.72646550317E+02  0.41800000000E+01 0. -1.
         -5    1    3    3    0  502 -0.46235055925E+02 -0.72856503194E+02 -0.17480687716E+02  0.88140781124E+02  0.41800000000E+01 0. -1.
        -11    1    1    2    0    0  0.37655394625E+02  0.73217898184E+02 -0.27029163963E+03  0.28255328668E+03  0.00000000000E+00 0.  1.
         11    1    1    2    0    0 -0.21224143014E+02 -0.16103954457E+02 -0.14739521724E+03  0.14978368289E+03  0.00000000000E+00 0. -1.
</event>
<event>
 7    1  0.6506388E-006  0.1555505E+03  0.7561462E-02  0.1193814E+00
         -2   -1    0    0    0  501 -0.00000000000E+00  0.00000000000E+00  0.20626483825E+03  0.20626483825E+03  0.00000000000E+00 0.  1.
          2   -1    0    0  501    0  0.00000000000E+00 -0.00000000000E+00 -0.16256140630E+03  0.16256140630E+03  0.00000000000E+00 0. -1.
         23    2    1    2    0    0 -0.11900066205E+03  0.65897194479E+02  0.80311895384E+02  0.20151210201E+03  0.12511406358E+03 0.  0.
          5    1    3    3  502    0  0.33294259088E+01  0.42336481712E+02 -0.14320496570E+02  0.45011240626E+02  0.41800000000E+01 0.  1.
         -5    1    3    3    0  502 -0.12233008796E+03  0.23560712767E+02  0.94632391954E+02  0.15650086138E+03  0.41800000000E+01 0.  1.
        -11    1    1    2    0    0  0.11183025607E+03 -0.43043437529E+02  0.43047608258E+01  0.11990527367E+03  0.00000000000E+00 0. -1.
         11    1    1    2    0    0  0.71704059808E+01 -0.22853756950E+02 -0.40913224254E+02  0.47408868870E+02  0.00000000000E+00 0.  1.
</event>
<event>
 7    1  0.6506388E-006  0.2166447E+03  0.7561462E-02  0.1136410E+00
         -1   -1    0    0    0  501 -0.00000000000E+00  0.00000000000E+00  0.24640247727E+03  0.24640247727E+03  0.00000000000E+00 0.  1.
          1   -1    0    0  501    0  0.00000000000E+00 -0.00000000000E+00 -0.46660884526E+03  0.46660884526E+03  0.00000000000E+00 0. -1.
         23    2    1    2    0    0  0.11566987217E+03  0.15319064203E+03  0.15881524206E+03  0.27877606799E+03  0.12508766061E+03 0.  0.
          5    1    3    3  502    0  0.50766452433E+02 -0.11055046370E+02  0.29963936306E+02  0.60122846089E+02  0.41800000000E+01 0.  1.
         -5    1    3    3    0  502  0.64903419742E+02  0.16424568840E+03  0.12885130575E+03  0.21865322190E+03  0.41800000000E+01 0.  1.
        -11    1    1    2    0    0 -0.54299796106E+02 -0.20006793066E+02 -0.61270869422E+02  0.84278461458E+02  0.00000000000E+00 0.  1.
         11    1    1    2    0    0 -0.61370076069E+02 -0.13318384897E+03 -0.31775074062E+03  0.34995679309E+03  0.00000000000E+00 0. -1.
</event>
<event>
 7    1  0.6506388E-006  0.1197998E+03  0.7561462E-02  0.1243428E+00
         -1   -1    0    0    0  501 -0.00000000000E+00  0.00000000000E+00  0.53689727737E+03  0.53689727737E+03  0.00000000000E+00 0.  1.
          1   -1    0    0  501    0  0.00000000000E+00 -0.00000000000E+00 -0.30669918602E+02  0.30669918602E+02  0.00000000000E+00 0. -1.
         23    2    1    2    0    0  0.56888688181E+02  0.32946190700E+02  0.34087928850E+03  0.36637128425E+03  0.11707883785E+03 0.  0.
          5    1    3    3  502    0  0.46312461585E+02 -0.33738652619E+02  0.92022312124E+02  0.10848372738E+03  0.41800000000E+01 0. -1.
         -5    1    3    3    0  502  0.10576226597E+02  0.66684843319E+02  0.24885697637E+03  0.25788755687E+03  0.41800000000E+01 0.  1.
        -11    1    1    2    0    0 -0.27519611272E+01  0.30769306240E+02  0.48915381397E+02  0.57853591364E+02  0.00000000000E+00 0.  1.
         11    1    1    2    0    0 -0.54136727054E+02 -0.63715496940E+02  0.11643268888E+03  0.14334232036E+03  0.00000000000E+00 0. -1.
</event>
<event>
 7    1  0.6506388E-006  0.2097774E+03  0.7561462E-02  0.1141742E+00
         -1   -1    0    0    0  501 -0.00000000000E+00  0.00000000000E+00  0.76202646534E+02  0.76202646534E+02  0.00000000000E+00 0.  1.
          1   -1    0    0  501    0  0.00000000000E+00 -0.00000000000E+00 -0.66787045454E+03  0.66787045454E+03  0.00000000000E+00 0. -1.
         23    2    1    2    0    0 -0.13979307917E+03  0.12525684735E+03 -0.20562965307E+03  0.30522322073E+03  0.12508508088E+03 0.  0.
          5    1    3    3  502    0  0.16482554666E+02  0.30574238424E+01 -0.50444431361E+02  0.53321060606E+02  0.41800000000E+01 0. -1.
         -5    1    3    3    0  502 -0.15627563384E+03  0.12219942351E+03 -0.15518522171E+03  0.25190216012E+03  0.41800000000E+01 0. -1.
        -11    1    1    2    0    0  0.47639137499E+02  0.87026951980E+00 -0.54735159235E+02  0.72568467306E+02  0.00000000000E+00 0.  1.
         11    1    1    2    0    0  0.92153941676E+02 -0.12612711687E+03 -0.33130299570E+03  0.36628141304E+03  0.00000000000E+00 0. -1.
</event>
<event>
 7    1  0.6506388E-006  0.8562891E+02  0.7561462E-02  0.1313796E+00
         -1   -1    0    0    0  501 -0.00000000000E+00  0.00000000000E+00  0.10192827022E+03  0.10192827022E+03  0.00000000000E+00 0.  1.
          1   -1    0    0  501    0  0.00000000000E+00 -0.00000000000E+00 -0.20944071931E+03  0.20944071931E+03  0.00000000000E+00 0. -1.
         23    2    1    2    0    0  0.17746770977E+02 -0.50050067860E+02  0.10540917058E+02  0.13630307459E+03  0.12508980789E+03 0.  0.
          5    1    3    3  502    0  0.48133308320E+02 -0.50403164410E+02 -0.37539020561E+02  0.79271336667E+02  0.41800000000E+01 0. -1.
         -5    1    3    3    0  502 -0.30386537344E+02  0.35309654939E+00  0.48079937619E+02  0.57031737922E+02  0.41800000000E+01 0. -1.
        -11    1    1    2    0    0 -0.24508842182E+02  0.47541548891E+01  0.18476768048E+02  0.31059238421E+02  0.00000000000E+00 0.  1.
         11    1    1    2    0    0  0.67620712051E+01  0.45295912971E+02 -0.13653013419E+03  0.14400667652E+03  0.00000000000E+00 0. -1.
</event>
<event>
 7    1  0.6506388E-006  0.1084424E+03  0.7561462E-02  0.1263482E+00
          2   -1    0    0  501    0  0.00000000000E+00  0.00000000000E+00  0.84737337528E+02  0.84737337528E+02  0.00000000000E+00 0. -1.
         -2   -1    0    0    0  501 -0.00000000000E+00 -0.00000000000E+00 -0.27940339687E+03  0.27940339687E+03  0.00000000000E+00 0.  1.
         23    2    1    2    0    0 -0.89375435694E+02  0.84632356872E+01 -0.16407264178E+03  0.22500375852E+03  0.12508902711E+03 0.  0.
          5    1    3    3  502    0  0.93628893002E+01 -0.14290653237E+02  0.12363381126E+02  0.21499117630E+02  0.41800000000E+01 0. -1.
         -5    1    3    3    0  502 -0.98738324994E+02  0.22753888924E+02 -0.17643602291E+03  0.20350464089E+03  0.41800000000E+01 0. -1.
        -11    1    1    2    0    0  0.86552824937E+02  0.24740829492E+01  0.18684371466E+02  0.88581139799E+02  0.00000000000E+00 0. -1.
         11    1    1    2    0    0  0.28226107566E+01 -0.10937318636E+02 -0.49277789022E+02  0.50555836076E+02  0.00000000000E+00 0.  1.
</event>
<event>
 7    1  0.6506388E-006  0.8740233E+02  0.7561462E-02  0.1309267E+00
         -2   -1    0    0    0  501 -0.00000000000E+00  0.00000000000E+00  0.42667514587E+02  0.42667514587E+02  0.00000000000E+00 0.  1.
          2   -1    0    0  501    0  0.00000000000E+00 -0.00000000000E+00 -0.43158777466E+03  0.43158777466E+03  0.00000000000E+00 0. -1.
         23    2    1    2    0    0  0.79930238062E+02 -0.92479395440E+01 -0.22854191797E+03  0.27267835997E+03  0.12509081655E+03 0.  0.
          5    1    3    3  502    0 -0.43057878354E+01  0.50438483852E+01 -0.16727648047E+03  0.16746006549E+03  0.41800000000E+01 0.  1.
         -5    1    3    3    0  502  0.84236025898E+02 -0.14291787929E+02 -0.61265437498E+02  0.10521829448E+03  0.41800000000E+01 0.  1.
        -11    1    1    2    0    0 -0.39039371328E+02  0.10791642385E+02 -0.48939563910E+01  0.40798074320E+02  0.00000000000E+00 0.  1.
         11    1    1    2    0    0 -0.40890866734E+02 -0.15437028414E+01 -0.15548438571E+03  0.16077885496E+03  0.00000000000E+00 0. -1.
</event>
<event>
 7    1  0.6506388E-006  0.7946477E+02  0.7561462E-02  0.1330577E+00
          2   -1    0    0  501    0  0.00000000000E+00  0.00000000000E+00  0.90438053810E+02  0.90438053810E+02  0.00000000000E+00 0. -1.
         -2   -1    0    0    0  501 -0.00000000000E+00 -0.00000000000E+00 -0.17872835628E+03  0.17872835628E+03  0.00000000000E+00 0.  1.
         23    2    1    2    0    0  0.59106074018E+02 -0.12560310443E+02 -0.80106258300E+02  0.16035400000E+03  0.12508038740E+03 0.  0.
          5    1    3    3  502    0  0.10287000346E+02 -0.16654727744E+02  0.32110236514E+02  0.37838367054E+02  0.41800000000E+01 0. -1.
         -5    1    3    3    0  502  0.48819073672E+02  0.40944173008E+01 -0.11221649481E+03  0.12251563294E+03  0.41800000000E+01 0. -1.
        -11    1    1    2    0    0 -0.54651605883E+02  0.36288034850E+02  0.22873391460E+02  0.69475258443E+02  0.00000000000E+00 0. -1.
         11    1    1    2    0    0 -0.44544681347E+01 -0.23727724407E+02 -0.31057435625E+02  0.39337151645E+02  0.00000000000E+00 0.  1.
</event>
<event>
 6    1  0.6506388E-006  0.2208810E+03  0.7561462E-02  0.1133228E+00
         -2   -1    0    0    0  501 -0.00000000000E+00  0.00000000000E+00  0.77862358535E+02  0.77862358535E+02  0.00000000000E+00 0.  1.
          2   -1    0    0  501    0  0.00000000000E+00 -0.00000000000E+00 -0.74299869681E+03  0.74299869681E+03  0.00000000000E+00 0. -1.
          5    1    1    2  502    0  0.11918299116E+03 -0.13928969897E+03 -0.32584222905E+03  0.37389415113E+03  0.41800000000E+01 0. -1.
         -5    1    1    2    0  502  0.45394542179E+02  0.78559477316E+01 -0.12021622018E+02  0.47795106134E+02  0.41800000000E+01 0.  1.
        -11    1    1    2    0    0 -0.95451335713E+02  0.91910360766E+02 -0.12654372939E+03  0.18322605534E+03  0.00000000000E+00 0.  1.
         11    1    1    2    0    0 -0.69126197625E+02  0.39523390475E+02 -0.20072875782E+03  0.21594574274E+03  0.00000000000E+00 0. -1.
</event>
<event>
 7    1  0.6506388E-006  0.1812023E+03  0.7561462E-02  0.1166644E+00
         -2   -1    0    0    0  501 -0.00000000000E+00  0.00000000000E+00  0.10776041179E+03  0.10776041179E+03  0.00000000000E+00 0. -1.
          2   -1    0    0  501    0  0.00000000000E+00 -0.00000000000E+00 -0.31039550979E+03  0.31039550979E+03  0.00000000000E+00 0.  1.
         23    2    1    2    0    0 -0.57258608737E+02  0.13283797816E+03 -0.12835813960E+03  0.23032213546E+03  0.12509195565E+03 0.  0.
          5    1    3    3  502    0 -0.24111945638E+02  0.15089035795E+03 -0.10862662701E+03  0.18752733812E+03  0.41800000000E+01 0.  1.
         -5    1    3    3    0  502 -0.33146663099E+02 -0.18052379797E+02 -0.19731512591E+02  0.42794797348E+02  0.41800000000E+01 0.  1.
        -11    1    1    2    0    0 -0.23354869038E+02 -0.53899094635E+02 -0.16186894492E+02  0.60930926988E+02  0.00000000000E+00 0. -1.
         11    1    1    2    0    0  0.80613477775E+02 -0.78938883520E+02 -0.58090063901E+02  0.12690285913E+03  0.00000000000E+00 0.  1.
</event>
<event>
 7    1  0.6506388E-006  0.1773495E+03  0.7561462E-02  0.1170393E+00
         -3   -1    0    0    0  501 -0.00000000000E+00  0.00000000000E+00  0.10745208956E+03  0.10745208956E+03  0.00000000000E+00 0.  1.
          3   -1    0    0  501    0  0.00000000000E+00 -0.00000000000E+00 -0.35260546400E+03  0.35260546400E+03  0.00000000000E+00 0. -1.
         23    2    1    2    0    0  0.80284163904E+02  0.13649123054E+03 -0.91998887489E+02  0.22178310110E+03  0.12509414714E+03 0.  0.
          5    1    3    3  502    0  0.33838675146E+02  0.11911521969E+03 -0.11307329932E+03  0.16773948526E+03  0.41800000000E+01 0.  1.
         -5    1    3    3    0  502  0.46445488759E+02  0.17376010850E+02  0.21074411832E+02  0.54043615841E+02  0.41800000000E+01 0.  1.
        -11    1    1    2    0    0 -0.65345406817E+02 -0.14825690685E+03 -0.12660967472E+03  0.20562135675E+03  0.00000000000E+00 0. -1.
         11    1    1    2    0    0 -0.14938757088E+02  0.11765676313E+02 -0.26544812237E+02  0.32653095706E+02  0.00000000000E+00 0.  1.
</event>
<event>
 7    1  0.6506388E-006  0.1059619E+03  0.7561462E-02  0.1268236E+00
          4   -1    0    0  501    0  0.00000000000E+00  0.00000000000E+00  0.12836196030E+03  0.12836196030E+03  0.00000000000E+00 0. -1.
         -4   -1    0    0    0  501 -0.00000000000E+00 -0.00000000000E+00 -0.15040375156E+03  0.15040375156E+03  0.00000000000E+00 0.  1.
         23    2    1    2    0    0  0.45913755188E+02 -0.54795180592E+02 -0.60538245442E+02  0.15627635395E+03  0.12508730915E+03 0.  0.
          5    1    3    3  502    0  0.31576058337E+02 -0.71189766444E+02  0.13356176503E+02  0.79125786929E+02  0.41800000000E+01 0.  1.
         -5    1    3    3    0  502  0.14337696851E+02  0.16394585851E+02 -0.73894421945E+02  0.77150567016E+02  0.41800000000E+01 0.  1.
        -11    1    1    2    0    0 -0.64502762167E+02  0.64127857083E+02  0.16914164857E+02  0.92515281733E+02  0.00000000000E+00 0.  1.
         11    1    1    2    0    0  0.18589006979E+02 -0.93326764912E+01  0.21582289323E+02  0.29974076189E+02  0.00000000000E+00 0. -1.
</event>
<event>
 7    1  0.6506388E-006  0.1531493E+03  0.7561462E-02  0.1196656E+00
         -2   -1    0    0    0  501 -0.00000000000E+00  0.00000000000E+00  0.10688606852E+03  0.10688606852E+03  0.00000000000E+00 0.  1.
          2   -1    0    0  501    0  0.00000000000E+00 -0.00000000000E+00 -0.23864250155E+03  0.23864250155E+03  0.00000000000E+00 0. -1.
         23    2    1    2    0    0  0.11411765721E+03  0.18455936767E+02 -0.50587084180E+02  0.17768065086E+03  0.12509156373E+03 0.  0.
          5    1    3    3  502    0  0.65879266590E+02  0.65306506123E+02 -0.58644414077E+02  0.10982557631E+03  0.41800000000E+01 0. -1.
         -5    1    3    3    0  502  0.48238390617E+02 -0.46850569357E+02  0.80573298968E+01  0.67855074559E+02  0.41800000000E+01 0. -1.
        -11    1    1    2    0    0 -0.12518203976E+03 -0.74626536728E+00 -0.75580675944E+02  0.14623111354E+03  0.00000000000E+00 0.  1.
         11    1    1    2    0    0  0.11064382556E+02 -0.17709671400E+02 -0.55886729012E+01  0.21616805667E+02  0.00000000000E+00 0. -1.
</event>
<event>
 6    1  0.6506388E-006  0.1229932E+03  0.7561462E-02  0.1238239E+00
         -1   -1    0    0    0  501 -0.00000000000E+00  0.00000000000E+00  0.34128923116E+02  0.34128923116E+02  0.00000000000E+00 0.  1.
          1   -1    0    0  501    0  0.00000000000E+00 -0.00000000000E+00 -0.71504073013E+03  0.71504073013E+03  0.00000000000E+00 0. -1.
          5    1    1    2  502    0  0.10295858231E+02  0.40549107432E+02 -0.82072086350E+02  0.92214611467E+02  0.41800000000E+01 0. -1.
         -5    1    1    2    0  502  0.21587117454E+02 -0.99478960212E+02 -0.90601194046E+02  0.13633824088E+03  0.41800000000E+01 0.  1.
        -11    1    1    2    0    0  0.27764704286E+01 -0.17722236992E+02 -0.29366634585E+02  0.34411999344E+02  0.00000000000E+00 0.  1.
         11    1    1    2    0    0 -0.34659446114E+02  0.76652089773E+02 -0.47887189203E+03  0.48620480155E+03  0.00000000000E+00 0. -1.
</event>
<event>
 7    1  0.6506388E-006  0.1309835E+03  0.7561462E-02  0.1226004E+00
         -3   -1    0    0    0  501 -0.00000000000E+00  0.00000000000E+00  0.36859707728E+02  0.36859707728E+02  0.00000000000E+00 0.  1.
          3   -1    0    0  501    0  0.00000000000E+00 -0.00000000000E+00 -0.54726366164E+03  0.54726366164E+03  0.00000000000E+00 0. -1.
         23    2    1    2    0    0 -0.67007994588E+02  0.46007106515E+02 -0.19279484476E+03  0.24377016258E+03  0.12508922739E+03 0.  0.
          5    1    3    3  502    0 -0.99313785586E+02  0.11355927967E+02 -0.14647153543E+03  0.17737972883E+03  0.41800000000E+01 0. -1.
         -5    1    3    3    0  502  0.32305790997E+02  0.34651178548E+02 -0.46323309328E+02  0.66390433752E+02  0.41800000000E+01 0. -1.
        -11    1    1    2    0    0  0.59772976055E+02 -0.68394226648E+02 -0.29094030982E+03  0.30478983379E+03  0.00000000000E+00 0. -1.
         11    1    1    2    0    0  0.72350185337E+01  0.22387120133E+02 -0.26668799340E+02  0.35563373002E+02  0.00000000000E+00 0.  1.
</event>
<event>
 7    1  0.6506388E-006  0.9406755E+02  0.7561462E-02  0.1293290E+00
         -1   -1    0    0    0  501 -0.00000000000E+00  0.00000000000E+00  0.12109048823E+03  0.12109048823E+03  0.00000000000E+00 0.  1.
          1   -1    0    0  501    0  0.00000000000E+00 -0.00000000000E+00 -0.12940361086E+03  0.12940361086E+03  0.00000000000E+00 0. -1.
         23    2    1    2    0    0 -0.17175119731E+02  0.48295389578E+02  0.29343177739E+02  0.13832758372E+03  0.12508424739E+03 0.  0.
          5    1    3    3  502    0 -0.37143713465E+02  0.57317086771E+02 -0.30160579134E+02  0.74779922570E+02  0.41800000000E+01 0.  1.
         -5    1    3    3    0  502  0.19968593734E+02 -0.90216971930E+01  0.59503756873E+02  0.63547661152E+02  0.41800000000E+01 0.  1.
        -11    1    1    2    0    0 -0.94226532732E+01 -0.65204928230E+02 -0.39208025881E+01  0.65998801149E+02  0.00000000000E+00 0. -1.
         11    1    1    2    0    0  0.26597773004E+02  0.16909538652E+02 -0.33735497782E+02  0.46167714225E+02  0.00000000000E+00 0.  1.
</event>
<event>
 7    1  0.6506388E-006  0.1046204E+03  0.7561462E-02  0.1270869E+00
          1   -1    0    0  501    0  0.00000000000E+00  0.00000000000E+00  0.10170564536E+03  0.10170564536E+03  0.00000000000E+00 0. -1.
         -1   -1    0    0    0  501 -0.00000000000E+00 -0.00000000000E+00 -0.28936615489E+03  0.28936615489E+03  0.00000000000E+00 0.  1.
         23    2    1    2    0    0  0.80337776707E+02  0.23260383828E+02 -0.21651411356E+03  0.26366863625E+03  0.12509030558E+03 0.  0.
          5    1    3    3  502    0  0.51670372064E+01  0.31681952967E+01 -0.17542055889E+03  0.17557499997E+03  0.41800000000E+01 0. -1.
         -5    1    3    3    0  502  0.75170739501E+02  0.20092188531E+02 -0.41093554676E+02  0.88093636279E+02  0.41800000000E+01 0. -1.
        -11    1    1    2    0    0 -0.21411863432E+02  0.35039607917E+02  0.12382081058E+02  0.42890068197E+02  0.00000000000E+00 0.  1.
         11    1    1    2    0    0 -0.58925913275E+02 -0.58299991745E+02  0.16471522970E+02  0.84513095800E+02  0.00000000000E+00 0. -1.
</event>
<event>
 7    1  0.6506388E-006  0.1123708E+03  0.7561462E-02  0.1256241E+00
          3   -1    0    0  501    0  0.00000000000E+00  0.00000000000E+00  0.23262676229E+03  0.23262676229E+03  0.00000000000E+00 0. -1.
         -3   -1    0    0    0  501 -0.00000000000E+00 -0.00000000000E+00 -0.61040414028E+02  0.61040414028E+02  0.00000000000E+00 0.  1.
         23    2    1    2    0    0  0.27394806754E+02  0.34606045664E+02  0.64778342421E+02  0.14763734132E+03  0.12510993993E+03 0.  0.
          5    1    3    3  502    0  0.42029510670E+02  0.75244950340E+02  0.27896354957E+02  0.90686059230E+02  0.41800000000E+01 0. -1.
         -5    1    3    3    0  502 -0.14634703916E+02 -0.40638904676E+02  0.36881987464E+02  0.56951282086E+02  0.41800000000E+01 0. -1.
        -11    1    1    2    0    0 -0.34107963715E+01 -0.60017839012E+02  0.45235318635E+02  0.75233028542E+02  0.00000000000E+00 0.  1.
         11    1    1    2    0    0 -0.23984010382E+02  0.25411793349E+02  0.61572687204E+02  0.70796806459E+02  0.00000000000E+00 0. -1.
</event>
<event>
 7    1  0.6506388E-006  0.1131844E+03  0.7561462E-02  0.1254784E+00
         -3   -1    0    0    0  501 -0.00000000000E+00  0.00000000000E+00  0.55722036255E+02  0.55722036255E+02  0.00000000000E+00 0.  1.
          3   -1    0    0  501    0  0.00000000000E+00 -0.00000000000E+00 -0.26118060136E+03  0.26118060136E+03  0.00000000000E+00 0. -1.
         23    2    1    2    0    0 -0.14792378126E+02 -0.47579875937E+02 -0.96427448167E+02  0.16561640948E+03  0.12509149965E+03 0.  0.
          5    1    3    3  502    0 -0.59860888956E+02 -0.64567644230E+01 -0.83638165095E+02  0.10313986084E+03  0.41800000000E+01 0. -1.
         -5    1    3    3    0  502  0.45068510830E+02 -0.41123111514E+02 -0.12789283072E+02  0.62476548645E+02  0.41800000000E+01 0. -1.
        -11    1    1    2    0    0 -0.80905717971E+01  0.71385233531E+02 -0.75968908565E+02  0.10455899764E+03  0.00000000000E+00 0.  1.
         11    1    1    2    0    0  0.22882949923E+02 -0.23805357594E+02 -0.33062208376E+02  0.46727230499E+02  0.00000000000E+00 0. -1.
</event>
<event>
 7    1  0.6506388E-006  0.8533734E+02  0.7561462E-02  0.1314553E+00
         -1   -1    0    0    0  501 -0.00000000000E+00  0.00000000000E+00  0.62990796726E+02  0.62990796726E+02  0.00000000000E+00 0.  1.
          1   -1    0    0  501    0  0.00000000000E+00 -0.00000000000E+00 -0.19697205803E+03  0.19697205803E+03  0.00000000000E+00 0. -1.
         23    2    1    2    0    0  0.88123292884E+01 -0.16327788938E+02 -0.53548156731E+02  0.13732172577E+03  0.12508236262E+03 0.  0.
          5    1    3    3  502    0 -0.50837090437E+02 -0.28728423909E+02 -0.48540820449E+02  0.76048772207E+02  0.41800000000E+01 0.  1.
         -5    1    3    3    0  502  0.59649419725E+02  0.12400634971E+02 -0.50073362822E+01  0.61272953560E+02  0.41800000000E+01 0.  1.
        -11    1    1    2    0    0 -0.45903373264E+01  0.33279593386E+02 -0.94447825370E+02  0.10024467193E+03  0.00000000000E+00 0. -1.
         11    1    1    2    0    0 -0.42219919620E+01 -0.16951804449E+02  0.14014720793E+02  0.22396457066E+02  0.00000000000E+00 0.  1.
</event>
<event>
 7    1  0.6506388E-006  0.9464558E+02  0.7561462E-02  0.1291976E+00
          4   -1    0    0  501    0  0.00000000000E+00  0.00000000000E+00  0.10859517527E+03  0.10859517527E+03  0.00000000000E+00 0. -1.
         -4   -1    0    0    0  501 -0.00000000000E+00 -0.00000000000E+00 -0.15452117501E+03  0.15452117501E+03  0.00000000000E+00 0.  1.
         23    2    1    2    0    0  0.46158571522E+02  0.98262007354E+01 -0.89297825829E+02  0.15207138087E+03  0.11368568615E+03 0.  0.
          5    1    3    3  502    0  0.29622223920E+02  0.59649121678E+02 -0.31218280175E+02  0.73671889374E+02  0.41800000000E+01 0. -1.
         -5    1    3    3    0  502  0.16536347602E+02 -0.49822920942E+02 -0.58079545655E+02  0.78399491495E+02  0.41800000000E+01 0.  1.
        -11    1    1    2    0    0 -0.48125013718E+02  0.10682380866E+02 -0.13037287269E+02  0.50991186157E+02  0.00000000000E+00 0.  1.
         11    1    1    2    0    0  0.19664421961E+01 -0.20508581602E+02  0.56409113359E+02  0.60053783262E+02  0.00000000000E+00 0. -1.
</event>
<event>
 7    1  0.6506388E-006  0.1053203E+03  0.7561462E-02  0.1269490E+00
         -2   -1    0    0    0  501 -0.00000000000E+00  0.00000000000E+00  0.58718633353E+02  0.58718633353E+02  0.00000000000E+00 0.  1.
          2   -1    0    0  501    0  0.00000000000E+00 -0.00000000000E+00 -0.24654340976E+03  0.24654340976E+03  0.00000000000E+00 0. -1.
         23    2    1    2    0    0  0.13899182288E+02 -0.41922023185E+02 -0.73891010626E+02  0.15184572147E+03  0.12508636368E+03 0.  0.
          5    1    3    3  502    0 -0.90665251957E+01  0.42667635935E+02 -0.15674328204E+02  0.46539080352E+02  0.41800000000E+01 0.  1.
         -5    1    3    3    0  502  0.22965707484E+02 -0.84589659120E+02 -0.58216682422E+02  0.10530664111E+03  0.41800000000E+01 0.  1.
        -11    1    1    2    0    0 -0.39003162145E+02  0.36432452775E+02 -0.21606440338E+02  0.57579584374E+02  0.00000000000E+00 0.  1.
         11    1    1    2    0    0  0.25103979857E+02  0.54895704094E+01 -0.92327325443E+02  0.95836737275E+02  0.00000000000E+00 0. -1.
</event>
<event>
 7    1  0.6506388E-006  0.7415584E+02  0.7561462E-02  0.1346505E+00
          1   -1    0    0  501    0  0.00000000000E+00  0.00000000000E+00  0.29666890698E+03  0.29666890698E+03  0.00000000000E+00 0. -1.
         -1   -1    0    0    0  501 -0.00000000000E+00 -0.00000000000E+00 -0.62209681642E+02  0.62209681642E+02  0.00000000000E+00 0.  1.
         23    2    1    2    0    0 -0.24698738391E+02 -0.25730582752E+02  0.29131055296E+02  0.13329563632E+03  0.12508803985E+03 0.  0.
          5    1    3    3  502    0  0.20446011392E+01 -0.38741204832E+02 -0.41246119873E+02  0.56778307039E+02  0.41800000000E+01 0. -1.
         -5    1    3    3    0  502 -0.26743339530E+02  0.13010622080E+02  0.70377175169E+02  0.76517329285E+02  0.41800000000E+01 0. -1.
        -11    1    1    2    0    0  0.49645034880E+02  0.20822187197E+02  0.72269405004E+02  0.90116923314E+02  0.00000000000E+00 0.  1.
         11    1    1    2    0    0 -0.24946296490E+02  0.49083955548E+01  0.13305876504E+03  0.13546602899E+03  0.00000000000E+00 0. -1.
</event>
<event>
 7    1  0.6506388E-006  0.7358556E+02  0.7561462E-02  0.1348308E+00
          1   -1    0    0  501    0  0.00000000000E+00  0.00000000000E+00  0.21587390486E+03  0.21587390486E+03  0.00000000000E+00 0. -1.
         -1   -1    0    0    0  501 -0.00000000000E+00 -0.00000000000E+00 -0.68867648970E+02  0.68867648970E+02  0.00000000000E+00 0.  1.
         23    2    1    2    0    0  0.89197003251E+01  0.37810641584E+02  0.35497342105E+02  0.13571273895E+03  0.12509468632E+03 0.  0.
          5    1    3    3  502    0  0.18336008905E+02  0.34822630559E+02 -0.41864822915E+02  0.57610421100E+02  0.41800000000E+01 0. -1.
         -5    1    3    3    0  502 -0.94163085796E+01  0.29880110249E+01  0.77362165020E+02  0.78102317852E+02  0.41800000000E+01 0. -1.
        -11    1    1    2    0    0 -0.18676280381E+02  0.26168136906E+02  0.23671401731E+02  0.39923803650E+02  0.00000000000E+00 0.  1.
         11    1    1    2    0    0  0.97565800558E+01 -0.63978778490E+02  0.87837512056E+02  0.10910501123E+03  0.00000000000E+00 0. -1.
</event>
<event>
 7    1  0.6506388E-006  0.1278433E+03  0.7561462E-02  0.1230691E+00
         -1   -1    0    0    0  501 -0.00000000000E+00  0.00000000000E+00  0.18234665302E+02  0.18234665302E+02  0.00000000000E+00 0.  1.
          1   -1    0    0  501    0  0.00000000000E+00 -0.00000000000E+00 -0.95442115273E+03  0.95442115273E+03  0.00000000000E+00 0. -1.
         23    2    1    2    0    0  0.40743742852E+02 -0.59636011257E+02 -0.44350961503E+03  0.46643820781E+03  0.12508923480E+03 0.  0.
          5    1    3    3  502    0 -0.27327028764E+01  0.35716097096E+02 -0.73799439809E+02  0.82139740522E+02  0.41800000000E+01 0.  1.
         -5    1    3    3    0  502  0.43476445728E+02 -0.95352108353E+02 -0.36971017522E+03  0.38429846729E+03  0.41800000000E+01 0.  1.
        -11    1    1    2    0    0 -0.60921805303E+02  0.10758067470E+02 -0.22396394421E+03  0.23235113661E+03  0.00000000000E+00 0.  1.
         11    1    1    2    0    0  0.20178062451E+02  0.48877943787E+02 -0.26871292819E+03  0.27386647361E+03  0.00000000000E+00 0. -1.
</event>
<event>
 7    1  0.6506388E-006  0.1184394E+03  0.7561462E-02  0.1245694E+00
          2   -1    0    0  501    0  0.00000000000E+00  0.00000000000E+00  0.24594612278E+03  0.24594612278E+03  0.00000000000E+00 0. -1.
         -2   -1    0    0    0  501 -0.00000000000E+00 -0.00000000000E+00 -0.71566984707E+02  0.71566984707E+02  0.00000000000E+00 0.  1.
         23    2    1    2    0    0  0.51905968688E+02  0.28064826607E+02  0.39506374650E+02  0.14383923643E+03  0.12508840162E+03 0.  0.
          5    1    3    3  502    0 -0.63927134150E+01 -0.38469348282E+02  0.38952411668E+02  0.55276761092E+02  0.41800000000E+01 0. -1.
         -5    1    3    3    0  502  0.58298682103E+02  0.66534174889E+02  0.55396298157E+00  0.88562475338E+02  0.41800000000E+01 0. -1.
        -11    1    1    2    0    0 -0.27004413224E+02  0.33299746607E+02  0.46616751651E+02  0.63334295545E+02  0.00000000000E+00 0.  1.
         11    1    1    2    0    0 -0.24901555463E+02 -0.61364573214E+02  0.88256011774E+02  0.11033957551E+03  0.00000000000E+00 0. -1.
</event>
<event>
 7    1  0.6506388E-006  0.1742850E+03  0.7561462E-02  0.1173452E+00
          3   -1    0    0  501    0  0.00000000000E+00  0.00000000000E+00  0.44600665278E+03  0.44600665278E+03  0.00000000000E+00 0. -1.
         -3   -1    0    0    0  501 -0.00000000000E+00 -0.00000000000E+00 -0.88876270162E+02  0.88876270162E+02  0.00000000000E+00 0.  1.
         23    2    1    2    0    0 -0.10096720119E+03  0.13447290508E+03  0.14047385368E+03  0.25230159317E+03  0.12508338192E+03 0.  0.
          5    1    3    3  502    0 -0.64985761833E+02  0.80963289990E+02  0.15449183615E+03  0.18618110377E+03  0.41800000000E+01 0. -1.
         -5    1    3    3    0  502 -0.35981439355E+02  0.53509615088E+02 -0.14017982470E+02  0.66120489392E+02  0.41800000000E+01 0. -1.
        -11    1    1    2    0    0  0.52200473164E+02 -0.11722677971E+03  0.16941417964E+03  0.21252804884E+03  0.00000000000E+00 0.  1.
         11    1    1    2    0    0  0.48766728023E+02 -0.17246125365E+02  0.47242349303E+02  0.70053280936E+02  0.00000000000E+00 0. -1.
</event>
<event>
 7    1  0.6506388E-006  0.1522775E+03  0.7561462E-02  0.1197702E+00
          3   -1    0    0  501    0  0.00000000000E+00  0.00000000000E+00  0.87203701127E+02  0.87203701127E+02  0.00000000000E+00 0. -1.
         -3   -1    0    0    0  501 -0.00000000000E+00 -0.00000000000E+00 -0.41525855546E+03  0.41525855546E+03  0.00000000000E+00 0.  1.
         23    2    1    2    0    0 -0.51101017187E+02  0.11550927199E+03 -0.29436577363E+03  0.34387799108E+03  0.12508860137E+03 0.  0.
          5    1    3    3  502    0 -0.85465118864E+02  0.84001631590E+02 -0.14955140982E+03  0.19168635118E+03  0.41800000000E+01 0. -1.
         -5    1    3    3    0  502  0.34364101677E+02  0.31507640399E+02 -0.14481436381E+03  0.15219163989E+03  0.41800000000E+01 0. -1.
        -11    1    1    2    0    0 -0.97859042303E+01 -0.38182843762E+02 -0.44645297571E+02  0.59555823180E+02  0.00000000000E+00 0. -1.
         11    1    1    2    0    0  0.60886921418E+02 -0.77326428226E+02  0.10956216866E+02  0.99028442328E+02  0.00000000000E+00 0.  1.
</event>
<event>
 7    1  0.6506388E-006  0.1138212E+03  0.7561462E-02  0.1253653E+00
          3   -1    0    0  501    0  0.00000000000E+00  0.00000000000E+00  0.56529515615E+02  0.56529515615E+02  0.00000000000E+00 0. -1.
         -3   -1    0    0    0  501 -0.00000000000E+00 -0.00000000000E+00 -0.40770577881E+03  0.40770577881E+03  0.00000000000E+00 0.  1.
         23    2    1    2    0    0  0.59678023984E+02 -0.36151743899E+02 -0.31151830491E+03  0.34287068103E+03  0.12509290342E+03 0.  0.
          5    1    3    3  502    0 -0.21835688791E+02  0.63503484785E+01 -0.18492201989E+03  0.18636187934E+03  0.41800000000E+01 0. -1.
         -5    1    3    3    0  502  0.81513712775E+02 -0.42502092378E+02 -0.12659628502E+03  0.15650880169E+03  0.41800000000E+01 0. -1.
        -11    1    1    2    0    0 -0.77156776105E+02  0.56763598774E+01 -0.37999066105E+02  0.86193492708E+02  0.00000000000E+00 0. -1.
         11    1    1    2    0    0  0.17478752121E+02  0.30475384022E+02 -0.16588921823E+01  0.35171120686E+02  0.00000000000E+00 0.  1.
</event>
<event>
 7    1  0.6506388E-006  0.1630759E+03  0.7561462E-02  0.1185267E+00
         -1   -1    0    0    0  501 -0.00000000000E+00  0.00000000000E+00  0.43317317246E+02  0.43317317246E+02  0.00000000000E+00 0.  1.
          1   -1    0    0  501    0  0.00000000000E+00 -0.00000000000E+00 -0.69551622784E+03  0.69551622784E+03  0.00000000000E+00 0. -1.
         23    2    1    2    0    0 -0.47160936815E+02  0.12282770937E+03 -0.41090880116E+03  0.44922705585E+03  0.12509238459E+03 0.  0.
          5    1    3    3  502    0 -0.89794587861E+02  0.87540236776E+02 -0.26797016545E+03  0.29589160691E+03  0.41800000000E+01 0. -1.
         -5    1    3    3    0  502  0.42633651046E+02  0.35287472591E+02 -0.14293863571E+03  0.15333544894E+03  0.41800000000E+01 0. -1.
        -11    1    1    2    0    0  0.55846395296E+02 -0.60846088723E+02 -0.73630638040E+02  0.11064599965E+03  0.00000000000E+00 0.  1.
         11    1    1    2    0    0 -0.86854584811E+01 -0.61981620644E+02 -0.16765947139E+03  0.17896048959E+03  0.00000000000E+00 0. -1.
</event>
<event>
 7    1  0.6506388E-006  0.4609160E+03  0.7561462E-02  0.1024516E+00
          2   -1    0    0  501    0  0.00000000000E+00  0.00000000000E+00  0.15458883517E+04  0.15458883517E+04  0.00000000000E+00 0. -1.
         -2   -1    0    0    0  501 -0.00000000000E+00 -0.00000000000E+00 -0.14115270668E+03  0.14115270668E+03  0.00000000000E+00 0.  1.
         23    2    1    2    0    0 -0.38946497106E+03  0.23002970077E+03  0.63619454814E+03  0.79056272952E+03  0.12509715944E+03 0.  0.
          5    1    3    3  502    0 -0.55084079931E+01  0.39203941747E+02  0.67025050786E+02  0.77955894196E+02  0.41800000000E+01 0.  1.
         -5    1    3    3    0  502 -0.38395656306E+03  0.19082575902E+03  0.56916949736E+03  0.71260683532E+03  0.41800000000E+01 0.  1.
        -11    1    1    2    0    0  0.66686644677E+02 -0.27176894597E+02  0.68630998938E+02  0.99478169432E+02  0.00000000000E+00 0.  1.
         11    1    1    2    0    0  0.32277832638E+03 -0.20285280617E+03  0.69991009794E+03  0.79700015944E+03  0.00000000000E+00 0. -1.
</event>
<event>
 7    1  0.6506388E-006  0.1198643E+03  0.7561462E-02  0.1243321E+00
          1   -1    0    0  501    0  0.00000000000E+00  0.00000000000E+00  0.21773289363E+02  0.21773289363E+02  0.00000000000E+00 0. -1.
         -1   -1    0    0    0  501 -0.00000000000E+00 -0.00000000000E+00 -0.11389509569E+04  0.11389509569E+04  0.00000000000E+00 0.  1.
         23    2    1    2    0    0 -0.97334212663E+02 -0.73465003048E+01 -0.81285570700E+03  0.82819749371E+03  0.12509503654E+03 0.  0.
          5    1    3    3  502    0 -0.89853091233E+02 -0.28919594105E+02 -0.78996879080E+03  0.79559919794E+03  0.41800000000E+01 0.  1.
         -5    1    3    3    0  502 -0.74811214297E+01  0.21573093800E+02 -0.22886916201E+02  0.32598295771E+02  0.41800000000E+01 0.  1.
        -11    1    1    2    0    0  0.49532426445E+02 -0.32966201655E+02 -0.80301432020E+02  0.99942742136E+02  0.00000000000E+00 0. -1.
         11    1    1    2    0    0  0.47801786218E+02  0.40312701959E+02 -0.22402052854E+03  0.23258401044E+03  0.00000000000E+00 0.  1.
</event>
<event>
 7    1  0.6506388E-006  0.1362685E+03  0.7561462E-02  0.1218440E+00
         -1   -1    0    0    0  501 -0.00000000000E+00  0.00000000000E+00  0.85581455193E+03  0.85581455193E+03  0.00000000000E+00 0.  1.
          1   -1    0    0  501    0  0.00000000000E+00 -0.00000000000E+00 -0.23212956763E+02  0.23212956763E+02  0.00000000000E+00 0. -1.
         23    2    1    2    0    0 -0.82549907829E+02  0.29342385033E+02  0.51891464999E+03  0.54092084216E+03  0.12508989034E+03 0.  0.
          5    1    3    3  502    0 -0.33786957732E+02 -0.49071878912E+02  0.22667744680E+03  0.23441361970E+03  0.41800000000E+01 0. -1.
         -5    1    3    3    0  502 -0.48762950097E+02  0.78414263945E+02  0.29223720319E+03  0.30650722247E+03  0.41800000000E+01 0. -1.
        -11    1    1    2    0    0  0.60995812519E+02  0.21882872438E+02  0.21825149508E+03  0.22766876016E+03  0.00000000000E+00 0.  1.
         11    1    1    2    0    0  0.21554095310E+02 -0.51225257472E+02  0.95435450098E+02  0.11043790637E+03  0.00000000000E+00 0. -1.
</event>
<event>
 7    1  0.6506388E-006  0.1371618E+03  0.7561462E-02  0.1217200E+00
         -2   -1    0    0    0  501 -0.00000000000E+00  0.00000000000E+00  0.24053680594E+02  0.24053680594E+02  0.00000000000E+00 0.  1.
          2   -1    0    0  501    0  0.00000000000E+00 -0.00000000000E+00 -0.93883070587E+03  0.93883070587E+03  0.00000000000E+00 0. -1.
         23    2    1    2    0    0  0.49684511428E+02  0.83305542836E+02 -0.37043870753E+03  0.40284112959E+03  0.12509106887E+03 0.  0.
          5    1    3    3  502    0  0.70270452126E+02  0.15486429965E+02 -0.10019740552E+03  0.12342916360E+03  0.41800000000E+01 0.  1.
         -5    1    3    3    0  502 -0.20585940698E+02  0.67819112871E+02 -0.27024130201E+03  0.27941196599E+03  0.41800000000E+01 0.  1.
        -11    1    1    2    0    0  0.13717766823E+02 -0.63292310357E+02 -0.24549648938E+03  0.25389489947E+03  0.00000000000E+00 0. -1.
         11    1    1    2    0    0 -0.63402278250E+02 -0.20013232478E+02 -0.29884182837E+03  0.30614835741E+03  0.00000000000E+00 0.  1.
</event>
<event>
 7    1  0.6506388E-006  0.1247323E+03  0.7561462E-02  0.1235488E+00
          2   -1    0    0  501    0  0.00000000000E+00  0.00000000000E+00  0.74902287278E+03  0.74902287278E+03  0.00000000000E+00 0. -1.
         -2   -1    0    0    0  501 -0.00000000000E+00 -0.00000000000E+00 -0.31269339253E+02  0.31269339253E+02  0.00000000000E+00 0.  1.
         23    2    1    2    0    0  0.45681482127E+02 -0.89460591942E+02  0.22707961343E+03  0.27708207553E+03  0.12296068649E+03 0.  0.
          5    1    3    3  502    0 -0.30286083859E+02 -0.35840191542E+02  0.14677282075E+03  0.15414765491E+03  0.41800000000E+01 0. -1.
         -5    1    3    3    0  502  0.75967565986E+02 -0.53620400400E+02  0.80306792686E+02  0.12293442062E+03  0.41800000000E+01 0.  1.
        -11    1    1    2    0    0 -0.39839607495E+02  0.30880886757E+02  0.17596551808E+03  0.18304285576E+03  0.00000000000E+00 0. -1.
         11    1    1    2    0    0 -0.58418746322E+01  0.58579705185E+02  0.31470840202E+03  0.32016728074E+03  0.00000000000E+00 0.  1.
</event>
<event>
 6    1  0.6506388E-006  0.1463254E+03  0.7561462E-02  0.1205062E+00
         -1   -1    0    0    0  501 -0.00000000000E+00  0.00000000000E+00  0.48158614410E+03  0.48158614410E+03  0.00000000000E+00 0.  1.
          1   -1    0    0  501    0  0.00000000000E+00 -0.00000000000E+00 -0.84763202704E+02  0.84763202704E+02  0.00000000000E+00 0. -1.
          5    1    1    2  502    0  0.16381998977E+02 -0.22829780573E+02  0.33943163471E+02  0.44262619872E+02  0.41800000000E+01 0. -1.
         -5    1    1    2    0  502 -0.11168024999E+03  0.83915076306E+02  0.34893500398E+03  0.37588206617E+03  0.41800000000E+01 0.  1.
        -11    1    1    2    0    0  0.66827003623E+02 -0.12224689341E+02 -0.30315292862E+02  0.74392932622E+02  0.00000000000E+00 0. -1.
         11    1    1    2    0    0  0.28471247385E+02 -0.48860606392E+02  0.44260066814E+02  0.71811728144E+02  0.00000000000E+00 0.  1.
</event>
<event>
 7    1  0.6506388E-006  0.1362905E+03  0.7561462E-02  0.1218409E+00
         -1   -1    0    0    0  501 -0.00000000000E+00  0.00000000000E+00  0.12977108834E+03  0.12977108834E+03  0.00000000000E+00 0.  1.
          1   -1    0    0  501    0  0.00000000000E+00 -0.00000000000E+00 -0.17743799500E+03  0.17743799500E+03  0.00000000000E+00 0. -1.
         23    2    1    2    0    0  0.95363252368E+02  0.16725800083E+02  0.17413367758E+02  0.15913643270E+03  0.12508907445E+03 0.  0.
          5    1    3    3  502    0  0.11214410387E+03  0.47704489391E+02  0.19972825842E+02  0.12356538557E+03  0.41800000000E+01 0.  1.
         -5    1    3    3    0  502 -0.16780851498E+02 -0.30978689308E+02 -0.25594580834E+01  0.35571047130E+02  0.41800000000E+01 0.  1.
        -11    1    1    2    0    0 -0.68585721087E+02  0.18382972533E+02 -0.19503306436E+01  0.71033362625E+02  0.00000000000E+00 0.  1.
         11    1    1    2    0    0 -0.26777531280E+02 -0.35108772616E+02 -0.63129943774E+02  0.77039288010E+02  0.00000000000E+00 0. -1.
</event>
<event>
 7    1  0.6506388E-006  0.1415901E+03  0.7561462E-02  0.1211205E+00
         -2   -1    0    0    0  501 -0.00000000000E+00  0.00000000000E+00  0.22135696674E+02  0.22135696674E+02  0.00000000000E+00 0.  1.
          2   -1    0    0  501    0  0.00000000000E+00 -0.00000000000E+00 -0.13020113212E+04  0.13020113212E+04  0.00000000000E+00 0. -1.
         23    2    1    2    0    0  0.10796980215E+03  0.64403262932E+02 -0.82927819296E+03  0.84750610431E+03  0.12148669507E+03 0.  0.
          5    1    3    3  502    0  0.96048913059E+02  0.46451153057E+02 -0.81348876572E+03  0.82046605516E+03  0.41800000000E+01 0. -1.
         -5    1    3    3    0  502  0.11920889087E+02  0.17952109875E+02 -0.15789427240E+02  0.27040049152E+02  0.41800000000E+01 0.  1.
        -11    1    1    2    0    0 -0.12368582090E+03 -0.62633151464E+02 -0.41834654802E+03  0.44072091872E+03  0.00000000000E+00 0.  1.
         11    1    1    2    0    0  0.15716018756E+02 -0.17701114675E+01 -0.32250883553E+02  0.35919994851E+02  0.00000000000E+00 0. -1.
</event>
<event>
 7    1  0.6506388E-006  0.1237220E+03  0.7561462E-02  0.1237080E+00
         -2   -1    0    0    0  501 -0.00000000000E+00  0.00000000000E+00  0.41771367892E+02  0.41771367892E+02  0.00000000000E+00 0.  1.
          2   -1    0    0  501    0  0.00000000000E+00 -0.00000000000E+00 -0.53580346169E+03  0.53580346169E+03  0.00000000000E+00 0. -1.
         23    2    1    2    0    0 -0.78504227248E+01  0.89639695674E+02 -0.17277211382E+03  0.23150560537E+03  0.12509091825E+03 0.  0.
          5    1    3    3  502    0 -0.94043332924E+01  0.10852228912E+03 -0.18030198239E+03  0.21069363060E+03  0.41800000000E+01 0.  1.
         -5    1    3    3    0  502  0.15539105676E+01 -0.18882593447E+02  0.75298685719E+01  0.20811974775E+02  0.41800000000E+01 0.  1.
        -11    1    1    2    0    0  0.17381914838E+01  0.14555230090E+02 -0.99201463485E+01  0.17699868254E+02  0.00000000000E+00 0.  1.
         11    1    1    2    0    0  0.61122312410E+01 -0.10419492576E+03 -0.31133983363E+03  0.32836935595E+03  0.00000000000E+00 0. -1.
</event>
<event>
 7    1  0.6506388E-006  0.1390686E+03  0.7561462E-02  0.1214588E+00
         -2   -1    0    0    0  501 -0.00000000000E+00  0.00000000000E+00  0.38873308037E+02  0.38873308037E+02  0.00000000000E+00 0.  1.
          2   -1    0    0  501    0  0.00000000000E+00 -0.00000000000E+00 -0.74577443326E+03  0.74577443326E+03  0.00000000000E+00 0. -1.
         23    2    1    2    0    0  0.10840853128E+03  0.50008796476E+02 -0.25194375424E+03  0.30557767533E+03  0.12509504779E+03 0.  0.
          5    1    3    3  502    0  0.74706559120E+02  0.56244216788E+02 -0.25428901880E+03  0.27097021862E+03  0.41800000000E+01 0. -1.
         -5    1    3    3    0  502  0.33701972161E+02 -0.62354203120E+01  0.23452645612E+01  0.34607456709E+02  0.41800000000E+01 0. -1.
        -11    1    1    2    0    0 -0.44453950676E+02 -0.70065780540E+02 -0.25887114933E+03  0.27184488093E+03  0.00000000000E+00 0.  1.
         11    1    1    2    0    0 -0.63954580606E+02  0.20056984064E+02 -0.19608622165E+03  0.20722518503E+03  0.00000000000E+00 0. -1.
</event>
<event>
 7    1  0.6506388E-006  0.1337442E+03  0.7561462E-02  0.1222003E+00
          1   -1    0    0  501    0  0.00000000000E+00  0.00000000000E+00  0.12991373174E+03  0.12991373174E+03  0.00000000000E+00 0. -1.
         -1   -1    0    0    0  501 -0.00000000000E+00 -0.00000000000E+00 -0.15167753834E+03  0.15167753834E+03  0.00000000000E+00 0.  1.
         23    2    1    2    0    0  0.80348204480E+02 -0.23508375057E+02 -0.39362119327E+02  0.15559013570E+03  0.12510170354E+03 0.  0.
          5    1    3    3  502    0  0.82701618661E+02 -0.62892929224E+02 -0.66987014149E+01  0.10419896005E+03  0.41800000000E+01 0. -1.
         -5    1    3    3    0  502 -0.23534141807E+01  0.39384554166E+02 -0.32663417912E+02  0.51391175652E+02  0.41800000000E+01 0. -1.
        -11    1    1    2    0    0 -0.94907996456E+02  0.38964800792E+02  0.20335868406E+02  0.10459125698E+03  0.00000000000E+00 0. -1.
         11    1    1    2    0    0  0.14559791976E+02 -0.15456425735E+02 -0.27375556802E+01  0.21409877393E+02  0.00000000000E+00 0.  1.
</event>
<event>
 7    1  0.6506388E-006  0.1294356E+03  0.7561462E-02  0.1228296E+00
         -1   -1    0    0    0  501 -0.00000000000E+00  0.00000000000E+00  0.17088075049E+03  0.17088075049E+03  0.00000000000E+00 0.  1.
          1   -1    0    0  501    0  0.00000000000E+00 -0.00000000000E+00 -0.11421794057E+03  0.11421794057E+03  0.00000000000E+00 0. -1.
         23    2    1    2    0    0 -0.13438307729E+02 -0.82814993204E+02  0.54735505935E+02  0.16025172479E+03  0.12508288641E+03 0.  0.
          5    1    3    3  502    0  0.15231949062E+02  0.20988597441E+02  0.44917118063E+02  0.52034155992E+02  0.41800000000E+01 0. -1.
         -5    1    3    3    0  502 -0.28670256791E+02 -0.10380359064E+03  0.98183878723E+01  0.10821756879E+03  0.41800000000E+01 0. -1.
        -11    1    1    2    0    0  0.53418899162E+02  0.48101843152E+02  0.10421878711E+01  0.71891948491E+02  0.00000000000E+00 0. -1.
         11    1    1    2    0    0 -0.39980591433E+02  0.34713150051E+02  0.88511611768E+00  0.52955017783E+02  0.00000000000E+00 0.  1.
</event>
<event>
 7    1  0.6506388E-006  0.7553010E+02  0.7561462E-02  0.1342237E+00
          2   -1    0    0  501    0  0.00000000000E+00  0.00000000000E+00  0.11359114913E+03  0.11359114913E+03  0.00000000000E+00 0. -1.
         -2   -1    0    0    0  501 -0.00000000000E+00 -0.00000000000E+00 -0.14807087269E+03  0.14807087269E+03  0.00000000000E+00 0.  1.
         23    2    1    2    0    0  0.61448757340E+02 -0.34481256781E+02 -0.91901351145E+01  0.14383619854E+03  0.12505793289E+03 0.  0.
          5    1    3    3  502    0  0.10432502376E+02  0.72879111267E+01  0.52053728140E+02  0.53749546674E+02  0.41800000000E+01 0.  1.
         -5    1    3    3    0  502  0.51016254964E+02 -0.41769167908E+02 -0.61243863254E+02  0.90086651867E+02  0.41800000000E+01 0.  1.
        -11    1    1    2    0    0 -0.11868872493E+02  0.12888343695E+02 -0.53878701520E+02  0.56655926565E+02  0.00000000000E+00 0.  1.
         11    1    1    2    0    0 -0.49579884847E+02  0.21592913086E+02  0.28589113075E+02  0.61169896709E+02  0.00000000000E+00 0. -1.
</event>
<event>
 7    1  0.6506388E-006  0.2000378E+03  0.7561462E-02  0.1149707E+00
         -3   -1    0    0    0  501 -0.00000000000E+00  0.00000000000E+00  0.59347182690E+03  0.59347182690E+03  0.00000000000E+00 0.  1.
          3   -1    0    0  501    0  0.00000000000E+00 -0.00000000000E+00 -0.96670722902E+02  0.96670722902E+02  0.00000000000E+00 0. -1.
         23    2    1    2    0    0  0.17346919424E+03  0.39131764897E+02  0.42624001012E+03  0.47848832646E+03  0.12509067095E+03 0.  0.
          5    1    3    3  502    0 -0.17605156607E+02  0.22346242895E+01  0.72214519246E+02  0.74480495936E+02  0.41800000000E+01 0.  1.
         -5    1    3    3    0  502  0.19107435085E+03  0.36897140608E+02  0.35402549088E+03  0.40400783053E+03  0.41800000000E+01 0.  1.
        -11    1    1    2    0    0 -0.47835090760E+02  0.15375950665E+02  0.53913330776E+02  0.73697103079E+02  0.00000000000E+00 0.  1.
         11    1    1    2    0    0 -0.12563410348E+03 -0.54507715562E+02  0.16647763096E+02  0.13795712026E+03  0.00000000000E+00 0. -1.
</event>
<event>
 7    1  0.6506388E-006  0.1132505E+03  0.7561462E-02  0.1254666E+00
         -1   -1    0    0    0  501 -0.00000000000E+00  0.00000000000E+00  0.34301102590E+03  0.34301102590E+03  0.00000000000E+00 0.  1.
          1   -1    0    0  501    0  0.00000000000E+00 -0.00000000000E+00 -0.50031249290E+02  0.50031249290E+02  0.00000000000E+00 0. -1.
         23    2    1    2    0    0  0.69582198226E+02 -0.16699093058E+02  0.18577615165E+03  0.23511852876E+03  0.12508957601E+03 0.  0.
          5    1    3    3  502    0  0.24903174579E+02  0.35634381728E+02  0.79431181181E+01  0.44390796239E+02  0.41800000000E+01 0.  1.
         -5    1    3    3    0  502  0.44679023646E+02 -0.52333474787E+02  0.17783303353E+03  0.19072773252E+03  0.41800000000E+01 0.  1.
        -11    1    1    2    0    0  0.85564999465E+01  0.32979770419E+02  0.46496583372E+02  0.57643830663E+02  0.00000000000E+00 0.  1.
         11    1    1    2    0    0 -0.78138698172E+02 -0.16280677361E+02  0.60707041582E+02  0.10027991576E+03  0.00000000000E+00 0. -1.
</event>
<event>
 6    1  0.6506388E-006  0.2299116E+03  0.7561462E-02  0.1126702E+00
         -1   -1    0    0    0  501 -0.00000000000E+00  0.00000000000E+00  0.70900239965E+02  0.70900239965E+02  0.00000000000E+00 0.  1.
          1   -1    0    0  501    0  0.00000000000E+00 -0.00000000000E+00 -0.98652286721E+03  0.98652286721E+03  0.00000000000E+00 0. -1.
          5    1    1    2  502    0  0.15575329916E+03  0.17068913502E+02 -0.12115161060E+03  0.19810508110E+03  0.41800000000E+01 0. -1.
         -5    1    1    2    0  502 -0.69035973302E+02 -0.12151587145E+03 -0.24586983406E+03  0.28284540004E+03  0.41800000000E+01 0.  1.
        -11    1    1    2    0    0 -0.25929610410E+02 -0.14481069912E+02 -0.35560527728E+02  0.46331384763E+02  0.00000000000E+00 0.  1.
         11    1    1    2    0    0 -0.60787715444E+02  0.11892802786E+03 -0.51304065486E+03  0.53014124127E+03  0.00000000000E+00 0. -1.
</event>
<event>
 7    1  0.6506388E-006  0.1138343E+03  0.7561462E-02  0.1253630E+00
          3   -1    0    0  501    0  0.00000000000E+00  0.00000000000E+00  0.37170101936E+02  0.37170101936E+02  0.00000000000E+00 0. -1.
         -3   -1    0    0    0  501 -0.00000000000E+00 -0.00000000000E+00 -0.38912864555E+03  0.38912864555E+03  0.00000000000E+00 0.  1.
         23    2    1    2    0    0 -0.42417330775E+02  0.19962174568E+01 -0.24789677332E+03  0.28089694095E+03  0.12508823436E+03 0.  0.
          5    1    3    3  502    0  0.18499582514E+02  0.47259433010E+02 -0.63136231573E+02  0.81113159838E+02  0.41800000000E+01 0. -1.
         -5    1    3    3    0  502 -0.60916913290E+02 -0.45263215553E+02 -0.18476054175E+03  0.19978378111E+03  0.41800000000E+01 0. -1.
        -11    1    1    2    0    0 -0.26413829025E+02 -0.15455870722E+02 -0.23478129836E+02  0.38571970187E+02  0.00000000000E+00 0. -1.
         11    1    1    2    0    0  0.68831159800E+02  0.13459653265E+02 -0.80583640453E+02  0.10682983635E+03  0.00000000000E+00 0.  1.
</event>
<event>
 7    1  0.6506388E-006  0.1060274E+03  0.7561462E-02  0.1268109E+00
          1   -1    0    0  501    0  0.00000000000E+00  0.00000000000E+00  0.21369031447E+03  0.21369031447E+03  0.00000000000E+00 0.  1.
         -1   -1    0    0    0  501 -0.00000000000E+00 -0.00000000000E+00 -0.91778623131E+02  0.91778623131E+02  0.00000000000E+00 0. -1.
         23    2    1    2    0    0  0.56321339650E+02 -0.62797136184E+02  0.37840161166E+02  0.15554647552E+03  0.12508898687E+03 0.  0.
          5    1    3    3  502    0 -0.92249964489E+01  0.19475302658E+02 -0.24741749013E+02  0.33075890272E+02  0.41800000000E+01 0.  1.
         -5    1    3    3    0  502  0.65546336099E+02 -0.82272438842E+02  0.62581910179E+02  0.12247058525E+03  0.41800000000E+01 0.  1.
        -11    1    1    2    0    0 -0.35323395215E+02  0.32727814290E+02 -0.97993418542E+01  0.49141420192E+02  0.00000000000E+00 0. -1.
         11    1    1    2    0    0 -0.20997944436E+02  0.30069321894E+02  0.93870872028E+02  0.10078104189E+03  0.00000000000E+00 0.  1.
</event>
<event>
 7    1  0.6506388E-006  0.9934840E+02  0.7561462E-02  0.1281672E+00
          2   -1    0    0  501    0  0.00000000000E+00  0.00000000000E+00  0.25698741497E+02  0.25698741497E+02  0.00000000000E+00 0. -1.
         -2   -1    0    0    0  501 -0.00000000000E+00 -0.00000000000E+00 -0.95923756311E+03  0.95923756311E+03  0.00000000000E+00 0.  1.
         23    2    1    2    0    0 -0.35596448234E+02  0.34320686389E+02 -0.79720658097E+03  0.80847343369E+03  0.12508374633E+03 0.  0.
          5    1    3    3  502    0 -0.33743679850E+02 -0.16653928599E+02 -0.70985906957E+02  0.80451604422E+02  0.41800000000E+01 0. -1.
         -5    1    3    3    0  502 -0.18527683840E+01  0.50974614988E+02 -0.72622067402E+03  0.72802182927E+03  0.41800000000E+01 0. -1.
        -11    1    1    2    0    0 -0.24750906313E+02  0.17337063888E+02 -0.55115355227E+02  0.62856054039E+02  0.00000000000E+00 0.  1.
         11    1    1    2    0    0  0.60347354548E+02 -0.51657750277E+02 -0.81216885413E+02  0.11360681688E+03  0.00000000000E+00 0. -1.
</event>
<event>
 7    1  0.6506388E-006  0.6662996E+02  0.7561462E-02  0.1371943E+00
         -3   -1    0    0    0  501 -0.00000000000E+00  0.00000000000E+00  0.16490171466E+02  0.16490171466E+02  0.00000000000E+00 0.  1.
          3   -1    0    0  501    0  0.00000000000E+00 -0.00000000000E+00 -0.77475826465E+03  0.77475826465E+03  0.00000000000E+00 0. -1.
         23    2    1    2    0    0 -0.28055421838E+02 -0.11202546699E+02 -0.35823535750E+03  0.38064845008E+03  0.12509223572E+03 0.  0.
          5    1    3    3  502    0 -0.28795527347E+02 -0.39292429679E+00 -0.79442475988E+01  0.30164884462E+02  0.41800000000E+01 0.  1.
         -5    1    3    3    0  502  0.74010550912E+00 -0.10809622402E+02 -0.35029110990E+03  0.35048356562E+03  0.41800000000E+01 0.  1.
        -11    1    1    2    0    0  0.59903964987E+02  0.95006936575E+01 -0.25978247939E+03  0.26676897271E+03  0.00000000000E+00 0.  1.
         11    1    1    2    0    0 -0.31848543149E+02  0.17018530410E+01 -0.14025025629E+03  0.14383101333E+03  0.00000000000E+00 0. -1.
</event>
<event>
 7    1  0.6506388E-006  0.8432513E+02  0.7561462E-02  0.1317207E+00
         -3   -1    0    0    0  501 -0.00000000000E+00  0.00000000000E+00  0.97301370268E+02  0.97301370268E+02  0.00000000000E+00 0.  1.
          3   -1    0    0  501    0  0.00000000000E+00 -0.00000000000E+00 -0.17740117827E+03  0.17740117827E+03  0.00000000000E+00 0. -1.
         23    2    1    2    0    0 -0.68215253696E+02  0.16156809696E+02 -0.23324597012E+02  0.14528237231E+03  0.12509423465E+03 0.  0.
          5    1    3    3  502    0 -0.15372065485E+02  0.57997922281E+01  0.50807640428E+02  0.53561429341E+02  0.41800000000E+01 0. -1.
         -5    1    3    3    0  502 -0.52843188211E+02  0.10357017468E+02 -0.74132237440E+02  0.91720942968E+02  0.41800000000E+01 0. -1.
        -11    1    1    2    0    0  0.33620877304E+02  0.26468422499E+02 -0.60831558378E+02  0.74373511918E+02  0.00000000000E+00 0. -1.
         11    1    1    2    0    0  0.34594376391E+02 -0.42625232195E+02  0.40563473895E+01  0.55046664310E+02  0.00000000000E+00 0.  1.
</event>
<event>
 7    1  0.6506388E-006  0.9707552E+02  0.7561462E-02  0.1286569E+00
         -1   -1    0    0    0  501 -0.00000000000E+00  0.00000000000E+00  0.12340487778E+03  0.12340487778E+03  0.00000000000E+00 0.  1.
          1   -1    0    0  501    0  0.00000000000E+00 -0.00000000000E+00 -0.17082324683E+03  0.17082324683E+03  0.00000000000E+00 0. -1.
         23    2    1    2    0    0  0.22725839740E+02 -0.46544588323E+02  0.33304471034E+02  0.13941828197E+03  0.12508160161E+03 0.  0.
          5    1    3    3  502    0  0.60479173691E+02 -0.17705595541E+02  0.57968629318E+02  0.85726617505E+02  0.41800000000E+01 0. -1.
         -5    1    3    3    0  502 -0.37753333951E+02 -0.28838992782E+02 -0.24664158283E+02  0.53691664464E+02  0.41800000000E+01 0. -1.
        -11    1    1    2    0    0  0.15533798368E+02  0.41993106719E+02  0.18441607182E+02  0.48423266919E+02  0.00000000000E+00 0.  1.
         11    1    1    2    0    0 -0.38259638109E+02  0.45514816036E+01 -0.99164447260E+02  0.10638657572E+03  0.00000000000E+00 0. -1.
</event>
<event>
 7    1  0.6506388E-006  0.1732861E+03  0.7561462E-02  0.1174464E+00
          1   -1    0    0  501    0  0.00000000000E+00  0.00000000000E+00  0.34006271479E+03  0.34006271479E+03  0.00000000000E+00 0. -1.
         -1   -1    0    0    0  501 -0.00000000000E+00 -0.00000000000E+00 -0.93109288201E+02  0.93109288201E+02  0.00000000000E+00 0.  1.
         23    2    1    2    0    0  0.12880152692E+03  0.42530413494E+02  0.10556187957E+03  0.21257678853E+03  0.12508761407E+03 0.  0.
          5    1    3    3  502    0  0.59268282551E+02 -0.43632213743E+02  0.41982952539E+02  0.84832423616E+02  0.41800000000E+01 0.  1.
         -5    1    3    3    0  502  0.69533244366E+02  0.86162627237E+02  0.63578927030E+02  0.12774436491E+03  0.41800000000E+01 0.  1.
        -11    1    1    2    0    0 -0.69690644748E+02 -0.68295606988E+02  0.11526771992E+03  0.15102226046E+03  0.00000000000E+00 0. -1.
         11    1    1    2    0    0 -0.59110882169E+02  0.25765193494E+02  0.26123827105E+02  0.69572954007E+02  0.00000000000E+00 0.  1.
</event>
<event>
 7    1  0.6506388E-006  0.1351662E+03  0.7561462E-02  0.1219985E+00
          2   -1    0    0  501    0  0.00000000000E+00  0.00000000000E+00  0.94379631706E+02  0.94379631706E+02  0.00000000000E+00 0.  1.
         -2   -1    0    0    0  501 -0.00000000000E+00 -0.00000000000E+00 -0.23179350274E+03  0.23179350274E+03  0.00000000000E+00 0. -1.
         23    2    1    2    0    0  0.80949507099E+02  0.51056162536E+02 -0.10885144551E+03  0.19145894039E+03  0.12509330211E+03 0.  0.
          5    1    3    3  502    0  0.36532586665E+02  0.86582018619E+02 -0.40432046462E+02  0.10238798083E+03  0.41800000000E+01 0.  1.
         -5    1    3    3    0  502  0.44416920434E+02 -0.35525856083E+02 -0.68419399046E+02  0.89070959561E+02  0.41800000000E+01 0.  1.
        -11    1    1    2    0    0 -0.94344208421E+02 -0.44098346483E+02 -0.19978464868E+01  0.10416086221E+03  0.00000000000E+00 0.  1.
         11    1    1    2    0    0  0.13394701321E+02 -0.69578160530E+01 -0.26564579039E+02  0.30553331851E+02  0.00000000000E+00 0. -1.
</event>
<event>
 7    1  0.6506388E-006  0.1136997E+03  0.7561462E-02  0.1253868E+00
         -2   -1    0    0    0  501 -0.00000000000E+00  0.00000000000E+00  0.24324326023E+02  0.24324326023E+02  0.00000000000E+00 0. -1.
          2   -1    0    0  501    0  0.00000000000E+00 -0.00000000000E+00 -0.72340404471E+03  0.72340404471E+03  0.00000000000E+00 0.  1.
         23    2    1    2    0    0  0.25122587976E+02  0.65786468383E+02 -0.28682574864E+03  0.32074035715E+03  0.12508542190E+03 0.  0.
          5    1    3    3  502    0  0.71924535047E+02  0.57337365711E+02 -0.22108774684E+03  0.23949525351E+03  0.41800000000E+01 0. -1.
         -5    1    3    3    0  502 -0.46801947071E+02  0.84491026715E+01 -0.65738001792E+02  0.81245103638E+02  0.41800000000E+01 0. -1.
        -11    1    1    2    0    0 -0.10650233764E+02  0.74051878879E+01 -0.66457321137E+01  0.14574980007E+02  0.00000000000E+00 0. -1.
         11    1    1    2    0    0 -0.14472354212E+02 -0.73191656271E+02 -0.40560823794E+03  0.41241303358E+03  0.00000000000E+00 0.  1.
</event>
<event>
 7    1  0.7544155E-006  0.1927017E+03  0.7561462E-02  0.1156047E+00
         -1   -1    0    0    0  501 -0.00000000000E+00  0.00000000000E+00  0.16054536775E+03  0.16054536775E+03  0.00000000000E+00 0.  1.
          1   -1    0    0  501    0  0.00000000000E+00 -0.00000000000E+00 -0.25859521999E+03  0.25859521999E+03  0.00000000000E+00 0. -1.
         23    2    1    2    0    0 -0.12561673787E+03  0.11703765261E+03 -0.37454704081E+02  0.21570215247E+03  0.12508871556E+03 0.  0.
          5    1    3    3  502    0 -0.13741091413E+03  0.11513696967E+03 -0.60632748213E+02  0.18929364401E+03  0.41800000000E+01 0. -1.
         -5    1    3    3    0  502  0.11794176258E+02  0.19006829371E+01  0.23178044131E+02  0.26408508458E+02  0.41800000000E+01 0. -1.
        -11    1    1    2    0    0  0.27115183737E+02  0.13181158375E+02 -0.16234083838E+02  0.34242102787E+02  0.00000000000E+00 0. -1.
         11    1    1    2    0    0  0.98501554132E+02 -0.13021881098E+03 -0.44361064313E+02  0.16919633249E+03  0.00000000000E+00 0.  1.
</event>
<event>
 7    1  0.6506388E-006  0.1477224E+03  0.7561462E-02  0.1203300E+00
          1   -1    0    0  501    0  0.00000000000E+00  0.00000000000E+00  0.60147955352E+03  0.60147955352E+03  0.00000000000E+00 0. -1.
         -1   -1    0    0    0  501 -0.00000000000E+00 -0.00000000000E+00 -0.46135854185E+02  0.46135854185E+02  0.00000000000E+00 0.  1.
         23    2    1    2    0    0 -0.61670913590E+02  0.98274500016E+02  0.39037351780E+03  0.42602692726E+03  0.12508509270E+03 0.  0.
          5    1    3    3  502    0  0.25474369778E+02  0.69287604396E+02  0.22472364792E+03  0.23657537060E+03  0.41800000000E+01 0. -1.
         -5    1    3    3    0  502 -0.87145283368E+02  0.28986895620E+02  0.16564986988E+03  0.18945155667E+03  0.41800000000E+01 0. -1.
        -11    1    1    2    0    0  0.72539014303E+02 -0.77678560440E+02  0.78747571982E+02  0.13227640546E+03  0.00000000000E+00 0.  1.
         11    1    1    2    0    0 -0.10868100713E+02 -0.20595939576E+02  0.86222609549E+02  0.89312074982E+02  0.00000000000E+00 0. -1.
</event>
<event>
 7    1  0.6506388E-006  0.1836850E+03  0.7561462E-02  0.1164284E+00
         -1   -1    0    0    0  501 -0.00000000000E+00  0.00000000000E+00  0.72977048779E+02  0.72977048779E+02  0.00000000000E+00 0.  1.
          1   -1    0    0  501    0  0.00000000000E+00 -0.00000000000E+00 -0.49881190397E+03  0.49881190397E+03  0.00000000000E+00 0. -1.
         23    2    1    2    0    0 -0.79625417607E+02 -0.12950023426E+03 -0.14646527606E+03  0.24169086564E+03  0.11769400852E+03 0.  0.
          5    1    3    3  502    0 -0.90868265137E+02 -0.14546764147E+03 -0.12434485992E+03  0.21188910523E+03  0.41800000000E+01 0. -1.
         -5    1    3    3    0  502  0.11242847531E+02  0.15967407215E+02 -0.22120416131E+02  0.29801760411E+02  0.41800000000E+01 0.  1.
        -11    1    1    2    0    0  0.98730380429E+02  0.11657298226E+03 -0.24226248260E+03  0.28640540967E+03  0.00000000000E+00 0.  1.
         11    1    1    2    0    0 -0.19104962823E+02  0.12927252001E+02 -0.37107096539E+02  0.43692677445E+02  0.00000000000E+00 0. -1.
</event>
<event>
 7    1  0.6506388E-006  0.9245012E+02  0.7561462E-02  0.1297025E+00
         -1   -1    0    0    0  501 -0.00000000000E+00  0.00000000000E+00  0.13501661879E+03  0.13501661879E+03  0.00000000000E+00 0.  1.
          1   -1    0    0  501    0  0.00000000000E+00 -0.00000000000E+00 -0.11929682422E+03  0.11929682422E+03  0.00000000000E+00 0. -1.
         23    2    1    2    0    0 -0.50802462075E+02 -0.41104335041E+02  0.12746882493E+02  0.14169935766E+03  0.12508304616E+03 0.  0.
          5    1    3    3  502    0 -0.78866289874E+02 -0.13822000540E+02  0.43983259403E+02  0.91449105436E+02  0.41800000000E+01 0.  1.
         -5    1    3    3    0  502  0.28063827799E+02 -0.27282334501E+02 -0.31236376910E+02  0.50250252228E+02  0.41800000000E+01 0.  1.
        -11    1    1    2    0    0  0.33906647753E+02  0.28188815265E+02  0.46553726391E+02  0.64121131531E+02  0.00000000000E+00 0.  1.
         11    1    1    2    0    0  0.16895814322E+02  0.12915519776E+02 -0.43580814315E+02  0.48492953808E+02  0.00000000000E+00 0. -1.
</event>
<event>
 7    1  0.6506388E-006  0.8888150E+02  0.7561462E-02  0.1305583E+00
          2   -1    0    0  501    0  0.00000000000E+00  0.00000000000E+00  0.18825576072E+03  0.18825576072E+03  0.00000000000E+00 0.  1.
         -2   -1    0    0    0  501 -0.00000000000E+00 -0.00000000000E+00 -0.77133157256E+02  0.77133157256E+02  0.00000000000E+00 0. -1.
         23    2    1    2    0    0  0.16844277139E+01 -0.37545047244E+02  0.20755840975E+02  0.13225330559E+03  0.12509062329E+03 0.  0.
          5    1    3    3  502    0 -0.24087097525E+02  0.32681314884E+02 -0.21610748463E+02  0.46181743783E+02  0.41800000000E+01 0. -1.
         -5    1    3    3    0  502  0.25771525238E+02 -0.70226362129E+02  0.42366589437E+02  0.86071561805E+02  0.41800000000E+01 0. -1.
        -11    1    1    2    0    0  0.23803038371E+02  0.16337784919E+02 -0.74799414157E+01  0.29823771984E+02  0.00000000000E+00 0. -1.
         11    1    1    2    0    0 -0.25487466085E+02  0.21207262325E+02  0.97846703908E+02  0.10331184041E+03  0.00000000000E+00 0.  1.
</event>
<event>
 7    1  0.6506388E-006  0.6059678E+02  0.7561462E-02  0.1395344E+00
         -1   -1    0    0    0  501 -0.00000000000E+00  0.00000000000E+00  0.46219827636E+03  0.46219827636E+03  0.00000000000E+00 0.  1.
          1   -1    0    0  501    0  0.00000000000E+00 -0.00000000000E+00 -0.27824750136E+02  0.27824750136E+02  0.00000000000E+00 0. -1.
         23    2    1    2    0    0 -0.17450174373E+02  0.23995698809E+02  0.27502034179E+03  0.30359289760E+03  0.12510858055E+03 0.  0.
          5    1    3    3  502    0 -0.34242234328E+02  0.12931026233E+02  0.28003676123E+03  0.28244964523E+03  0.41800000000E+01 0.  1.
         -5    1    3    3    0  502  0.16792059954E+02  0.11064672576E+02 -0.50164194408E+01  0.21143252369E+02  0.41800000000E+01 0.  1.
        -11    1    1    2    0    0 -0.88794598092E+01 -0.34381534352E+02  0.15346566682E+03  0.15752030220E+03  0.00000000000E+00 0.  1.
         11    1    1    2    0    0  0.26329634183E+02  0.10385835543E+02  0.58875176111E+01  0.28909826698E+02  0.00000000000E+00 0. -1.
</event>
<event>
 7    1  0.6506388E-006  0.1173326E+03  0.7561462E-02  0.1247563E+00
         -2   -1    0    0    0  501 -0.00000000000E+00  0.00000000000E+00  0.43946183694E+02  0.43946183694E+02  0.00000000000E+00 0.  1.
          2   -1    0    0  501    0  0.00000000000E+00 -0.00000000000E+00 -0.36913047116E+03  0.36913047116E+03  0.00000000000E+00 0. -1.
         23    2    1    2    0    0  0.40698690631E+02 -0.47476423866E+02 -0.20569345412E+03  0.24873298499E+03  0.12509159249E+03 0.  0.
          5    1    3    3  502    0  0.93136865162E+01  0.42389006271E+02 -0.51518213512E+02  0.67492009399E+02  0.41800000000E+01 0. -1.
         -5    1    3    3    0  502  0.31385004115E+02 -0.89865430136E+02 -0.15417524061E+03  0.18124097559E+03  0.41800000000E+01 0. -1.
        -11    1    1    2    0    0  0.21212084505E+02  0.13814588191E+02 -0.79246864685E+02  0.83191711957E+02  0.00000000000E+00 0. -1.
         11    1    1    2    0    0 -0.61910775136E+02  0.33661835675E+02 -0.40243968667E+02  0.81151957913E+02  0.00000000000E+00 0.  1.
</event>
<event>
 7    1  0.6506388E-006  0.6711644E+02  0.7561462E-02  0.1370183E+00
          1   -1    0    0  501    0  0.00000000000E+00  0.00000000000E+00  0.70846346459E+02  0.70846346459E+02  0.00000000000E+00 0. -1.
         -1   -1    0    0    0  501 -0.00000000000E+00 -0.00000000000E+00 -0.25740399996E+03  0.25740399996E+03  0.00000000000E+00 0.  1.
         23    2    1    2    0    0  0.22179508756E+01 -0.16301722316E+02 -0.19444589617E+03  0.23175476192E+03  0.12502158885E+03 0.  0.
          5    1    3    3  502    0  0.73714204985E+01 -0.57485271125E+02 -0.17743121672E+03  0.18670351712E+03  0.41800000000E+01 0. -1.
         -5    1    3    3    0  502 -0.51534696229E+01  0.41183548809E+02 -0.17014679449E+02  0.45051244804E+02  0.41800000000E+01 0. -1.
        -11    1    1    2    0    0  0.11688717188E+02  0.16834810341E+02  0.48988628049E+02  0.53102943674E+02  0.00000000000E+00 0. -1.
         11    1    1    2    0    0 -0.13906668064E+02 -0.53308802468E+00 -0.41100385374E+02  0.43392640820E+02  0.00000000000E+00 0.  1.
</event>
<event>
 7    1  0.6506388E-006  0.1086183E+03  0.7561462E-02  0.1263150E+00
          2   -1    0    0  501    0  0.00000000000E+00  0.00000000000E+00  0.56383216393E+03  0.56383216393E+03  0.00000000000E+00 0. -1.
         -2   -1    0    0    0  501 -0.00000000000E+00 -0.00000000000E+00 -0.45526732043E+02  0.45526732043E+02  0.00000000000E+00 0.  1.
         23    2    1    2    0    0  0.57616546396E+02 -0.75184012753E+02  0.14810902489E+03  0.21576862728E+03  0.12509002786E+03 0.  0.
          5    1    3    3  502    0  0.15381327450E+02  0.96143697381E+01  0.11320065215E+03  0.11472088470E+03  0.41800000000E+01 0. -1.
         -5    1    3    3    0  502  0.42235218946E+02 -0.84798382491E+02  0.34908372742E+02  0.10104774258E+03  0.41800000000E+01 0. -1.
        -11    1    1    2    0    0 -0.12450173496E+02  0.51129156281E+02  0.62661735981E+02  0.81827199624E+02  0.00000000000E+00 0.  1.
         11    1    1    2    0    0 -0.45166372899E+02  0.24054856471E+02  0.30753467102E+03  0.31176306907E+03  0.00000000000E+00 0. -1.
</event>
<event>
 6    1  0.6506388E-006  0.2405714E+03  0.7561462E-02  0.1119413E+00
          1   -1    0    0  501    0  0.00000000000E+00  0.00000000000E+00  0.33509153432E+03  0.33509153432E+03  0.00000000000E+00 0. -1.
         -1   -1    0    0    0  501 -0.00000000000E+00 -0.00000000000E+00 -0.27683801115E+03  0.27683801115E+03  0.00000000000E+00 0.  1.
          5    1    1    2  502    0  0.10026150195E+03 -0.86677598202E+02 -0.40630321035E+02  0.13868550822E+03  0.41800000000E+01 0. -1.
         -5    1    1    2    0  502 -0.77852658438E+02  0.19289567456E+03 -0.98393692383E+02  0.23014901431E+03  0.41800000000E+01 0.  1.
        -11    1    1    2    0    0  0.34656775001E+02 -0.35442436497E+02  0.87421037759E+02  0.10049724474E+03  0.00000000000E+00 0. -1.
         11    1    1    2    0    0 -0.57065618511E+02 -0.70775639856E+02  0.10985649883E+03  0.14259777820E+03  0.00000000000E+00 0.  1.
</event>
<event>
 7    1  0.6506388E-006  0.1076760E+03  0.7561462E-02  0.1264935E+00
         -2   -1    0    0    0  501 -0.00000000000E+00  0.00000000000E+00  0.55116992333E+02  0.55116992333E+02  0.00000000000E+00 0.  1.
          2   -1    0    0  501    0  0.00000000000E+00 -0.00000000000E+00 -0.22139847085E+03  0.22139847085E+03  0.00000000000E+00 0. -1.
         23    2    1    2    0    0  0.10730261812E+02 -0.18493603711E+02 -0.10632154904E+03  0.16555274297E+03  0.12508511909E+03 0.  0.
          5    1    3    3  502    0  0.45931888337E+02  0.34983822869E+02 -0.27993224827E+02  0.64301627234E+02  0.41800000000E+01 0.  1.
         -5    1    3    3    0  502 -0.35201626525E+02 -0.53477426580E+02 -0.78328324216E+02  0.10125111574E+03  0.41800000000E+01 0.  1.
        -11    1    1    2    0    0 -0.12162629306E+02 -0.36406805952E+02 -0.26694890775E+02  0.46754703129E+02  0.00000000000E+00 0. -1.
         11    1    1    2    0    0  0.14323674939E+01  0.54900409662E+02 -0.33265038694E+02  0.64208017078E+02  0.00000000000E+00 0.  1.
</event>
<event>
 7    1  0.6506388E-006  0.2401910E+03  0.7561462E-02  0.1119666E+00
          2   -1    0    0  501    0  0.00000000000E+00  0.00000000000E+00  0.10464586822E+04  0.10464586822E+04  0.00000000000E+00 0.  1.
         -2   -1    0    0    0  501 -0.00000000000E+00 -0.00000000000E+00 -0.58745982404E+02  0.58745982404E+02  0.00000000000E+00 0. -1.
         23    2    1    2    0    0  0.75683762002E+02 -0.20892580725E+03  0.53766466907E+03  0.59506972719E+03  0.12508660634E+03 0.  0.
          5    1    3    3  502    0  0.94065766170E+02 -0.20971067174E+03  0.52260320467E+03  0.57092776788E+03  0.41800000000E+01 0. -1.
         -5    1    3    3    0  502 -0.18382004168E+02  0.78486448166E+00  0.15061464400E+02  0.24141959311E+02  0.41800000000E+01 0. -1.
        -11    1    1    2    0    0 -0.61052091878E+02  0.74070135293E+02  0.25576009818E+03  0.27317937456E+03  0.00000000000E+00 0. -1.
         11    1    1    2    0    0 -0.14631670124E+02  0.13485567196E+03  0.19428793252E+03  0.23695556282E+03  0.00000000000E+00 0.  1.
</event>
<event>
 7    1  0.6506388E-006  0.2415141E+03  0.7561462E-02  0.1118788E+00
          2   -1    0    0  501    0  0.00000000000E+00  0.00000000000E+00  0.86646460556E+03  0.86646460556E+03  0.00000000000E+00 0. -1.
         -2   -1    0    0    0  501 -0.00000000000E+00 -0.00000000000E+00 -0.75486122156E+02  0.75486122156E+02  0.00000000000E+00 0.  1.
         23    2    1    2    0    0 -0.18140372010E+03 -0.13704315211E+03  0.32892100457E+03  0.41895677463E+03  0.12509043350E+03 0.  0.
          5    1    3    3  502    0 -0.19425684615E+03 -0.12002872503E+03  0.25695508711E+03  0.34378191677E+03  0.41800000000E+01 0. -1.
         -5    1    3    3    0  502  0.12853126045E+02 -0.17014427075E+02  0.71965917457E+02  0.75174857853E+02  0.41800000000E+01 0. -1.
        -11    1    1    2    0    0  0.47908100820E+02  0.10654901676E+02  0.17797911246E+03  0.18462198549E+03  0.00000000000E+00 0. -1.
         11    1    1    2    0    0  0.13349561928E+03  0.12638825043E+03  0.28407836638E+03  0.33837196760E+03  0.00000000000E+00 0.  1.
</event>
<event>
 7    1  0.6506388E-006  0.1225474E+03  0.7561462E-02  0.1238953E+00
          2   -1    0    0  501    0  0.00000000000E+00  0.00000000000E+00  0.47470749582E+03  0.47470749582E+03  0.00000000000E+00 0. -1.
         -2   -1    0    0    0  501 -0.00000000000E+00 -0.00000000000E+00 -0.55299859814E+02  0.55299859814E+02  0.00000000000E+00 0.  1.
         23    2    1    2    0    0  0.35893810104E+02  0.10401409260E+03  0.14661616926E+03  0.22192503224E+03  0.12508845583E+03 0.  0.
          5    1    3    3  502    0  0.17873876603E+02  0.34284761424E+02  0.14461840712E+03  0.14975605634E+03  0.41800000000E+01 0.  1.
         -5    1    3    3    0  502  0.18019933500E+02  0.69729331176E+02  0.19977621399E+01  0.72168975905E+02  0.41800000000E+01 0.  1.
        -11    1    1    2    0    0 -0.58474891468E+02 -0.90500849744E+02  0.25351312674E+03  0.27546074524E+03  0.00000000000E+00 0. -1.
         11    1    1    2    0    0  0.22581081364E+02 -0.13513242856E+02  0.19278339998E+02  0.32621578152E+02  0.00000000000E+00 0.  1.
</event>
<event>
 7    1  0.6506388E-006  0.1150270E+03  0.7561462E-02  0.1251534E+00
         -2   -1    0    0    0  501 -0.00000000000E+00  0.00000000000E+00  0.77045267359E+03  0.77045267359E+03  0.00000000000E+00 0.  1.
          2   -1    0    0  501    0  0.00000000000E+00 -0.00000000000E+00 -0.33234123970E+02  0.33234123970E+02  0.00000000000E+00 0. -1.
         23    2    1    2    0    0 -0.23782317704E+02  0.61516166222E+02  0.64139614398E+03  0.65679953373E+03  0.12508707628E+03 0.  0.
          5    1    3    3  502    0 -0.57180596294E+02  0.72523697155E+02  0.30930570700E+03  0.32282626910E+03  0.41800000000E+01 0. -1.
         -5    1    3    3    0  502  0.33398278590E+02 -0.11007530933E+02  0.33209043698E+03  0.33397326462E+03  0.41800000000E+01 0. -1.
        -11    1    1    2    0    0 -0.11039983932E+02 -0.66148230152E+02  0.88439067719E+02  0.11099071266E+03  0.00000000000E+00 0.  1.
         11    1    1    2    0    0  0.34822301637E+02  0.46320639304E+01  0.73833379264E+01  0.35896551178E+02  0.00000000000E+00 0. -1.
</event>
<event>
 7    1  0.6506388E-006  0.2953758E+03  0.7561462E-02  0.1087575E+00
         -2   -1    0    0    0  501 -0.00000000000E+00  0.00000000000E+00  0.11445823794E+03  0.11445823794E+03  0.00000000000E+00 0.  1.
          2   -1    0    0  501    0  0.00000000000E+00 -0.00000000000E+00 -0.82940896822E+03  0.82940896822E+03  0.00000000000E+00 0. -1.
         23    2    1    2    0    0  0.23356461685E+03  0.16917419704E+03 -0.35925063198E+03  0.47736891221E+03  0.12509085727E+03 0.  0.
          5    1    3    3  502    0  0.11793490641E+02  0.11912105653E+02  0.91056873211E+01  0.19528712814E+02  0.41800000000E+01 0.  1.
         -5    1    3    3    0  502  0.22177112621E+03  0.15726209139E+03 -0.36835631930E+03  0.45784019939E+03  0.41800000000E+01 0.  1.
        -11    1    1    2    0    0 -0.47020343406E+02  0.37999880313E+01 -0.48916026128E+02  0.67956826112E+02  0.00000000000E+00 0. -1.
         11    1    1    2    0    0 -0.18654427345E+03 -0.17297418508E+03 -0.30678407217E+03  0.39854146785E+03  0.00000000000E+00 0.  1.
</event>
<event>
 7    1  0.6506388E-006  0.8900605E+02  0.7561462E-02  0.1305277E+00
          2   -1    0    0  501    0  0.00000000000E+00  0.00000000000E+00  0.50563591201E+03  0.50563591201E+03  0.00000000000E+00 0. -1.
         -2   -1    0    0    0  501 -0.00000000000E+00 -0.00000000000E+00 -0.24363200923E+02  0.24363200923E+02  0.00000000000E+00 0.  1.
         23    2    1    2    0    0  0.25067557827E+02  0.13647386484E+02  0.25187524084E+03  0.28267462599E+03  0.12509665712E+03 0.  0.
          5    1    3    3  502    0 -0.29418840438E+02  0.13680777907E+02  0.21327721270E+03  0.21577134590E+03  0.41800000000E+01 0. -1.
         -5    1    3    3    0  502  0.54486398264E+02 -0.33391423702E-01  0.38598028139E+02  0.66903280092E+02  0.41800000000E+01 0. -1.
        -11    1    1    2    0    0 -0.32126409006E+02  0.31478913483E+02  0.13808419915E+03  0.14522490904E+03  0.00000000000E+00 0. -1.
         11    1    1    2    0    0  0.70588511797E+01 -0.45126299967E+02  0.91313271107E+02  0.10209957791E+03  0.00000000000E+00 0.  1.
</event>
<event>
 7    1  0.6506388E-006  0.6988674E+02  0.7561462E-02  0.1360479E+00
          2   -1    0    0  501    0  0.00000000000E+00  0.00000000000E+00  0.31708738244E+03  0.31708738244E+03  0.00000000000E+00 0. -1.
         -2   -1    0    0    0  501 -0.00000000000E+00 -0.00000000000E+00 -0.40219425849E+02  0.40219425849E+02  0.00000000000E+00 0.  1.
         23    2    1    2    0    0  0.28368034634E+02  0.10157493058E+02  0.14213918113E+03  0.19172869355E+03  0.12509366516E+03 0.  0.
          5    1    3    3  502    0 -0.15930250109E+02 -0.21503858848E+02 -0.10931040494E+02  0.29208712060E+02  0.41800000000E+01 0.  1.
         -5    1    3    3    0  502  0.44298284743E+02  0.31661351907E+02  0.15307022162E+03  0.16251998149E+03  0.41800000000E+01 0.  1.
        -11    1    1    2    0    0 -0.34358043556E+01 -0.27495400041E+02  0.24716117712E+00  0.27710338570E+02  0.00000000000E+00 0.  1.
         11    1    1    2    0    0 -0.24932230279E+02  0.17337906983E+02  0.13448161428E+03  0.13786777617E+03  0.00000000000E+00 0. -1.
</event>
<event>
 7    1  0.7838756E-006  0.1780652E+03  0.7561462E-02  0.1169689E+00
         -1   -1    0    0    0  501 -0.00000000000E+00  0.00000000000E+00  0.40839470229E+02  0.40839470229E+02  0.00000000000E+00 0.  1.
          1   -1    0    0  501    0  0.00000000000E+00 -0.00000000000E+00 -0.85709952521E+03  0.85709952521E+03  0.00000000000E+00 0. -1.
         23    2    1    2    0    0  0.35284276808E+02 -0.14472785459E+03 -0.36605065846E+03  0.41452564792E+03  0.12508915277E+03 0.  0.
          5    1    3    3  502    0  0.14886459919E+02 -0.15847909731E+03 -0.35088800188E+03  0.38532725473E+03  0.41800000000E+01 0. -1.
         -5    1    3    3    0  502  0.20397816889E+02  0.13751242724E+02 -0.15162656580E+02  0.29198393189E+02  0.41800000000E+01 0. -1.
        -11    1    1    2    0    0  0.26668948478E+02  0.69808676414E+02 -0.24859641037E+03  0.25958555307E+03  0.00000000000E+00 0.  1.
         11    1    1    2    0    0 -0.61953225286E+02  0.74919178177E+02 -0.20161298616E+03  0.22382779446E+03  0.00000000000E+00 0. -1.
</event>
<event>
 7    1  0.6506388E-006  0.1448542E+03  0.7561462E-02  0.1206943E+00
          1   -1    0    0  501    0  0.00000000000E+00  0.00000000000E+00  0.87472356517E+02  0.87472356517E+02  0.00000000000E+00 0. -1.
         -1   -1    0    0    0  501 -0.00000000000E+00 -0.00000000000E+00 -0.27042997725E+03  0.27042997725E+03  0.00000000000E+00 0.  1.
         23    2    1    2    0    0  0.29664638168E+02  0.99598356277E+02 -0.13566544778E+03  0.21178344922E+03  0.12508913746E+03 0.  0.
          5    1    3    3  502    0  0.65048635897E+02  0.26940793910E+02 -0.10228630802E+03  0.12424609699E+03  0.41800000000E+01 0.  1.
         -5    1    3    3    0  502 -0.35383997729E+02  0.72657562367E+02 -0.33379139757E+02  0.87537352230E+02  0.41800000000E+01 0.  1.
        -11    1    1    2    0    0 -0.34673891957E+02  0.36669675198E+01 -0.11971736912E+02  0.36865267107E+02  0.00000000000E+00 0.  1.
         11    1    1    2    0    0  0.50092537891E+01 -0.10326532380E+03 -0.35320436048E+02  0.10925361745E+03  0.00000000000E+00 0. -1.
</event>
<event>
 7    1  0.7175327E-006  0.1581717E+03  0.7561462E-02  0.1190776E+00
         -1   -1    0    0    0  501 -0.00000000000E+00  0.00000000000E+00  0.32946084911E+03  0.32946084911E+03  0.00000000000E+00 0.  1.
          1   -1    0    0  501    0  0.00000000000E+00 -0.00000000000E+00 -0.11988281129E+03  0.11988281129E+03  0.00000000000E+00 0. -1.
         23    2    1    2    0    0  0.49126735639E+02 -0.13786408516E+03  0.19796205455E+03  0.27614541111E+03  0.12508945161E+03 0.  0.
          5    1    3    3  502    0  0.53791423117E+02 -0.99854061218E+02  0.20745278663E+03  0.23647089001E+03  0.41800000000E+01 0. -1.
         -5    1    3    3    0  502 -0.46646874774E+01 -0.38010023939E+02 -0.94907320784E+01  0.39674521099E+02  0.41800000000E+01 0. -1.
        -11    1    1    2    0    0  0.19128491933E+02  0.17364155726E+02  0.22532828065E+02  0.34280336176E+02  0.00000000000E+00 0.  1.
         11    1    1    2    0    0 -0.68255227572E+02  0.12049992943E+03 -0.10916844795E+02  0.13891791311E+03  0.00000000000E+00 0. -1.
</event>
<event>
 7    1  0.6506388E-006  0.9971240E+02  0.7561462E-02  0.1280902E+00
          2   -1    0    0  501    0  0.00000000000E+00  0.00000000000E+00  0.40406105945E+03  0.40406105945E+03  0.00000000000E+00 0. -1.
         -2   -1    0    0    0  501 -0.00000000000E+00 -0.00000000000E+00 -0.58460119475E+02  0.58460119475E+02  0.00000000000E+00 0.  1.
         23    2    1    2    0    0 -0.13165060228E+02  0.53606945242E+02  0.44744722790E+02  0.14384349538E+03  0.12506733209E+03 0.  0.
          5    1    3    3  502    0 -0.47300760685E+02  0.41800213356E+02 -0.22708350354E+02  0.67214294416E+02  0.41800000000E+01 0. -1.
         -5    1    3    3    0  502  0.34135700456E+02  0.11806731886E+02  0.67453073144E+02  0.76629200962E+02  0.41800000000E+01 0. -1.
        -11    1    1    2    0    0  0.22940983503E+02  0.16979836320E+02  0.46797830979E+02  0.54814601612E+02  0.00000000000E+00 0.  1.
         11    1    1    2    0    0 -0.97759232744E+01 -0.70586781562E+02  0.25405838621E+03  0.26386308194E+03  0.00000000000E+00 0. -1.
</event>
<event>
 7    1  0.6506388E-006  0.1181895E+03  0.7561462E-02  0.1246114E+00
          2   -1    0    0  501    0  0.00000000000E+00  0.00000000000E+00  0.38126357292E+03  0.38126357292E+03  0.00000000000E+00 0.  1.
         -2   -1    0    0    0  501 -0.00000000000E+00 -0.00000000000E+00 -0.55046921553E+02  0.55046921553E+02  0.00000000000E+00 0. -1.
         23    2    1    2    0    0 -0.12759509471E+02 -0.82879243356E+02  0.10851804281E+03  0.18562259569E+03  0.12509120015E+03 0.  0.
          5    1    3    3  502    0 -0.68080516939E+02 -0.56537818622E+02  0.55951216614E+02  0.10478307479E+03  0.41800000000E+01 0.  1.
         -5    1    3    3    0  502  0.55321007468E+02 -0.26341424734E+02  0.52566826196E+02  0.80839520908E+02  0.41800000000E+01 0.  1.
        -11    1    1    2    0    0  0.41107534350E-01  0.61455540965E+02  0.21724402352E+03  0.22576924273E+03  0.00000000000E+00 0.  1.
         11    1    1    2    0    0  0.12718401937E+02  0.21423702391E+02  0.45458503711E+00  0.24918656054E+02  0.00000000000E+00 0. -1.
</event>
<event>
 7    1  0.6506388E-006  0.8034871E+02  0.7561462E-02  0.1328065E+00
         -3   -1    0    0    0  501 -0.00000000000E+00  0.00000000000E+00  0.23650429253E+03  0.23650429253E+03  0.00000000000E+00 0. -1.
          3   -1    0    0  501    0  0.00000000000E+00 -0.00000000000E+00 -0.58811489628E+02  0.58811489628E+02  0.00000000000E+00 0.  1.
         23    2    1    2    0    0  0.31904919388E+01  0.45300471787E+02  0.10135045370E+03  0.16727181706E+03  0.12508251010E+03 0.  0.
          5    1    3    3  502    0 -0.38321748635E+02  0.19283326959E+02 -0.11127528354E+02  0.44516259999E+02  0.41800000000E+01 0. -1.
         -5    1    3    3    0  502  0.41512240573E+02  0.26017144828E+02  0.11247798205E+03  0.12275555706E+03  0.41800000000E+01 0. -1.
        -11    1    1    2    0    0  0.20456827428E+02 -0.38861034607E+02 -0.39505962600E+01  0.44093865899E+02  0.00000000000E+00 0.  1.
         11    1    1    2    0    0 -0.23647319367E+02 -0.64394371802E+01  0.80292945462E+02  0.83950099199E+02  0.00000000000E+00 0. -1.
</event>
<event>
 7    1  0.6506388E-006  0.1111465E+03  0.7561462E-02  0.1258461E+00
          1   -1    0    0  501    0  0.00000000000E+00  0.00000000000E+00  0.92601880860E+02  0.92601880860E+02  0.00000000000E+00 0. -1.
         -1   -1    0    0    0  501 -0.00000000000E+00 -0.00000000000E+00 -0.16115818454E+03  0.16115818454E+03  0.00000000000E+00 0.  1.
         23    2    1    2    0    0 -0.29285246893E+02 -0.25161106678E+02 -0.81373398014E+02  0.15413950045E+03  0.12508656491E+03 0.  0.
          5    1    3    3  502    0 -0.72118811600E+02  0.11668594382E+02 -0.35941453573E+02  0.81526312111E+02  0.41800000000E+01 0. -1.
         -5    1    3    3    0  502  0.42833564707E+02 -0.36829701060E+02 -0.45431944441E+02  0.72613188343E+02  0.41800000000E+01 0. -1.
        -11    1    1    2    0    0  0.33531118098E+02 -0.25192128891E+02 -0.11576934352E+02  0.43508673250E+02  0.00000000000E+00 0.  1.
         11    1    1    2    0    0 -0.42458712046E+01  0.50353235569E+02  0.24394028683E+02  0.56111891698E+02  0.00000000000E+00 0. -1.
</event>
<event>
 7    1  0.6506388E-006  0.2106070E+03  0.7561462E-02  0.1141086E+00
         -2   -1    0    0    0  501 -0.00000000000E+00  0.00000000000E+00  0.13285947378E+03  0.13285947378E+03  0.00000000000E+00 0.  1.
          2   -1    0    0  501    0  0.00000000000E+00 -0.00000000000E+00 -0.45540291473E+03  0.45540291473E+03  0.00000000000E+00 0. -1.
         23    2    1    2    0    0  0.61298109373E+02 -0.18090692155E+03 -0.32951902539E+02  0.23068504836E+03  0.12507993915E+03 0.  0.
          5    1    3    3  502    0  0.94641609707E+02 -0.91249276875E+02 -0.29896745063E+02  0.13488792601E+03  0.41800000000E+01 0.  1.
         -5    1    3    3    0  502 -0.33343500333E+02 -0.89657644679E+02 -0.30551574760E+01  0.95797122352E+02  0.41800000000E+01 0.  1.
        -11    1    1    2    0    0 -0.65367012726E+02  0.16409643246E+03 -0.29079623343E+03  0.34023952574E+03  0.00000000000E+00 0. -1.
         11    1    1    2    0    0  0.40689033528E+01  0.16810489099E+02  0.12046950283E+01  0.17337814405E+02  0.00000000000E+00 0.  1.
</event>
<event>
 7    1  0.6506388E-006  0.2281743E+03  0.7561462E-02  0.1127931E+00
         -1   -1    0    0    0  501 -0.00000000000E+00  0.00000000000E+00  0.19932580138E+03  0.19932580138E+03  0.00000000000E+00 0.  1.
          1   -1    0    0  501    0  0.00000000000E+00 -0.00000000000E+00 -0.27985381888E+03  0.27985381888E+03  0.00000000000E+00 0. -1.
         23    2    1    2    0    0 -0.16737389492E+03 -0.11027308053E+03 -0.10194564390E+03  0.25732258013E+03  0.12509125847E+03 0.  0.
          5    1    3    3  502    0 -0.38716719664E+01 -0.66142382211E+02 -0.36128462000E+02  0.75581364998E+02  0.41800000000E+01 0.  1.
         -5    1    3    3    0  502 -0.16350222295E+03 -0.44130698319E+02 -0.65817181900E+02  0.18174121513E+03  0.41800000000E+01 0.  1.
        -11    1    1    2    0    0  0.16862175632E+03  0.73803963073E+02  0.13821083233E+02  0.18458424638E+03  0.00000000000E+00 0.  1.
         11    1    1    2    0    0 -0.12478614018E+01  0.36469117457E+02  0.75965431712E+01  0.37272793755E+02  0.00000000000E+00 0. -1.
</event>
<event>
 7    1  0.6506388E-006  0.8719892E+02  0.7561462E-02  0.1309780E+00
         -4   -1    0    0    0  501 -0.00000000000E+00  0.00000000000E+00  0.59932823076E+02  0.59932823076E+02  0.00000000000E+00 0.  1.
          4   -1    0    0  501    0  0.00000000000E+00 -0.00000000000E+00 -0.19762507506E+03  0.19762507506E+03  0.00000000000E+00 0. -1.
         23    2    1    2    0    0 -0.17278767542E+01 -0.14898481768E+01 -0.59252678614E+02  0.13843650289E+03  0.12509428526E+03 0.  0.
          5    1    3    3  502    0  0.36102457213E+02 -0.24913518396E+02 -0.78307261225E+02  0.89853048786E+02  0.41800000000E+01 0.  1.
         -5    1    3    3    0  502 -0.37830333967E+02  0.23423670219E+02  0.19054582612E+02  0.48583454108E+02  0.41800000000E+01 0.  1.
        -11    1    1    2    0    0 -0.38837523192E+02 -0.15298242775E+02 -0.55917587780E+02  0.69779410021E+02  0.00000000000E+00 0.  1.
         11    1    1    2    0    0  0.40565399946E+02  0.16788090951E+02 -0.22521985592E+02  0.49341985222E+02  0.00000000000E+00 0. -1.
</event>
<event>
 7    1  0.6506388E-006  0.6381992E+02  0.7561462E-02  0.1382466E+00
         -3   -1    0    0    0  501 -0.00000000000E+00  0.00000000000E+00  0.27888588765E+03  0.27888588765E+03  0.00000000000E+00 0.  1.
          3   -1    0    0  501    0  0.00000000000E+00 -0.00000000000E+00 -0.45217524356E+02  0.45217524356E+02  0.00000000000E+00 0. -1.
         23    2    1    2    0    0  0.47031467464E+01 -0.30566184800E+02  0.14789752681E+03  0.19615836530E+03  0.12509202452E+03 0.  0.
          5    1    3    3  502    0  0.44297383209E+01  0.13070557780E+01 -0.22196031801E+02  0.23053572481E+02  0.41800000000E+01 0.  1.
         -5    1    3    3    0  502  0.27340842550E+00 -0.31873240578E+02  0.17009355861E+03  0.17310479282E+03  0.41800000000E+01 0.  1.
        -11    1    1    2    0    0  0.38476229550E+02  0.24613717419E+02  0.21990997615E+02  0.50693779714E+02  0.00000000000E+00 0. -1.
         11    1    1    2    0    0 -0.43179376296E+02  0.59524673812E+01  0.63779838878E+02  0.77251266996E+02  0.00000000000E+00 0.  1.
</event>
<event>
 7    1  0.6506388E-006  0.8759146E+02  0.7561462E-02  0.1308791E+00
          2   -1    0    0  501    0  0.00000000000E+00  0.00000000000E+00  0.10414468219E+03  0.10414468219E+03  0.00000000000E+00 0. -1.
         -2   -1    0    0    0  501 -0.00000000000E+00 -0.00000000000E+00 -0.14942627436E+03  0.14942627436E+03  0.00000000000E+00 0.  1.
         23    2    1    2    0    0  0.56245916662E+01  0.62047989969E+02 -0.25447060896E+02  0.14204438511E+03  0.12508982909E+03 0.  0.
          5    1    3    3  502    0 -0.38366340707E+02  0.48132861306E+02  0.30979400882E+02  0.69035817629E+02  0.41800000000E+01 0. -1.
         -5    1    3    3    0  502  0.43990932373E+02  0.13915128663E+02 -0.56426461778E+02  0.73008567480E+02  0.41800000000E+01 0. -1.
        -11    1    1    2    0    0 -0.12018376190E+02 -0.13027803302E+02  0.34058352974E+02  0.38394484401E+02  0.00000000000E+00 0. -1.
         11    1    1    2    0    0  0.63937845236E+01 -0.49020186668E+02 -0.53892884251E+02  0.73132087037E+02  0.00000000000E+00 0.  1.
</event>
<event>
 6    1  0.6506388E-006  0.1764231E+03  0.7561462E-02  0.1171310E+00
          2   -1    0    0  501    0  0.00000000000E+00  0.00000000000E+00  0.34166913889E+03  0.34166913889E+03  0.00000000000E+00 0. -1.
         -2   -1    0    0    0  501 -0.00000000000E+00 -0.00000000000E+00 -0.22028995579E+03  0.22028995579E+03  0.00000000000E+00 0.  1.
          5    1    1    2  502    0  0.10638011562E+03 -0.84077383739E+02  0.19224509689E+03  0.23529000220E+03  0.41800000000E+01 0. -1.
         -5    1    1    2    0  502  0.32030457670E+02  0.37770069545E+02 -0.13484371528E+03  0.14371091929E+03  0.41800000000E+01 0.  1.
        -11    1    1    2    0    0  0.64350859960E+01 -0.10159092175E+02  0.16480100819E+02  0.20401255074E+02  0.00000000000E+00 0.  1.
         11    1    1    2    0    0 -0.14484565928E+03  0.56466406369E+02  0.47497700667E+02  0.16255691813E+03  0.00000000000E+00 0. -1.
</event>
<event>
 7    1  0.6506388E-006  0.1139766E+03  0.7561462E-02  0.1253378E+00
         -2   -1    0    0    0  501 -0.00000000000E+00  0.00000000000E+00  0.30585847833E+02  0.30585847833E+02  0.00000000000E+00 0.  1.
          2   -1    0    0  501    0  0.00000000000E+00 -0.00000000000E+00 -0.52878349308E+03  0.52878349308E+03  0.00000000000E+00 0. -1.
         23    2    1    2    0    0  0.11207193650E+02 -0.51688704997E+02 -0.19490392564E+03  0.23786750364E+03  0.12568247946E+03 0.  0.
          5    1    3    3  502    0 -0.15931338599E+02  0.33404753408E+02 -0.10352145230E+03  0.11001749218E+03  0.41800000000E+01 0. -1.
         -5    1    3    3    0  502  0.27138532249E+02 -0.85093458405E+02 -0.91382473339E+02  0.12785001146E+03  0.41800000000E+01 0.  1.
        -11    1    1    2    0    0 -0.46080127267E+02  0.47486904647E+02 -0.14540101691E+03  0.15974930347E+03  0.00000000000E+00 0.  1.
         11    1    1    2    0    0  0.34872933617E+02  0.42018003494E+01 -0.15789270271E+03  0.16175253381E+03  0.00000000000E+00 0. -1.
</event>
<event>
 7    1  0.6506388E-006  0.1719838E+03  0.7561462E-02  0.1175795E+00
          2   -1    0    0  501    0  0.00000000000E+00  0.00000000000E+00  0.13445742308E+03  0.13445742308E+03  0.00000000000E+00 0. -1.
         -2   -1    0    0    0  501 -0.00000000000E+00 -0.00000000000E+00 -0.40526281244E+03  0.40526281244E+03  0.00000000000E+00 0.  1.
         23    2    1    2    0    0 -0.13567776546E+03 -0.51154375966E+02 -0.31204470199E+03  0.36612092089E+03  0.12508959370E+03 0.  0.
          5    1    3    3  502    0  0.16650070535E+02 -0.32295552155E+01 -0.95198652181E+02  0.96787967500E+02  0.41800000000E+01 0. -1.
         -5    1    3    3    0  502 -0.15232783600E+03 -0.47924820750E+02 -0.21684604981E+03  0.26933295339E+03  0.41800000000E+01 0. -1.
        -11    1    1    2    0    0  0.90982055280E+02  0.73336417635E+02  0.16873811913E+02  0.11807069943E+03  0.00000000000E+00 0.  1.
         11    1    1    2    0    0  0.44695710184E+02 -0.22182041669E+02  0.24365500721E+02  0.55528615207E+02  0.00000000000E+00 0. -1.
</event>
<event>
 7    1  0.6506388E-006  0.1217935E+03  0.7561462E-02  0.1240167E+00
         -2   -1    0    0    0  501 -0.00000000000E+00  0.00000000000E+00  0.49306459943E+02  0.49306459943E+02  0.00000000000E+00 0.  1.
          2   -1    0    0  501    0  0.00000000000E+00 -0.00000000000E+00 -0.36401308754E+03  0.36401308754E+03  0.00000000000E+00 0. -1.
         23    2    1    2    0    0  0.29623630700E+02  0.50850685799E+02 -0.99038779373E+02  0.17005806762E+03  0.12509082620E+03 0.  0.
          5    1    3    3  502    0 -0.43324542265E+02  0.37057174497E+02 -0.17674249841E+02  0.59833950660E+02  0.41800000000E+01 0.  1.
         -5    1    3    3    0  502  0.72948172965E+02  0.13793511302E+02 -0.81364529532E+02  0.11022411696E+03  0.41800000000E+01 0.  1.
        -11    1    1    2    0    0 -0.58483496832E+02 -0.57963371118E+02 -0.14825286758E+03  0.16958474147E+03  0.00000000000E+00 0. -1.
         11    1    1    2    0    0  0.28859866132E+02  0.71126853188E+01 -0.67414980638E+02  0.73676738392E+02  0.00000000000E+00 0.  1.
</event>
<event>
 7    1  0.6506388E-006  0.1384961E+03  0.7561462E-02  0.1215367E+00
          2   -1    0    0  501    0  0.00000000000E+00  0.00000000000E+00  0.26270076120E+03  0.26270076120E+03  0.00000000000E+00 0.  1.
         -2   -1    0    0    0  501 -0.00000000000E+00 -0.00000000000E+00 -0.11161801300E+03  0.11161801300E+03  0.00000000000E+00 0. -1.
         23    2    1    2    0    0  0.92818676046E+02  0.80660156865E+02  0.27350847508E+02  0.17752498416E+03  0.12508270710E+03 0.  0.
          5    1    3    3  502    0  0.83519064876E+02  0.22283584177E+02  0.64188739626E+02  0.10774812767E+03  0.41800000000E+01 0.  1.
         -5    1    3    3    0  502  0.92996111698E+01  0.58376572688E+02 -0.36837892118E+02  0.69776856495E+02  0.41800000000E+01 0.  1.
        -11    1    1    2    0    0 -0.60689842408E+02 -0.22463362814E+02  0.10599255128E+02  0.65575939564E+02  0.00000000000E+00 0. -1.
         11    1    1    2    0    0 -0.32128833637E+02 -0.58196794051E+02  0.11313264557E+03  0.13121785047E+03  0.00000000000E+00 0.  1.
</event>
<event>
 7    1  0.6506388E-006  0.1174745E+03  0.7561462E-02  0.1247322E+00
         -2   -1    0    0    0  501 -0.00000000000E+00  0.00000000000E+00  0.14507168225E+03  0.14507168225E+03  0.00000000000E+00 0.  1.
          2   -1    0    0  501    0  0.00000000000E+00 -0.00000000000E+00 -0.15055363839E+03  0.15055363839E+03  0.00000000000E+00 0. -1.
         23    2    1    2    0    0  0.30378726360E+02  0.56957250911E+02  0.73811603951E+02  0.15894347992E+03  0.12509149246E+03 0.  0.
          5    1    3    3  502    0 -0.41521667878E+02  0.48433905593E+01 -0.20707490860E+01  0.42062664409E+02  0.41800000000E+01 0.  1.
         -5    1    3    3    0  502  0.71900394237E+02  0.52113860352E+02  0.75882353037E+02  0.11688081551E+03  0.41800000000E+01 0.  1.
        -11    1    1    2    0    0 -0.28008230996E+02 -0.77993079774E+02 -0.39931828918E+02  0.91988762667E+02  0.00000000000E+00 0.  1.
         11    1    1    2    0    0 -0.23704953634E+01  0.21035828864E+02 -0.39361731176E+02  0.44693078049E+02  0.00000000000E+00 0. -1.
</event>
<event>
 7    1  0.6506388E-006  0.2122493E+03  0.7561462E-02  0.1139797E+00
         -2   -1    0    0    0  501 -0.00000000000E+00  0.00000000000E+00  0.47552023929E+02  0.47552023929E+02  0.00000000000E+00 0.  1.
          2   -1    0    0  501    0  0.00000000000E+00 -0.00000000000E+00 -0.13167491373E+04  0.13167491373E+04  0.00000000000E+00 0. -1.
         23    2    1    2    0    0 -0.17083484988E+03  0.99790881149E+02 -0.35897872474E+03  0.42855140490E+03  0.12509123043E+03 0.  0.
          5    1    3    3  502    0 -0.30935116787E+02  0.71085011899E+02 -0.20138903188E+03  0.21583575915E+03  0.41800000000E+01 0. -1.
         -5    1    3    3    0  502 -0.13989973310E+03  0.28705869249E+02 -0.15758969286E+03  0.21271564575E+03  0.41800000000E+01 0. -1.
        -11    1    1    2    0    0  0.88640948841E+02 -0.23173586473E+02 -0.25485726660E+03  0.27082551442E+03  0.00000000000E+00 0. -1.
         11    1    1    2    0    0  0.82193901042E+02 -0.76617294676E+02 -0.65536112208E+03  0.66492424196E+03  0.00000000000E+00 0.  1.
</event>
<event>
 6    1  0.6506388E-006  0.1279842E+03  0.7561462E-02  0.1230478E+00
          2   -1    0    0  501    0  0.00000000000E+00  0.00000000000E+00  0.62885201259E+03  0.62885201259E+03  0.00000000000E+00 0.  1.
         -2   -1    0    0    0  501 -0.00000000000E+00 -0.00000000000E+00 -0.50441297359E+02  0.50441297359E+02  0.00000000000E+00 0. -1.
          5    1    1    2  502    0 -0.86217635367E+02  0.21334283984E+02  0.12546260955E+03  0.15377571693E+03  0.41800000000E+01 0.  1.
         -5    1    1    2    0  502  0.37103689795E+02  0.36986730392E+02 -0.46705623315E+01  0.52763515557E+02  0.41800000000E+01 0. -1.
        -11    1    1    2    0    0  0.36210051610E+02 -0.80818846558E+02  0.39807628694E+03  0.40780826870E+03  0.00000000000E+00 0.  1.
         11    1    1    2    0    0  0.12903893963E+02  0.22497832182E+02  0.59542381083E+02  0.64945808774E+02  0.00000000000E+00 0. -1.
</event>
<event>
 7    1  0.6506388E-006  0.1038929E+03  0.7561462E-02  0.1272316E+00
         -2   -1    0    0    0  501 -0.00000000000E+00  0.00000000000E+00  0.80240407369E+02  0.80240407369E+02  0.00000000000E+00 0.  1.
          2   -1    0    0  501    0  0.00000000000E+00 -0.00000000000E+00 -0.22184031307E+03  0.22184031307E+03  0.00000000000E+00 0. -1.
         23    2    1    2    0    0 -0.11198702265E+01  0.47828179983E+02 -0.95114618535E+01  0.13426606583E+03  0.12509244428E+03 0.  0.
          5    1    3    3  502    0  0.48001550596E+02  0.43407772324E+01 -0.39073241780E+02  0.62186669229E+02  0.41800000000E+01 0.  1.
         -5    1    3    3    0  502 -0.49121420822E+02  0.43487402750E+02  0.29561779926E+02  0.72079396598E+02  0.41800000000E+01 0.  1.
        -11    1    1    2    0    0  0.20632417216E+02  0.16517681168E+02 -0.96652151854E+01  0.28141549637E+02  0.00000000000E+00 0.  1.
         11    1    1    2    0    0 -0.19512546990E+02 -0.64345861151E+02 -0.12242322866E+03  0.13967310497E+03  0.00000000000E+00 0. -1.
</event>
<event>
 7    1  0.6506388E-006  0.1178291E+03  0.7561462E-02  0.1246722E+00
         -2   -1    0    0    0  501 -0.00000000000E+00  0.00000000000E+00  0.30324607441E+03  0.30324607441E+03  0.00000000000E+00 0.  1.
          2   -1    0    0  501    0  0.00000000000E+00 -0.00000000000E+00 -0.67890746574E+02  0.67890746574E+02  0.00000000000E+00 0. -1.
         23    2    1    2    0    0  0.49211838758E+02  0.37189186669E+01  0.23189653274E+03  0.26806579229E+03  0.12509049392E+03 0.  0.
          5    1    3    3  502    0 -0.41573317526E+02  0.35417145117E+01  0.93817233645E+02  0.10276200757E+03  0.41800000000E+01 0. -1.
         -5    1    3    3    0  502  0.90785156284E+02  0.17720415522E+00  0.13807929909E+03  0.16530378471E+03  0.41800000000E+01 0. -1.
        -11    1    1    2    0    0 -0.72661280042E+02  0.13301198536E+02 -0.17490156697E+00  0.73868897991E+02  0.00000000000E+00 0. -1.
         11    1    1    2    0    0  0.23449441284E+02 -0.17020117203E+02  0.36336966628E+01  0.29202130702E+02  0.00000000000E+00 0.  1.
</event>
<event>
 7    1  0.6506388E-006  0.1930648E+03  0.7561462E-02  0.1155726E+00
          2   -1    0    0  501    0  0.00000000000E+00  0.00000000000E+00  0.56650735261E+02  0.56650735261E+02  0.00000000000E+00 0. -1.
         -2   -1    0    0    0  501 -0.00000000000E+00 -0.00000000000E+00 -0.12370699854E+04  0.12370699854E+04  0.00000000000E+00 0.  1.
         23    2    1    2    0    0  0.97782081699E+02  0.14791829862E+03 -0.10060055683E+04  0.10291483256E+04  0.12513158710E+03 0.  0.
          5    1    3    3  502    0  0.10582211171E+03  0.15018918084E+03 -0.72305693929E+03  0.74604552088E+03  0.41800000000E+01 0.  1.
         -5    1    3    3    0  502 -0.80400300079E+01 -0.22708822193E+01 -0.28294862905E+03  0.28310280477E+03  0.41800000000E+01 0.  1.
        -11    1    1    2    0    0 -0.67698668285E+02 -0.35105598785E+02 -0.10136803365E+03  0.12685027000E+03  0.00000000000E+00 0. -1.
         11    1    1    2    0    0 -0.30083413414E+02 -0.11281269983E+03 -0.73045648171E+02  0.13772212503E+03  0.00000000000E+00 0.  1.
</event>
<event>
 6    1  0.6506388E-006  0.1880925E+03  0.7561462E-02  0.1160193E+00
          2   -1    0    0  501    0  0.00000000000E+00  0.00000000000E+00  0.14867912492E+04  0.14867912492E+04  0.00000000000E+00 0. -1.
         -2   -1    0    0    0  501 -0.00000000000E+00 -0.00000000000E+00 -0.40718042254E+02  0.40718042254E+02  0.00000000000E+00 0.  1.
          5    1    1    2  502    0  0.89343589321E+02 -0.70603954779E+01  0.34906489886E+03  0.36041074089E+03  0.41800000000E+01 0. -1.
         -5    1    1    2    0  502  0.86900565101E+02 -0.14461555894E+02  0.50209096165E+02  0.10148532185E+03  0.41800000000E+01 0.  1.
        -11    1    1    2    0    0 -0.18326066059E+03  0.31625814081E+02  0.10041399728E+04  0.10212158179E+04  0.00000000000E+00 0. -1.
         11    1    1    2    0    0  0.70165061675E+01 -0.10103862709E+02  0.42659239175E+02  0.44397410819E+02  0.00000000000E+00 0.  1.
</event>
<event>
 7    1  0.6506388E-006  0.2291362E+03  0.7561462E-02  0.1127249E+00
          2   -1    0    0  501    0  0.00000000000E+00  0.00000000000E+00  0.58981265946E+03  0.58981265946E+03  0.00000000000E+00 0. -1.
         -2   -1    0    0    0  501 -0.00000000000E+00 -0.00000000000E+00 -0.89542793471E+02  0.89542793471E+02  0.00000000000E+00 0.  1.
         23    2    1    2    0    0 -0.84567393407E+02 -0.18375501171E+03  0.27027746980E+03  0.36001768438E+03  0.12508106982E+03 0.  0.
          5    1    3    3  502    0 -0.80633598483E+01 -0.15594223489E+03  0.17229863102E+03  0.23256674105E+03  0.41800000000E+01 0.  1.
         -5    1    3    3    0  502 -0.76504033558E+02 -0.27812776822E+02  0.97978838789E+02  0.12745094333E+03  0.41800000000E+01 0.  1.
        -11    1    1    2    0    0  0.84957805769E+02  0.79668033148E+02  0.10638167534E+03  0.15773992873E+03  0.00000000000E+00 0.  1.
         11    1    1    2    0    0 -0.39041236216E+00  0.10408697856E+03  0.12361072085E+03  0.16159783982E+03  0.00000000000E+00 0. -1.
</event>
<event>
 7    1  0.6506388E-006  0.8066307E+02  0.7561462E-02  0.1327180E+00
          2   -1    0    0  501    0  0.00000000000E+00  0.00000000000E+00  0.24086630286E+03  0.24086630286E+03  0.00000000000E+00 0. -1.
         -2   -1    0    0    0  501 -0.00000000000E+00 -0.00000000000E+00 -0.52424795564E+02  0.52424795564E+02  0.00000000000E+00 0.  1.
         23    2    1    2    0    0 -0.22751163555E+02 -0.72818446362E+01  0.77771163115E+02  0.14922004861E+03  0.12509048081E+03 0.  0.
          5    1    3    3  502    0 -0.64726066709E+02 -0.12864845116E+02  0.83253081983E+02  0.10631799477E+03  0.41800000000E+01 0. -1.
         -5    1    3    3    0  502  0.41974903155E+02  0.55830004795E+01 -0.54819188673E+01  0.42902053840E+02  0.41800000000E+01 0. -1.
        -11    1    1    2    0    0  0.30203090150E+02 -0.11598535072E+02  0.11810365030E+03  0.12245499126E+03  0.00000000000E+00 0. -1.
         11    1    1    2    0    0 -0.74519265952E+01  0.18880379708E+02 -0.74333061155E+01  0.21616058561E+02  0.00000000000E+00 0.  1.
</event>
<event>
 7    1  0.6506388E-006  0.2291565E+03  0.7561462E-02  0.1127235E+00
         -4   -1    0    0    0  501 -0.00000000000E+00  0.00000000000E+00  0.11984840953E+03  0.11984840953E+03  0.00000000000E+00 0.  1.
          4   -1    0    0  501    0  0.00000000000E+00 -0.00000000000E+00 -0.49344010566E+03  0.49344010566E+03  0.00000000000E+00 0. -1.
         23    2    1    2    0    0 -0.93550584445E+02 -0.19402352147E+03 -0.24228956233E+03  0.34496521275E+03  0.11789795272E+03 0.  0.
          5    1    3    3  502    0 -0.64630239461E+02 -0.56670965476E+02 -0.16139323973E+03  0.18290411809E+03  0.41800000000E+01 0. -1.
         -5    1    3    3    0  502 -0.28920344984E+02 -0.13735255600E+03 -0.80896322597E+02  0.16206109466E+03  0.41800000000E+01 0.  1.
        -11    1    1    2    0    0  0.95423553408E+02  0.10159972541E+03 -0.60821140641E+02  0.15207685523E+03  0.00000000000E+00 0. -1.
         11    1    1    2    0    0 -0.18729689628E+01  0.92423796061E+02 -0.70480993160E+02  0.11624644721E+03  0.00000000000E+00 0.  1.
</event>
<event>
 7    1  0.6506388E-006  0.1039248E+03  0.7561462E-02  0.1272253E+00
          1   -1    0    0  501    0  0.00000000000E+00  0.00000000000E+00  0.31123965090E+03  0.31123965090E+03  0.00000000000E+00 0. -1.
         -1   -1    0    0    0  501 -0.00000000000E+00 -0.00000000000E+00 -0.39221455376E+02  0.39221455376E+02  0.00000000000E+00 0.  1.
         23    2    1    2    0    0  0.15287395549E+02 -0.10890092875E+01  0.12572520204E+03  0.17801431705E+03  0.12508948893E+03 0.  0.
          5    1    3    3  502    0  0.47018059624E+02 -0.43160575496E+02  0.10125306876E+03  0.11976305583E+03  0.41800000000E+01 0.  1.
         -5    1    3    3    0  502 -0.31730664075E+02  0.42071566209E+02  0.24472133276E+02  0.58251261214E+02  0.41800000000E+01 0.  1.
        -11    1    1    2    0    0 -0.52433988539E+02 -0.73153145925E+01  0.78404886630E+02  0.94605302331E+02  0.00000000000E+00 0.  1.
         11    1    1    2    0    0  0.37146592990E+02  0.84043238800E+01  0.67888106856E+02  0.77841486902E+02  0.00000000000E+00 0. -1.
</event>
<event>
 7    1  0.6506388E-006  0.1580828E+03  0.7561462E-02  0.1190878E+00
         -1   -1    0    0    0  501 -0.00000000000E+00  0.00000000000E+00  0.14297898027E+03  0.14297898027E+03  0.00000000000E+00 0.  1.
          1   -1    0    0  501    0  0.00000000000E+00 -0.00000000000E+00 -0.28359444067E+03  0.28359444067E+03  0.00000000000E+00 0. -1.
         23    2    1    2    0    0  0.14154733098E+03 -0.34348441514E+02  0.17346176689E+02  0.19277935483E+03  0.12509007739E+03 0.  0.
          5    1    3    3  502    0  0.27938045516E+02 -0.74396562006E+01  0.61341869908E+02  0.67942477696E+02  0.41800000000E+01 0.  1.
         -5    1    3    3    0  502  0.11360928547E+03 -0.26908785313E+02 -0.43995693219E+02  0.12483687714E+03  0.41800000000E+01 0.  1.
        -11    1    1    2    0    0 -0.39279591266E+02  0.53205784411E+02 -0.43558607939E+02  0.79190239995E+02  0.00000000000E+00 0.  1.
         11    1    1    2    0    0 -0.10226773972E+03 -0.18857342897E+02 -0.11440302916E+03  0.15460382611E+03  0.00000000000E+00 0. -1.
</event>
<event>
 7    1  0.6506388E-006  0.9245275E+02  0.7561462E-02  0.1297018E+00
          2   -1    0    0  501    0  0.00000000000E+00  0.00000000000E+00  0.17710099268E+03  0.17710099268E+03  0.00000000000E+00 0. -1.
         -2   -1    0    0    0  501 -0.00000000000E+00 -0.00000000000E+00 -0.71547040650E+02  0.71547040650E+02  0.00000000000E+00 0.  1.
         23    2    1    2    0    0 -0.35189964777E+01  0.23485650604E+02  0.38877771734E+02  0.13312100255E+03  0.12508301669E+03 0.  0.
          5    1    3    3  502    0  0.56847694844E+02  0.13214254218E+02  0.41423564732E+02  0.71691429325E+02  0.41800000000E+01 0.  1.
         -5    1    3    3    0  502 -0.60366691322E+02  0.10271396386E+02 -0.25457929976E+01  0.61429573227E+02  0.41800000000E+01 0.  1.
        -11    1    1    2    0    0  0.33291126743E+01 -0.44187720724E+02 -0.14377872787E+01  0.44336270549E+02  0.00000000000E+00 0.  1.
         11    1    1    2    0    0  0.18988380338E+00  0.20702070119E+02  0.68113967580E+02  0.71190760233E+02  0.00000000000E+00 0. -1.
</event>
<event>
 7    1  0.6506388E-006  0.9214368E+02  0.7561462E-02  0.1297742E+00
          2   -1    0    0  501    0  0.00000000000E+00  0.00000000000E+00  0.11572117557E+03  0.11572117557E+03  0.00000000000E+00 0. -1.
         -2   -1    0    0    0  501 -0.00000000000E+00 -0.00000000000E+00 -0.15225102346E+03  0.15225102346E+03  0.00000000000E+00 0.  1.
         23    2    1    2    0    0 -0.72168108121E+02  0.11219645474E+02 -0.28652966084E+02  0.14765394998E+03  0.12508629104E+03 0.  0.
          5    1    3    3  502    0 -0.11832445898E+02  0.41675696264E+02 -0.59108884784E+02  0.73404380629E+02  0.41800000000E+01 0.  1.
         -5    1    3    3    0  502 -0.60335662223E+02 -0.30456050791E+02  0.30455918700E+02  0.74249569356E+02  0.41800000000E+01 0.  1.
        -11    1    1    2    0    0  0.48214762949E+02 -0.68527549135E+01  0.42326216667E+02  0.64522339027E+02  0.00000000000E+00 0. -1.
         11    1    1    2    0    0  0.23953345172E+02 -0.43668905601E+01 -0.50203098471E+02  0.55795910014E+02  0.00000000000E+00 0.  1.
</event>
<event>
 7    1  0.6506388E-006  0.1669412E+03  0.7561462E-02  0.1181076E+00
         -2   -1    0    0    0  501 -0.00000000000E+00  0.00000000000E+00  0.37079200545E+02  0.37079200545E+02  0.00000000000E+00 0.  1.
          2   -1    0    0  501    0  0.00000000000E+00 -0.00000000000E+00 -0.80286586477E+03  0.80286586477E+03  0.00000000000E+00 0. -1.
         23    2    1    2    0    0 -0.13259073505E+03 -0.16811600329E+02 -0.39442488983E+03  0.43483416810E+03  0.12508727793E+03 0.  0.
          5    1    3    3  502    0 -0.73862446103E+00 -0.38214084344E+02 -0.37494422093E+02  0.53704430883E+02  0.41800000000E+01 0. -1.
         -5    1    3    3    0  502 -0.13185211059E+03  0.21402484015E+02 -0.35693046774E+03  0.38112973721E+03  0.41800000000E+01 0. -1.
        -11    1    1    2    0    0  0.64731917006E+01  0.33906779167E+02 -0.73805115197E+02  0.81478628569E+02  0.00000000000E+00 0.  1.
         11    1    1    2    0    0  0.12611754335E+03 -0.17095178838E+02 -0.29755665920E+03  0.32363226865E+03  0.00000000000E+00 0. -1.
</event>
<event>
 7    1  0.6506388E-006  0.1205276E+03  0.7561462E-02  0.1242229E+00
         -2   -1    0    0    0  501 -0.00000000000E+00  0.00000000000E+00  0.57554543170E+02  0.57554543170E+02  0.00000000000E+00 0.  1.
          2   -1    0    0  501    0  0.00000000000E+00 -0.00000000000E+00 -0.35663097767E+03  0.35663097767E+03  0.00000000000E+00 0. -1.
         23    2    1    2    0    0 -0.78274414335E+02 -0.49320121214E+02 -0.14279123095E+03  0.21122263624E+03  0.12516512344E+03 0.  0.
          5    1    3    3  502    0  0.17648675015E+02 -0.39279257545E+02 -0.93066512937E+02  0.10263130143E+03  0.41800000000E+01 0.  1.
         -5    1    3    3    0  502 -0.95923089350E+02 -0.10040863668E+02 -0.49724718018E+02  0.10859133481E+03  0.41800000000E+01 0.  1.
        -11    1    1    2    0    0  0.47089880185E+02  0.54150454743E+01 -0.11913833681E+02  0.48874522671E+02  0.00000000000E+00 0.  1.
         11    1    1    2    0    0  0.31184534150E+02  0.43905075739E+02 -0.14437136987E+03  0.15408836193E+03  0.00000000000E+00 0. -1.
</event>
<event>
 6    1  0.6506388E-006  0.1187926E+03  0.7561462E-02  0.1245102E+00
         -2   -1    0    0    0  501 -0.00000000000E+00  0.00000000000E+00  0.12918160991E+03  0.12918160991E+03  0.00000000000E+00 0.  1.
          2   -1    0    0  501    0  0.00000000000E+00 -0.00000000000E+00 -0.27984993199E+03  0.27984993199E+03  0.00000000000E+00 0. -1.
          5    1    1    2  502    0 -0.61867593498E+02  0.53242072390E+02 -0.12097625906E+02  0.82620471738E+02  0.41800000000E+01 0. -1.
         -5    1    1    2    0  502  0.54472819190E+00 -0.45445252728E+02  0.73820085686E+02  0.86789660530E+02  0.41800000000E+01 0.  1.
        -11    1    1    2    0    0  0.68705546423E+02  0.27610615170E+02 -0.15510286295E+03  0.17187116185E+03  0.00000000000E+00 0. -1.
         11    1    1    2    0    0 -0.73826811160E+01 -0.35407434832E+02 -0.57287918913E+02  0.67750247788E+02  0.00000000000E+00 0.  1.
</event>
<event>
 7    1  0.6506388E-006  0.1115898E+03  0.7561462E-02  0.1257654E+00
          1   -1    0    0  501    0  0.00000000000E+00  0.00000000000E+00  0.10727348501E+03  0.10727348501E+03  0.00000000000E+00 0. -1.
         -1   -1    0    0    0  501 -0.00000000000E+00 -0.00000000000E+00 -0.12617767084E+03  0.12617767084E+03  0.00000000000E+00 0.  1.
         23    2    1    2    0    0 -0.11640198668E+02  0.37138519934E+02 -0.25818538208E+02  0.13352251606E+03  0.12508757529E+03 0.  0.
          5    1    3    3  502    0  0.52458773110E+02  0.86566605208E+01 -0.33275269269E+02  0.62861566895E+02  0.41800000000E+01 0.  1.
         -5    1    3    3    0  502 -0.64098971778E+02  0.28481859414E+02  0.74567310610E+01  0.70660949164E+02  0.41800000000E+01 0.  1.
        -11    1    1    2    0    0  0.32524597069E+02  0.20384084659E+02  0.49334143497E+01  0.38700114974E+02  0.00000000000E+00 0.  1.
         11    1    1    2    0    0 -0.20884398401E+02 -0.57522604594E+02  0.19809380265E+01  0.61228524817E+02  0.00000000000E+00 0. -1.
</event>
<event>
 7    1  0.6506388E-006  0.1128614E+03  0.7561462E-02  0.1255361E+00
         -1   -1    0    0    0  501 -0.00000000000E+00  0.00000000000E+00  0.61320339702E+02  0.61320339702E+02  0.00000000000E+00 0.  1.
          1   -1    0    0  501    0  0.00000000000E+00 -0.00000000000E+00 -0.36226519931E+03  0.36226519931E+03  0.00000000000E+00 0. -1.
         23    2    1    2    0    0 -0.22852049022E+02 -0.80209196568E+02 -0.82708783475E+02  0.17244275090E+03  0.12625382416E+03 0.  0.
          5    1    3    3  502    0 -0.53534521949E+02 -0.70384953403E+02 -0.10168215577E+03  0.13482106626E+03  0.41800000000E+01 0. -1.
         -5    1    3    3    0  502  0.30682472927E+02 -0.98242431654E+01  0.18973372293E+02  0.37621684636E+02  0.41800000000E+01 0.  1.
        -11    1    1    2    0    0 -0.30082689822E+01  0.78747416736E+02 -0.20946151236E+03  0.22379528700E+03  0.00000000000E+00 0. -1.
         11    1    1    2    0    0  0.25860318004E+02  0.14617798326E+01 -0.87745637703E+01  0.27347501109E+02  0.00000000000E+00 0.  1.
</event>
<event>
 6    1  0.6506388E-006  0.1089454E+03  0.7561462E-02  0.1262535E+00
          1   -1    0    0  501    0  0.00000000000E+00  0.00000000000E+00  0.29235144778E+03  0.29235144778E+03  0.00000000000E+00 0. -1.
         -1   -1    0    0    0  501 -0.00000000000E+00 -0.00000000000E+00 -0.12614154237E+03  0.12614154237E+03  0.00000000000E+00 0.  1.
          5    1    1    2  502    0 -0.83709683512E+02 -0.26480389924E+02 -0.10021513960E+02  0.88467086005E+02  0.41800000000E+01 0. -1.
         -5    1    1    2    0  502  0.36872788929E+02  0.14164833443E+02 -0.59923733189E+02  0.71892776196E+02  0.41800000000E+01 0.  1.
        -11    1    1    2    0    0 -0.76862692539E+01  0.31537286037E+02  0.30625256665E+02  0.44627183324E+02  0.00000000000E+00 0. -1.
         11    1    1    2    0    0  0.54523163836E+02 -0.19221729556E+02  0.20552989590E+03  0.21350594463E+03  0.00000000000E+00 0.  1.
</event>
<event>
 7    1  0.6506388E-006  0.6364275E+02  0.7561462E-02  0.1383151E+00
         -1   -1    0    0    0  501 -0.00000000000E+00  0.00000000000E+00  0.53087298697E+02  0.53087298697E+02  0.00000000000E+00 0.  1.
          1   -1    0    0  501    0  0.00000000000E+00 -0.00000000000E+00 -0.25788852060E+03  0.25788852060E+03  0.00000000000E+00 0. -1.
         23    2    1    2    0    0 -0.10903914473E+02  0.28557392303E+02 -0.65799406174E+02  0.14460575328E+03  0.12508733758E+03 0.  0.
          5    1    3    3  502    0 -0.17586145610E+02  0.15754244661E+02  0.35146335252E+02  0.42546516002E+02  0.41800000000E+01 0. -1.
         -5    1    3    3    0  502  0.66822311374E+01  0.12803147642E+02 -0.10094574143E+03  0.10205923728E+03  0.41800000000E+01 0. -1.
        -11    1    1    2    0    0 -0.35013888113E+02 -0.16516750719E+01 -0.77369984103E+02  0.84940066114E+02  0.00000000000E+00 0. -1.
         11    1    1    2    0    0  0.45917802586E+02 -0.26905717231E+02 -0.61631831627E+02  0.81429999900E+02  0.00000000000E+00 0.  1.
</event>
<event>
 7    1  0.6506388E-006  0.1186851E+03  0.7561462E-02  0.1245282E+00
          1   -1    0    0  501    0  0.00000000000E+00  0.00000000000E+00  0.78019878209E+03  0.78019878209E+03  0.00000000000E+00 0. -1.
         -1   -1    0    0    0  501 -0.00000000000E+00 -0.00000000000E+00 -0.21642453684E+02  0.21642453684E+02  0.00000000000E+00 0.  1.
         23    2    1    2    0    0 -0.87924481241E+01  0.69251520200E+02  0.44785902751E+03  0.47021095555E+03  0.12509018347E+03 0.  0.
          5    1    3    3  502    0 -0.72744322362E+01  0.95427795530E+02  0.42343017937E+03  0.43413128283E+03  0.41800000000E+01 0.  1.
         -5    1    3    3    0  502 -0.15180158879E+01 -0.26176275330E+02  0.24428848134E+02  0.36079672719E+02  0.41800000000E+01 0.  1.
        -11    1    1    2    0    0 -0.20837037544E+02  0.15025323126E+02  0.53219909195E+02  0.59095695303E+02  0.00000000000E+00 0.  1.
         11    1    1    2    0    0  0.29629485668E+02 -0.84276843325E+02  0.25747739170E+03  0.27253458493E+03  0.00000000000E+00 0. -1.
</event>
<event>
 7    1  0.6506388E-006  0.9752342E+02  0.7561462E-02  0.1285592E+00
         -3   -1    0    0    0  501 -0.00000000000E+00  0.00000000000E+00  0.21713833803E+02  0.21713833803E+02  0.00000000000E+00 0.  1.
          3   -1    0    0  501    0  0.00000000000E+00 -0.00000000000E+00 -0.56987310270E+03  0.56987310270E+03  0.00000000000E+00 0. -1.
         23    2    1    2    0    0  0.21232146302E+02  0.24209487668E+01 -0.29833013028E+03  0.32419847838E+03  0.12508845561E+03 0.  0.
          5    1    3    3  502    0  0.64309440396E+02 -0.16725317763E+02 -0.24010904039E+03  0.24916914748E+03  0.41800000000E+01 0.  1.
         -5    1    3    3    0  502 -0.43077294095E+02  0.19146266529E+02 -0.58221089889E+02  0.75029330907E+02  0.41800000000E+01 0.  1.
        -11    1    1    2    0    0 -0.49329394657E+02  0.10145338670E+02 -0.78147863846E+02  0.92969918241E+02  0.00000000000E+00 0.  1.
         11    1    1    2    0    0  0.28097248355E+02 -0.12566287436E+02 -0.17168127477E+03  0.17441853988E+03  0.00000000000E+00 0. -1.
</event>
<event>
 7    1  0.6506388E-006  0.9519376E+02  0.7561462E-02  0.1290740E+00
         -2   -1    0    0    0  501 -0.00000000000E+00  0.00000000000E+00  0.43836715170E+03  0.43836715170E+03  0.00000000000E+00 0.  1.
          2   -1    0    0  501    0  0.00000000000E+00 -0.00000000000E+00 -0.39117695051E+02  0.39117695051E+02  0.00000000000E+00 0. -1.
         23    2    1    2    0    0  0.36065110168E+02 -0.29864459823E+02  0.33470358057E+03  0.36036989345E+03  0.12508954844E+03 0.  0.
          5    1    3    3  502    0 -0.75142765848E+01 -0.70130806975E+02  0.14056880512E+03  0.15732722527E+03  0.41800000000E+01 0. -1.
         -5    1    3    3    0  502  0.43579386753E+02  0.40266347152E+02  0.19413477545E+03  0.20304266818E+03  0.41800000000E+01 0. -1.
        -11    1    1    2    0    0 -0.34842346301E+02  0.48178095795E+01  0.80185654311E+02  0.87561061792E+02  0.00000000000E+00 0.  1.
         11    1    1    2    0    0 -0.12227638663E+01  0.25046650244E+02 -0.15639778233E+02  0.29553891504E+02  0.00000000000E+00 0. -1.
</event>
<event>
 7    1  0.6506388E-006  0.8343729E+02  0.7561462E-02  0.1319571E+00
         -2   -1    0    0    0  501 -0.00000000000E+00  0.00000000000E+00  0.53299893854E+02  0.53299893854E+02  0.00000000000E+00 0.  1.
          2   -1    0    0  501    0  0.00000000000E+00 -0.00000000000E+00 -0.38503234135E+03  0.38503234135E+03  0.00000000000E+00 0. -1.
         23    2    1    2    0    0 -0.52345015574E+02 -0.76309522044E+01 -0.62017803722E+02  0.14930344970E+03  0.12508828892E+03 0.  0.
          5    1    3    3  502    0  0.11396085426E+02 -0.10506158869E+02 -0.81021440557E+02  0.82596588108E+02  0.41800000000E+01 0. -1.
         -5    1    3    3    0  502 -0.63741101000E+02  0.28752066647E+01  0.19003636835E+02  0.66706861589E+02  0.41800000000E+01 0. -1.
        -11    1    1    2    0    0  0.26075804844E+02  0.38402539913E+02 -0.62226465835E+02  0.77632697495E+02  0.00000000000E+00 0.  1.
         11    1    1    2    0    0  0.26269210729E+02 -0.30771587708E+02 -0.20748817794E+03  0.21139608801E+03  0.00000000000E+00 0. -1.
</event>
<event>
 7    1  0.6506388E-006  0.7638281E+02  0.7561462E-02  0.1339642E+00
          1   -1    0    0  501    0  0.00000000000E+00  0.00000000000E+00  0.79239709479E+03  0.79239709479E+03  0.00000000000E+00 0. -1.
         -1   -1    0    0    0  501 -0.00000000000E+00 -0.00000000000E+00 -0.19278579053E+02  0.19278579053E+02  0.00000000000E+00 0.  1.
         23    2    1    2    0    0  0.72616690914E+01 -0.58422005044E+02  0.43018533630E+03  0.45185479524E+03  0.12508984730E+03 0.  0.
          5    1    3    3  502    0  0.12989213749E+01 -0.42243839281E+02  0.43194354729E+03  0.43402641579E+03  0.41800000000E+01 0. -1.
         -5    1    3    3    0  502  0.59627477165E+01 -0.16178165763E+02 -0.17582109917E+01  0.17828379447E+02  0.41800000000E+01 0. -1.
        -11    1    1    2    0    0 -0.33322718829E+02  0.57522729673E+02  0.31361758518E+03  0.32058580404E+03  0.00000000000E+00 0.  1.
         11    1    1    2    0    0  0.26061049738E+02  0.89927537065E+00  0.29315594258E+02  0.39235074568E+02  0.00000000000E+00 0. -1.
</event>
<event>
 7    1  0.6506388E-006  0.1519677E+03  0.7561462E-02  0.1198076E+00
          1   -1    0    0  501    0  0.00000000000E+00  0.00000000000E+00  0.79147759396E+02  0.79147759396E+02  0.00000000000E+00 0. -1.
         -1   -1    0    0    0  501 -0.00000000000E+00 -0.00000000000E+00 -0.40633028981E+03  0.40633028981E+03  0.00000000000E+00 0.  1.
         23    2    1    2    0    0  0.16281260842E+02 -0.10959720865E+03 -0.29125660466E+03  0.33578918161E+03  0.12508931661E+03 0.  0.
          5    1    3    3  502    0  0.11371995664E+02  0.25804837069E+02 -0.29550802129E+02  0.41060129176E+02  0.41800000000E+01 0. -1.
         -5    1    3    3    0  502  0.49092651781E+01 -0.13540204572E+03 -0.26170580253E+03  0.29472905243E+03  0.41800000000E+01 0. -1.
        -11    1    1    2    0    0  0.35199218695E+02  0.39602619818E+02  0.58008936810E+01  0.53301058721E+02  0.00000000000E+00 0. -1.
         11    1    1    2    0    0 -0.51480479537E+02  0.69994588834E+02 -0.41726819431E+02  0.96387808872E+02  0.00000000000E+00 0.  1.
</event>
<event>
 7    1  0.6506388E-006  0.1203788E+03  0.7561462E-02  0.1242473E+00
          1   -1    0    0  501    0  0.00000000000E+00  0.00000000000E+00  0.23725567538E+03  0.23725567538E+03  0.00000000000E+00 0. -1.
         -1   -1    0    0    0  501 -0.00000000000E+00 -0.00000000000E+00 -0.66150840534E+02  0.66150840534E+02  0.00000000000E+00 0.  1.
         23    2    1    2    0    0 -0.61153917583E+02  0.11030608359E+02  0.80029272250E+02  0.16097632462E+03  0.12508883530E+03 0.  0.
          5    1    3    3  502    0 -0.27664218131E+02  0.63200685107E+02  0.14402212219E+02  0.70601215851E+02  0.41800000000E+01 0. -1.
         -5    1    3    3    0  502 -0.33489699451E+02 -0.52170076748E+02  0.65627060031E+02  0.90375108772E+02  0.41800000000E+01 0. -1.
        -11    1    1    2    0    0 -0.75894168465E+01  0.28986451041E+02  0.24826042843E+02  0.38912028928E+02  0.00000000000E+00 0. -1.
         11    1    1    2    0    0  0.68743334429E+02 -0.40017059400E+02  0.66249519751E+02  0.10351816236E+03  0.00000000000E+00 0.  1.
</event>
<event>
 7    1  0.6506388E-006  0.1190548E+03  0.7561462E-02  0.1244664E+00
         -1   -1    0    0    0  501 -0.00000000000E+00  0.00000000000E+00  0.10695903509E+03  0.10695903509E+03  0.00000000000E+00 0.  1.
          1   -1    0    0  501    0  0.00000000000E+00 -0.00000000000E+00 -0.16482989236E+03  0.16482989236E+03  0.00000000000E+00 0. -1.
         23    2    1    2    0    0  0.58800881162E+02  0.43090551933E+02 -0.16354593572E+02  0.14570566629E+03  0.12509328186E+03 0.  0.
          5    1    3    3  502    0  0.91721541828E+02  0.26992069749E+01 -0.37533926761E+01  0.91933058853E+02  0.41800000000E+01 0. -1.
         -5    1    3    3    0  502 -0.32920660666E+02  0.40391344958E+02 -0.12601200896E+02  0.53772607434E+02  0.41800000000E+01 0. -1.
        -11    1    1    2    0    0 -0.45434967996E+01  0.14297297435E+02 -0.44591378739E+02  0.47047286159E+02  0.00000000000E+00 0. -1.
         11    1    1    2    0    0 -0.54257384362E+02 -0.57387849368E+02  0.30751150413E+01  0.79035975008E+02  0.00000000000E+00 0.  1.
</event>
<event>
 7    1  0.6506388E-006  0.1262302E+03  0.7561462E-02  0.1233159E+00
          1   -1    0    0  501    0  0.00000000000E+00  0.00000000000E+00  0.18373774343E+02  0.18373774343E+02  0.00000000000E+00 0. -1.
         -1   -1    0    0    0  501 -0.00000000000E+00 -0.00000000000E+00 -0.15583986127E+04  0.15583986127E+04  0.00000000000E+00 0.  1.
         23    2    1    2    0    0 -0.63027418228E+02 -0.96532081320E+02 -0.10940162090E+04  0.11071618511E+04  0.12507997782E+03 0.  0.
          5    1    3    3  502    0 -0.66953965086E+01 -0.25028894845E+02 -0.77347192028E+03  0.77391702254E+03  0.41800000000E+01 0.  1.
         -5    1    3    3    0  502 -0.56332021719E+02 -0.71503186475E+02 -0.32054428874E+03  0.33324482860E+03  0.41800000000E+01 0.  1.
        -11    1    1    2    0    0 -0.15366410710E+02  0.10014578563E+02 -0.17032322304E+02  0.25030348878E+02  0.00000000000E+00 0. -1.
         11    1    1    2    0    0  0.78393828938E+02  0.86517502757E+02 -0.42897630707E+03  0.44458018706E+03  0.00000000000E+00 0.  1.
</event>
<event>
 7    1  0.6506388E-006  0.1026716E+03  0.7561462E-02  0.1274776E+00
          1   -1    0    0  501    0  0.00000000000E+00  0.00000000000E+00  0.19471077774E+03  0.19471077774E+03  0.00000000000E+00 0. -1.
         -1   -1    0    0    0  501 -0.00000000000E+00 -0.00000000000E+00 -0.99429991135E+02  0.99429991135E+02  0.00000000000E+00 0.  1.
         23    2    1    2    0    0 -0.52748684384E+02  0.63003023894E+02  0.15419219449E+02  0.15046042286E+03  0.12509509101E+03 0.  0.
          5    1    3    3  502    0  0.23733302048E+00 -0.21852185390E+02  0.41415566742E+02  0.47013784169E+02  0.41800000000E+01 0.  1.
         -5    1    3    3    0  502 -0.52986017405E+02  0.84855209285E+02 -0.25996347294E+02  0.10344663869E+03  0.41800000000E+01 0.  1.
        -11    1    1    2    0    0  0.14767560601E+02 -0.26225221163E+02  0.85374505359E+02  0.90524301911E+02  0.00000000000E+00 0. -1.
         11    1    1    2    0    0  0.37981123784E+02 -0.36777802732E+02 -0.55129382018E+01  0.53156044108E+02  0.00000000000E+00 0.  1.
</event>
<event>
 7    1  0.6506388E-006  0.1496670E+03  0.7561462E-02  0.1200883E+00
         -2   -1    0    0    0  501 -0.00000000000E+00  0.00000000000E+00  0.57016955607E+02  0.57016955607E+02  0.00000000000E+00 0.  1.
          2   -1    0    0  501    0  0.00000000000E+00 -0.00000000000E+00 -0.43033545556E+03  0.43033545556E+03  0.00000000000E+00 0. -1.
         23    2    1    2    0    0 -0.39866289356E+02 -0.97186845041E+02 -0.13767837072E+03  0.21363094378E+03  0.12509293546E+03 0.  0.
          5    1    3    3  502    0 -0.26015011047E+02  0.25636831603E+02 -0.49870919097E+02  0.61956508181E+02  0.41800000000E+01 0. -1.
         -5    1    3    3    0  502 -0.13851278309E+02 -0.12282367664E+03 -0.87807451619E+02  0.15167443560E+03  0.41800000000E+01 0. -1.
        -11    1    1    2    0    0 -0.24168427421E+02  0.20992676735E+01 -0.49208221845E+02  0.54863183520E+02  0.00000000000E+00 0. -1.
         11    1    1    2    0    0  0.64034716778E+02  0.95087577367E+02 -0.18643190740E+03  0.21885828387E+03  0.00000000000E+00 0.  1.
</event>
<event>
 7    1  0.6506388E-006  0.1131999E+03  0.7561462E-02  0.1254756E+00
          2   -1    0    0  501    0  0.00000000000E+00  0.00000000000E+00  0.52540128769E+02  0.52540128769E+02  0.00000000000E+00 0.  1.
         -2   -1    0    0    0  501 -0.00000000000E+00 -0.00000000000E+00 -0.38856158489E+03  0.38856158489E+03  0.00000000000E+00 0. -1.
         23    2    1    2    0    0  0.21116221296E+02  0.89715612344E+02 -0.19647168894E+03  0.25048625835E+03  0.12508978842E+03 0.  0.
          5    1    3    3  502    0  0.30041134921E+02  0.46746352455E+02 -0.19867946165E+03  0.20634604948E+03  0.41800000000E+01 0. -1.
         -5    1    3    3    0  502 -0.89249136253E+01  0.42969259889E+02  0.22077727088E+01  0.44140208868E+02  0.41800000000E+01 0. -1.
        -11    1    1    2    0    0 -0.34529250840E+02  0.13374711105E+01 -0.20644246516E+02  0.40252241015E+02  0.00000000000E+00 0. -1.
         11    1    1    2    0    0  0.13413029544E+02 -0.91053083454E+02 -0.11890552066E+03  0.15036321429E+03  0.00000000000E+00 0.  1.
</event>
<event>
 7    1  0.6808634E-006  0.1270119E+03  0.7561462E-02  0.1231958E+00
         -2   -1    0    0    0  501 -0.00000000000E+00  0.00000000000E+00  0.11673285645E+03  0.11673285645E+03  0.00000000000E+00 0.  1.
          2   -1    0    0  501    0  0.00000000000E+00 -0.00000000000E+00 -0.17704962743E+03  0.17704962743E+03  0.00000000000E+00 0. -1.
         23    2    1    2    0    0 -0.93560427631E+02 -0.20888223548E+01 -0.36908135763E+02  0.16052327505E+03  0.12509034555E+03 0.  0.
          5    1    3    3  502    0  0.22117905527E+02  0.10343428810E+02  0.19149145231E+02  0.31310548183E+02  0.41800000000E+01 0.  1.
         -5    1    3    3    0  502 -0.11567833316E+03 -0.12432251165E+02 -0.56057280993E+02  0.12921272686E+03  0.41800000000E+01 0.  1.
        -11    1    1    2    0    0  0.15281580110E+02  0.26709959061E+02 -0.39054619083E+02  0.49721342253E+02  0.00000000000E+00 0. -1.
         11    1    1    2    0    0  0.78278847521E+02 -0.24621136707E+02  0.15645983868E+02  0.83537866583E+02  0.00000000000E+00 0.  1.
</event>
<event>
 7    1  0.6506388E-006  0.2077939E+03  0.7561462E-02  0.1143325E+00
         -2   -1    0    0    0  501 -0.00000000000E+00  0.00000000000E+00  0.12125945634E+03  0.12125945634E+03  0.00000000000E+00 0.  1.
          2   -1    0    0  501    0  0.00000000000E+00 -0.00000000000E+00 -0.74922585839E+03  0.74922585839E+03  0.00000000000E+00 0. -1.
         23    2    1    2    0    0 -0.12822461818E+03  0.14283321003E+03 -0.24350454608E+02  0.23036318390E+03  0.12502549044E+03 0.  0.
          5    1    3    3  502    0 -0.17562563868E+02  0.64581959411E+02  0.42285254905E+02  0.79276656800E+02  0.41800000000E+01 0.  1.
         -5    1    3    3    0  502 -0.11066205431E+03  0.78251250617E+02 -0.66635709513E+02  0.15108652709E+03  0.41800000000E+01 0.  1.
        -11    1    1    2    0    0  0.19208529336E+02 -0.89557785481E+02 -0.24780358489E+03  0.26418966904E+03  0.00000000000E+00 0.  1.
         11    1    1    2    0    0  0.10901608884E+03 -0.53275424547E+02 -0.35581236256E+03  0.37593246180E+03  0.00000000000E+00 0. -1.
</event>
<event>
 7    1  0.6506388E-006  0.1523449E+03  0.7561462E-02  0.1197621E+00
         -2   -1    0    0    0  501 -0.00000000000E+00  0.00000000000E+00  0.16290382441E+02  0.16290382441E+02  0.00000000000E+00 0.  1.
          2   -1    0    0  501    0  0.00000000000E+00 -0.00000000000E+00 -0.14445575854E+04  0.14445575854E+04  0.00000000000E+00 0. -1.
         23    2    1    2    0    0 -0.82445156668E+02  0.68040170331E+02 -0.71886684730E+03  0.73745665740E+03  0.12508440657E+03 0.  0.
          5    1    3    3  502    0 -0.11108886845E+03  0.27168843866E+02 -0.50456211024E+03  0.51737730744E+03  0.41800000000E+01 0. -1.
         -5    1    3    3    0  502  0.28643711784E+02  0.40871326466E+02 -0.21430473706E+03  0.22007934996E+03  0.41800000000E+01 0. -1.
        -11    1    1    2    0    0  0.35688376979E+02  0.19686025237E+02 -0.16276569956E+03  0.16779115827E+03  0.00000000000E+00 0.  1.
         11    1    1    2    0    0  0.46756779689E+02 -0.87726195568E+02 -0.54663465613E+03  0.55560015219E+03  0.00000000000E+00 0. -1.
</event>
<event>
 7    1  0.6506388E-006  0.1124768E+03  0.7561462E-02  0.1256051E+00
         -1   -1    0    0    0  501 -0.00000000000E+00  0.00000000000E+00  0.26182705101E+02  0.26182705101E+02  0.00000000000E+00 0.  1.
          1   -1    0    0  501    0  0.00000000000E+00 -0.00000000000E+00 -0.59262377204E+03  0.59262377204E+03  0.00000000000E+00 0. -1.
         23    2    1    2    0    0  0.18918859318E+02  0.49277174432E+02 -0.23837950411E+03  0.27433317745E+03  0.12509093138E+03 0.  0.
          5    1    3    3  502    0 -0.10590073187E+02  0.84153725322E+02 -0.11697291313E+03  0.14454803334E+03  0.41800000000E+01 0.  1.
         -5    1    3    3    0  502  0.29508932505E+02 -0.34876550890E+02 -0.12140659098E+03  0.12978514411E+03  0.41800000000E+01 0.  1.
        -11    1    1    2    0    0  0.30649247548E+02 -0.19730532390E+02 -0.59465265014E+02  0.69748032423E+02  0.00000000000E+00 0. -1.
         11    1    1    2    0    0 -0.49568106866E+02 -0.29546642042E+02 -0.26859629782E+03  0.27472526727E+03  0.00000000000E+00 0.  1.
</event>
<event>
 7    1  0.6506388E-006  0.1512999E+03  0.7561462E-02  0.1198885E+00
         -2   -1    0    0    0  501 -0.00000000000E+00  0.00000000000E+00  0.16104613250E+03  0.16104613250E+03  0.00000000000E+00 0.  1.
          2   -1    0    0  501    0  0.00000000000E+00 -0.00000000000E+00 -0.16914984622E+03  0.16914984622E+03  0.00000000000E+00 0. -1.
         23    2    1    2    0    0  0.23521231393E+02 -0.12058098234E+03 -0.15259500605E+02  0.17599275740E+03  0.12509027408E+03 0.  0.
          5    1    3    3  502    0 -0.32053371784E+02  0.95062061929E+01 -0.44277426583E+00  0.33696513884E+02  0.41800000000E+01 0.  1.
         -5    1    3    3    0  502  0.55574603177E+02 -0.13008718854E+03 -0.14816726339E+02  0.14229624352E+03  0.41800000000E+01 0.  1.
        -11    1    1    2    0    0 -0.26535071364E+02  0.48870207666E+02 -0.39843737121E+02  0.68410018253E+02  0.00000000000E+00 0.  1.
         11    1    1    2    0    0  0.30138399712E+01  0.71710774678E+02  0.46999524006E+02  0.85793203070E+02  0.00000000000E+00 0. -1.
</event>
<event>
 7    1  0.6506388E-006  0.1234626E+03  0.7561462E-02  0.1237492E+00
         -2   -1    0    0    0  501 -0.00000000000E+00  0.00000000000E+00  0.41741673725E+02  0.41741673725E+02  0.00000000000E+00 0. -1.
          2   -1    0    0  501    0  0.00000000000E+00 -0.00000000000E+00 -0.45477201463E+03  0.45477201463E+03  0.00000000000E+00 0.  1.
         23    2    1    2    0    0  0.42356835620E+02  0.55370847747E+02 -0.14067112838E+03  0.20073663859E+03  0.12508716724E+03 0.  0.
          5    1    3    3  502    0 -0.41467036842E+02  0.39072279335E+02 -0.47629016236E+02  0.74378449463E+02  0.41800000000E+01 0. -1.
         -5    1    3    3    0  502  0.83823872462E+02  0.16298568412E+02 -0.93042112141E+02  0.12635818912E+03  0.41800000000E+01 0. -1.
        -11    1    1    2    0    0 -0.29623122030E+02  0.14708810463E+02 -0.15504193304E+03  0.15853037395E+03  0.00000000000E+00 0.  1.
         11    1    1    2    0    0 -0.12733713591E+02 -0.70079658210E+02 -0.11731727949E+03  0.13724667582E+03  0.00000000000E+00 0. -1.
</event>
<event>
 7    1  0.6506388E-006  0.1208187E+03  0.7561462E-02  0.1241753E+00
         -1   -1    0    0    0  501 -0.00000000000E+00  0.00000000000E+00  0.24925108209E+02  0.24925108209E+02  0.00000000000E+00 0.  1.
          1   -1    0    0  501    0  0.00000000000E+00 -0.00000000000E+00 -0.69988415113E+03  0.69988415113E+03  0.00000000000E+00 0. -1.
         23    2    1    2    0    0 -0.55239867021E+02  0.48810186611E+02 -0.32814308389E+03  0.35883019475E+03  0.12508935978E+03 0.  0.
          5    1    3    3  502    0  0.35890505653E+02  0.36100405662E+02 -0.89813044790E+02  0.10332097125E+03  0.41800000000E+01 0. -1.
         -5    1    3    3    0  502 -0.91130372674E+02  0.12709780950E+02 -0.23833003910E+03  0.25550922350E+03  0.41800000000E+01 0. -1.
        -11    1    1    2    0    0 -0.15121773214E+02 -0.94272608571E+01 -0.11743977683E+02  0.21341562366E+02  0.00000000000E+00 0.  1.
         11    1    1    2    0    0  0.70361640235E+02 -0.39382925754E+02 -0.33507198135E+03  0.34463750223E+03  0.00000000000E+00 0. -1.
</event>
<event>
 7    1  0.6506388E-006  0.8095233E+02  0.7561462E-02  0.1326370E+00
         -3   -1    0    0    0  501 -0.00000000000E+00  0.00000000000E+00  0.11316280255E+03  0.11316280255E+03  0.00000000000E+00 0. -1.
          3   -1    0    0  501    0  0.00000000000E+00 -0.00000000000E+00 -0.13075564078E+03  0.13075564078E+03  0.00000000000E+00 0.  1.
         23    2    1    2    0    0  0.29957359320E+02  0.33557523006E+02  0.22225657494E+02  0.13477772246E+03  0.12508998318E+03 0.  0.
          5    1    3    3  502    0  0.22695161559E+02 -0.14856835563E+02 -0.44276757701E+02  0.52093181834E+02  0.41800000000E+01 0.  1.
         -5    1    3    3    0  502  0.72621977610E+01  0.48414358568E+02  0.66502415195E+02  0.82684540627E+02  0.41800000000E+01 0.  1.
        -11    1    1    2    0    0 -0.26658851759E+02  0.18953821820E+02 -0.45698100653E+02  0.56198382023E+02  0.00000000000E+00 0. -1.
         11    1    1    2    0    0 -0.32985075609E+01 -0.52511344826E+02  0.58796049309E+01  0.52942338838E+02  0.00000000000E+00 0.  1.
</event>
<event>
 7    1  0.6506388E-006  0.7096674E+02  0.7561462E-02  0.1356836E+00
          2   -1    0    0  501    0  0.00000000000E+00  0.00000000000E+00  0.10712113401E+03  0.10712113401E+03  0.00000000000E+00 0. -1.
         -2   -1    0    0    0  501 -0.00000000000E+00 -0.00000000000E+00 -0.12587429521E+03  0.12587429521E+03  0.00000000000E+00 0.  1.
         23    2    1    2    0    0  0.34853267671E+02 -0.20593571447E+02 -0.18117392502E+01  0.13148882780E+03  0.12508870446E+03 0.  0.
          5    1    3    3  502    0  0.39698855462E+02 -0.32831703016E+02  0.53553630535E+02  0.74427035353E+02  0.41800000000E+01 0. -1.
         -5    1    3    3    0  502 -0.48455877909E+01  0.12238131569E+02 -0.55365369785E+02  0.57061792443E+02  0.41800000000E+01 0. -1.
        -11    1    1    2    0    0 -0.30384015238E+02 -0.19495192390E+02 -0.40929720203E+02  0.54575570581E+02  0.00000000000E+00 0.  1.
         11    1    1    2    0    0 -0.44692524332E+01  0.40088763837E+02  0.23988298255E+02  0.46931030848E+02  0.00000000000E+00 0. -1.
</event>
<event>
 7    1  0.6506388E-006  0.1132992E+03  0.7561462E-02  0.1254579E+00
          1   -1    0    0  501    0  0.00000000000E+00  0.00000000000E+00  0.43761535960E+02  0.43761535960E+02  0.00000000000E+00 0. -1.
         -1   -1    0    0    0  501 -0.00000000000E+00 -0.00000000000E+00 -0.31778863613E+03  0.31778863613E+03  0.00000000000E+00 0.  1.
         23    2    1    2    0    0  0.48519471440E+01  0.36352453155E+02 -0.20272019126E+03  0.24101477919E+03  0.12509038973E+03 0.  0.
          5    1    3    3  502    0 -0.29470285269E+02  0.73654594025E+02 -0.12024370259E+03  0.14411633269E+03  0.41800000000E+01 0. -1.
         -5    1    3    3    0  502  0.34322232413E+02 -0.37302140870E+02 -0.82476488667E+02  0.96898446500E+02  0.41800000000E+01 0. -1.
        -11    1    1    2    0    0  0.67114052597E+01  0.29082097877E+02 -0.14826136289E+02  0.33326051293E+02  0.00000000000E+00 0. -1.
         11    1    1    2    0    0 -0.11563352404E+02 -0.65434551032E+02 -0.56480772620E+02  0.87209341606E+02  0.00000000000E+00 0.  1.
</event>
<event>
 7    1  0.6506388E-006  0.2559072E+03  0.7561462E-02  0.1109628E+00
         -1   -1    0    0    0  501 -0.00000000000E+00  0.00000000000E+00  0.15623006140E+03  0.15623006140E+03  0.00000000000E+00 0.  1.
          1   -1    0    0  501    0  0.00000000000E+00 -0.00000000000E+00 -0.50117794727E+03  0.50117794727E+03  0.00000000000E+00 0. -1.
         23    2    1    2    0    0  0.13415848779E+03  0.19425764440E+03 -0.55081761226E+02  0.27279287903E+03  0.12508965655E+03 0.  0.
          5    1    3    3  502    0  0.19684395463E+02  0.12879606230E+03 -0.53330271498E+02  0.14084562949E+03  0.41800000000E+01 0. -1.
         -5    1    3    3    0  502  0.11447409232E+03  0.65461582100E+02 -0.17514897286E+01  0.13194724954E+03  0.41800000000E+01 0. -1.
        -11    1    1    2    0    0 -0.39000595805E+02 -0.12736653706E+03 -0.18528533438E+03  0.22819714366E+03  0.00000000000E+00 0. -1.
         11    1    1    2    0    0 -0.95157891982E+02 -0.66891107340E+02 -0.10458079026E+03  0.15641798598E+03  0.00000000000E+00 0.  1.
</event>
<event>
 7    1  0.6506388E-006  0.2060000E+03  0.7561462E-02  0.1144773E+00
          2   -1    0    0  501    0  0.00000000000E+00  0.00000000000E+00  0.97015522167E+03  0.97015522167E+03  0.00000000000E+00 0. -1.
         -2   -1    0    0    0  501 -0.00000000000E+00 -0.00000000000E+00 -0.96423153631E+02  0.96423153631E+02  0.00000000000E+00 0.  1.
         23    2    1    2    0    0  0.92930281648E+02  0.16840710695E+03  0.76615651734E+02  0.24189789067E+03  0.12509052923E+03 0.  0.
          5    1    3    3  502    0  0.10100264094E+03  0.81166093578E+02  0.83028844503E+02  0.15395041294E+03  0.41800000000E+01 0.  1.
         -5    1    3    3    0  502 -0.80723592916E+01  0.87241013370E+02 -0.64131927687E+01  0.87947477735E+02  0.41800000000E+01 0.  1.
        -11    1    1    2    0    0 -0.70206077388E+02 -0.14919467075E+03  0.75689958580E+03  0.77465148684E+03  0.00000000000E+00 0. -1.
         11    1    1    2    0    0 -0.22724204260E+02 -0.19212436194E+02  0.40216830503E+02  0.50028997786E+02  0.00000000000E+00 0.  1.
</event>
<event>
 7    1  0.6506388E-006  0.1106737E+03  0.7561462E-02  0.1259327E+00
         -2   -1    0    0    0  501 -0.00000000000E+00  0.00000000000E+00  0.12027043067E+03  0.12027043067E+03  0.00000000000E+00 0.  1.
          2   -1    0    0  501    0  0.00000000000E+00 -0.00000000000E+00 -0.13254356749E+03  0.13254356749E+03  0.00000000000E+00 0. -1.
         23    2    1    2    0    0  0.13146479621E+02  0.64802747308E+02  0.20202533409E+02  0.14291557769E+03  0.12507795172E+03 0.  0.
          5    1    3    3  502    0 -0.43264005503E+02  0.63965221488E+02  0.34320718015E+02  0.84609147361E+02  0.41800000000E+01 0.  1.
         -5    1    3    3    0  502  0.56410485124E+02  0.83752582075E+00 -0.14118184606E+02  0.58306430331E+02  0.41800000000E+01 0.  1.
        -11    1    1    2    0    0  0.12754923798E+02 -0.59692276142E+02 -0.49411493817E+02  0.78532487757E+02  0.00000000000E+00 0. -1.
         11    1    1    2    0    0 -0.25901403419E+02 -0.51104711662E+01  0.16935823586E+02  0.31365932716E+02  0.00000000000E+00 0.  1.
</event>
<event>
 7    1  0.6506388E-006  0.9996841E+02  0.7561462E-02  0.1280362E+00
         -2   -1    0    0    0  501 -0.00000000000E+00  0.00000000000E+00  0.60072242529E+02  0.60072242529E+02  0.00000000000E+00 0. -1.
          2   -1    0    0  501    0  0.00000000000E+00 -0.00000000000E+00 -0.29390950537E+03  0.29390950537E+03  0.00000000000E+00 0.  1.
         23    2    1    2    0    0 -0.67798922808E+02  0.21017408864E+01 -0.82403427689E+02  0.16443515379E+03  0.12508990230E+03 0.  0.
          5    1    3    3  502    0 -0.52749620415E+02  0.26659260667E+02  0.16363637981E+02  0.61469339359E+02  0.41800000000E+01 0. -1.
         -5    1    3    3    0  502 -0.15049302393E+02 -0.24557519781E+02 -0.98767065670E+02  0.10296581443E+03  0.41800000000E+01 0. -1.
        -11    1    1    2    0    0 -0.19070718807E+02 -0.14331623268E+02 -0.50272648711E+02  0.55645547438E+02  0.00000000000E+00 0. -1.
         11    1    1    2    0    0  0.86869641615E+02  0.12229882381E+02 -0.10116118644E+03  0.13390104667E+03  0.00000000000E+00 0.  1.
</event>
<event>
 7    1  0.6506388E-006  0.1287027E+03  0.7561462E-02  0.1229393E+00
          1   -1    0    0  501    0  0.00000000000E+00  0.00000000000E+00  0.18630102830E+02  0.18630102830E+02  0.00000000000E+00 0. -1.
         -1   -1    0    0    0  501 -0.00000000000E+00 -0.00000000000E+00 -0.10117492689E+04  0.10117492689E+04  0.00000000000E+00 0.  1.
         23    2    1    2    0    0  0.32731127068E+02  0.73586151709E+02 -0.62089228064E+03  0.63846616501E+03  0.12508225817E+03 0.  0.
          5    1    3    3  502    0  0.48961801620E+02  0.96822600210E+02 -0.36033593313E+03  0.37633938278E+03  0.41800000000E+01 0.  1.
         -5    1    3    3    0  502 -0.16230674552E+02 -0.23236448500E+02 -0.26055634751E+03  0.26212678223E+03  0.41800000000E+01 0.  1.
        -11    1    1    2    0    0  0.17142889896E+02 -0.67839943057E+02 -0.17685794331E+03  0.19019692074E+03  0.00000000000E+00 0. -1.
         11    1    1    2    0    0 -0.49874016964E+02 -0.57462086522E+01 -0.19536894215E+03  0.20171628601E+03  0.00000000000E+00 0.  1.
</event>
<event>
 7    1  0.6506388E-006  0.1116770E+03  0.7561462E-02  0.1257496E+00
         -2   -1    0    0    0  501 -0.00000000000E+00  0.00000000000E+00  0.58552567405E+02  0.58552567405E+02  0.00000000000E+00 0.  1.
          2   -1    0    0  501    0  0.00000000000E+00 -0.00000000000E+00 -0.29126277421E+03  0.29126277421E+03  0.00000000000E+00 0. -1.
         23    2    1    2    0    0 -0.27335698926E+02  0.68612535697E+02 -0.91525443816E+02  0.16586980462E+03  0.11696565619E+03 0.  0.
          5    1    3    3  502    0 -0.28754187312E+02 -0.74004620081E+01 -0.84197334680E+02  0.89376919241E+02  0.41800000000E+01 0. -1.
         -5    1    3    3    0  502  0.14184883868E+01  0.76012997705E+02 -0.73281091363E+01  0.76492885375E+02  0.41800000000E+01 0.  1.
        -11    1    1    2    0    0  0.42334944642E+02 -0.85033173228E+02 -0.12166545476E+03  0.15435469208E+03  0.00000000000E+00 0.  1.
         11    1    1    2    0    0 -0.14999245716E+02  0.16420637531E+02 -0.19519308234E+02  0.29590844917E+02  0.00000000000E+00 0. -1.
</event>
<event>
 7    1  0.6506388E-006  0.3161572E+03  0.7561462E-02  0.1077432E+00
         -3   -1    0    0    0  501 -0.00000000000E+00  0.00000000000E+00  0.10110435436E+04  0.10110435436E+04  0.00000000000E+00 0.  1.
          3   -1    0    0  501    0  0.00000000000E+00 -0.00000000000E+00 -0.10317252608E+03  0.10317252608E+03  0.00000000000E+00 0. -1.
         23    2    1    2    0    0  0.25038462695E+03  0.15578721327E+03  0.55995852349E+03  0.64510707280E+03  0.12508984814E+03 0.  0.
          5    1    3    3  502    0  0.64222897293E+02  0.11175488358E+03  0.22180805525E+03  0.25657361578E+03  0.41800000000E+01 0. -1.
         -5    1    3    3    0  502  0.18616172966E+03  0.44032329690E+02  0.33815046824E+03  0.38853345702E+03  0.41800000000E+01 0. -1.
        -11    1    1    2    0    0 -0.12257823647E+03 -0.13530203527E+03  0.23311147531E+03  0.29609630989E+03  0.00000000000E+00 0. -1.
         11    1    1    2    0    0 -0.12780639049E+03 -0.20485178002E+02  0.11480101871E+03  0.17301268701E+03  0.00000000000E+00 0.  1.
</event>
<event>
 7    1  0.6506388E-006  0.1746857E+03  0.7561462E-02  0.1173048E+00
          2   -1    0    0  501    0  0.00000000000E+00  0.00000000000E+00  0.91853738156E+03  0.91853738156E+03  0.00000000000E+00 0.  1.
         -2   -1    0    0    0  501 -0.00000000000E+00 -0.00000000000E+00 -0.43421478308E+02  0.43421478308E+02  0.00000000000E+00 0. -1.
         23    2    1    2    0    0  0.93793448486E+02  0.13866085733E+03  0.45469637658E+03  0.50042024821E+03  0.12509030980E+03 0.  0.
          5    1    3    3  502    0  0.77139191566E+02  0.13918405086E+03  0.25925756767E+03  0.30422789761E+03  0.41800000000E+01 0.  1.
         -5    1    3    3    0  502  0.16654256920E+02 -0.52319353323E+00  0.19543880891E+03  0.19619235060E+03  0.41800000000E+01 0.  1.
        -11    1    1    2    0    0 -0.42323810626E+02 -0.27403316019E+02  0.22709018559E+03  0.23262028945E+03  0.00000000000E+00 0.  1.
         11    1    1    2    0    0 -0.51469637860E+02 -0.11125754131E+03  0.19332934108E+03  0.22891832220E+03  0.00000000000E+00 0. -1.
</event>
<event>
 7    1  0.6506388E-006  0.1222967E+03  0.7561462E-02  0.1239356E+00
          2   -1    0    0  501    0  0.00000000000E+00  0.00000000000E+00  0.97889535208E+02  0.97889535208E+02  0.00000000000E+00 0.  1.
         -2   -1    0    0    0  501 -0.00000000000E+00 -0.00000000000E+00 -0.25452454764E+03  0.25452454764E+03  0.00000000000E+00 0. -1.
         23    2    1    2    0    0  0.77234651654E+02 -0.22721367511E+01 -0.17917783622E+03  0.23178146436E+03  0.12509035218E+03 0.  0.
          5    1    3    3  502    0 -0.18160826190E+01  0.50038532487E+02 -0.80441454039E+02  0.94844361021E+02  0.41800000000E+01 0.  1.
         -5    1    3    3    0  502  0.79050734273E+02 -0.52310669238E+02 -0.98736382180E+02  0.13693710334E+03  0.41800000000E+01 0.  1.
        -11    1    1    2    0    0 -0.60605066430E+02 -0.26568196827E+02  0.45400298518E+02  0.80249799159E+02  0.00000000000E+00 0.  1.
         11    1    1    2    0    0 -0.16629585224E+02  0.28840333578E+02 -0.22857474728E+02  0.40382819324E+02  0.00000000000E+00 0. -1.
</event>
<event>
 7    1  0.6506388E-006  0.9230752E+02  0.7561462E-02  0.1297358E+00
         -1   -1    0    0    0  501 -0.00000000000E+00  0.00000000000E+00  0.24717072124E+02  0.24717072124E+02  0.00000000000E+00 0.  1.
          1   -1    0    0  501    0  0.00000000000E+00 -0.00000000000E+00 -0.49418074975E+03  0.49418074975E+03  0.00000000000E+00 0. -1.
         23    2    1    2    0    0  0.12407548449E+02  0.18806770321E+02 -0.27893888826E+03  0.30653286340E+03  0.12509137098E+03 0.  0.
          5    1    3    3  502    0 -0.20556875750E+02  0.45484915905E+02 -0.40776713005E+02  0.64588508567E+02  0.41800000000E+01 0.  1.
         -5    1    3    3    0  502  0.32964424199E+02 -0.26678145584E+02 -0.23816217525E+03  0.24194435483E+03  0.41800000000E+01 0.  1.
        -11    1    1    2    0    0  0.29907230659E+02 -0.35505136297E+02 -0.74978226235E+02  0.88186118854E+02  0.00000000000E+00 0.  1.
         11    1    1    2    0    0 -0.42314779109E+02  0.16698365976E+02 -0.11554656314E+03  0.12417883962E+03  0.00000000000E+00 0. -1.
</event>
<event>
 7    1  0.6506388E-006  0.1569998E+03  0.7561462E-02  0.1192126E+00
          3   -1    0    0  501    0  0.00000000000E+00  0.00000000000E+00  0.51077209486E+02  0.51077209486E+02  0.00000000000E+00 0. -1.
         -3   -1    0    0    0  501 -0.00000000000E+00 -0.00000000000E+00 -0.70929171674E+03  0.70929171674E+03  0.00000000000E+00 0.  1.
         23    2    1    2    0    0  0.11593103901E+03  0.10457381402E+03 -0.34898213688E+03  0.40225734427E+03  0.12508697285E+03 0.  0.
          5    1    3    3  502    0  0.51729379890E+02  0.61375106021E+02 -0.29999902928E+03  0.31057965540E+03  0.41800000000E+01 0. -1.
         -5    1    3    3    0  502  0.64201659120E+02  0.43198707995E+02 -0.48983107598E+02  0.91677688868E+02  0.41800000000E+01 0. -1.
        -11    1    1    2    0    0 -0.45051508075E+02 -0.41099862276E+02 -0.21771876521E+03  0.22609798271E+03  0.00000000000E+00 0.  1.
         11    1    1    2    0    0 -0.70879530935E+02 -0.63473951740E+02 -0.91513605158E+02  0.13201359924E+03  0.00000000000E+00 0. -1.
</event>
<event>
 7    1  0.6506388E-006  0.1212749E+03  0.7561462E-02  0.1241009E+00
          1   -1    0    0  501    0  0.00000000000E+00  0.00000000000E+00  0.21939296669E+03  0.21939296669E+03  0.00000000000E+00 0. -1.
         -1   -1    0    0    0  501 -0.00000000000E+00 -0.00000000000E+00 -0.15880984414E+03  0.15880984414E+03  0.00000000000E+00 0.  1.
         23    2    1    2    0    0 -0.78988648974E+02  0.62259953702E+02 -0.82453971670E+02  0.18045153213E+03  0.12509432243E+03 0.  0.
          5    1    3    3  502    0 -0.14326244709E+02 -0.21758616308E+02 -0.68536486557E+02  0.73439778463E+02  0.41800000000E+01 0. -1.
         -5    1    3    3    0  502 -0.64662404265E+02  0.84018570010E+02 -0.13917485112E+02  0.10701175367E+03  0.41800000000E+01 0. -1.
        -11    1    1    2    0    0  0.58310544697E+01 -0.29208896525E+02  0.10457850025E+03  0.10873740638E+03  0.00000000000E+00 0. -1.
         11    1    1    2    0    0  0.73157594504E+02 -0.33051057178E+02  0.38458593969E+02  0.89013872314E+02  0.00000000000E+00 0.  1.
</event>
<event>
 7    1  0.6506388E-006  0.8152795E+02  0.7561462E-02  0.1324770E+00
         -1   -1    0    0    0  501 -0.00000000000E+00  0.00000000000E+00  0.24732224166E+02  0.24732224166E+02  0.00000000000E+00 0.  1.
          1   -1    0    0  501    0  0.00000000000E+00 -0.00000000000E+00 -0.59824688429E+03  0.59824688429E+03  0.00000000000E+00 0. -1.
         23    2    1    2    0    0  0.29431173448E+02 -0.41138267592E+02 -0.25970577616E+03  0.29266581464E+03  0.12509051865E+03 0.  0.
          5    1    3    3  502    0  0.20418792521E+02 -0.30082625029E+01  0.76630016912E+01  0.22409166121E+02  0.41800000000E+01 0.  1.
         -5    1    3    3    0  502  0.90123809267E+01 -0.38130005090E+02 -0.26736877785E+03  0.27025664852E+03  0.41800000000E+01 0.  1.
        -11    1    1    2    0    0  0.25485619875E+01 -0.27107841242E+02 -0.98536813888E+02  0.10222932024E+03  0.00000000000E+00 0.  1.
         11    1    1    2    0    0 -0.31979735435E+02  0.68246108834E+02 -0.21527207007E+03  0.22808397357E+03  0.00000000000E+00 0. -1.
</event>
<event>
 7    1  0.6506388E-006  0.1233771E+03  0.7561462E-02  0.1237628E+00
          2   -1    0    0  501    0  0.00000000000E+00  0.00000000000E+00  0.18042749374E+03  0.18042749374E+03  0.00000000000E+00 0. -1.
         -2   -1    0    0    0  501 -0.00000000000E+00 -0.00000000000E+00 -0.98601315832E+02  0.98601315832E+02  0.00000000000E+00 0.  1.
         23    2    1    2    0    0  0.30295303311E+02  0.70587549383E+02  0.41899002949E+02  0.15264359560E+03  0.12507650978E+03 0.  0.
          5    1    3    3  502    0 -0.74318375628E+01  0.86314243330E+02 -0.90347354401E+01  0.87203667673E+02  0.41800000000E+01 0.  1.
         -5    1    3    3    0  502  0.37727140874E+02 -0.15726693947E+02  0.50933738389E+02  0.65439927929E+02  0.41800000000E+01 0.  1.
        -11    1    1    2    0    0 -0.63000867933E+02 -0.47433661852E+02  0.33996636784E+02  0.85876847576E+02  0.00000000000E+00 0. -1.
         11    1    1    2    0    0  0.32705564622E+02 -0.23153887531E+02  0.59305381771E+01  0.40508366396E+02  0.00000000000E+00 0.  1.
</event>
<event>
 7    1  0.6506388E-006  0.1155266E+03  0.7561462E-02  0.1250665E+00
          2   -1    0    0  501    0  0.00000000000E+00  0.00000000000E+00  0.50798537307E+03  0.50798537307E+03  0.00000000000E+00 0. -1.
         -2   -1    0    0    0  501 -0.00000000000E+00 -0.00000000000E+00 -0.34144793595E+02  0.34144793595E+02  0.00000000000E+00 0.  1.
         23    2    1    2    0    0 -0.27260023949E+02  0.64594182203E+02  0.21109140977E+03  0.25518943286E+03  0.12508615465E+03 0.  0.
          5    1    3    3  502    0 -0.28394348199E+02  0.93657082932E+02  0.20188920474E+03  0.22439833240E+03  0.41800000000E+01 0. -1.
         -5    1    3    3    0  502  0.11343242495E+01 -0.29062900729E+02  0.92022050286E+01  0.30791100462E+02  0.41800000000E+01 0. -1.
        -11    1    1    2    0    0 -0.26940341588E+02 -0.21748483456E+02  0.36206182524E+02  0.50096568650E+02  0.00000000000E+00 0.  1.
         11    1    1    2    0    0  0.54200365538E+02 -0.42845698747E+02  0.22654298718E+03  0.23684416515E+03  0.00000000000E+00 0. -1.
</event>
<event>
 7    1  0.6506388E-006  0.1663822E+03  0.7561462E-02  0.1181674E+00
          2   -1    0    0  501    0  0.00000000000E+00  0.00000000000E+00  0.14502093568E+04  0.14502093568E+04  0.00000000000E+00 0.  1.
         -2   -1    0    0    0  501 -0.00000000000E+00 -0.00000000000E+00 -0.22884532627E+02  0.22884532627E+02  0.00000000000E+00 0. -1.
         23    2    1    2    0    0 -0.80537777778E+02  0.33764504092E+02  0.75143086885E+03  0.76675963826E+03  0.12508244006E+03 0.  0.
          5    1    3    3  502    0 -0.10743643191E+02  0.64550667066E+02  0.21095453225E+03  0.22091061895E+03  0.41800000000E+01 0. -1.
         -5    1    3    3    0  502 -0.69794134588E+02 -0.30786162974E+02  0.54047633660E+03  0.54584901931E+03  0.41800000000E+01 0. -1.
        -11    1    1    2    0    0  0.13246859154E+03 -0.77036467317E+01  0.57304858157E+03  0.58821080469E+03  0.00000000000E+00 0.  1.
         11    1    1    2    0    0 -0.51930813766E+02 -0.26060857361E+02  0.10284537373E+03  0.11812344645E+03  0.00000000000E+00 0. -1.
</event>
<event>
 7    1  0.6506388E-006  0.2969528E+03  0.7561462E-02  0.1086774E+00
          3   -1    0    0  501    0  0.00000000000E+00  0.00000000000E+00  0.28545882720E+03  0.28545882720E+03  0.00000000000E+00 0.  1.
         -3   -1    0    0    0  501 -0.00000000000E+00 -0.00000000000E+00 -0.31930242399E+03  0.31930242399E+03  0.00000000000E+00 0. -1.
         23    2    1    2    0    0  0.25795730927E+03  0.98825495571E+02  0.21616643455E+02  0.30401193086E+03  0.12509005897E+03 0.  0.
          5    1    3    3  502    0  0.71224573531E+02  0.85079018424E+02 -0.18266049518E+02  0.11252777531E+03  0.41800000000E+01 0.  1.
         -5    1    3    3    0  502  0.18673273574E+03  0.13746477147E+02  0.39882692973E+02  0.19148415555E+03  0.41800000000E+01 0.  1.
        -11    1    1    2    0    0 -0.18184011000E+03 -0.15152090204E+02 -0.35158606414E+02  0.18582663707E+03  0.00000000000E+00 0.  1.
         11    1    1    2    0    0 -0.76117199273E+02 -0.83673405367E+02 -0.20301633825E+02  0.11492268326E+03  0.00000000000E+00 0. -1.
</event>
<event>
 7    1  0.6506388E-006  0.8535644E+02  0.7561462E-02  0.1314503E+00
          2   -1    0    0  501    0  0.00000000000E+00  0.00000000000E+00  0.40410873281E+03  0.40410873281E+03  0.00000000000E+00 0. -1.
         -2   -1    0    0    0  501 -0.00000000000E+00 -0.00000000000E+00 -0.45201495377E+02  0.45201495377E+02  0.00000000000E+00 0.  1.
         23    2    1    2    0    0 -0.21013168018E+02 -0.52572187824E+02  0.87399802890E+02  0.15670199813E+03  0.11709569809E+03 0.  0.
          5    1    3    3  502    0 -0.21838603199E+02 -0.53604385418E+02  0.11496950070E+03  0.12878592010E+03  0.41800000000E+01 0. -1.
         -5    1    3    3    0  502  0.82543518083E+00  0.10321975938E+01 -0.27569697810E+02  0.27916078028E+02  0.41800000000E+01 0.  1.
        -11    1    1    2    0    0  0.48032672102E+02 -0.12754315593E+01  0.13833221931E+03  0.14643963675E+03  0.00000000000E+00 0.  1.
         11    1    1    2    0    0 -0.27019504084E+02  0.53847619383E+02  0.13317521524E+03  0.14616859330E+03  0.00000000000E+00 0. -1.
</event>
<event>
 7    1  0.2077342E-005  0.2458443E+03  0.7561462E-02  0.1115960E+00
          2   -1    0    0  501    0  0.00000000000E+00  0.00000000000E+00  0.24620253097E+03  0.24620253097E+03  0.00000000000E+00 0.  1.
         -2   -1    0    0    0  501 -0.00000000000E+00 -0.00000000000E+00 -0.26261614084E+03  0.26261614084E+03  0.00000000000E+00 0. -1.
         23    2    1    2    0    0 -0.51632001330E+02 -0.22194133678E+03 -0.35639362738E+02  0.26237629601E+03  0.12508931209E+03 0.  0.
          5    1    3    3  502    0  0.16943954436E+02 -0.13071693641E+03 -0.61143074407E+02  0.14536149079E+03  0.41800000000E+01 0.  1.
         -5    1    3    3    0  502 -0.68575955766E+02 -0.91224400371E+02  0.25503711669E+02  0.11701480522E+03  0.41800000000E+01 0.  1.
        -11    1    1    2    0    0 -0.90168295684E+00  0.17546846204E+03  0.16595594771E+02  0.17625381689E+03  0.00000000000E+00 0.  1.
         11    1    1    2    0    0  0.52533684287E+02  0.46472874744E+02  0.26301580962E+01  0.70188558921E+02  0.00000000000E+00 0. -1.
</event>
<event>
 7    1  0.6506388E-006  0.1625916E+03  0.7561462E-02  0.1185802E+00
          2   -1    0    0  501    0  0.00000000000E+00  0.00000000000E+00  0.10948962028E+03  0.10948962028E+03  0.00000000000E+00 0. -1.
         -2   -1    0    0    0  501 -0.00000000000E+00 -0.00000000000E+00 -0.71158702105E+03  0.71158702105E+03  0.00000000000E+00 0.  1.
         23    2    1    2    0    0  0.12288475994E+03  0.17023826804E+01 -0.63984692067E+03  0.66344172412E+03  0.12508907658E+03 0.  0.
          5    1    3    3  502    0  0.30781836002E+02 -0.55719038930E+02 -0.29808808141E+03  0.30483784117E+03  0.41800000000E+01 0. -1.
         -5    1    3    3    0  502  0.92102923940E+02  0.57421421610E+02 -0.34175883925E+03  0.35860388295E+03  0.41800000000E+01 0. -1.
        -11    1    1    2    0    0 -0.56606422053E+02  0.44480054943E+02  0.22510662383E+02  0.75428722821E+02  0.00000000000E+00 0.  1.
         11    1    1    2    0    0 -0.66278337889E+02 -0.46182437623E+02  0.15238857510E+02  0.82206194392E+02  0.00000000000E+00 0. -1.
</event>
<event>
 7    1  0.6506388E-006  0.9394121E+02  0.7561462E-02  0.1293579E+00
         -2   -1    0    0    0  501 -0.00000000000E+00  0.00000000000E+00  0.20795856404E+02  0.20795856404E+02  0.00000000000E+00 0.  1.
          2   -1    0    0  501    0  0.00000000000E+00 -0.00000000000E+00 -0.71970721002E+03  0.71970721002E+03  0.00000000000E+00 0. -1.
         23    2    1    2    0    0 -0.33060353683E+02 -0.39385769580E+02 -0.34509518039E+03  0.37065174717E+03  0.12509120001E+03 0.  0.
          5    1    3    3  502    0 -0.54402438146E+02 -0.71470219515E+01 -0.31925112640E+03  0.32395903955E+03  0.41800000000E+01 0. -1.
         -5    1    3    3    0  502  0.21342084463E+02 -0.32238747629E+02 -0.25844053986E+02  0.46692707614E+02  0.41800000000E+01 0. -1.
        -11    1    1    2    0    0  0.32085121445E+02 -0.17853408211E+02 -0.58729985966E+02  0.69263341346E+02  0.00000000000E+00 0.  1.
         11    1    1    2    0    0  0.97523223817E+00  0.57239177791E+02 -0.29508618726E+03  0.30058797791E+03  0.00000000000E+00 0. -1.
</event>
<event>
 7    1  0.6506388E-006  0.1057917E+03  0.7561462E-02  0.1268568E+00
          2   -1    0    0  501    0  0.00000000000E+00  0.00000000000E+00  0.65529423054E+03  0.65529423054E+03  0.00000000000E+00 0. -1.
         -2   -1    0    0    0  501 -0.00000000000E+00 -0.00000000000E+00 -0.96948568227E+02  0.96948568227E+02  0.00000000000E+00 0.  1.
         23    2    1    2    0    0  0.64663192023E+01 -0.86394514209E+02 -0.25941885369E+02  0.15435507108E+03  0.12508669466E+03 0.  0.
          5    1    3    3  502    0  0.67347761436E+01 -0.83624079749E+02  0.36589686501E+02  0.91622166978E+02  0.41800000000E+01 0. -1.
         -5    1    3    3    0  502 -0.26845694131E+00 -0.27704344593E+01 -0.62531571870E+02  0.62732904099E+02  0.41800000000E+01 0. -1.
        -11    1    1    2    0    0 -0.30493274448E+02  0.92812269735E+02  0.51705044672E+03  0.52619874729E+03  0.00000000000E+00 0. -1.
         11    1    1    2    0    0  0.24026955245E+02 -0.64177555264E+01  0.67237100964E+02  0.71688980397E+02  0.00000000000E+00 0.  1.
</event>
<event>
 7    1  0.6506388E-006  0.1301419E+03  0.7561462E-02  0.1227245E+00
          2   -1    0    0  501    0  0.00000000000E+00  0.00000000000E+00  0.90255221326E+02  0.90255221326E+02  0.00000000000E+00 0. -1.
         -2   -1    0    0    0  501 -0.00000000000E+00 -0.00000000000E+00 -0.30321626762E+03  0.30321626762E+03  0.00000000000E+00 0.  1.
         23    2    1    2    0    0 -0.10288928613E+03  0.50348895439E+01 -0.19788331729E+03  0.25576765455E+03  0.12509088912E+03 0.  0.
          5    1    3    3  502    0 -0.11692350186E+03 -0.33459159084E+01 -0.20608796144E+03  0.23700637269E+03  0.41800000000E+01 0. -1.
         -5    1    3    3    0  502  0.14034215736E+02  0.83808054523E+01  0.82046441580E+01  0.18761281862E+02  0.41800000000E+01 0. -1.
        -11    1    1    2    0    0  0.10997298804E+03  0.93107043392E+01 -0.31502776784E+02  0.11477444079E+03  0.00000000000E+00 0.  1.
         11    1    1    2    0    0 -0.70837019135E+01 -0.14345593883E+02  0.16425047777E+02  0.22929393606E+02  0.00000000000E+00 0. -1.
</event>
<event>
 7    1  0.6506388E-006  0.7442953E+02  0.7561462E-02  0.1345647E+00
         -1   -1    0    0    0  501 -0.00000000000E+00  0.00000000000E+00  0.26854410534E+03  0.26854410534E+03  0.00000000000E+00 0.  1.
          1   -1    0    0  501    0  0.00000000000E+00 -0.00000000000E+00 -0.29425413321E+02  0.29425413321E+02  0.00000000000E+00 0. -1.
         23    2    1    2    0    0  0.30976743194E+02 -0.90414279100E+01  0.18798808331E+03  0.22809464201E+03  0.12508533172E+03 0.  0.
          5    1    3    3  502    0 -0.63743413297E+01 -0.50597171468E+02  0.27464056671E+02  0.58072823220E+02  0.41800000000E+01 0.  1.
         -5    1    3    3    0  502  0.37351084524E+02  0.41555743558E+02  0.16052402664E+03  0.17002181879E+03  0.41800000000E+01 0.  1.
        -11    1    1    2    0    0 -0.25318333211E+02  0.17999585389E+02  0.50463295432E+02  0.59258309600E+02  0.00000000000E+00 0.  1.
         11    1    1    2    0    0 -0.56584099828E+01 -0.89581574785E+01  0.66731328168E+00  0.10616567052E+02  0.00000000000E+00 0. -1.
</event>
<event>
 7    1  0.6506388E-006  0.1196850E+03  0.7561462E-02  0.1243618E+00
         -1   -1    0    0    0  501 -0.00000000000E+00  0.00000000000E+00  0.84111142435E+02  0.84111142435E+02  0.00000000000E+00 0.  1.
          1   -1    0    0  501    0  0.00000000000E+00 -0.00000000000E+00 -0.25979292051E+03  0.25979292051E+03  0.00000000000E+00 0. -1.
         23    2    1    2    0    0  0.25946255261E+02 -0.78447888608E+02 -0.28045049338E+02  0.15251675861E+03  0.12509019736E+03 0.  0.
          5    1    3    3  502    0  0.33375540203E+02 -0.96442372642E+02  0.16742212978E+02  0.10350281165E+03  0.41800000000E+01 0. -1.
         -5    1    3    3    0  502 -0.74292849417E+01  0.17994484034E+02 -0.44787262316E+02  0.49013946956E+02  0.41800000000E+01 0. -1.
        -11    1    1    2    0    0 -0.29578241914E+02 -0.81216197623E+01 -0.18323214421E+02  0.35729165803E+02  0.00000000000E+00 0.  1.
         11    1    1    2    0    0  0.36319866530E+01  0.86569508370E+02 -0.12931351431E+03  0.15565813853E+03  0.00000000000E+00 0. -1.
</event>
<event>
 7    1  0.6506388E-006  0.1115892E+03  0.7561462E-02  0.1257655E+00
          1   -1    0    0  501    0  0.00000000000E+00  0.00000000000E+00  0.65418994516E+03  0.65418994516E+03  0.00000000000E+00 0. -1.
         -1   -1    0    0    0  501 -0.00000000000E+00 -0.00000000000E+00 -0.26828340676E+02  0.26828340676E+02  0.00000000000E+00 0.  1.
         23    2    1    2    0    0  0.61685609297E+00  0.71816023911E+02  0.28302357139E+03  0.31765937392E+03  0.12508882474E+03 0.  0.
          5    1    3    3  502    0 -0.31180170125E+02  0.25491532026E+01  0.84507011778E+01  0.32673964275E+02  0.41800000000E+01 0. -1.
         -5    1    3    3    0  502  0.31797026218E+02  0.69266870708E+02  0.27457287022E+03  0.28498540965E+03  0.41800000000E+01 0. -1.
        -11    1    1    2    0    0 -0.34537927589E+02  0.14280836541E+01  0.12287213428E+03  0.12764195724E+03  0.00000000000E+00 0. -1.
         11    1    1    2    0    0  0.33921071496E+02 -0.73244107565E+02  0.22146589881E+03  0.23571695467E+03  0.00000000000E+00 0.  1.
</event>
<event>
 7    1  0.6506388E-006  0.9574248E+02  0.7561462E-02  0.1289513E+00
          2   -1    0    0  501    0  0.00000000000E+00  0.00000000000E+00  0.13219664839E+03  0.13219664839E+03  0.00000000000E+00 0. -1.
         -2   -1    0    0    0  501 -0.00000000000E+00 -0.00000000000E+00 -0.11493273791E+03  0.11493273791E+03  0.00000000000E+00 0.  1.
         23    2    1    2    0    0 -0.44538135265E+02 -0.36015987239E+02  0.24444680629E+02  0.13973734701E+03  0.12509271325E+03 0.  0.
          5    1    3    3  502    0 -0.46425927265E+02 -0.76112020335E+02 -0.55953569548E+01  0.89426991347E+02  0.41800000000E+01 0.  1.
         -5    1    3    3    0  502  0.18877920004E+01  0.40096033096E+02  0.30040037584E+02  0.50310355661E+02  0.41800000000E+01 0.  1.
        -11    1    1    2    0    0  0.20360721687E+02  0.24483348930E+01 -0.46186425656E+02  0.50534535184E+02  0.00000000000E+00 0.  1.
         11    1    1    2    0    0  0.24177413578E+02  0.33567652346E+02  0.39005655504E+02  0.56857504102E+02  0.00000000000E+00 0. -1.
</event>
<event>
 7    1  0.6506388E-006  0.1458640E+03  0.7561462E-02  0.1205649E+00
          3   -1    0    0  501    0  0.00000000000E+00  0.00000000000E+00  0.81345437381E+02  0.81345437381E+02  0.00000000000E+00 0. -1.
         -3   -1    0    0    0  501 -0.00000000000E+00 -0.00000000000E+00 -0.55377360078E+03  0.55377360078E+03  0.00000000000E+00 0.  1.
         23    2    1    2    0    0 -0.10793070520E+03  0.84121867339E+02 -0.42601113436E+03  0.46460677430E+03  0.12509373460E+03 0.  0.
          5    1    3    3  502    0 -0.10228166380E+03  0.79648183100E+02 -0.19958436831E+03  0.23802681424E+03  0.41800000000E+01 0.  1.
         -5    1    3    3    0  502 -0.56490413987E+01  0.44736842396E+01 -0.22642676604E+03  0.22657996006E+03  0.41800000000E+01 0.  1.
        -11    1    1    2    0    0  0.66372247282E+02 -0.78491675231E+01 -0.50172456860E+02  0.83571287339E+02  0.00000000000E+00 0.  1.
         11    1    1    2    0    0  0.41558457917E+02 -0.76272699816E+02  0.37554278158E+01  0.86940976529E+02  0.00000000000E+00 0. -1.
</event>
<event>
 7    1  0.6506388E-006  0.1201313E+03  0.7561462E-02  0.1242881E+00
         -2   -1    0    0    0  501 -0.00000000000E+00  0.00000000000E+00  0.80533347522E+02  0.80533347522E+02  0.00000000000E+00 0.  1.
          2   -1    0    0  501    0  0.00000000000E+00 -0.00000000000E+00 -0.31273183956E+03  0.31273183956E+03  0.00000000000E+00 0. -1.
         23    2    1    2    0    0 -0.61208913542E+02 -0.73425355567E+02 -0.47009915951E+02  0.16432220708E+03  0.12511611250E+03 0.  0.
          5    1    3    3  502    0 -0.92248790269E+02 -0.55479407747E+02 -0.63049496201E+02  0.12482193462E+03  0.41800000000E+01 0.  1.
         -5    1    3    3    0  502  0.31039876728E+02 -0.17945947820E+02  0.16039580251E+02  0.39500272468E+02  0.41800000000E+01 0.  1.
        -11    1    1    2    0    0  0.20234397351E+02  0.15518104503E+02 -0.14537866555E+03  0.14759809891E+03  0.00000000000E+00 0. -1.
         11    1    1    2    0    0  0.40974516191E+02  0.57907251064E+02 -0.39809910535E+02  0.81344881091E+02  0.00000000000E+00 0.  1.
</event>
<event>
 7    1  0.6506388E-006  0.9436035E+02  0.7561462E-02  0.1292623E+00
         -1   -1    0    0    0  501 -0.00000000000E+00  0.00000000000E+00  0.54464257455E+02  0.54464257455E+02  0.00000000000E+00 0.  1.
          1   -1    0    0  501    0  0.00000000000E+00 -0.00000000000E+00 -0.37255554564E+03  0.37255554564E+03  0.00000000000E+00 0. -1.
         23    2    1    2    0    0  0.16287967156E+02 -0.40533243559E+02 -0.52076564867E+02  0.14235843837E+03  0.12508283120E+03 0.  0.
          5    1    3    3  502    0  0.93303175365E+01 -0.69067139829E+02 -0.76762079046E+02  0.10376518592E+03  0.41800000000E+01 0.  1.
         -5    1    3    3    0  502  0.69576496199E+01  0.28533896270E+02  0.24685514179E+02  0.38593252452E+02  0.41800000000E+01 0.  1.
        -11    1    1    2    0    0  0.30743598694E+02  0.25247112347E+02 -0.18896050678E+03  0.19310271532E+03  0.00000000000E+00 0. -1.
         11    1    1    2    0    0 -0.47031565850E+02  0.15286131212E+02 -0.77054216534E+02  0.91558649397E+02  0.00000000000E+00 0.  1.
</event>
<event>
 7    1  0.6506388E-006  0.8637146E+02  0.7561462E-02  0.1311884E+00
          2   -1    0    0  501    0  0.00000000000E+00  0.00000000000E+00  0.16314346322E+03  0.16314346322E+03  0.00000000000E+00 0. -1.
         -2   -1    0    0    0  501 -0.00000000000E+00 -0.00000000000E+00 -0.81025264405E+02  0.81025264405E+02  0.00000000000E+00 0.  1.
         23    2    1    2    0    0 -0.15633740797E+01  0.38452081743E+02  0.42694982192E+02  0.13766455775E+03  0.12509061606E+03 0.  0.
          5    1    3    3  502    0  0.82967028704E+01 -0.16098992329E+02 -0.36467890590E+02  0.40931556000E+02  0.41800000000E+01 0. -1.
         -5    1    3    3    0  502 -0.98600769501E+01  0.54551074072E+02  0.79162872782E+02  0.96733001747E+02  0.41800000000E+01 0. -1.
        -11    1    1    2    0    0 -0.26517987745E+02  0.20332547995E+02  0.17805825246E+02  0.37863750405E+02  0.00000000000E+00 0.  1.
         11    1    1    2    0    0  0.28081361825E+02 -0.58784629738E+02  0.21617391374E+02  0.68640419472E+02  0.00000000000E+00 0. -1.
</event>
<event>
 7    1  0.6506388E-006  0.7199612E+02  0.7561462E-02  0.1353434E+00
         -1   -1    0    0    0  501 -0.00000000000E+00  0.00000000000E+00  0.66268454422E+02  0.66268454422E+02  0.00000000000E+00 0.  1.
          1   -1    0    0  501    0  0.00000000000E+00 -0.00000000000E+00 -0.19130757266E+03  0.19130757266E+03  0.00000000000E+00 0. -1.
         23    2    1    2    0    0  0.32091904099E+02  0.35426485617E+01 -0.70340112275E+02  0.14709358105E+03  0.12508536895E+03 0.  0.
          5    1    3    3  502    0  0.20630614818E+02  0.29253455413E+02  0.27414050595E+02  0.45281226700E+02  0.41800000000E+01 0.  1.
         -5    1    3    3    0  502  0.11461289280E+02 -0.25710806851E+02 -0.97754162870E+02  0.10181235436E+03  0.41800000000E+01 0.  1.
        -11    1    1    2    0    0 -0.23573403422E+02 -0.37604946963E+02 -0.60356494671E+02  0.74918247670E+02  0.00000000000E+00 0.  1.
         11    1    1    2    0    0 -0.85185006763E+01  0.34062298401E+02  0.56574887102E+01  0.35564198355E+02  0.00000000000E+00 0. -1.
</event>
<event>
 7    1  0.6506388E-006  0.9648682E+02  0.7561462E-02  0.1287862E+00
          1   -1    0    0  501    0  0.00000000000E+00  0.00000000000E+00  0.21481645155E+03  0.21481645155E+03  0.00000000000E+00 0. -1.
         -1   -1    0    0    0  501 -0.00000000000E+00 -0.00000000000E+00 -0.60665841978E+02  0.60665841978E+02  0.00000000000E+00 0.  1.
         23    2    1    2    0    0 -0.63988692881E+01 -0.32495200898E+02  0.77708574416E+02  0.15094010175E+03  0.12508960057E+03 0.  0.
          5    1    3    3  502    0  0.56849095982E+02  0.22778276597E+01  0.32110499799E+02  0.65464225423E+02  0.41800000000E+01 0. -1.
         -5    1    3    3    0  502 -0.63247965270E+02 -0.34773028558E+02  0.45598074617E+02  0.85475876332E+02  0.41800000000E+01 0. -1.
        -11    1    1    2    0    0 -0.95241877995E+01  0.43332528178E+02 -0.13637050404E+01  0.44387811874E+02  0.00000000000E+00 0.  1.
         11    1    1    2    0    0  0.15923057088E+02 -0.10837327280E+02  0.77805740196E+02  0.80154379900E+02  0.00000000000E+00 0. -1.
</event>
<event>
 7    1  0.6506388E-006  0.9920815E+02  0.7561462E-02  0.1281970E+00
         -1   -1    0    0    0  501 -0.00000000000E+00  0.00000000000E+00  0.10469146672E+03  0.10469146672E+03  0.00000000000E+00 0.  1.
          1   -1    0    0  501    0  0.00000000000E+00 -0.00000000000E+00 -0.29283132197E+03  0.29283132197E+03  0.00000000000E+00 0. -1.
         23    2    1    2    0    0  0.25636925004E+02 -0.65064081630E+02  0.34693986400E+02  0.14721876996E+03  0.12481629259E+03 0.  0.
          5    1    3    3  502    0  0.19982193163E+02  0.16414494204E+02 -0.32238422848E+02  0.41539282268E+02  0.41800000000E+01 0. -1.
         -5    1    3    3    0  502  0.56547318412E+01 -0.81478575834E+02  0.66932409248E+02  0.10567948770E+03  0.41800000000E+01 0. -1.
        -11    1    1    2    0    0 -0.10561779228E+02 -0.95975804062E+01  0.55981659693E+00  0.14282091049E+02  0.00000000000E+00 0.  1.
         11    1    1    2    0    0 -0.15075145776E+02  0.74661662036E+02 -0.22339365824E+03  0.23602192767E+03  0.00000000000E+00 0. -1.
</event>
<event>
 7    1  0.6506388E-006  0.1368267E+03  0.7561462E-02  0.1217664E+00
         -4   -1    0    0    0  501 -0.00000000000E+00  0.00000000000E+00  0.67729515916E+02  0.67729515916E+02  0.00000000000E+00 0.  1.
          4   -1    0    0  501    0  0.00000000000E+00 -0.00000000000E+00 -0.37617260056E+03  0.37617260056E+03  0.00000000000E+00 0. -1.
         23    2    1    2    0    0  0.77781735432E+02 -0.86221013922E+02 -0.16997122221E+03  0.24087682051E+03  0.12508942670E+03 0.  0.
          5    1    3    3  502    0  0.80050754302E+02 -0.63842270532E+02 -0.18639907409E+03  0.21271117975E+03  0.41800000000E+01 0. -1.
         -5    1    3    3    0  502 -0.22690188700E+01 -0.22378743391E+02  0.16427851874E+02  0.28165640763E+02  0.41800000000E+01 0. -1.
        -11    1    1    2    0    0  0.17968070087E+02 -0.20295589806E+01 -0.20253889492E+02  0.27151255806E+02  0.00000000000E+00 0.  1.
         11    1    1    2    0    0 -0.95749805519E+02  0.88250572903E+02 -0.11821797294E+03  0.17587404016E+03  0.00000000000E+00 0. -1.
</event>
<event>
 7    1  0.6506388E-006  0.1095328E+03  0.7561462E-02  0.1261438E+00
         -2   -1    0    0    0  501 -0.00000000000E+00  0.00000000000E+00  0.90842946649E+02  0.90842946649E+02  0.00000000000E+00 0. -1.
          2   -1    0    0  501    0  0.00000000000E+00 -0.00000000000E+00 -0.21425058118E+03  0.21425058118E+03  0.00000000000E+00 0.  1.
         23    2    1    2    0    0  0.18995448120E+02  0.62288304812E+02 -0.37886356382E+02  0.14603426483E+03  0.12509984228E+03 0.  0.
          5    1    3    3  502    0 -0.48024302200E+02  0.52498617576E+02 -0.74514389008E+01  0.71661947998E+02  0.41800000000E+01 0. -1.
         -5    1    3    3    0  502  0.67019750320E+02  0.97896872364E+01 -0.30434917481E+02  0.74372316834E+02  0.41800000000E+01 0. -1.
        -11    1    1    2    0    0 -0.28070077608E+02 -0.15089282429E+02  0.23709962037E+02  0.39721253768E+02  0.00000000000E+00 0. -1.
         11    1    1    2    0    0  0.90746294880E+01 -0.47199022384E+02 -0.10923124018E+03  0.11933800923E+03  0.00000000000E+00 0.  1.
</event>
<event>
 7    1  0.6506388E-006  0.1734972E+03  0.7561462E-02  0.1174249E+00
         -2   -1    0    0    0  501 -0.00000000000E+00  0.00000000000E+00  0.37011337704E+02  0.37011337704E+02  0.00000000000E+00 0.  1.
          2   -1    0    0  501    0  0.00000000000E+00 -0.00000000000E+00 -0.10397179747E+04  0.10397179747E+04  0.00000000000E+00 0. -1.
         23    2    1    2    0    0  0.28393827784E+02 -0.15569922729E+03 -0.42033659572E+03  0.46623850919E+03  0.12508810861E+03 0.  0.
          5    1    3    3  502    0  0.46516897627E+02 -0.18440398091E+02 -0.50066108902E+02  0.70908093382E+02  0.41800000000E+01 0.  1.
         -5    1    3    3    0  502 -0.18123069843E+02 -0.13725882920E+03 -0.37027048682E+03  0.39533041581E+03  0.41800000000E+01 0.  1.
        -11    1    1    2    0    0 -0.13721361628E+02  0.73570332832E+02 -0.43282810483E+03  0.43925054123E+03  0.00000000000E+00 0. -1.
         11    1    1    2    0    0 -0.14672466156E+02  0.82128894459E+02 -0.14954193642E+03  0.17124026196E+03  0.00000000000E+00 0.  1.
</event>
<event>
 7    1  0.6506388E-006  0.9221764E+02  0.7561462E-02  0.1297569E+00
          1   -1    0    0  501    0  0.00000000000E+00  0.00000000000E+00  0.34906084762E+03  0.34906084762E+03  0.00000000000E+00 0. -1.
         -1   -1    0    0    0  501 -0.00000000000E+00 -0.00000000000E+00 -0.46881658710E+02  0.46881658710E+02  0.00000000000E+00 0.  1.
         23    2    1    2    0    0  0.37722819701E+02 -0.19226886189E+02  0.11701578315E+03  0.17644505951E+03  0.12508989265E+03 0.  0.
          5    1    3    3  502    0 -0.13780377061E+02 -0.37537116592E+02  0.11473686379E+03  0.12157694776E+03  0.41800000000E+01 0. -1.
         -5    1    3    3    0  502  0.51503196761E+02  0.18310230403E+02  0.22789193562E+01  0.54868111754E+02  0.41800000000E+01 0. -1.
        -11    1    1    2    0    0  0.66084172302E+01 -0.25555610835E+02  0.27883670328E+01  0.26543085996E+02  0.00000000000E+00 0.  1.
         11    1    1    2    0    0 -0.44331236931E+02  0.44782497025E+02  0.18237503873E+03  0.19295436082E+03  0.00000000000E+00 0. -1.
</event>
<event>
 7    1  0.6506388E-006  0.1078304E+03  0.7561462E-02  0.1264641E+00
         -1   -1    0    0    0  501 -0.00000000000E+00  0.00000000000E+00  0.12918909396E+03  0.12918909396E+03  0.00000000000E+00 0.  1.
          1   -1    0    0  501    0  0.00000000000E+00 -0.00000000000E+00 -0.14636406259E+03  0.14636406259E+03  0.00000000000E+00 0. -1.
         23    2    1    2    0    0 -0.51219796772E+02  0.59631072769E+02  0.21032481711E+02  0.14922526834E+03  0.12508590250E+03 0.  0.
          5    1    3    3  502    0 -0.77516968129E+02  0.35202742455E+02 -0.26732112133E+02  0.89331918391E+02  0.41800000000E+01 0. -1.
         -5    1    3    3    0  502  0.26297171357E+02  0.24428330314E+02  0.47764593843E+02  0.59893349951E+02  0.41800000000E+01 0. -1.
        -11    1    1    2    0    0  0.98089397102E+01 -0.51066236290E+02 -0.59468445834E+02  0.78996657125E+02  0.00000000000E+00 0. -1.
         11    1    1    2    0    0  0.41410857061E+02 -0.85648364792E+01  0.21260995492E+02  0.47331231082E+02  0.00000000000E+00 0.  1.
</event>
<event>
 7    1  0.6506388E-006  0.1058092E+03  0.7561462E-02  0.1268534E+00
          2   -1    0    0  501    0  0.00000000000E+00  0.00000000000E+00  0.37516489849E+03  0.37516489849E+03  0.00000000000E+00 0. -1.
         -2   -1    0    0    0  501 -0.00000000000E+00 -0.00000000000E+00 -0.32326898852E+02  0.32326898852E+02  0.00000000000E+00 0.  1.
         23    2    1    2    0    0  0.79912703915E+01  0.19418993471E+02  0.20443391504E+03  0.24058510084E+03  0.12508799870E+03 0.  0.
          5    1    3    3  502    0  0.26696082289E+02 -0.48808859029E+02  0.96445883012E+02  0.11141932633E+03  0.41800000000E+01 0. -1.
         -5    1    3    3    0  502 -0.18704811897E+02  0.68227852500E+02  0.10798803202E+03  0.12916577451E+03  0.41800000000E+01 0. -1.
        -11    1    1    2    0    0  0.46599813046E+01 -0.50858035149E+02  0.11468283834E+03  0.12554046589E+03  0.00000000000E+00 0.  1.
         11    1    1    2    0    0 -0.12651251696E+02  0.31439041678E+02  0.23721246258E+02  0.41366230613E+02  0.00000000000E+00 0. -1.
</event>
<event>
 7    1  0.6506388E-006  0.1970057E+03  0.7561462E-02  0.1152290E+00
         -1   -1    0    0    0  501 -0.00000000000E+00  0.00000000000E+00  0.46345743856E+03  0.46345743856E+03  0.00000000000E+00 0.  1.
          1   -1    0    0  501    0  0.00000000000E+00 -0.00000000000E+00 -0.99077204799E+02  0.99077204799E+02  0.00000000000E+00 0. -1.
         23    2    1    2    0    0  0.13215022021E+03 -0.11826860973E+03  0.25057605843E+03  0.33149249471E+03  0.12509103981E+03 0.  0.
          5    1    3    3  502    0  0.15423441229E+03 -0.87169674216E+02  0.21955761353E+03  0.28215212935E+03  0.41800000000E+01 0.  1.
         -5    1    3    3    0  502 -0.22084192080E+02 -0.31098935511E+02  0.31018444898E+02  0.49340365358E+02  0.41800000000E+01 0.  1.
        -11    1    1    2    0    0 -0.75843848821E+02  0.54719646255E+02  0.11227410716E+03  0.14612325013E+03  0.00000000000E+00 0.  1.
         11    1    1    2    0    0 -0.56306371393E+02  0.63548963471E+02  0.15300681779E+01  0.84918898523E+02  0.00000000000E+00 0. -1.
</event>
<event>
 7    1  0.6506388E-006  0.1279888E+03  0.7561462E-02  0.1230471E+00
          2   -1    0    0  501    0  0.00000000000E+00  0.00000000000E+00  0.70220641379E+02  0.70220641379E+02  0.00000000000E+00 0. -1.
         -2   -1    0    0    0  501 -0.00000000000E+00 -0.00000000000E+00 -0.23783057428E+03  0.23783057428E+03  0.00000000000E+00 0.  1.
         23    2    1    2    0    0 -0.37879852460E+02  0.57659071598E+02 -0.11345886627E+03  0.18242521337E+03  0.12508633969E+03 0.  0.
          5    1    3    3  502    0 -0.14222994623E+02  0.96202645586E+02 -0.80422558055E+02  0.12626362437E+03  0.41800000000E+01 0.  1.
         -5    1    3    3    0  502 -0.23656857838E+02 -0.38543573988E+02 -0.33036308220E+02  0.56161589003E+02  0.41800000000E+01 0.  1.
        -11    1    1    2    0    0 -0.74715323536E+01  0.21075349159E+02 -0.83041153901E+01  0.23852724588E+02  0.00000000000E+00 0.  1.
         11    1    1    2    0    0  0.45351384814E+02 -0.78734420757E+02 -0.45846951235E+02  0.10177327770E+03  0.00000000000E+00 0. -1.
</event>
<event>
 7    1  0.6506388E-006  0.1302471E+03  0.7561462E-02  0.1227090E+00
          2   -1    0    0  501    0  0.00000000000E+00  0.00000000000E+00  0.32697336193E+03  0.32697336193E+03  0.00000000000E+00 0. -1.
         -2   -1    0    0    0  501 -0.00000000000E+00 -0.00000000000E+00 -0.78659462078E+02  0.78659462078E+02  0.00000000000E+00 0.  1.
         23    2    1    2    0    0 -0.11651740975E+03 -0.21245547975E+01  0.90824103383E+02  0.19360005193E+03  0.12510452368E+03 0.  0.
          5    1    3    3  502    0 -0.35410737614E+02 -0.97274836689E+01  0.10454393972E+03  0.11088485924E+03  0.41800000000E+01 0. -1.
         -5    1    3    3    0  502 -0.81106672134E+02  0.76029288714E+01 -0.13719836337E+02  0.82715192687E+02  0.41800000000E+01 0. -1.
        -11    1    1    2    0    0 -0.21618523224E+00 -0.22633806450E+02  0.24631153205E+02  0.33451900375E+02  0.00000000000E+00 0.  1.
         11    1    1    2    0    0  0.11673359498E+03  0.24758361248E+02  0.13285864326E+03  0.17858087170E+03  0.00000000000E+00 0. -1.
</event>
<event>
 7    1  0.6506388E-006  0.9656754E+02  0.7561462E-02  0.1287684E+00
          2   -1    0    0  501    0  0.00000000000E+00  0.00000000000E+00  0.36767595512E+03  0.36767595512E+03  0.00000000000E+00 0. -1.
         -2   -1    0    0    0  501 -0.00000000000E+00 -0.00000000000E+00 -0.35577615459E+02  0.35577615459E+02  0.00000000000E+00 0.  1.
         23    2    1    2    0    0  0.14556716570E+01 -0.10643918190E+02  0.12902094468E+03  0.18004190666E+03  0.12511303695E+03 0.  0.
          5    1    3    3  502    0 -0.82790681882E+01 -0.57466521990E+02  0.21084205915E+02  0.61910905815E+02  0.41800000000E+01 0. -1.
         -5    1    3    3    0  502  0.97347398452E+01  0.46822603800E+02  0.10793673876E+03  0.11813100085E+03  0.41800000000E+01 0. -1.
        -11    1    1    2    0    0 -0.42035830345E+02 -0.70958756047E+01  0.13845516243E+03  0.14486957750E+03  0.00000000000E+00 0. -1.
         11    1    1    2    0    0  0.40580158688E+02  0.17739793795E+02  0.64622232563E+02  0.78342086419E+02  0.00000000000E+00 0.  1.
</event>
<event>
 7    1  0.6506388E-006  0.1347715E+03  0.7561462E-02  0.1220543E+00
          2   -1    0    0  501    0  0.00000000000E+00  0.00000000000E+00  0.32481367114E+03  0.32481367114E+03  0.00000000000E+00 0. -1.
         -2   -1    0    0    0  501 -0.00000000000E+00 -0.00000000000E+00 -0.69408841939E+02  0.69408841939E+02  0.00000000000E+00 0.  1.
         23    2    1    2    0    0 -0.63359916465E+01 -0.99457424509E+02  0.99754747147E+02  0.18849478413E+03  0.12508936800E+03 0.  0.
          5    1    3    3  502    0 -0.52795319823E+02 -0.98397720271E+02  0.58096248564E+02  0.12594484367E+03  0.41800000000E+01 0.  1.
         -5    1    3    3    0  502  0.46459328177E+02 -0.10597042378E+01  0.41658498582E+02  0.62549940462E+02  0.41800000000E+01 0.  1.
        -11    1    1    2    0    0  0.24501153931E+02  0.83297431419E+02  0.15902250321E+03  0.18118202215E+03  0.00000000000E+00 0. -1.
         11    1    1    2    0    0 -0.18165162284E+02  0.16159993089E+02 -0.33724211556E+01  0.24545706792E+02  0.00000000000E+00 0.  1.
</event>
<event>
 7    1  0.6506388E-006  0.8503216E+02  0.7561462E-02  0.1315348E+00
         -2   -1    0    0    0  501 -0.00000000000E+00  0.00000000000E+00  0.62013569571E+02  0.62013569571E+02  0.00000000000E+00 0.  1.
          2   -1    0    0  501    0  0.00000000000E+00 -0.00000000000E+00 -0.22949480481E+03  0.22949480481E+03  0.00000000000E+00 0. -1.
         23    2    1    2    0    0 -0.25632129897E+02 -0.31691687158E+02 -0.60873513196E+02  0.14496415692E+03  0.12509057944E+03 0.  0.
          5    1    3    3  502    0 -0.10267789026E+02  0.32168702414E+02  0.20948384059E+02  0.39956978129E+02  0.41800000000E+01 0.  1.
         -5    1    3    3    0  502 -0.15364340872E+02 -0.63860389573E+02 -0.81821897254E+02  0.10500717879E+03  0.41800000000E+01 0.  1.
        -11    1    1    2    0    0  0.32825743829E+02 -0.46706342367E+01  0.54554098485E+00  0.33160848859E+02  0.00000000000E+00 0.  1.
         11    1    1    2    0    0 -0.71936139313E+01  0.36362321395E+02 -0.10715326303E+03  0.11338336861E+03  0.00000000000E+00 0. -1.
</event>
<event>
 7    1  0.6506388E-006  0.6580908E+02  0.7561462E-02  0.1374954E+00
          1   -1    0    0  501    0  0.00000000000E+00  0.00000000000E+00  0.14930678281E+02  0.14930678281E+02  0.00000000000E+00 0. -1.
         -1   -1    0    0    0  501 -0.00000000000E+00 -0.00000000000E+00 -0.76561829556E+03  0.76561829556E+03  0.00000000000E+00 0.  1.
         23    2    1    2    0    0 -0.28837530668E+02 -0.32318798219E+02 -0.45076656863E+03  0.46979584613E+03  0.12506610153E+03 0.  0.
          5    1    3    3  502    0 -0.20935320987E+02  0.82810760504E+00 -0.42815395394E+03  0.42868666191E+03  0.41800000000E+01 0.  1.
         -5    1    3    3    0  502 -0.79022096808E+01 -0.33146905824E+02 -0.22612614685E+02  0.41109184211E+02  0.41800000000E+01 0.  1.
        -11    1    1    2    0    0  0.28954698291E+02  0.50247631449E+02 -0.26740766184E+03  0.27362393285E+03  0.00000000000E+00 0.  1.
         11    1    1    2    0    0 -0.11716762263E+00 -0.17928833229E+02 -0.32513386813E+02  0.37129194864E+02  0.00000000000E+00 0. -1.
</event>
<event>
 7    1  0.6506388E-006  0.1253854E+03  0.7561462E-02  0.1234468E+00
         -1   -1    0    0    0  501 -0.00000000000E+00  0.00000000000E+00  0.73027522966E+03  0.73027522966E+03  0.00000000000E+00 0.  1.
          1   -1    0    0  501    0  0.00000000000E+00 -0.00000000000E+00 -0.23582206290E+02  0.23582206290E+02  0.00000000000E+00 0. -1.
         23    2    1    2    0    0 -0.38633612157E+02  0.46290092634E+02  0.47898239993E+03  0.49870260970E+03  0.12507927412E+03 0.  0.
          5    1    3    3  502    0 -0.42799712075E+01  0.84149112858E+02  0.24353148739E+03  0.25772941062E+03  0.41800000000E+01 0. -1.
         -5    1    3    3    0  502 -0.34353640950E+02 -0.37859020223E+02  0.23545091254E+03  0.24097319908E+03  0.41800000000E+01 0. -1.
        -11    1    1    2    0    0  0.70560882808E+02 -0.43894076031E+02  0.16456518338E+03  0.18435625206E+03  0.00000000000E+00 0. -1.
         11    1    1    2    0    0 -0.31927270651E+02 -0.23960166032E+01  0.63145440060E+02  0.70798574189E+02  0.00000000000E+00 0.  1.
</event>
<event>
 7    1  0.6506388E-006  0.1123819E+03  0.7561462E-02  0.1256222E+00
         -2   -1    0    0    0  501 -0.00000000000E+00  0.00000000000E+00  0.42030728383E+02  0.42030728383E+02  0.00000000000E+00 0.  1.
          2   -1    0    0  501    0  0.00000000000E+00 -0.00000000000E+00 -0.37825907880E+03  0.37825907880E+03  0.00000000000E+00 0. -1.
         23    2    1    2    0    0  0.14621532218E+02  0.34465255288E+02 -0.10101471415E+03  0.16508344078E+03  0.12508767693E+03 0.  0.
          5    1    3    3  502    0 -0.51783914737E+02  0.37250243935E+02 -0.51720157150E+02  0.82228958125E+02  0.41800000000E+01 0.  1.
         -5    1    3    3    0  502  0.66405446955E+02 -0.27849886469E+01 -0.49294556998E+02  0.82854482659E+02  0.41800000000E+01 0.  1.
        -11    1    1    2    0    0 -0.50804252028E+02 -0.14113187207E+02 -0.91378320069E+02  0.10550000690E+03  0.00000000000E+00 0.  1.
         11    1    1    2    0    0  0.36182719809E+02 -0.20352068081E+02 -0.14383531620E+03  0.14970635949E+03  0.00000000000E+00 0. -1.
</event>
<event>
 7    1  0.6506388E-006  0.8504044E+02  0.7561462E-02  0.1315327E+00
         -2   -1    0    0    0  501 -0.00000000000E+00  0.00000000000E+00  0.17154274173E+03  0.17154274173E+03  0.00000000000E+00 0.  1.
          2   -1    0    0  501    0  0.00000000000E+00 -0.00000000000E+00 -0.12128156621E+03  0.12128156621E+03  0.00000000000E+00 0. -1.
         23    2    1    2    0    0 -0.25088595301E+02 -0.25460449497E+02  0.12992160654E+03  0.18386103257E+03  0.12509030078E+03 0.  0.
          5    1    3    3  502    0 -0.31396659680E+02 -0.56579671124E+02  0.13654346322E+03  0.15115753098E+03  0.41800000000E+01 0. -1.
         -5    1    3    3    0  502  0.63080643793E+01  0.31119221627E+02 -0.66218566770E+01  0.32703501598E+02  0.41800000000E+01 0. -1.
        -11    1    1    2    0    0  0.45427016837E+02  0.26950457112E+02 -0.48414014351E+02  0.71650944047E+02  0.00000000000E+00 0.  1.
         11    1    1    2    0    0 -0.20338421537E+02 -0.14900076144E+01 -0.31246416677E+02  0.37312331319E+02  0.00000000000E+00 0. -1.
</event>
<event>
 7    1  0.6506388E-006  0.1671693E+03  0.7561462E-02  0.1180832E+00
         -1   -1    0    0    0  501 -0.00000000000E+00  0.00000000000E+00  0.84402462541E+02  0.84402462541E+02  0.00000000000E+00 0.  1.
          1   -1    0    0  501    0  0.00000000000E+00 -0.00000000000E+00 -0.58534667096E+03  0.58534667096E+03  0.00000000000E+00 0. -1.
         23    2    1    2    0    0 -0.97685642222E+02  0.85026918291E+02 -0.42842142931E+02  0.18508526441E+03  0.12509614047E+03 0.  0.
          5    1    3    3  502    0 -0.58419565581E+01  0.87764805798E+02 -0.22361439970E+02  0.90853156196E+02  0.41800000000E+01 0. -1.
         -5    1    3    3    0  502 -0.91843685664E+02 -0.27378875067E+01 -0.20480702961E+02  0.94232108212E+02  0.41800000000E+01 0. -1.
        -11    1    1    2    0    0  0.53866536914E+02  0.50784898366E+01 -0.21543978661E+03  0.22212990909E+03  0.00000000000E+00 0.  1.
         11    1    1    2    0    0  0.43819105308E+02 -0.90105408128E+02 -0.24266227888E+03  0.26253396000E+03  0.00000000000E+00 0. -1.
</event>
<event>
 7    1  0.6506388E-006  0.7811968E+02  0.7561462E-02  0.1334474E+00
         -1   -1    0    0    0  501 -0.00000000000E+00  0.00000000000E+00  0.26012341100E+03  0.26012341100E+03  0.00000000000E+00 0.  1.
          1   -1    0    0  501    0  0.00000000000E+00 -0.00000000000E+00 -0.83958648972E+02  0.83958648972E+02  0.00000000000E+00 0. -1.
         23    2    1    2    0    0  0.23640488257E+02  0.69564518296E+02  0.15407081320E+03  0.21162058637E+03  0.12508941684E+03 0.  0.
          5    1    3    3  502    0 -0.58847326726E+01  0.52868227784E+01 -0.20960645969E+02  0.22790385104E+02  0.41800000000E+01 0. -1.
         -5    1    3    3    0  502  0.29525220929E+02  0.64277695518E+02  0.17503145917E+03  0.18883020127E+03  0.41800000000E+01 0. -1.
        -11    1    1    2    0    0  0.12479519947E+01 -0.27716232867E+02 -0.42999128550E+02  0.51172961656E+02  0.00000000000E+00 0. -1.
         11    1    1    2    0    0 -0.24888440251E+02 -0.41848285429E+02  0.65093077378E+02  0.81288511944E+02  0.00000000000E+00 0.  1.
</event>
<event>
 6    1  0.6506388E-006  0.1330452E+03  0.7561462E-02  0.1223006E+00
          2   -1    0    0  501    0  0.00000000000E+00  0.00000000000E+00  0.19479690420E+03  0.19479690420E+03  0.00000000000E+00 0. -1.
         -2   -1    0    0    0  501 -0.00000000000E+00 -0.00000000000E+00 -0.12860071361E+03  0.12860071361E+03  0.00000000000E+00 0.  1.
          5    1    1    2  502    0  0.32133287573E+00  0.10666333010E+03  0.63558891243E+02  0.12423515725E+03  0.41800000000E+01 0. -1.
         -5    1    1    2    0  502 -0.29006798136E+02 -0.39462512645E+02 -0.49669641714E+02  0.69880111265E+02  0.41800000000E+01 0.  1.
        -11    1    1    2    0    0  0.56997775844E+02 -0.33264441960E+02  0.53673685067E+02  0.85065469015E+02  0.00000000000E+00 0. -1.
         11    1    1    2    0    0 -0.28312310583E+02 -0.33936375491E+02 -0.13667440000E+01  0.44216880274E+02  0.00000000000E+00 0.  1.
</event>
<event>
 7    1  0.6506388E-006  0.1166724E+03  0.7561462E-02  0.1248690E+00
         -1   -1    0    0    0  501 -0.00000000000E+00  0.00000000000E+00  0.53519325225E+02  0.53519325225E+02  0.00000000000E+00 0.  1.
          1   -1    0    0  501    0  0.00000000000E+00 -0.00000000000E+00 -0.28740442741E+03  0.28740442741E+03  0.00000000000E+00 0. -1.
         23    2    1    2    0    0  0.58650297482E+01 -0.52761357696E+02 -0.94705120700E+02  0.16563379652E+03  0.12508930899E+03 0.  0.
          5    1    3    3  502    0  0.51894063975E+02  0.14696953177E+02 -0.36378600684E+02  0.65191021592E+02  0.41800000000E+01 0. -1.
         -5    1    3    3    0  502 -0.46029034227E+02 -0.67458310874E+02 -0.58326520017E+02  0.10044277493E+03  0.41800000000E+01 0. -1.
        -11    1    1    2    0    0 -0.15847985052E+02  0.73110986456E+02 -0.69852220488E+02  0.10235090463E+03  0.00000000000E+00 0.  1.
         11    1    1    2    0    0  0.99829553041E+01 -0.20349628760E+02 -0.69327761001E+02  0.72939051493E+02  0.00000000000E+00 0. -1.
</event>
<event>
 7    1  0.6506388E-006  0.1024361E+03  0.7561462E-02  0.1275255E+00
         -2   -1    0    0    0  501 -0.00000000000E+00  0.00000000000E+00  0.23746758075E+02  0.23746758075E+02  0.00000000000E+00 0.  1.
          2   -1    0    0  501    0  0.00000000000E+00 -0.00000000000E+00 -0.59969067466E+03  0.59969067466E+03  0.00000000000E+00 0. -1.
         23    2    1    2    0    0 -0.21969037648E+02 -0.10009870643E+02 -0.21611173044E+03  0.25086673152E+03  0.12508797232E+03 0.  0.
          5    1    3    3  502    0 -0.63410142509E+02 -0.19691479272E+02 -0.18867246426E+03  0.20005842071E+03  0.41800000000E+01 0. -1.
         -5    1    3    3    0  502  0.41441104860E+02  0.96816086281E+01 -0.27439266184E+02  0.50808310800E+02  0.41800000000E+01 0. -1.
        -11    1    1    2    0    0  0.49735407532E+01 -0.41264965298E+02 -0.13033111688E+03  0.13679814873E+03  0.00000000000E+00 0. -1.
         11    1    1    2    0    0  0.16995496895E+02  0.51274835941E+02 -0.22950106927E+03  0.23577255249E+03  0.00000000000E+00 0.  1.
</event>
<event>
 7    1  0.6506388E-006  0.1034020E+03  0.7561462E-02  0.1273300E+00
         -1   -1    0    0    0  501 -0.00000000000E+00  0.00000000000E+00  0.40143602800E+02  0.40143602800E+02  0.00000000000E+00 0.  1.
          1   -1    0    0  501    0  0.00000000000E+00 -0.00000000000E+00 -0.32006453279E+03  0.32006453279E+03  0.00000000000E+00 0. -1.
         23    2    1    2    0    0 -0.56879103665E+01  0.85042743932E+01 -0.11378483082E+03  0.16940380228E+03  0.12508391381E+03 0.  0.
          5    1    3    3  502    0 -0.26120169720E+02  0.55828739674E+02 -0.24979827504E+02  0.66637644181E+02  0.41800000000E+01 0. -1.
         -5    1    3    3    0  502  0.20432259353E+02 -0.47324465281E+02 -0.88805003318E+02  0.10276615810E+03  0.41800000000E+01 0. -1.
        -11    1    1    2    0    0  0.48938270986E+02  0.13245762561E+01 -0.77043813968E+02  0.91282299161E+02  0.00000000000E+00 0.  1.
         11    1    1    2    0    0 -0.43250360620E+02 -0.98288506493E+01 -0.89092285205E+02  0.99522034153E+02  0.00000000000E+00 0. -1.
</event>
<event>
 7    1  0.6506388E-006  0.1216032E+03  0.7561462E-02  0.1240475E+00
          3   -1    0    0  501    0  0.00000000000E+00  0.00000000000E+00  0.19566259758E+03  0.19566259758E+03  0.00000000000E+00 0. -1.
         -3   -1    0    0    0  501 -0.00000000000E+00 -0.00000000000E+00 -0.98229618905E+02  0.98229618905E+02  0.00000000000E+00 0.  1.
         23    2    1    2    0    0  0.25757914177E+02  0.84420558844E+02  0.44971850085E+02  0.15956379377E+03  0.12509131098E+03 0.  0.
          5    1    3    3  502    0  0.78424463746E+01 -0.32926775195E+02  0.13543181188E+02  0.36695594376E+02  0.41800000000E+01 0.  1.
         -5    1    3    3    0  502  0.17915467802E+02  0.11734733404E+03  0.31428668897E+02  0.12286819939E+03  0.41800000000E+01 0.  1.
        -11    1    1    2    0    0  0.10399420634E+01 -0.26293215437E+02  0.64082638262E+02  0.69274809160E+02  0.00000000000E+00 0. -1.
         11    1    1    2    0    0 -0.26797856241E+02 -0.58127343407E+02 -0.11621509667E+02  0.65053613563E+02  0.00000000000E+00 0.  1.
</event>
<event>
 7    1  0.6506388E-006  0.1039021E+03  0.7561462E-02  0.1272298E+00
         -2   -1    0    0    0  501 -0.00000000000E+00  0.00000000000E+00  0.33308732628E+02  0.33308732628E+02  0.00000000000E+00 0.  1.
          2   -1    0    0  501    0  0.00000000000E+00 -0.00000000000E+00 -0.41859065525E+03  0.41859065525E+03  0.00000000000E+00 0. -1.
         23    2    1    2    0    0  0.24128251997E+02 -0.17908566594E+02 -0.16602301886E+03  0.21003553970E+03  0.12509354837E+03 0.  0.
          5    1    3    3  502    0 -0.49966863173E+02 -0.92214927221E+01 -0.90022209341E+02  0.10345624156E+03  0.41800000000E+01 0.  1.
         -5    1    3    3    0  502  0.74095115170E+02 -0.86870738721E+01 -0.76000809523E+02  0.10657929814E+03  0.41800000000E+01 0.  1.
        -11    1    1    2    0    0 -0.47206462426E+02  0.30115537629E+02 -0.66703077666E+02  0.87090161738E+02  0.00000000000E+00 0.  1.
         11    1    1    2    0    0  0.23078210429E+02 -0.12206971034E+02 -0.15255582609E+03  0.15477368643E+03  0.00000000000E+00 0. -1.
</event>
<event>
 7    1  0.6506388E-006  0.1104327E+03  0.7561462E-02  0.1259771E+00
          2   -1    0    0  501    0  0.00000000000E+00  0.00000000000E+00  0.53948218483E+03  0.53948218483E+03  0.00000000000E+00 0. -1.
         -2   -1    0    0    0  501 -0.00000000000E+00 -0.00000000000E+00 -0.29651458333E+02  0.29651458333E+02  0.00000000000E+00 0.  1.
         23    2    1    2    0    0  0.23455614313E+02  0.60630345769E+02  0.27383621667E+03  0.30799250685E+03  0.12508759348E+03 0.  0.
          5    1    3    3  502    0 -0.45881254332E+02  0.48661197527E+02  0.99656504093E+02  0.12009118557E+03  0.41800000000E+01 0. -1.
         -5    1    3    3    0  502  0.69336868645E+02  0.11969148243E+02  0.17417971258E+03  0.18790132128E+03  0.41800000000E+01 0. -1.
        -11    1    1    2    0    0 -0.38316094791E+02 -0.27824156446E+02  0.40360216021E+02  0.62219400827E+02  0.00000000000E+00 0.  1.
         11    1    1    2    0    0  0.14860480478E+02 -0.32806189323E+02  0.19563429381E+03  0.19892173549E+03  0.00000000000E+00 0. -1.
</event>
<event>
 7    1  0.6506388E-006  0.2361688E+03  0.7561462E-02  0.1122372E+00
          1   -1    0    0  501    0  0.00000000000E+00  0.00000000000E+00  0.10778510987E+04  0.10778510987E+04  0.00000000000E+00 0. -1.
         -1   -1    0    0    0  501 -0.00000000000E+00 -0.00000000000E+00 -0.60335395677E+02  0.60335395677E+02  0.00000000000E+00 0.  1.
         23    2    1    2    0    0 -0.65071203183E+02  0.21125202138E+03  0.37947125692E+03  0.45663282864E+03  0.12511365770E+03 0.  0.
          5    1    3    3  502    0 -0.79013588480E+02  0.14611527838E+03  0.34165960554E+03  0.37992312406E+03  0.41800000000E+01 0.  1.
         -5    1    3    3    0  502  0.13942385296E+02  0.65136742997E+02  0.37811651382E+02  0.76709704577E+02  0.41800000000E+01 0.  1.
        -11    1    1    2    0    0  0.53176817876E+02 -0.21891544039E+03  0.59361689775E+03  0.63492737009E+03  0.00000000000E+00 0.  1.
         11    1    1    2    0    0  0.11894385308E+02  0.76634190050E+01  0.44427548332E+02  0.46626295623E+02  0.00000000000E+00 0. -1.
</event>
<event>
 7    1  0.6506388E-006  0.9889947E+02  0.7561462E-02  0.1282627E+00
          1   -1    0    0  501    0  0.00000000000E+00  0.00000000000E+00  0.42489635205E+03  0.42489635205E+03  0.00000000000E+00 0. -1.
         -1   -1    0    0    0  501 -0.00000000000E+00 -0.00000000000E+00 -0.27856089257E+02  0.27856089257E+02  0.00000000000E+00 0.  1.
         23    2    1    2    0    0  0.88920840702E+01  0.50612468631E+00  0.21364255941E+03  0.24773483536E+03  0.12510028034E+03 0.  0.
          5    1    3    3  502    0 -0.41708928612E+02  0.32682731722E+02  0.48358675556E+02  0.71859791124E+02  0.41800000000E+01 0.  1.
         -5    1    3    3    0  502  0.50601012683E+02 -0.32176607036E+02  0.16528388385E+03  0.17587504424E+03  0.41800000000E+01 0.  1.
        -11    1    1    2    0    0  0.33788849157E+02 -0.18145451293E+02  0.12389679326E+03  0.12969718235E+03  0.00000000000E+00 0. -1.
         11    1    1    2    0    0 -0.42680933227E+02  0.17639326606E+02  0.59500910122E+02  0.75320423589E+02  0.00000000000E+00 0.  1.
</event>
<event>
 6    1  0.6506388E-006  0.1461586E+03  0.7561462E-02  0.1205274E+00
         -3   -1    0    0    0  501 -0.00000000000E+00  0.00000000000E+00  0.13490149057E+03  0.13490149057E+03  0.00000000000E+00 0.  1.
          3   -1    0    0  501    0  0.00000000000E+00 -0.00000000000E+00 -0.18811454404E+03  0.18811454404E+03  0.00000000000E+00 0. -1.
          5    1    1    2  502    0  0.13254999199E+02  0.74250459333E+02 -0.45574599963E+02  0.88223252472E+02  0.41800000000E+01 0. -1.
         -5    1    1    2    0  502 -0.78968525479E+02 -0.70436363817E+02  0.34875151259E+02  0.11149465431E+03  0.41800000000E+01 0.  1.
        -11    1    1    2    0    0  0.30168526183E+02  0.42733743787E+02 -0.37806509303E+02  0.64541807968E+02  0.00000000000E+00 0. -1.
         11    1    1    2    0    0  0.35545000097E+02 -0.46547839303E+02 -0.47070954580E+01  0.58756319859E+02  0.00000000000E+00 0.  1.
</event>
<event>
 7    1  0.6506388E-006  0.1264346E+03  0.7561462E-02  0.1232844E+00
          1   -1    0    0  501    0  0.00000000000E+00  0.00000000000E+00  0.31909194309E+03  0.31909194309E+03  0.00000000000E+00 0. -1.
         -1   -1    0    0    0  501 -0.00000000000E+00 -0.00000000000E+00 -0.77164350904E+02  0.77164350904E+02  0.00000000000E+00 0.  1.
         23    2    1    2    0    0  0.72976571283E+02 -0.65914523801E+02  0.60281118401E+02  0.17015265368E+03  0.12509119838E+03 0.  0.
          5    1    3    3  502    0  0.99251589884E+02 -0.19921308453E+02  0.19510030685E+02  0.10317872999E+03  0.41800000000E+01 0.  1.
         -5    1    3    3    0  502 -0.26275018600E+02 -0.45993215348E+02  0.40771087716E+02  0.66973923687E+02  0.41800000000E+01 0.  1.
        -11    1    1    2    0    0 -0.44654167148E+02  0.42915055903E+02  0.17912765008E+03  0.18953208617E+03  0.00000000000E+00 0. -1.
         11    1    1    2    0    0 -0.28322404135E+02  0.22999467898E+02  0.25188237072E+01  0.36571554143E+02  0.00000000000E+00 0.  1.
</event>
<event>
 7    1  0.6506388E-006  0.1554876E+03  0.7561462E-02  0.1193888E+00
          3   -1    0    0  501    0  0.00000000000E+00  0.00000000000E+00  0.40767947759E+02  0.40767947759E+02  0.00000000000E+00 0. -1.
         -3   -1    0    0    0  501 -0.00000000000E+00 -0.00000000000E+00 -0.68443655005E+03  0.68443655005E+03  0.00000000000E+00 0.  1.
         23    2    1    2    0    0 -0.11751817201E+03  0.45749196387E+02 -0.38373979774E+03  0.42285242694E+03  0.12507770735E+03 0.  0.
          5    1    3    3  502    0 -0.45970771317E+02  0.71479425783E+02 -0.11206602485E+03  0.14070851592E+03  0.41800000000E+01 0. -1.
         -5    1    3    3    0  502 -0.71547400697E+02 -0.25730229395E+02 -0.27167377288E+03  0.28214391102E+03  0.41800000000E+01 0. -1.
        -11    1    1    2    0    0  0.11830307038E+03 -0.15310802939E+02 -0.17214210151E+03  0.20943481149E+03  0.00000000000E+00 0.  1.
         11    1    1    2    0    0 -0.78489836970E+00 -0.30438393449E+02 -0.87786703043E+02  0.92917259388E+02  0.00000000000E+00 0. -1.
</event>
<event>
 7    1  0.6506388E-006  0.1284919E+03  0.7561462E-02  0.1229711E+00
         -2   -1    0    0    0  501 -0.00000000000E+00  0.00000000000E+00  0.14300621190E+02  0.14300621190E+02  0.00000000000E+00 0. -1.
          2   -1    0    0  501    0  0.00000000000E+00 -0.00000000000E+00 -0.11735559160E+04  0.11735559160E+04  0.00000000000E+00 0.  1.
         23    2    1    2    0    0  0.64620962665E+02  0.23733835560E+02 -0.64378090266E+03  0.65942526143E+03  0.12509460827E+03 0.  0.
          5    1    3    3  502    0 -0.26494090690E+02 -0.25953292929E+02 -0.21706046727E+03  0.22024583789E+03  0.41800000000E+01 0. -1.
         -5    1    3    3    0  502  0.91115053355E+02  0.49687128489E+02 -0.42672043539E+03  0.43917942354E+03  0.41800000000E+01 0. -1.
        -11    1    1    2    0    0 -0.88919605502E+02 -0.20796648153E+02 -0.42536691631E+03  0.43505885844E+03  0.00000000000E+00 0.  1.
         11    1    1    2    0    0  0.24298642837E+02 -0.29371874067E+01 -0.90107475858E+02  0.93372417336E+02  0.00000000000E+00 0. -1.
</event>
<event>
 7    1  0.6506388E-006  0.6932266E+02  0.7561462E-02  0.1362412E+00
          4   -1    0    0  501    0  0.00000000000E+00  0.00000000000E+00  0.37518000176E+02  0.37518000176E+02  0.00000000000E+00 0.  1.
         -4   -1    0    0    0  501 -0.00000000000E+00 -0.00000000000E+00 -0.33828269088E+03  0.33828269088E+03  0.00000000000E+00 0. -1.
         23    2    1    2    0    0 -0.17023379503E+02 -0.21956302516E+01 -0.21299916841E+03  0.24760858746E+03  0.12508697213E+03 0.  0.
          5    1    3    3  502    0 -0.48369177624E+02  0.13820690623E+01 -0.21011240120E+03  0.21565291790E+03  0.41800000000E+01 0.  1.
         -5    1    3    3    0  502  0.31345798121E+02 -0.35776993139E+01 -0.28867672098E+01  0.31955669562E+02  0.41800000000E+01 0.  1.
        -11    1    1    2    0    0  0.21505600910E+02  0.26163567798E+02 -0.96516290894E+02  0.10228595973E+03  0.00000000000E+00 0. -1.
         11    1    1    2    0    0 -0.44822214066E+01 -0.23967937546E+02  0.87507685990E+01  0.25906143866E+02  0.00000000000E+00 0.  1.
</event>
<event>
 6    1  0.6506388E-006  0.8618736E+02  0.7561462E-02  0.1312356E+00
          4   -1    0    0  501    0  0.00000000000E+00  0.00000000000E+00  0.67702770308E+02  0.67702770308E+02  0.00000000000E+00 0. -1.
         -4   -1    0    0    0  501 -0.00000000000E+00 -0.00000000000E+00 -0.70506549737E+03  0.70506549737E+03  0.00000000000E+00 0.  1.
          5    1    1    2  502    0  0.20463148964E+02 -0.23865797679E+02 -0.28146806989E+02  0.42403206342E+02  0.41800000000E+01 0. -1.
         -5    1    1    2    0  502 -0.27048021203E+02  0.11887295002E+02 -0.61454152057E+03  0.61526551678E+03  0.41800000000E+01 0.  1.
        -11    1    1    2    0    0 -0.51143252693E+02 -0.28387717283E+01 -0.12814626766E+02  0.52800621020E+02  0.00000000000E+00 0.  1.
         11    1    1    2    0    0  0.57728124932E+02  0.14817274405E+02  0.18140227261E+02  0.62298923539E+02  0.00000000000E+00 0. -1.
</event>
<event>
 7    1  0.6506388E-006  0.1663711E+03  0.7561462E-02  0.1181686E+00
          1   -1    0    0  501    0  0.00000000000E+00  0.00000000000E+00  0.13748541279E+04  0.13748541279E+04  0.00000000000E+00 0. -1.
         -1   -1    0    0    0  501 -0.00000000000E+00 -0.00000000000E+00 -0.29789146016E+02  0.29789146016E+02  0.00000000000E+00 0.  1.
         23    2    1    2    0    0  0.79661750489E+02  0.11825144641E+03  0.37939583796E+03  0.42416690123E+03  0.12508780586E+03 0.  0.
          5    1    3    3  502    0 -0.62114665215E+01  0.58810351912E+02  0.25445845684E+03  0.26127345534E+03  0.41800000000E+01 0. -1.
         -5    1    3    3    0  502  0.85873217011E+02  0.59441094494E+02  0.12493738112E+03  0.16289344589E+03  0.41800000000E+01 0. -1.
        -11    1    1    2    0    0 -0.20088736957E+02  0.13593509049E+02  0.10803168089E+03  0.11072120356E+03  0.00000000000E+00 0.  1.
         11    1    1    2    0    0 -0.59573013533E+02 -0.13184495546E+03  0.85763746304E+03  0.86975516913E+03  0.00000000000E+00 0. -1.
</event>
<event>
 7    1  0.6506388E-006  0.5859541E+02  0.7561462E-02  0.1403823E+00
         -1   -1    0    0    0  501 -0.00000000000E+00  0.00000000000E+00  0.27781600694E+03  0.27781600694E+03  0.00000000000E+00 0.  1.
          1   -1    0    0  501    0  0.00000000000E+00 -0.00000000000E+00 -0.51115003539E+02  0.51115003539E+02  0.00000000000E+00 0. -1.
         23    2    1    2    0    0 -0.27478301839E+01 -0.30529229345E+02  0.17138000786E+03  0.21440536831E+03  0.12513580804E+03 0.  0.
          5    1    3    3  502    0  0.88805189825E+01 -0.48883661623E+02  0.18281970270E+03  0.18949668094E+03  0.41800000000E+01 0.  1.
         -5    1    3    3    0  502 -0.11628349166E+02  0.18354432278E+02 -0.11439694846E+02  0.24908687375E+02  0.41800000000E+01 0.  1.
        -11    1    1    2    0    0  0.17974744720E+02  0.14476851506E+02  0.78891123594E+02  0.82197810550E+02  0.00000000000E+00 0.  1.
         11    1    1    2    0    0 -0.15226914536E+02  0.16052377839E+02 -0.23570128050E+02  0.32327831613E+02  0.00000000000E+00 0. -1.
</event>
<event>
 7    1  0.6506388E-006  0.1197085E+03  0.7561462E-02  0.1243579E+00
         -2   -1    0    0    0  501 -0.00000000000E+00  0.00000000000E+00  0.35750626876E+02  0.35750626876E+02  0.00000000000E+00 0.  1.
          2   -1    0    0  501    0  0.00000000000E+00 -0.00000000000E+00 -0.49085711629E+03  0.49085711629E+03  0.00000000000E+00 0. -1.
         23    2    1    2    0    0 -0.67419877416E+02 -0.22923162315E+02 -0.19996974928E+03  0.24638706276E+03  0.12509105813E+03 0.  0.
          5    1    3    3  502    0 -0.96645483218E+01  0.41972185622E+02 -0.12248193141E+03  0.12990136174E+03  0.41800000000E+01 0.  1.
         -5    1    3    3    0  502 -0.57755329094E+02 -0.64895347938E+02 -0.77487817870E+02  0.11648570102E+03  0.41800000000E+01 0.  1.
        -11    1    1    2    0    0  0.84160248962E+02  0.45052881105E+01 -0.22951602838E+03  0.24450123191E+03  0.00000000000E+00 0. -1.
         11    1    1    2    0    0 -0.16740371546E+02  0.18417874205E+02 -0.25620711753E+02  0.35719448491E+02  0.00000000000E+00 0.  1.
</event>
<event>
 7    1  0.6506388E-006  0.1163800E+03  0.7561462E-02  0.1249191E+00
          3   -1    0    0  501    0  0.00000000000E+00  0.00000000000E+00  0.27688758827E+03  0.27688758827E+03  0.00000000000E+00 0. -1.
         -3   -1    0    0    0  501 -0.00000000000E+00 -0.00000000000E+00 -0.62624914105E+02  0.62624914105E+02  0.00000000000E+00 0.  1.
         23    2    1    2    0    0 -0.54366685239E+02 -0.40071396456E+02  0.84920584545E+02  0.16559192991E+03  0.12509088014E+03 0.  0.
          5    1    3    3  502    0 -0.82910960216E+02 -0.52650134197E+01  0.86959152154E+02  0.12033833235E+03  0.41800000000E+01 0. -1.
         -5    1    3    3    0  502  0.28544274977E+02 -0.34806383037E+02 -0.20385676088E+01  0.45253597558E+02  0.41800000000E+01 0. -1.
        -11    1    1    2    0    0  0.43849776122E+02 -0.16482895564E+02  0.21174906569E+02  0.51408806447E+02  0.00000000000E+00 0.  1.
         11    1    1    2    0    0  0.10516909117E+02  0.56554292020E+02  0.10816718305E+03  0.12251176602E+03  0.00000000000E+00 0. -1.
</event>
<event>
 7    1  0.6506388E-006  0.1028782E+03  0.7561462E-02  0.1274357E+00
          2   -1    0    0  501    0  0.00000000000E+00  0.00000000000E+00  0.80719132726E+03  0.80719132726E+03  0.00000000000E+00 0. -1.
         -2   -1    0    0    0  501 -0.00000000000E+00 -0.00000000000E+00 -0.19642510862E+02  0.19642510862E+02  0.00000000000E+00 0.  1.
         23    2    1    2    0    0  0.60969860650E+02  0.66245632077E+01  0.45647882992E+03  0.47726455260E+03  0.12508925717E+03 0.  0.
          5    1    3    3  502    0  0.40604026209E+02  0.44078417425E+02  0.40870977133E+03  0.41310137183E+03  0.41800000000E+01 0.  1.
         -5    1    3    3    0  502  0.20365834441E+02 -0.37453854217E+02  0.47769058587E+02  0.64163180770E+02  0.41800000000E+01 0.  1.
        -11    1    1    2    0    0 -0.61202998133E+01 -0.38782243431E+02  0.64403081019E+02  0.75427298242E+02  0.00000000000E+00 0.  1.
         11    1    1    2    0    0 -0.54849560836E+02  0.32157680224E+02  0.26666690546E+03  0.27414198728E+03  0.00000000000E+00 0. -1.
</event>
<event>
 7    1  0.6506388E-006  0.1213381E+03  0.7561462E-02  0.1240906E+00
          1   -1    0    0  501    0  0.00000000000E+00  0.00000000000E+00  0.33363577378E+03  0.33363577378E+03  0.00000000000E+00 0. -1.
         -1   -1    0    0    0  501 -0.00000000000E+00 -0.00000000000E+00 -0.47531997211E+02  0.47531997211E+02  0.00000000000E+00 0.  1.
         23    2    1    2    0    0  0.50916512739E+02  0.32306566580E+02  0.12814387911E+03  0.18895611602E+03  0.12508938610E+03 0.  0.
          5    1    3    3  502    0  0.85850899224E+02  0.43503465242E+02  0.66354621945E+02  0.11697579510E+03  0.41800000000E+01 0.  1.
         -5    1    3    3    0  502 -0.34934386485E+02 -0.11196898662E+02  0.61789257161E+02  0.71980320916E+02  0.41800000000E+01 0.  1.
        -11    1    1    2    0    0 -0.28276078128E+02 -0.64289831614E+02  0.10524980626E+03  0.12653158009E+03  0.00000000000E+00 0.  1.
         11    1    1    2    0    0 -0.22640434612E+02  0.31983265035E+02  0.52710091203E+02  0.65680074880E+02  0.00000000000E+00 0. -1.
</event>
<event>
 7    1  0.6506388E-006  0.1279712E+03  0.7561462E-02  0.1230498E+00
         -2   -1    0    0    0  501 -0.00000000000E+00  0.00000000000E+00  0.31923195597E+02  0.31923195597E+02  0.00000000000E+00 0.  1.
          2   -1    0    0  501    0  0.00000000000E+00 -0.00000000000E+00 -0.80549998823E+03  0.80549998823E+03  0.00000000000E+00 0. -1.
         23    2    1    2    0    0 -0.11423369030E+03  0.27701073266E+02 -0.39158020442E+03  0.42755022100E+03  0.12508976586E+03 0.  0.
          5    1    3    3  502    0 -0.54318059667E+02 -0.69208066448E+01 -0.33087925300E+03  0.33540557782E+03  0.41800000000E+01 0. -1.
         -5    1    3    3    0  502 -0.59915630629E+02  0.34621879911E+02 -0.60700951420E+02  0.92144643173E+02  0.41800000000E+01 0. -1.
        -11    1    1    2    0    0  0.62215842711E+02 -0.45107710415E+02 -0.12224725567E+03  0.14439497271E+03  0.00000000000E+00 0.  1.
         11    1    1    2    0    0  0.52017847585E+02  0.17406637149E+02 -0.25974933254E+03  0.26547799012E+03  0.00000000000E+00 0. -1.
</event>
<event>
 7    1  0.6506388E-006  0.1889815E+03  0.7561462E-02  0.1159383E+00
          2   -1    0    0  501    0  0.00000000000E+00  0.00000000000E+00  0.10811168822E+04  0.10811168822E+04  0.00000000000E+00 0. -1.
         -2   -1    0    0    0  501 -0.00000000000E+00 -0.00000000000E+00 -0.40177747090E+02  0.40177747090E+02  0.00000000000E+00 0.  1.
         23    2    1    2    0    0  0.11003220610E+03 -0.13803452591E+03  0.41909369456E+03  0.46799934163E+03  0.11055877272E+03 0.  0.
          5    1    3    3  502    0  0.42870488307E+02 -0.86424330164E+02  0.33472592292E+03  0.34837617526E+03  0.41800000000E+01 0. -1.
         -5    1    3    3    0  502  0.67161717796E+02 -0.51610195741E+02  0.84367771639E+02  0.11962316637E+03  0.41800000000E+01 0.  1.
        -11    1    1    2    0    0 -0.40263594886E+02 -0.18190611434E+01  0.83442432023E+02  0.92666636491E+02  0.00000000000E+00 0.  1.
         11    1    1    2    0    0 -0.69768611217E+02  0.13985358705E+03  0.53840300856E+03  0.56062865121E+03  0.00000000000E+00 0. -1.
</event>
<event>
 7    1  0.6506388E-006  0.9522107E+02  0.7561462E-02  0.1290679E+00
         -1   -1    0    0    0  501 -0.00000000000E+00  0.00000000000E+00  0.54453271412E+03  0.54453271412E+03  0.00000000000E+00 0.  1.
          1   -1    0    0  501    0  0.00000000000E+00 -0.00000000000E+00 -0.38653295329E+02  0.38653295329E+02  0.00000000000E+00 0. -1.
         23    2    1    2    0    0 -0.53700885600E+02  0.55346230032E+02  0.38629809071E+03  0.41331262774E+03  0.12511643803E+03 0.  0.
          5    1    3    3  502    0  0.22113023720E+02  0.95403115034E+01  0.24685334211E+03  0.24806057380E+03  0.41800000000E+01 0. -1.
         -5    1    3    3    0  502 -0.75813909320E+02  0.45805918529E+02  0.13944474860E+03  0.16525205394E+03  0.41800000000E+01 0. -1.
        -11    1    1    2    0    0  0.32250707506E+02 -0.29218543272E+02  0.12786558866E+03  0.13506827966E+03  0.00000000000E+00 0.  1.
         11    1    1    2    0    0  0.21450178094E+02 -0.26127686760E+02 -0.82842605829E+01  0.34805102056E+02  0.00000000000E+00 0. -1.
</event>
<event>
 7    1  0.6506388E-006  0.9794197E+02  0.7561462E-02  0.1284684E+00
          1   -1    0    0  501    0  0.00000000000E+00  0.00000000000E+00  0.29952081394E+02  0.29952081394E+02  0.00000000000E+00 0. -1.
         -1   -1    0    0    0  501 -0.00000000000E+00 -0.00000000000E+00 -0.48800902513E+03  0.48800902513E+03  0.00000000000E+00 0.  1.
         23    2    1    2    0    0  0.49236140213E+02 -0.31377115013E+02 -0.25741226128E+03  0.29209176440E+03  0.12509118964E+03 0.  0.
          5    1    3    3  502    0 -0.17670459325E+02 -0.45483017535E+02 -0.18913227042E+03  0.19537000315E+03  0.41800000000E+01 0. -1.
         -5    1    3    3    0  502  0.66906599538E+02  0.14105902522E+02 -0.68279990856E+02  0.96721761248E+02  0.41800000000E+01 0. -1.
        -11    1    1    2    0    0  0.11100986321E+02  0.80640614232E+01  0.13342077891E+01  0.13785539320E+02  0.00000000000E+00 0. -1.
         11    1    1    2    0    0 -0.60337126534E+02  0.23313053589E+02 -0.20197889025E+03  0.21208380280E+03  0.00000000000E+00 0.  1.
</event>
<event>
 7    1  0.6506388E-006  0.3366586E+03  0.7561462E-02  0.1068228E+00
         -1   -1    0    0    0  501 -0.00000000000E+00  0.00000000000E+00  0.42491404623E+03  0.42491404623E+03  0.00000000000E+00 0.  1.
          1   -1    0    0  501    0  0.00000000000E+00 -0.00000000000E+00 -0.29156799672E+03  0.29156799672E+03  0.00000000000E+00 0. -1.
         23    2    1    2    0    0 -0.19853283265E+03  0.24880137855E+03  0.17081204853E+03  0.38228455954E+03  0.12508923588E+03 0.  0.
          5    1    3    3  502    0 -0.21474733160E+03  0.21309058609E+03  0.15143413556E+03  0.33833974659E+03  0.41800000000E+01 0. -1.
         -5    1    3    3    0  502  0.16214498950E+02  0.35710792457E+02  0.19377912972E+02  0.43944812951E+02  0.41800000000E+01 0. -1.
        -11    1    1    2    0    0  0.20855117984E+03 -0.23404497216E+03 -0.30180332229E+02  0.31493093856E+03  0.00000000000E+00 0.  1.
         11    1    1    2    0    0 -0.10018347193E+02 -0.14756406388E+02 -0.72856667902E+01  0.19266544852E+02  0.00000000000E+00 0. -1.
</event>
<event>
 7    1  0.6506388E-006  0.1098374E+03  0.7561462E-02  0.1260871E+00
         -3   -1    0    0    0  501 -0.00000000000E+00  0.00000000000E+00  0.63210833527E+03  0.63210833527E+03  0.00000000000E+00 0.  1.
          3   -1    0    0  501    0  0.00000000000E+00 -0.00000000000E+00 -0.21994462631E+02  0.21994462631E+02  0.00000000000E+00 0. -1.
         23    2    1    2    0    0 -0.81914704340E+01  0.40449641541E+02  0.40627104199E+03  0.42709025507E+03  0.12508658092E+03 0.  0.
          5    1    3    3  502    0  0.40042448160E+02  0.61828650302E+02  0.29169223219E+03  0.30087873034E+03  0.41800000000E+01 0.  1.
         -5    1    3    3    0  502 -0.48233918594E+02 -0.21379008761E+02  0.11457880980E+03  0.12621152473E+03  0.41800000000E+01 0.  1.
        -11    1    1    2    0    0  0.40287458597E+02  0.12991214003E+01  0.48936289933E+02  0.63399743761E+02  0.00000000000E+00 0.  1.
         11    1    1    2    0    0 -0.32095988163E+02 -0.41748762941E+02  0.15490654072E+03  0.16361279907E+03  0.00000000000E+00 0. -1.
</event>
<event>
 7    1  0.6506388E-006  0.1242863E+03  0.7561462E-02  0.1236189E+00
         -3   -1    0    0    0  501 -0.00000000000E+00  0.00000000000E+00  0.15133890589E+04  0.15133890589E+04  0.00000000000E+00 0.  1.
          3   -1    0    0  501    0  0.00000000000E+00 -0.00000000000E+00 -0.11802781832E+02  0.11802781832E+02  0.00000000000E+00 0. -1.
         23    2    1    2    0    0 -0.68063794943E+02 -0.21672738728E+02  0.10017059671E+04  0.10120103628E+04  0.12509093539E+03 0.  0.
          5    1    3    3  502    0 -0.34241008579E+02  0.46478229050E+02  0.62506204113E+03  0.62773617078E+03  0.41800000000E+01 0.  1.
         -5    1    3    3    0  502 -0.33822786364E+02 -0.68150967778E+02  0.37664392593E+03  0.38427419199E+03  0.41800000000E+01 0.  1.
        -11    1    1    2    0    0  0.78256507626E+02 -0.12128076796E+02  0.38228235357E+03  0.39039847474E+03  0.00000000000E+00 0.  1.
         11    1    1    2    0    0 -0.10192712684E+02  0.33800815524E+02  0.11759795647E+03  0.12278300325E+03  0.00000000000E+00 0. -1.
</event>
<event>
 7    1  0.6506388E-006  0.1097957E+03  0.7561462E-02  0.1260949E+00
          2   -1    0    0  501    0  0.00000000000E+00  0.00000000000E+00  0.53926162813E+03  0.53926162813E+03  0.00000000000E+00 0. -1.
         -2   -1    0    0    0  501 -0.00000000000E+00 -0.00000000000E+00 -0.32881013461E+02  0.32881013461E+02  0.00000000000E+00 0.  1.
         23    2    1    2    0    0 -0.27720525827E+02 -0.46649015627E+01  0.12224148423E+03  0.17714306473E+03  0.12508595468E+03 0.  0.
          5    1    3    3  502    0  0.22172420719E+02 -0.53311640303E+02  0.47625701210E+02  0.74962837781E+02  0.41800000000E+01 0.  1.
         -5    1    3    3    0  502 -0.49892946546E+02  0.48646738741E+02  0.74615783017E+02  0.10218022695E+03  0.41800000000E+01 0.  1.
        -11    1    1    2    0    0  0.45566812121E+02  0.34481892733E+02  0.23006635955E+03  0.23705667063E+03  0.00000000000E+00 0.  1.
         11    1    1    2    0    0 -0.17846286295E+02 -0.29816991170E+02  0.15407277089E+03  0.15794290622E+03  0.00000000000E+00 0. -1.
</event>
<event>
 7    1  0.6506388E-006  0.1149736E+03  0.7561462E-02  0.1251627E+00
          2   -1    0    0  501    0  0.00000000000E+00  0.00000000000E+00  0.14579685151E+03  0.14579685151E+03  0.00000000000E+00 0. -1.
         -2   -1    0    0    0  501 -0.00000000000E+00 -0.00000000000E+00 -0.11466873714E+03  0.11466873714E+03  0.00000000000E+00 0.  1.
         23    2    1    2    0    0  0.55148550525E+02  0.45998481124E+02  0.23148383715E+02  0.14608457120E+03  0.12509049278E+03 0.  0.
          5    1    3    3  502    0  0.38157787565E+02  0.77057699887E+02 -0.21711532529E+02  0.88784958797E+02  0.41800000000E+01 0. -1.
         -5    1    3    3    0  502  0.16990762961E+02 -0.31059218763E+02  0.44859916244E+02  0.57299612403E+02  0.41800000000E+01 0. -1.
        -11    1    1    2    0    0 -0.84955787524E+01 -0.59134858723E+02  0.22416976422E+02  0.63809303447E+02  0.00000000000E+00 0.  1.
         11    1    1    2    0    0 -0.46652971773E+02  0.13136377598E+02 -0.14437245765E+02  0.50571714000E+02  0.00000000000E+00 0. -1.
</event>
<event>
 7    1  0.6506388E-006  0.1109189E+03  0.7561462E-02  0.1258878E+00
         -2   -1    0    0    0  501 -0.00000000000E+00  0.00000000000E+00  0.13783103495E+03  0.13783103495E+03  0.00000000000E+00 0. -1.
          2   -1    0    0  501    0  0.00000000000E+00 -0.00000000000E+00 -0.12748913317E+03  0.12748913317E+03  0.00000000000E+00 0.  1.
         23    2    1    2    0    0  0.50723241080E+02  0.47394507194E+02  0.33508754268E+02  0.14693194480E+03  0.12508826201E+03 0.  0.
          5    1    3    3  502    0  0.60933478423E+02 -0.11924579001E+02  0.54830157112E+02  0.82939151829E+02  0.41800000000E+01 0. -1.
         -5    1    3    3    0  502 -0.10210237343E+02  0.59319086195E+02 -0.21321402844E+02  0.63992792975E+02  0.41800000000E+01 0. -1.
        -11    1    1    2    0    0 -0.34934112279E+02  0.12674319833E+02 -0.39432460291E+02  0.54184402816E+02  0.00000000000E+00 0.  1.
         11    1    1    2    0    0 -0.15789128801E+02 -0.60068827027E+02  0.16265607806E+02  0.64203820493E+02  0.00000000000E+00 0. -1.
</event>
<event>
 7    1  0.6506388E-006  0.1342376E+03  0.7561462E-02  0.1221300E+00
         -2   -1    0    0    0  501 -0.00000000000E+00  0.00000000000E+00  0.88968906488E+02  0.88968906488E+02  0.00000000000E+00 0.  1.
          2   -1    0    0  501    0  0.00000000000E+00 -0.00000000000E+00 -0.28714361800E+03  0.28714361800E+03  0.00000000000E+00 0. -1.
         23    2    1    2    0    0 -0.84989888343E+02  0.25517094845E+02 -0.17202508922E+02  0.15433200362E+03  0.12509211717E+03 0.  0.
          5    1    3    3  502    0 -0.10331361452E+03  0.52822463509E+02 -0.28057990111E+02  0.11945140771E+03  0.41800000000E+01 0. -1.
         -5    1    3    3    0  502  0.18323726175E+02 -0.27305368664E+02  0.10855481189E+02  0.34880595905E+02  0.41800000000E+01 0. -1.
        -11    1    1    2    0    0  0.83048281193E+02  0.99991600407E+01 -0.84237913524E+02  0.11871405260E+03  0.00000000000E+00 0.  1.
         11    1    1    2    0    0  0.19416071494E+01 -0.35516254886E+02 -0.96734289069E+02  0.10306646827E+03  0.00000000000E+00 0. -1.
</event>
<event>
 7    1  0.6506388E-006  0.7242349E+02  0.7561462E-02  0.1352041E+00
          3   -1    0    0  501    0  0.00000000000E+00  0.00000000000E+00  0.90608429672E+02  0.90608429672E+02  0.00000000000E+00 0. -1.
         -3   -1    0    0    0  501 -0.00000000000E+00 -0.00000000000E+00 -0.13652941136E+03  0.13652941136E+03  0.00000000000E+00 0.  1.
         23    2    1    2    0    0 -0.16627372421E+02 -0.19285572720E+02 -0.23105861219E+02  0.12972955326E+03  0.12508986105E+03 0.  0.
          5    1    3    3  502    0 -0.26090620733E+02 -0.45105103787E+02 -0.62516314779E+02  0.81492041890E+02  0.41800000000E+01 0.  1.
         -5    1    3    3    0  502  0.94632483117E+01  0.25819531067E+02  0.39410453560E+02  0.48237511367E+02  0.41800000000E+01 0.  1.
        -11    1    1    2    0    0  0.37952231459E+02  0.20979895586E+02 -0.47784612219E+02  0.64528265562E+02  0.00000000000E+00 0.  1.
         11    1    1    2    0    0 -0.21324859038E+02 -0.16943228656E+01  0.24969491746E+02  0.32880022218E+02  0.00000000000E+00 0. -1.
</event>
<event>
 7    1  0.6506388E-006  0.1089694E+03  0.7561462E-02  0.1262490E+00
          1   -1    0    0  501    0  0.00000000000E+00  0.00000000000E+00  0.24977877411E+03  0.24977877411E+03  0.00000000000E+00 0. -1.
         -1   -1    0    0    0  501 -0.00000000000E+00 -0.00000000000E+00 -0.96193176839E+02  0.96193176839E+02  0.00000000000E+00 0.  1.
         23    2    1    2    0    0 -0.40249483932E+02  0.68853861185E+01 -0.38033784365E+02  0.13024372993E+03  0.11768360520E+03 0.  0.
          5    1    3    3  502    0  0.41231900404E+02  0.58074938170E+01 -0.47354215138E+01  0.42115237293E+02  0.41800000000E+01 0. -1.
         -5    1    3    3    0  502 -0.81481384336E+02  0.10778923015E+01 -0.33298362851E+02  0.88128492633E+02  0.41800000000E+01 0.  1.
        -11    1    1    2    0    0  0.51684094747E+02 -0.36152517533E+02  0.94194469973E+02  0.11336158232E+03  0.00000000000E+00 0. -1.
         11    1    1    2    0    0 -0.11434610815E+02  0.29267131414E+02  0.97424911659E+02  0.10236663869E+03  0.00000000000E+00 0.  1.
</event>
<event>
 7    1  0.6506388E-006  0.9706314E+02  0.7561462E-02  0.1286596E+00
         -1   -1    0    0    0  501 -0.00000000000E+00  0.00000000000E+00  0.10950278121E+03  0.10950278121E+03  0.00000000000E+00 0.  1.
          1   -1    0    0  501    0  0.00000000000E+00 -0.00000000000E+00 -0.16282057486E+03  0.16282057486E+03  0.00000000000E+00 0. -1.
         23    2    1    2    0    0  0.32721483794E+02  0.37359190732E+02  0.31715750318E+02  0.13827806654E+03  0.12509408553E+03 0.  0.
          5    1    3    3  502    0 -0.24648054269E+02 -0.34316182854E+02  0.62676166490E+01  0.42917157448E+02  0.41800000000E+01 0. -1.
         -5    1    3    3    0  502  0.57369538063E+02  0.71675373586E+02  0.25448133669E+02  0.95360909096E+02  0.41800000000E+01 0. -1.
        -11    1    1    2    0    0 -0.28420290522E+02 -0.72213549079E+01  0.12495934086E+02  0.31874899981E+02  0.00000000000E+00 0.  1.
         11    1    1    2    0    0 -0.43011932715E+01 -0.30137835824E+02 -0.97529478055E+02  0.10217038955E+03  0.00000000000E+00 0. -1.
</event>
<event>
 7    1  0.6506388E-006  0.1614309E+03  0.7561462E-02  0.1187091E+00
         -2   -1    0    0    0  501 -0.00000000000E+00  0.00000000000E+00  0.47870202065E+02  0.47870202065E+02  0.00000000000E+00 0.  1.
          2   -1    0    0  501    0  0.00000000000E+00 -0.00000000000E+00 -0.73931377098E+03  0.73931377098E+03  0.00000000000E+00 0. -1.
         23    2    1    2    0    0 -0.12192765121E+03 -0.76112096132E+02 -0.25442932723E+03  0.31786344098E+03  0.12507390315E+03 0.  0.
          5    1    3    3  502    0 -0.56490266091E+02 -0.65688710485E+02 -0.44104395351E+02  0.97307897611E+02  0.41800000000E+01 0.  1.
         -5    1    3    3    0  502 -0.65437385120E+02 -0.10423385647E+02 -0.21032493188E+03  0.22055554337E+03  0.41800000000E+01 0.  1.
        -11    1    1    2    0    0 -0.95949794846E+01  0.28139682507E+02 -0.56047658505E+02  0.63444821591E+02  0.00000000000E+00 0. -1.
         11    1    1    2    0    0  0.13152263070E+03  0.47972413625E+02 -0.38096658318E+03  0.40587571048E+03  0.00000000000E+00 0.  1.
</event>
<event>
 7    1  0.6506388E-006  0.1969639E+03  0.7561462E-02  0.1152326E+00
          1   -1    0    0  501    0  0.00000000000E+00  0.00000000000E+00  0.82990551924E+03  0.82990551924E+03  0.00000000000E+00 0. -1.
         -1   -1    0    0    0  501 -0.00000000000E+00 -0.00000000000E+00 -0.49075068491E+02  0.49075068491E+02  0.00000000000E+00 0.  1.
         23    2    1    2    0    0  0.33474645808E+02  0.16244152563E+03  0.33076703293E+03  0.39059561897E+03  0.12510118434E+03 0.  0.
          5    1    3    3  502    0 -0.17780115370E+02 -0.12550181073E+02  0.18076769380E+02  0.28598628267E+02  0.41800000000E+01 0.  1.
         -5    1    3    3    0  502  0.51254761178E+02  0.17499170670E+03  0.31269026355E+03  0.36199699070E+03  0.41800000000E+01 0.  1.
        -11    1    1    2    0    0 -0.40438081505E+02 -0.17162080605E+02  0.11559742963E+03  0.12366301461E+03  0.00000000000E+00 0.  1.
         11    1    1    2    0    0  0.69634356972E+01 -0.14527944502E+03  0.33446598819E+03  0.36472195415E+03  0.00000000000E+00 0. -1.
</event>
<event>
 7    1  0.6506388E-006  0.1478191E+03  0.7561462E-02  0.1203179E+00
          2   -1    0    0  501    0  0.00000000000E+00  0.00000000000E+00  0.66401980180E+03  0.66401980180E+03  0.00000000000E+00 0. -1.
         -2   -1    0    0    0  501 -0.00000000000E+00 -0.00000000000E+00 -0.41207718952E+02  0.41207718952E+02  0.00000000000E+00 0.  1.
         23    2    1    2    0    0 -0.10358059603E+03 -0.67800191042E+02  0.31131388986E+03  0.35762406187E+03  0.12511125381E+03 0.  0.
          5    1    3    3  502    0 -0.89490266510E+02 -0.20544074930E+01  0.25342006713E+03  0.26879719347E+03  0.41800000000E+01 0.  1.
         -5    1    3    3    0  502 -0.14090329523E+02 -0.65745783549E+02  0.57893822724E+02  0.88826868402E+02  0.41800000000E+01 0.  1.
        -11    1    1    2    0    0  0.78328414255E+02  0.78806504857E+02  0.29561248208E+03  0.31580459979E+03  0.00000000000E+00 0. -1.
         11    1    1    2    0    0  0.25252181778E+02 -0.11006313815E+02  0.15885710906E+02  0.31798859088E+02  0.00000000000E+00 0.  1.
</event>
<event>
 7    1  0.6506388E-006  0.1941788E+03  0.7561462E-02  0.1154745E+00
         -2   -1    0    0    0  501 -0.00000000000E+00  0.00000000000E+00  0.44109308608E+02  0.44109308608E+02  0.00000000000E+00 0.  1.
          2   -1    0    0  501    0  0.00000000000E+00 -0.00000000000E+00 -0.10820472712E+04  0.10820472712E+04  0.00000000000E+00 0. -1.
         23    2    1    2    0    0  0.38636879777E+02  0.16190305796E+03 -0.30231835986E+03  0.36707979402E+03  0.12508307563E+03 0.  0.
          5    1    3    3  502    0 -0.27181815694E+02 -0.19990409549E+01 -0.69847280339E+02  0.75093023910E+02  0.41800000000E+01 0.  1.
         -5    1    3    3    0  502  0.65818695471E+02  0.16390209892E+03 -0.23247107952E+03  0.29198677011E+03  0.41800000000E+01 0.  1.
        -11    1    1    2    0    0  0.45525553036E+01 -0.13081894020E+03 -0.45491165982E+03  0.47336976996E+03  0.00000000000E+00 0.  1.
         11    1    1    2    0    0 -0.43189435081E+02 -0.31084117761E+02 -0.28070794288E+03  0.28570701579E+03  0.00000000000E+00 0. -1.
</event>
<event>
 7    1  0.6506388E-006  0.8362311E+02  0.7561462E-02  0.1319073E+00
         -2   -1    0    0    0  501 -0.00000000000E+00  0.00000000000E+00  0.19702293656E+02  0.19702293656E+02  0.00000000000E+00 0.  1.
          2   -1    0    0  501    0  0.00000000000E+00 -0.00000000000E+00 -0.69921393901E+03  0.69921393901E+03  0.00000000000E+00 0. -1.
         23    2    1    2    0    0 -0.40391794921E+02 -0.10844121872E+02 -0.33410206649E+03  0.35919461306E+03  0.12508991624E+03 0.  0.
          5    1    3    3  502    0 -0.59804008753E+02 -0.21115049272E+02 -0.71596082231E+02  0.95738373495E+02  0.41800000000E+01 0. -1.
         -5    1    3    3    0  502  0.19412213832E+02  0.10270927400E+02 -0.26250598426E+03  0.26345623957E+03  0.41800000000E+01 0. -1.
        -11    1    1    2    0    0 -0.12611649662E+02  0.23649378479E+02 -0.32638539425E+02  0.42232938158E+02  0.00000000000E+00 0.  1.
         11    1    1    2    0    0  0.53003444583E+02 -0.12805256606E+02 -0.31277103944E+03  0.31748868145E+03  0.00000000000E+00 0. -1.
</event>
<event>
 7    1  0.6506388E-006  0.5823895E+02  0.7561462E-02  0.1405374E+00
          2   -1    0    0  501    0  0.00000000000E+00  0.00000000000E+00  0.15590475493E+03  0.15590475493E+03  0.00000000000E+00 0. -1.
         -2   -1    0    0    0  501 -0.00000000000E+00 -0.00000000000E+00 -0.78535201639E+02  0.78535201639E+02  0.00000000000E+00 0.  1.
         23    2    1    2    0    0 -0.38980719976E+02 -0.41584967568E+02 -0.88496663353E+01  0.13015529079E+03  0.11667594898E+03 0.  0.
          5    1    3    3  502    0 -0.51573368007E+01 -0.23915510819E+01  0.50670771034E+02  0.51159721233E+02  0.41800000000E+01 0. -1.
         -5    1    3    3    0  502 -0.33823383175E+02 -0.39193416487E+02 -0.59520437370E+02  0.78995569559E+02  0.41800000000E+01 0.  1.
        -11    1    1    2    0    0  0.51496514465E+01  0.97618819732E+01  0.93116647897E+01  0.14440233753E+02  0.00000000000E+00 0.  1.
         11    1    1    2    0    0  0.33831068529E+02  0.31823085595E+02  0.76907554834E+02  0.89844432021E+02  0.00000000000E+00 0. -1.
</event>
<event>
 7    1  0.6506388E-006  0.1420257E+03  0.7561462E-02  0.1210629E+00
          1   -1    0    0  501    0  0.00000000000E+00  0.00000000000E+00  0.85860477536E+03  0.85860477536E+03  0.00000000000E+00 0. -1.
         -1   -1    0    0    0  501 -0.00000000000E+00 -0.00000000000E+00 -0.33388394835E+02  0.33388394835E+02  0.00000000000E+00 0.  1.
         23    2    1    2    0    0 -0.69385701549E+02  0.10961994955E+03  0.45393849283E+03  0.48840440590E+03  0.12509116479E+03 0.  0.
          5    1    3    3  502    0 -0.17538027352E+02  0.96818064268E+02  0.14773915187E+03  0.17755463770E+03  0.41800000000E+01 0.  1.
         -5    1    3    3    0  502 -0.51847674198E+02  0.12801885280E+02  0.30619934095E+03  0.31084976820E+03  0.41800000000E+01 0.  1.
        -11    1    1    2    0    0  0.35967304786E+02 -0.78450823801E+02  0.33292568104E+03  0.34392977170E+03  0.00000000000E+00 0.  1.
         11    1    1    2    0    0  0.33418396764E+02 -0.31169125747E+02  0.38352206657E+02  0.59658992596E+02  0.00000000000E+00 0. -1.
</event>
<event>
 7    1  0.6506388E-006  0.1297257E+03  0.7561462E-02  0.1227863E+00
          1   -1    0    0  501    0  0.00000000000E+00  0.00000000000E+00  0.12830756579E+03  0.12830756579E+03  0.00000000000E+00 0. -1.
         -1   -1    0    0    0  501 -0.00000000000E+00 -0.00000000000E+00 -0.16025915205E+03  0.16025915205E+03  0.00000000000E+00 0.  1.
         23    2    1    2    0    0  0.21647091629E+02  0.90392724586E+02 -0.26547724186E+02  0.15809024412E+03  0.12509317484E+03 0.  0.
          5    1    3    3  502    0  0.60874205177E+00  0.11910290592E+03 -0.27216727996E+02  0.12224604471E+03  0.41800000000E+01 0.  1.
         -5    1    3    3    0  502  0.21038349577E+02 -0.28710181332E+02  0.66900381058E+00  0.35844199407E+02  0.41800000000E+01 0.  1.
        -11    1    1    2    0    0  0.13201096297E+02 -0.46798806027E+02 -0.41569889499E+02  0.63972282295E+02  0.00000000000E+00 0.  1.
         11    1    1    2    0    0 -0.34848187927E+02 -0.43593918559E+02  0.36166027431E+02  0.66504191426E+02  0.00000000000E+00 0. -1.
</event>
<event>
 7    1  0.6506388E-006  0.1081377E+03  0.7561462E-02  0.1264058E+00
          1   -1    0    0  501    0  0.00000000000E+00  0.00000000000E+00  0.14857703472E+03  0.14857703472E+03  0.00000000000E+00 0. -1.
         -1   -1    0    0    0  501 -0.00000000000E+00 -0.00000000000E+00 -0.86079670419E+02  0.86079670419E+02  0.00000000000E+00 0.  1.
         23    2    1    2    0    0 -0.15518274505E+02  0.30992840613E+02  0.41747179021E+02  0.13634883293E+03  0.12508718668E+03 0.  0.
          5    1    3    3  502    0  0.41189871479E+02  0.48582233450E+02  0.42743674491E+02  0.76820134265E+02  0.41800000000E+01 0. -1.
         -5    1    3    3    0  502 -0.56708145984E+02 -0.17589392837E+02 -0.99649547046E+00  0.59528698664E+02  0.41800000000E+01 0. -1.
        -11    1    1    2    0    0  0.49301138192E+02 -0.36013225886E+01  0.23489160166E+02  0.54729447254E+02  0.00000000000E+00 0. -1.
         11    1    1    2    0    0 -0.33782863687E+02 -0.27391518025E+02 -0.27389748817E+01  0.43578424960E+02  0.00000000000E+00 0.  1.
</event>
<event>
 7    1  0.6506388E-006  0.8670765E+02  0.7561462E-02  0.1311026E+00
         -1   -1    0    0    0  501 -0.00000000000E+00  0.00000000000E+00  0.52979005274E+02  0.52979005274E+02  0.00000000000E+00 0.  1.
          1   -1    0    0  501    0  0.00000000000E+00 -0.00000000000E+00 -0.30308784072E+03  0.30308784072E+03  0.00000000000E+00 0. -1.
         23    2    1    2    0    0  0.55121684111E+02 -0.42567458008E+01 -0.10135732808E+03  0.17023123957E+03  0.12509535175E+03 0.  0.
          5    1    3    3  502    0  0.70563962604E+02 -0.16958917434E+02 -0.62576410070E+01  0.72962375029E+02  0.41800000000E+01 0. -1.
         -5    1    3    3    0  502 -0.15442278493E+02  0.12702171633E+02 -0.95099687069E+02  0.97268864545E+02  0.41800000000E+01 0. -1.
        -11    1    1    2    0    0 -0.64400726163E+02 -0.80278033768E+01 -0.15589467447E+03  0.16886399464E+03  0.00000000000E+00 0. -1.
         11    1    1    2    0    0  0.92790420526E+01  0.12284549178E+02  0.71431671060E+01  0.16971611774E+02  0.00000000000E+00 0.  1.
</event>
<event>
 7    1  0.6506388E-006  0.1511301E+03  0.7561462E-02  0.1199091E+00
          1   -1    0    0  501    0  0.00000000000E+00  0.00000000000E+00  0.27672975099E+03  0.27672975099E+03  0.00000000000E+00 0. -1.
         -1   -1    0    0    0  501 -0.00000000000E+00 -0.00000000000E+00 -0.11400601272E+03  0.11400601272E+03  0.00000000000E+00 0.  1.
         23    2    1    2    0    0  0.88949141912E+02 -0.63369962063E+02 -0.11258652686E+02  0.16644008837E+03  0.12509134190E+03 0.  0.
          5    1    3    3  502    0  0.67456448221E+02  0.25006679658E+02 -0.20502464330E+02  0.74923493497E+02  0.41800000000E+01 0.  1.
         -5    1    3    3    0  502  0.21492693691E+02 -0.88376641721E+02  0.92438116445E+01  0.91516594876E+02  0.41800000000E+01 0.  1.
        -11    1    1    2    0    0 -0.21217443423E+02  0.68024291526E+02  0.68423251508E+02  0.98788792330E+02  0.00000000000E+00 0.  1.
         11    1    1    2    0    0 -0.67731698489E+02 -0.46543294630E+01  0.10555913945E+03  0.12550688301E+03  0.00000000000E+00 0. -1.
</event>
<event>
 6    1  0.6506388E-006  0.1102084E+03  0.7561462E-02  0.1260184E+00
         -4   -1    0    0    0  501 -0.00000000000E+00  0.00000000000E+00  0.28286587756E+03  0.28286587756E+03  0.00000000000E+00 0.  1.
          4   -1    0    0  501    0  0.00000000000E+00 -0.00000000000E+00 -0.78103463446E+02  0.78103463446E+02  0.00000000000E+00 0. -1.
          5    1    1    2  502    0  0.29484967904E+02  0.15423823672E+01 -0.93151425261E+01  0.31240783536E+02  0.41800000000E+01 0. -1.
         -5    1    1    2    0  502 -0.84331703861E+02  0.31533819594E+02  0.20392748346E+03  0.22295763940E+03  0.41800000000E+01 0.  1.
        -11    1    1    2    0    0  0.67179856382E+02 -0.21983227984E+01  0.23120126207E+02  0.71080981721E+02  0.00000000000E+00 0. -1.
         11    1    1    2    0    0 -0.12333120424E+02 -0.30877879162E+02 -0.12970053032E+02  0.35689936349E+02  0.00000000000E+00 0.  1.
</event>
<event>
 7    1  0.6506388E-006  0.1062022E+03  0.7561462E-02  0.1267769E+00
          1   -1    0    0  501    0  0.00000000000E+00  0.00000000000E+00  0.15028956405E+03  0.15028956405E+03  0.00000000000E+00 0. -1.
         -1   -1    0    0    0  501 -0.00000000000E+00 -0.00000000000E+00 -0.15419145971E+03  0.15419145971E+03  0.00000000000E+00 0.  1.
         23    2    1    2    0    0 -0.80987469361E+02  0.25439346007E+02 -0.60573828479E+02  0.16286000915E+03  0.12509221944E+03 0.  0.
          5    1    3    3  502    0 -0.63294007295E+02  0.16449233832E+02 -0.99399265702E+02  0.11905626853E+03  0.41800000000E+01 0. -1.
         -5    1    3    3    0  502 -0.17693462066E+02  0.89901121753E+01  0.38825437223E+02  0.43803740621E+02  0.41800000000E+01 0. -1.
        -11    1    1    2    0    0  0.45852655264E+01  0.31168852368E+02  0.28408252262E+02  0.42421112839E+02  0.00000000000E+00 0. -1.
         11    1    1    2    0    0  0.76402203835E+02 -0.56608198374E+02  0.28263680549E+02  0.99199901775E+02  0.00000000000E+00 0.  1.
</event>
<event>
 7    1  0.6506388E-006  0.2544590E+03  0.7561462E-02  0.1110519E+00
          1   -1    0    0  501    0  0.00000000000E+00  0.00000000000E+00  0.65658911643E+03  0.65658911643E+03  0.00000000000E+00 0. -1.
         -1   -1    0    0    0  501 -0.00000000000E+00 -0.00000000000E+00 -0.11456479843E+03  0.11456479843E+03  0.00000000000E+00 0.  1.
         23    2    1    2    0    0  0.17972168186E+03  0.16894153305E+03  0.21200279899E+03  0.34847765337E+03  0.12510141325E+03 0.  0.
          5    1    3    3  502    0  0.16084419448E+02  0.29727936069E+01 -0.15377940898E+02  0.22836363920E+02  0.41800000000E+01 0.  1.
         -5    1    3    3    0  502  0.16363726242E+03  0.16596873944E+03  0.22738073989E+03  0.32564128945E+03  0.41800000000E+01 0.  1.
        -11    1    1    2    0    0 -0.34829930952E+02 -0.84086882932E+02  0.78131238791E+02  0.11995090015E+03  0.00000000000E+00 0.  1.
         11    1    1    2    0    0 -0.14489175091E+03 -0.84854650115E+02  0.25189028021E+03  0.30272536133E+03  0.00000000000E+00 0. -1.
</event>
<event>
 6    1  0.6506388E-006  0.2257866E+03  0.7561462E-02  0.1129641E+00
         -2   -1    0    0    0  501 -0.00000000000E+00  0.00000000000E+00  0.38982463115E+02  0.38982463115E+02  0.00000000000E+00 0.  1.
          2   -1    0    0  501    0  0.00000000000E+00 -0.00000000000E+00 -0.16015937778E+04  0.16015937778E+04  0.00000000000E+00 0. -1.
          5    1    1    2  502    0  0.25785790548E+02 -0.18112953953E+03 -0.33848746081E+03  0.38479091805E+03  0.41800000000E+01 0. -1.
         -5    1    1    2    0  502 -0.49641042447E+02 -0.11410968250E+02 -0.37693316363E+03  0.38038207836E+03  0.41800000000E+01 0.  1.
        -11    1    1    2    0    0  0.61751456579E+02  0.10090937134E+03 -0.53144042743E+03  0.54444914502E+03  0.00000000000E+00 0.  1.
         11    1    1    2    0    0 -0.37896204680E+02  0.91631136448E+02 -0.31575026278E+03  0.33095409945E+03  0.00000000000E+00 0. -1.
</event>
<event>
 7    1  0.6506388E-006  0.1279615E+03  0.7561462E-02  0.1230512E+00
          4   -1    0    0  501    0  0.00000000000E+00  0.00000000000E+00  0.18374168418E+02  0.18374168418E+02  0.00000000000E+00 0. -1.
         -4   -1    0    0    0  501 -0.00000000000E+00 -0.00000000000E+00 -0.10042134643E+04  0.10042134643E+04  0.00000000000E+00 0.  1.
         23    2    1    2    0    0  0.35387283812E+02 -0.68065768539E+02 -0.57356595482E+03  0.59203974864E+03  0.12509176923E+03 0.  0.
          5    1    3    3  502    0  0.78138878530E+02 -0.42032314707E+02 -0.26703046423E+03  0.28141631268E+03  0.41800000000E+01 0.  1.
         -5    1    3    3    0  502 -0.42751594717E+02 -0.26033453832E+02 -0.30653549060E+03  0.31062343596E+03  0.41800000000E+01 0.  1.
        -11    1    1    2    0    0 -0.26815938914E+02 -0.16752810548E+02 -0.18757000450E+03  0.19021634480E+03  0.00000000000E+00 0.  1.
         11    1    1    2    0    0 -0.85713448986E+01  0.84818579086E+02 -0.22470333652E+03  0.24033153924E+03  0.00000000000E+00 0. -1.
</event>
<event>
 7    1  0.1046318E-005  0.1153403E+03  0.7561462E-02  0.1250988E+00
         -2   -1    0    0    0  501 -0.00000000000E+00  0.00000000000E+00  0.14530074690E+02  0.14530074690E+02  0.00000000000E+00 0.  1.
          2   -1    0    0  501    0  0.00000000000E+00 -0.00000000000E+00 -0.14722535010E+04  0.14722535010E+04  0.00000000000E+00 0. -1.
         23    2    1    2    0    0  0.86348257888E+01  0.94746522615E+02 -0.78664310126E+03  0.80218851070E+03  0.12509026409E+03 0.  0.
          5    1    3    3  502    0  0.20003406897E+01  0.25353160403E+02 -0.20668450042E+02  0.33036969178E+02  0.41800000000E+01 0. -1.
         -5    1    3    3    0  502  0.66344850991E+01  0.69393362212E+02 -0.76597465122E+03  0.76915154152E+03  0.41800000000E+01 0. -1.
        -11    1    1    2    0    0 -0.40608466017E+02 -0.63893023197E+01 -0.18435612368E+03  0.18888369711E+03  0.00000000000E+00 0. -1.
         11    1    1    2    0    0  0.31973640229E+02 -0.88357220296E+02 -0.48672420133E+03  0.49571136785E+03  0.00000000000E+00 0.  1.
</event>
<event>
 7    1  0.9105783E-006  0.4020437E+03  0.7561462E-02  0.1043074E+00
          2   -1    0    0  501    0  0.00000000000E+00  0.00000000000E+00  0.27428907873E+04  0.27428907873E+04  0.00000000000E+00 0. -1.
         -2   -1    0    0    0  501 -0.00000000000E+00 -0.00000000000E+00 -0.61711030716E+02  0.61711030716E+02  0.00000000000E+00 0.  1.
         23    2    1    2    0    0  0.11625714726E+03 -0.37519464163E+03  0.15398953472E+04  0.15941178501E+04  0.12508915309E+03 0.  0.
          5    1    3    3  502    0  0.99224011647E+02 -0.17223869355E+03  0.93289364651E+03  0.95384464151E+03  0.41800000000E+01 0.  1.
         -5    1    3    3    0  502  0.17033135613E+02 -0.20295594808E+03  0.60700170069E+03  0.64027320857E+03  0.41800000000E+01 0.  1.
        -11    1    1    2    0    0 -0.53109503033E+02  0.29367737388E+03  0.79492464896E+03  0.84910082838E+03  0.00000000000E+00 0. -1.
         11    1    1    2    0    0 -0.63147644228E+02  0.81517267751E+02  0.34635976047E+03  0.36138313960E+03  0.00000000000E+00 0.  1.
</event>
<event>
 7    1  0.6506388E-006  0.1045883E+03  0.7561462E-02  0.1270933E+00
          4   -1    0    0  501    0  0.00000000000E+00  0.00000000000E+00  0.30490906967E+02  0.30490906967E+02  0.00000000000E+00 0. -1.
         -4   -1    0    0    0  501 -0.00000000000E+00 -0.00000000000E+00 -0.51103721299E+03  0.51103721299E+03  0.00000000000E+00 0.  1.
         23    2    1    2    0    0  0.10452475555E+00 -0.14675299200E+02 -0.39444343275E+03  0.41406286518E+03  0.12508820626E+03 0.  0.
          5    1    3    3  502    0 -0.52055884659E+02  0.25856080558E+02 -0.15335285224E+03  0.16405158250E+03  0.41800000000E+01 0. -1.
         -5    1    3    3    0  502  0.52160409414E+02 -0.40531379759E+02 -0.24109058051E+03  0.25001128268E+03  0.41800000000E+01 0. -1.
        -11    1    1    2    0    0  0.13475523208E+01 -0.34995741452E+02 -0.64260905520E+02  0.73184573479E+02  0.00000000000E+00 0.  1.
         11    1    1    2    0    0 -0.14520770764E+01  0.49671040653E+02 -0.21841967752E+02  0.54280681302E+02  0.00000000000E+00 0. -1.
</event>
<event>
 7    1  0.6506388E-006  0.1096251E+03  0.7561462E-02  0.1261266E+00
         -2   -1    0    0    0  501 -0.00000000000E+00  0.00000000000E+00  0.15590758887E+03  0.15590758887E+03  0.00000000000E+00 0.  1.
          2   -1    0    0  501    0  0.00000000000E+00 -0.00000000000E+00 -0.16259647627E+03  0.16259647627E+03  0.00000000000E+00 0. -1.
         23    2    1    2    0    0 -0.72412522378E+02  0.12191761525E+02  0.81037792234E+02  0.16615506679E+03  0.12509264569E+03 0.  0.
          5    1    3    3  502    0  0.78121526737E+00 -0.49170697640E+02  0.24763333063E+02  0.55218320040E+02  0.41800000000E+01 0. -1.
         -5    1    3    3    0  502 -0.73193737646E+02  0.61362459166E+02  0.56274459172E+02  0.11093674675E+03  0.41800000000E+01 0. -1.
        -11    1    1    2    0    0  0.42349387464E+02 -0.14731555455E+01 -0.10698550602E+03  0.11507188755E+03  0.00000000000E+00 0. -1.
         11    1    1    2    0    0  0.30063134914E+02 -0.10718605980E+02  0.19258826396E+02  0.37277110794E+02  0.00000000000E+00 0.  1.
</event>
<event>
 7    1  0.6506388E-006  0.1070360E+03  0.7561462E-02  0.1266159E+00
         -2   -1    0    0    0  501 -0.00000000000E+00  0.00000000000E+00  0.45758147016E+02  0.45758147016E+02  0.00000000000E+00 0.  1.
          2   -1    0    0  501    0  0.00000000000E+00 -0.00000000000E+00 -0.36280110227E+03  0.36280110227E+03  0.00000000000E+00 0. -1.
         23    2    1    2    0    0 -0.67535781602E+02  0.43866501588E+01 -0.17528458609E+03  0.22573082267E+03  0.12509753669E+03 0.  0.
          5    1    3    3  502    0 -0.19850203272E+02  0.45425012036E+02 -0.14958827638E+03  0.15764386166E+03  0.41800000000E+01 0. -1.
         -5    1    3    3    0  502 -0.47685578330E+02 -0.41038361878E+02 -0.25696309702E+02  0.68086961003E+02  0.41800000000E+01 0. -1.
        -11    1    1    2    0    0  0.11643040698E+02 -0.35459533273E+02 -0.99261717184E+02  0.10604634550E+03  0.00000000000E+00 0. -1.
         11    1    1    2    0    0  0.55892740904E+02  0.31072883114E+02 -0.42496651988E+02  0.76782081119E+02  0.00000000000E+00 0.  1.
</event>
<event>
 7    1  0.6506388E-006  0.9041597E+02  0.7561462E-02  0.1301847E+00
          4   -1    0    0  501    0  0.00000000000E+00  0.00000000000E+00  0.19894481271E+03  0.19894481271E+03  0.00000000000E+00 0. -1.
         -4   -1    0    0    0  501 -0.00000000000E+00 -0.00000000000E+00 -0.57160421406E+02  0.57160421406E+02  0.00000000000E+00 0.  1.
         23    2    1    2    0    0 -0.10545505326E+02  0.28893804299E+02  0.95045612003E+02  0.15697165382E+03  0.12108002368E+03 0.  0.
          5    1    3    3  502    0  0.20556084650E+02  0.63352830784E+02  0.87044452617E+02  0.10968291989E+03  0.41800000000E+01 0. -1.
         -5    1    3    3    0  502 -0.31101589977E+02 -0.34459026485E+02  0.80011593864E+01  0.47288733932E+02  0.41800000000E+01 0.  1.
        -11    1    1    2    0    0  0.33655649836E+02 -0.46152540766E+01  0.54969054319E+02  0.64618884769E+02  0.00000000000E+00 0. -1.
         11    1    1    2    0    0 -0.23110144510E+02 -0.24278550222E+02 -0.82302750184E+01  0.34514695523E+02  0.00000000000E+00 0.  1.
</event>
<event>
 7    1  0.6506388E-006  0.8481996E+02  0.7561462E-02  0.1315904E+00
          3   -1    0    0  501    0  0.00000000000E+00  0.00000000000E+00  0.32656487680E+03  0.32656487680E+03  0.00000000000E+00 0. -1.
         -3   -1    0    0    0  501 -0.00000000000E+00 -0.00000000000E+00 -0.42507745129E+02  0.42507745129E+02  0.00000000000E+00 0.  1.
         23    2    1    2    0    0 -0.37826536437E+02  0.93665781144E+01  0.12491715652E+03  0.18102341641E+03  0.12508637675E+03 0.  0.
          5    1    3    3  502    0 -0.60125358421E+02 -0.19644099509E+02  0.12923301029E+03  0.14394301900E+03  0.41800000000E+01 0. -1.
         -5    1    3    3    0  502  0.22298821985E+02  0.29010677623E+02 -0.43158537639E+01  0.37080397406E+02  0.41800000000E+01 0. -1.
        -11    1    1    2    0    0  0.38635683294E+02 -0.29910572662E+02  0.16017663087E+03  0.16746316448E+03  0.00000000000E+00 0. -1.
         11    1    1    2    0    0 -0.80914685749E+00  0.20543994547E+02 -0.10366557264E+01  0.20586041040E+02  0.00000000000E+00 0.  1.
</event>
<event>
 7    1  0.6506388E-006  0.1284077E+03  0.7561462E-02  0.1229838E+00
          1   -1    0    0  501    0  0.00000000000E+00  0.00000000000E+00  0.63869960928E+02  0.63869960928E+02  0.00000000000E+00 0. -1.
         -1   -1    0    0    0  501 -0.00000000000E+00 -0.00000000000E+00 -0.31697461807E+03  0.31697461807E+03  0.00000000000E+00 0.  1.
         23    2    1    2    0    0  0.93343338219E+02  0.11710307767E+02 -0.16918432511E+03  0.23048329937E+03  0.12509638415E+03 0.  0.
          5    1    3    3  502    0  0.74862632111E+00 -0.45664419615E+02 -0.66099481559E+02  0.80451311502E+02  0.41800000000E+01 0. -1.
         -5    1    3    3    0  502  0.92594711898E+02  0.57374727382E+02 -0.10308484356E+03  0.15003198787E+03  0.41800000000E+01 0. -1.
        -11    1    1    2    0    0 -0.21662485188E+02  0.13999148725E+02 -0.67774702941E+02  0.72516548375E+02  0.00000000000E+00 0.  1.
         11    1    1    2    0    0 -0.71680853031E+02 -0.25709456492E+02 -0.16145629085E+02  0.77844731247E+02  0.00000000000E+00 0. -1.
</event>
<event>
 7    1  0.6506388E-006  0.3081107E+03  0.7561462E-02  0.1081255E+00
          2   -1    0    0  501    0  0.00000000000E+00  0.00000000000E+00  0.11333060785E+04  0.11333060785E+04  0.00000000000E+00 0. -1.
         -2   -1    0    0    0  501 -0.00000000000E+00 -0.00000000000E+00 -0.99218435856E+02  0.99218435856E+02  0.00000000000E+00 0.  1.
         23    2    1    2    0    0 -0.27026869669E+03 -0.11487679523E+03  0.30634086598E+03  0.44241892382E+03  0.12509169234E+03 0.  0.
          5    1    3    3  502    0 -0.27869429897E+03 -0.11728476312E+03  0.30900472659E+03  0.43235127084E+03  0.41800000000E+01 0. -1.
         -5    1    3    3    0  502  0.84256022845E+01  0.24079678923E+01 -0.26638606096E+01  0.10067652982E+02  0.41800000000E+01 0. -1.
        -11    1    1    2    0    0  0.20892135627E+03  0.49987790539E+02  0.56517077153E+03  0.60461964349E+03  0.00000000000E+00 0.  1.
         11    1    1    2    0    0  0.61347340419E+02  0.64889004692E+02  0.16257600517E+03  0.18548594708E+03  0.00000000000E+00 0. -1.
</event>
<event>
 7    1  0.6506388E-006  0.1052014E+03  0.7561462E-02  0.1269723E+00
          1   -1    0    0  501    0  0.00000000000E+00  0.00000000000E+00  0.54318319648E+02  0.54318319648E+02  0.00000000000E+00 0. -1.
         -1   -1    0    0    0  501 -0.00000000000E+00 -0.00000000000E+00 -0.25878221814E+03  0.25878221814E+03  0.00000000000E+00 0.  1.
         23    2    1    2    0    0  0.15903977694E+02 -0.14367200924E+02 -0.17091165624E+03  0.21288002412E+03  0.12509099672E+03 0.  0.
          5    1    3    3  502    0 -0.51151124671E+02 -0.75956038559E+01 -0.39754108494E+02  0.65360479613E+02  0.41800000000E+01 0.  1.
         -5    1    3    3    0  502  0.67055102364E+02 -0.67715970686E+01 -0.13115754775E+03  0.14751954451E+03  0.41800000000E+01 0.  1.
        -11    1    1    2    0    0  0.31543419790E+02 -0.15278759686E+02 -0.12821468425E+00  0.35049169300E+02  0.00000000000E+00 0.  1.
         11    1    1    2    0    0 -0.47447397484E+02  0.29645960610E+02 -0.33424027567E+02  0.65171344372E+02  0.00000000000E+00 0. -1.
</event>
<event>
 7    1  0.6506388E-006  0.1026134E+03  0.7561462E-02  0.1274894E+00
          2   -1    0    0  501    0  0.00000000000E+00  0.00000000000E+00  0.99457938964E+02  0.99457938964E+02  0.00000000000E+00 0. -1.
         -2   -1    0    0    0  501 -0.00000000000E+00 -0.00000000000E+00 -0.12089621383E+03  0.12089621383E+03  0.00000000000E+00 0.  1.
         23    2    1    2    0    0 -0.19694488377E+02  0.16929691789E+02 -0.34154816771E+02  0.13225914129E+03  0.12510572173E+03 0.  0.
          5    1    3    3  502    0  0.27662311380E+02  0.55020261488E+02 -0.35731108253E+02  0.71320523989E+02  0.41800000000E+01 0. -1.
         -5    1    3    3    0  502 -0.47356799757E+02 -0.38090569700E+02  0.15762914812E+01  0.60938617297E+02  0.41800000000E+01 0. -1.
        -11    1    1    2    0    0  0.27252966960E+02  0.26790255663E+02 -0.81334809771E+01  0.39071671572E+02  0.00000000000E+00 0. -1.
         11    1    1    2    0    0 -0.75584785833E+01 -0.43719947452E+02  0.20850022887E+02  0.49023339932E+02  0.00000000000E+00 0.  1.
</event>
<event>
 7    1  0.6506388E-006  0.9745643E+02  0.7561462E-02  0.1285737E+00
          2   -1    0    0  501    0  0.00000000000E+00  0.00000000000E+00  0.60563639978E+03  0.60563639978E+03  0.00000000000E+00 0. -1.
         -2   -1    0    0    0  501 -0.00000000000E+00 -0.00000000000E+00 -0.27445832300E+02  0.27445832300E+02  0.00000000000E+00 0.  1.
         23    2    1    2    0    0 -0.32669554162E+02 -0.40565939661E+02  0.43168332633E+03  0.45245134758E+03  0.12509529351E+03 0.  0.
          5    1    3    3  502    0 -0.59651455536E+02 -0.32578847245E+02  0.10904395511E+03  0.12856023484E+03  0.41800000000E+01 0. -1.
         -5    1    3    3    0  502  0.26981901374E+02 -0.79870924158E+01  0.32263937122E+03  0.32389111274E+03  0.41800000000E+01 0. -1.
        -11    1    1    2    0    0  0.60954562868E+02  0.31830084842E+02  0.12914571271E+03  0.14631209160E+03  0.00000000000E+00 0. -1.
         11    1    1    2    0    0 -0.28285008706E+02  0.87358548189E+01  0.17361528427E+02  0.34318792902E+02  0.00000000000E+00 0.  1.
</event>
<event>
 7    1  0.6506388E-006  0.1229383E+03  0.7561462E-02  0.1238327E+00
         -3   -1    0    0    0  501 -0.00000000000E+00  0.00000000000E+00  0.96350030743E+02  0.96350030743E+02  0.00000000000E+00 0.  1.
          3   -1    0    0  501    0  0.00000000000E+00 -0.00000000000E+00 -0.21926544931E+03  0.21926544931E+03  0.00000000000E+00 0. -1.
         23    2    1    2    0    0 -0.81180609192E+02  0.23008891902E+02 -0.16208653452E+02  0.15175309329E+03  0.12508629206E+03 0.  0.
          5    1    3    3  502    0 -0.81304044342E+02 -0.22123404853E+02 -0.47366098510E+02  0.96751291240E+02  0.41800000000E+01 0.  1.
         -5    1    3    3    0  502  0.12343514981E+00  0.45132296755E+02  0.31157445058E+02  0.55001802053E+02  0.41800000000E+01 0.  1.
        -11    1    1    2    0    0  0.46879384940E+01 -0.37958878506E+02 -0.97642665658E+01  0.39473967704E+02  0.00000000000E+00 0.  1.
         11    1    1    2    0    0  0.76492670698E+02  0.14949986604E+02 -0.96942498548E+02  0.12438841905E+03  0.00000000000E+00 0. -1.
</event>
<event>
 6    1  0.6506388E-006  0.1175947E+03  0.7561462E-02  0.1247119E+00
          1   -1    0    0  501    0  0.00000000000E+00  0.00000000000E+00  0.67043941160E+02  0.67043941160E+02  0.00000000000E+00 0. -1.
         -1   -1    0    0    0  501 -0.00000000000E+00 -0.00000000000E+00 -0.45871908213E+03  0.45871908213E+03  0.00000000000E+00 0.  1.
          5    1    1    2  502    0 -0.39977998150E+02 -0.43201287285E+02  0.35780517716E+01  0.59117395187E+02  0.41800000000E+01 0. -1.
         -5    1    1    2    0  502  0.69334208884E+02 -0.99384489999E+01 -0.33306047407E+03  0.34037149863E+03  0.41800000000E+01 0.  1.
        -11    1    1    2    0    0 -0.36632671646E+02 -0.13452255375E+02 -0.39551708545E+02  0.55563058370E+02  0.00000000000E+00 0. -1.
         11    1    1    2    0    0  0.72764609122E+01  0.66591991660E+02 -0.22641010120E+02  0.70711071099E+02  0.00000000000E+00 0.  1.
</event>
<event>
 7    1  0.6506388E-006  0.1698641E+03  0.7561462E-02  0.1177990E+00
         -1   -1    0    0    0  501 -0.00000000000E+00  0.00000000000E+00  0.11743781175E+03  0.11743781175E+03  0.00000000000E+00 0.  1.
          1   -1    0    0  501    0  0.00000000000E+00 -0.00000000000E+00 -0.33112178728E+03  0.33112178728E+03  0.00000000000E+00 0. -1.
         23    2    1    2    0    0 -0.14537018988E+03  0.72152275038E+02 -0.85646519590E+02  0.22208243602E+03  0.12508732617E+03 0.  0.
          5    1    3    3  502    0 -0.85120701173E+02  0.72825676392E+02  0.60701154217E+01  0.11226500618E+03  0.41800000000E+01 0.  1.
         -5    1    3    3    0  502 -0.60249488709E+02 -0.67340135486E+00 -0.91716635012E+02  0.10981742984E+03  0.41800000000E+01 0.  1.
        -11    1    1    2    0    0  0.60716367275E+02 -0.84862246839E+01 -0.99342212037E+02  0.11673631978E+03  0.00000000000E+00 0. -1.
         11    1    1    2    0    0  0.84653822608E+02 -0.63666050354E+02 -0.28695243902E+02  0.10974084323E+03  0.00000000000E+00 0.  1.
</event>
<event>
 7    1  0.6506388E-006  0.1045768E+03  0.7561462E-02  0.1270956E+00
          2   -1    0    0  501    0  0.00000000000E+00  0.00000000000E+00  0.10749092944E+03  0.10749092944E+03  0.00000000000E+00 0. -1.
         -2   -1    0    0    0  501 -0.00000000000E+00 -0.00000000000E+00 -0.12303297067E+03  0.12303297067E+03  0.00000000000E+00 0.  1.
         23    2    1    2    0    0  0.74487141999E+01 -0.20809074310E+02 -0.44167163047E+02  0.13450794343E+03  0.12511253989E+03 0.  0.
          5    1    3    3  502    0  0.39758139852E+02 -0.57335815871E+02 -0.48946190451E+02  0.85330577320E+02  0.41800000000E+01 0. -1.
         -5    1    3    3    0  502 -0.32309425653E+02  0.36526741561E+02  0.47790274039E+01  0.49177366115E+02  0.41800000000E+01 0. -1.
        -11    1    1    2    0    0 -0.36511979191E+02 -0.18891969493E+02  0.21207541289E+02  0.46257874392E+02  0.00000000000E+00 0. -1.
         11    1    1    2    0    0  0.29063264991E+02  0.39701043803E+02  0.74175805292E+01  0.49758082277E+02  0.00000000000E+00 0.  1.
</event>
<event>
 7    1  0.6506388E-006  0.9061435E+02  0.7561462E-02  0.1301371E+00
         -3   -1    0    0    0  501 -0.00000000000E+00  0.00000000000E+00  0.14877399119E+03  0.14877399119E+03  0.00000000000E+00 0.  1.
          3   -1    0    0  501    0  0.00000000000E+00 -0.00000000000E+00 -0.84770405958E+02  0.84770405958E+02  0.00000000000E+00 0. -1.
         23    2    1    2    0    0  0.98842087074E+01  0.90924282942E+00  0.63677365121E+02  0.14070852852E+03  0.12508220843E+03 0.  0.
          5    1    3    3  502    0 -0.20571009027E+02  0.51595771648E+02  0.59159795791E+02  0.81256654511E+02  0.41800000000E+01 0. -1.
         -5    1    3    3    0  502  0.30455217735E+02 -0.50686528818E+02  0.45175693305E+01  0.59451874012E+02  0.41800000000E+01 0. -1.
        -11    1    1    2    0    0  0.27773331877E+02  0.47160287459E+01  0.32483843537E+02  0.42997662513E+02  0.00000000000E+00 0.  1.
         11    1    1    2    0    0 -0.37657540585E+02 -0.56252715753E+01 -0.32157623431E+02  0.49838206106E+02  0.00000000000E+00 0. -1.
</event>
<event>
 7    1  0.6506388E-006  0.1145205E+03  0.7561462E-02  0.1252420E+00
         -1   -1    0    0    0  501 -0.00000000000E+00  0.00000000000E+00  0.26244518836E+03  0.26244518836E+03  0.00000000000E+00 0.  1.
          1   -1    0    0  501    0  0.00000000000E+00 -0.00000000000E+00 -0.64585253944E+02  0.64585253944E+02  0.00000000000E+00 0. -1.
         23    2    1    2    0    0 -0.38415199947E+02  0.54758238735E+02  0.16671367654E+03  0.21889668600E+03  0.12509243342E+03 0.  0.
          5    1    3    3  502    0 -0.67725163936E+02 -0.50474949747E+01  0.49946304874E+02  0.84405454837E+02  0.41800000000E+01 0.  1.
         -5    1    3    3    0  502  0.29309963988E+02  0.59805733710E+02  0.11676737167E+03  0.13449123117E+03  0.41800000000E+01 0.  1.
        -11    1    1    2    0    0 -0.72099915923E+01  0.11646997002E+02  0.23502856624E+02  0.27203323095E+02  0.00000000000E+00 0.  1.
         11    1    1    2    0    0  0.45625191540E+02 -0.66405235737E+02  0.76434012464E+01  0.80930433206E+02  0.00000000000E+00 0. -1.
</event>
<event>
 7    1  0.6506388E-006  0.1228622E+03  0.7561462E-02  0.1238449E+00
         -2   -1    0    0    0  501 -0.00000000000E+00  0.00000000000E+00  0.34196406181E+02  0.34196406181E+02  0.00000000000E+00 0.  1.
          2   -1    0    0  501    0  0.00000000000E+00 -0.00000000000E+00 -0.63590820926E+03  0.63590820926E+03  0.00000000000E+00 0. -1.
         23    2    1    2    0    0  0.26381078622E+02 -0.96023719872E+02 -0.28721729791E+03  0.32872157171E+03  0.12509028501E+03 0.  0.
          5    1    3    3  502    0  0.51717797480E+02 -0.10509661155E+03 -0.27487484063E+03  0.29882047913E+03  0.41800000000E+01 0. -1.
         -5    1    3    3    0  502 -0.25336718858E+02  0.90728916818E+01 -0.12342457281E+02  0.29901092583E+02  0.41800000000E+01 0. -1.
        -11    1    1    2    0    0 -0.40501124125E+01  0.49621333774E+02 -0.45312084059E+02  0.67319129063E+02  0.00000000000E+00 0.  1.
         11    1    1    2    0    0 -0.22330966209E+02  0.46402386098E+02 -0.26918242111E+03  0.27406391467E+03  0.00000000000E+00 0. -1.
</event>
<event>
 7    1  0.6506388E-006  0.1253161E+03  0.7561462E-02  0.1234576E+00
          2   -1    0    0  501    0  0.00000000000E+00  0.00000000000E+00  0.69142882735E+03  0.69142882735E+03  0.00000000000E+00 0. -1.
         -2   -1    0    0    0  501 -0.00000000000E+00 -0.00000000000E+00 -0.35730290001E+02  0.35730290001E+02  0.00000000000E+00 0.  1.
         23    2    1    2    0    0 -0.82278554381E+02 -0.43377653425E+02  0.17927851131E+03  0.23068782351E+03  0.11146616513E+03 0.  0.
          5    1    3    3  502    0 -0.76584988035E+01  0.16698634473E+02  0.11194348652E+03  0.11351789978E+03  0.41800000000E+01 0. -1.
         -5    1    3    3    0  502 -0.74620055578E+02 -0.60076287899E+02  0.67335024796E+02  0.11716992373E+03  0.41800000000E+01 0.  1.
        -11    1    1    2    0    0  0.53059484438E+02 -0.27120305296E+02  0.26731397632E+03  0.27387512078E+03  0.00000000000E+00 0. -1.
         11    1    1    2    0    0  0.29219069943E+02  0.70497958721E+02  0.20910604972E+03  0.22259617306E+03  0.00000000000E+00 0.  1.
</event>
<event>
 7    1  0.6506388E-006  0.5632694E+02  0.7561462E-02  0.1413926E+00
          1   -1    0    0  501    0  0.00000000000E+00  0.00000000000E+00  0.10658047888E+03  0.10658047888E+03  0.00000000000E+00 0. -1.
         -1   -1    0    0    0  501 -0.00000000000E+00 -0.00000000000E+00 -0.11254617332E+03  0.11254617332E+03  0.00000000000E+00 0.  1.
         23    2    1    2    0    0 -0.10523164491E+02 -0.12334828138E+02 -0.11837761794E+02  0.12669218366E+03  0.12509153377E+03 0.  0.
          5    1    3    3  502    0 -0.19889446145E+02 -0.24272837302E+02  0.52035068182E+02  0.60908795911E+02  0.41800000000E+01 0.  1.
         -5    1    3    3    0  502  0.93662816545E+01  0.11938009164E+02 -0.63872829976E+02  0.65783387751E+02  0.41800000000E+01 0.  1.
        -11    1    1    2    0    0 -0.93545912892E+01 -0.22936010248E+02 -0.29606822884E+02  0.38602239644E+02  0.00000000000E+00 0.  1.
         11    1    1    2    0    0  0.19877755780E+02  0.35270838386E+02  0.35478890240E+02  0.53832228896E+02  0.00000000000E+00 0. -1.
</event>
<event>
 7    1  0.6506388E-006  0.1163068E+03  0.7561462E-02  0.1249317E+00
          2   -1    0    0  501    0  0.00000000000E+00  0.00000000000E+00  0.20450098976E+03  0.20450098976E+03  0.00000000000E+00 0.  1.
         -2   -1    0    0    0  501 -0.00000000000E+00 -0.00000000000E+00 -0.87474928793E+02  0.87474928793E+02  0.00000000000E+00 0. -1.
         23    2    1    2    0    0 -0.45699818554E+02 -0.88498718898E+01  0.10053636040E+02  0.13384828661E+03  0.12508994597E+03 0.  0.
          5    1    3    3  502    0 -0.18562113870E+02  0.58042645242E+02  0.69108885488E+01  0.61471404071E+02  0.41800000000E+01 0. -1.
         -5    1    3    3    0  502 -0.27137704684E+02 -0.66892517132E+02  0.31427474916E+01  0.72376882535E+02  0.41800000000E+01 0. -1.
        -11    1    1    2    0    0  0.29769380888E+02 -0.38843840490E+02  0.11575634789E+02  0.50289713692E+02  0.00000000000E+00 0. -1.
         11    1    1    2    0    0  0.15930437667E+02  0.47693712380E+02  0.95396790141E+02  0.10783791826E+03  0.00000000000E+00 0.  1.
</event>
<event>
 7    1  0.6506388E-006  0.7427966E+02  0.7561462E-02  0.1346116E+00
         -2   -1    0    0    0  501 -0.00000000000E+00  0.00000000000E+00  0.29504154067E+02  0.29504154067E+02  0.00000000000E+00 0. -1.
          2   -1    0    0  501    0  0.00000000000E+00 -0.00000000000E+00 -0.56053774560E+03  0.56053774560E+03  0.00000000000E+00 0.  1.
         23    2    1    2    0    0  0.11756937853E+02 -0.19625623939E+02 -0.14583483619E+03  0.19349246518E+03  0.12509254146E+03 0.  0.
          5    1    3    3  502    0  0.10800355885E+02  0.16532733612E+02 -0.15470465538E+03  0.15601596638E+03  0.41800000000E+01 0. -1.
         -5    1    3    3    0  502  0.95658196813E+00 -0.36158357551E+02  0.88698191868E+01  0.37476498799E+02  0.41800000000E+01 0. -1.
        -11    1    1    2    0    0  0.56930282393E+00  0.54742165935E+02 -0.26978464541E+03  0.27528309744E+03  0.00000000000E+00 0.  1.
         11    1    1    2    0    0 -0.12326240677E+02 -0.35116541997E+02 -0.11541410992E+03  0.12126633704E+03  0.00000000000E+00 0. -1.
</event>
<event>
 7    1  0.6506388E-006  0.1335009E+03  0.7561462E-02  0.1222352E+00
          1   -1    0    0  501    0  0.00000000000E+00  0.00000000000E+00  0.56161085031E+03  0.56161085031E+03  0.00000000000E+00 0. -1.
         -1   -1    0    0    0  501 -0.00000000000E+00 -0.00000000000E+00 -0.42312108503E+02  0.42312108503E+02  0.00000000000E+00 0.  1.
         23    2    1    2    0    0  0.10135786700E+03 -0.43096808852E+02  0.27837825159E+03  0.32445597609E+03  0.12508587980E+03 0.  0.
          5    1    3    3  502    0  0.12005416918E+03 -0.57220041747E+02  0.26646650959E+03  0.29784057791E+03  0.41800000000E+01 0.  1.
         -5    1    3    3    0  502 -0.18696302185E+02  0.14123232895E+02  0.11911742002E+02  0.26615398181E+02  0.41800000000E+01 0.  1.
        -11    1    1    2    0    0 -0.51954644630E+02  0.22485067309E+02  0.34672883086E+02  0.66385782906E+02  0.00000000000E+00 0.  1.
         11    1    1    2    0    0 -0.49403222366E+02  0.20611741543E+02  0.20624760713E+03  0.21308119982E+03  0.00000000000E+00 0. -1.
</event>
<event>
 7    1  0.6506388E-006  0.1069205E+03  0.7561462E-02  0.1266381E+00
          2   -1    0    0  501    0  0.00000000000E+00  0.00000000000E+00  0.66373779384E+03  0.66373779384E+03  0.00000000000E+00 0. -1.
         -2   -1    0    0    0  501 -0.00000000000E+00 -0.00000000000E+00 -0.20126803171E+02  0.20126803171E+02  0.00000000000E+00 0.  1.
         23    2    1    2    0    0  0.40716555180E+02  0.21713735443E+01  0.36366539288E+03  0.38673091612E+03  0.12508289563E+03 0.  0.
          5    1    3    3  502    0 -0.11683038229E+00 -0.53321139768E+02  0.23182823006E+03  0.23791796537E+03  0.41800000000E+01 0. -1.
         -5    1    3    3    0  502  0.40833385562E+02  0.55492513312E+02  0.13183716282E+03  0.14881295075E+03  0.41800000000E+01 0. -1.
        -11    1    1    2    0    0 -0.34937229333E+02 -0.39974464096E+02  0.21769128507E+03  0.22407155859E+03  0.00000000000E+00 0.  1.
         11    1    1    2    0    0 -0.57793258468E+01  0.37803090552E+02  0.62254312720E+02  0.73062122298E+02  0.00000000000E+00 0. -1.
</event>
<event>
 6    1  0.6506388E-006  0.8259940E+02  0.7561462E-02  0.1321832E+00
          4   -1    0    0  501    0  0.00000000000E+00  0.00000000000E+00  0.31225880447E+02  0.31225880447E+02  0.00000000000E+00 0.  1.
         -4   -1    0    0    0  501 -0.00000000000E+00 -0.00000000000E+00 -0.50956275404E+03  0.50956275404E+03  0.00000000000E+00 0. -1.
          5    1    1    2  502    0  0.64764890470E+02 -0.94988610299E+00 -0.18325945894E+03  0.19441423562E+03  0.41800000000E+01 0. -1.
         -5    1    1    2    0  502 -0.67805523935E+02  0.62785245146E-01 -0.30431554868E+03  0.31180605925E+03  0.41800000000E+01 0.  1.
        -11    1    1    2    0    0 -0.46907186515E+01  0.15299694347E+02  0.86763568877E+01  0.18203369398E+02  0.00000000000E+00 0.  1.
         11    1    1    2    0    0  0.77313521166E+01 -0.14412593490E+02  0.56177713849E+00  0.16364970217E+02  0.00000000000E+00 0. -1.
</event>
<event>
 6    1  0.6506388E-006  0.8900307E+02  0.7561462E-02  0.1305284E+00
          3   -1    0    0  501    0  0.00000000000E+00  0.00000000000E+00  0.51442440015E+02  0.51442440015E+02  0.00000000000E+00 0. -1.
         -3   -1    0    0    0  501 -0.00000000000E+00 -0.00000000000E+00 -0.31774334211E+03  0.31774334211E+03  0.00000000000E+00 0.  1.
          5    1    1    2  502    0  0.33630760267E+02  0.33709153225E+02  0.11081806824E+02  0.49067442258E+02  0.41800000000E+01 0. -1.
         -5    1    1    2    0  502 -0.31941954537E+02 -0.23716154220E+02 -0.19028535545E+03  0.19444467936E+03  0.41800000000E+01 0.  1.
        -11    1    1    2    0    0  0.43978596168E+02 -0.45631301416E+01 -0.48550800779E+02  0.65666729277E+02  0.00000000000E+00 0.  1.
         11    1    1    2    0    0 -0.45667401898E+02 -0.54298688633E+01 -0.38546552692E+02  0.60006931237E+02  0.00000000000E+00 0. -1.
</event>
<event>
 7    1  0.6691778E-006  0.9597766E+02  0.7561462E-02  0.1288989E+00
         -1   -1    0    0    0  501 -0.00000000000E+00  0.00000000000E+00  0.26775366053E+02  0.26775366053E+02  0.00000000000E+00 0.  1.
          1   -1    0    0  501    0  0.00000000000E+00 -0.00000000000E+00 -0.66642982370E+03  0.66642982370E+03  0.00000000000E+00 0. -1.
         23    2    1    2    0    0  0.36631158830E+02  0.59297069661E+02 -0.27070834498E+03  0.30624926762E+03  0.12509045370E+03 0.  0.
          5    1    3    3  502    0  0.50691371643E+02  0.37297136740E+02 -0.27254111449E+03  0.27974421005E+03  0.41800000000E+01 0.  1.
         -5    1    3    3    0  502 -0.14060212813E+02  0.21999932921E+02  0.18327695072E+01  0.26505057573E+02  0.41800000000E+01 0.  1.
        -11    1    1    2    0    0  0.15751182376E+02 -0.45677576503E+02 -0.83911148599E+02  0.96827793534E+02  0.00000000000E+00 0.  1.
         11    1    1    2    0    0 -0.52382341206E+02 -0.13619493158E+02 -0.28503496407E+03  0.29012812860E+03  0.00000000000E+00 0. -1.
</event>
<event>
 7    1  0.6506388E-006  0.9819759E+02  0.7561462E-02  0.1284132E+00
          1   -1    0    0  501    0  0.00000000000E+00  0.00000000000E+00  0.33806670787E+03  0.33806670787E+03  0.00000000000E+00 0. -1.
         -1   -1    0    0    0  501 -0.00000000000E+00 -0.00000000000E+00 -0.50580777635E+02  0.50580777635E+02  0.00000000000E+00 0.  1.
         23    2    1    2    0    0 -0.33702824106E+02 -0.53263480721E+02  0.10493915131E+03  0.17502197671E+03  0.12509031986E+03 0.  0.
          5    1    3    3  502    0 -0.75678718900E+02 -0.27688607375E+02  0.95096913555E+02  0.12471897546E+03  0.41800000000E+01 0.  1.
         -5    1    3    3    0  502  0.41975894793E+02 -0.25574873347E+02  0.98422377579E+01  0.50303001247E+02  0.41800000000E+01 0.  1.
        -11    1    1    2    0    0  0.19266900903E+02  0.46689970262E+02  0.18963893620E+03  0.19625007749E+03  0.00000000000E+00 0. -1.
         11    1    1    2    0    0  0.14435923203E+02  0.65735104591E+01 -0.70921572683E+01  0.17375431310E+02  0.00000000000E+00 0.  1.
</event>
<event>
 7    1  0.6506388E-006  0.1136837E+03  0.7561462E-02  0.1253896E+00
         -2   -1    0    0    0  501 -0.00000000000E+00  0.00000000000E+00  0.40968331663E+03  0.40968331663E+03  0.00000000000E+00 0.  1.
          2   -1    0    0  501    0  0.00000000000E+00 -0.00000000000E+00 -0.42426720046E+02  0.42426720046E+02  0.00000000000E+00 0. -1.
         23    2    1    2    0    0 -0.48884820948E+02  0.35447536548E+02  0.27878830737E+03  0.31147489690E+03  0.12508971783E+03 0.  0.
          5    1    3    3  502    0  0.36513563456E+02  0.38540010159E+02  0.11247076058E+03  0.12444162119E+03  0.41800000000E+01 0. -1.
         -5    1    3    3    0  502 -0.85398384404E+02 -0.30924736112E+01  0.16631754678E+03  0.18703327570E+03  0.41800000000E+01 0. -1.
        -11    1    1    2    0    0  0.43868491887E+02 -0.53864640703E+02  0.24153438613E+02  0.73547485989E+02  0.00000000000E+00 0. -1.
         11    1    1    2    0    0  0.50163290607E+01  0.18417104155E+02  0.64314850607E+02  0.67087653791E+02  0.00000000000E+00 0.  1.
</event>
<event>
 7    1  0.6506388E-006  0.7436165E+02  0.7561462E-02  0.1345859E+00
          3   -1    0    0  501    0  0.00000000000E+00  0.00000000000E+00  0.70420152450E+03  0.70420152450E+03  0.00000000000E+00 0.  1.
         -3   -1    0    0    0  501 -0.00000000000E+00 -0.00000000000E+00 -0.18990310777E+02  0.18990310777E+02  0.00000000000E+00 0. -1.
         23    2    1    2    0    0 -0.27590244751E+02  0.24388443477E+02  0.32697045276E+03  0.35201180884E+03  0.12508644533E+03 0.  0.
          5    1    3    3  502    0 -0.30507333782E+02  0.32460067900E+02  0.27770358656E+02  0.52659459192E+02  0.41800000000E+01 0.  1.
         -5    1    3    3    0  502  0.29170890307E+01 -0.80716244235E+01  0.29920009411E+03  0.29935234965E+03  0.41800000000E+01 0.  1.
        -11    1    1    2    0    0 -0.18284862060E+01  0.31353308255E+02  0.16364354886E+03  0.16663008247E+03  0.00000000000E+00 0. -1.
         11    1    1    2    0    0  0.29418730957E+02 -0.55741751732E+02  0.19459721209E+03  0.20454994396E+03  0.00000000000E+00 0.  1.
</event>
<event>
 7    1  0.6506388E-006  0.1312979E+03  0.7561462E-02  0.1225542E+00
          1   -1    0    0  501    0  0.00000000000E+00  0.00000000000E+00  0.24193805633E+03  0.24193805633E+03  0.00000000000E+00 0. -1.
         -1   -1    0    0    0  501 -0.00000000000E+00 -0.00000000000E+00 -0.76914734791E+02  0.76914734791E+02  0.00000000000E+00 0.  1.
         23    2    1    2    0    0  0.81303579759E+02 -0.55526893476E+01  0.82672998580E+02  0.17065640087E+03  0.12509067921E+03 0.  0.
          5    1    3    3  502    0 -0.79153107032E+01 -0.43198722109E+02  0.13563483751E+01  0.44137215774E+02  0.41800000000E+01 0. -1.
         -5    1    3    3    0  502  0.89218890462E+02  0.37646032761E+02  0.81316650205E+02  0.12651918510E+03  0.41800000000E+01 0. -1.
        -11    1    1    2    0    0 -0.10130641919E+03  0.66152050520E+01  0.77124602354E+02  0.12749492458E+03  0.00000000000E+00 0.  1.
         11    1    1    2    0    0  0.20002839429E+02 -0.10625157044E+01  0.52257206083E+01  0.20701465666E+02  0.00000000000E+00 0. -1.
</event>
<event>
 7    1  0.6506388E-006  0.1053177E+03  0.7561462E-02  0.1269495E+00
          1   -1    0    0  501    0  0.00000000000E+00  0.00000000000E+00  0.24772428546E+03  0.24772428546E+03  0.00000000000E+00 0. -1.
         -1   -1    0    0    0  501 -0.00000000000E+00 -0.00000000000E+00 -0.11409283811E+03  0.11409283811E+03  0.00000000000E+00 0.  1.
         23    2    1    2    0    0  0.39669153865E+02 -0.12840238687E+02 -0.57260773073E+02  0.14375388498E+03  0.12509144581E+03 0.  0.
          5    1    3    3  502    0  0.10351954598E+02  0.46615753133E+02  0.10280169243E+02  0.49023929706E+02  0.41800000000E+01 0.  1.
         -5    1    3    3    0  502  0.29317199268E+02 -0.59455991820E+02 -0.67540942317E+02  0.94729955269E+02  0.41800000000E+01 0.  1.
        -11    1    1    2    0    0 -0.47879546314E+02 -0.27429823089E+02  0.15108779792E+03  0.16084890062E+03  0.00000000000E+00 0.  1.
         11    1    1    2    0    0  0.82103924490E+01  0.40270061776E+02  0.39804422500E+02  0.57214337977E+02  0.00000000000E+00 0. -1.
</event>
<event>
 7    1  0.6506388E-006  0.1167602E+03  0.7561462E-02  0.1248539E+00
         -1   -1    0    0    0  501 -0.00000000000E+00  0.00000000000E+00  0.22215775772E+02  0.22215775772E+02  0.00000000000E+00 0.  1.
          1   -1    0    0  501    0  0.00000000000E+00 -0.00000000000E+00 -0.81513847444E+03  0.81513847444E+03  0.00000000000E+00 0. -1.
         23    2    1    2    0    0 -0.44489621789E+02 -0.58761760961E+02 -0.33502450367E+03  0.36513192083E+03  0.12509048945E+03 0.  0.
          5    1    3    3  502    0 -0.38615218253E+02  0.17700524895E+02 -0.34307217469E+02  0.54762224505E+02  0.41800000000E+01 0.  1.
         -5    1    3    3    0  502 -0.58744035362E+01 -0.76462285857E+02 -0.30071728620E+03  0.31036969632E+03  0.41800000000E+01 0.  1.
        -11    1    1    2    0    0  0.16092074912E+02 -0.22666007600E+02 -0.82914125844E+02  0.87449728644E+02  0.00000000000E+00 0. -1.
         11    1    1    2    0    0  0.28397546877E+02  0.81427768561E+02 -0.37498406916E+03  0.38477260074E+03  0.00000000000E+00 0.  1.
</event>
<event>
 7    1  0.6506388E-006  0.1048098E+03  0.7561462E-02  0.1270495E+00
         -3   -1    0    0    0  501 -0.00000000000E+00  0.00000000000E+00  0.10929553363E+03  0.10929553363E+03  0.00000000000E+00 0.  1.
          3   -1    0    0  501    0  0.00000000000E+00 -0.00000000000E+00 -0.11003855867E+03  0.11003855867E+03  0.00000000000E+00 0. -1.
         23    2    1    2    0    0 -0.12472874558E+02 -0.23310707524E+02  0.22744408805E+01  0.12787089236E+03  0.12508729091E+03 0.  0.
          5    1    3    3  502    0  0.36963604623E+02 -0.54586545686E+02 -0.12870495495E+02  0.67298745092E+02  0.41800000000E+01 0.  1.
         -5    1    3    3    0  502 -0.49436479181E+02  0.31275838162E+02  0.15144936376E+02  0.60572147266E+02  0.41800000000E+01 0.  1.
        -11    1    1    2    0    0 -0.18034382319E+02 -0.23142557492E+02  0.15115719603E+02  0.33004573805E+02  0.00000000000E+00 0.  1.
         11    1    1    2    0    0  0.30507256877E+02  0.46453265016E+02 -0.18133185520E+02  0.58458626138E+02  0.00000000000E+00 0. -1.
</event>
<event>
 7    1  0.6506388E-006  0.1195903E+03  0.7561462E-02  0.1243774E+00
          2   -1    0    0  501    0  0.00000000000E+00  0.00000000000E+00  0.27949378068E+03  0.27949378068E+03  0.00000000000E+00 0. -1.
         -2   -1    0    0    0  501 -0.00000000000E+00 -0.00000000000E+00 -0.67834839862E+02  0.67834839862E+02  0.00000000000E+00 0.  1.
         23    2    1    2    0    0  0.12006783095E+02  0.79546568639E+02  0.86367308179E+02  0.17198563878E+03  0.12509168079E+03 0.  0.
          5    1    3    3  502    0 -0.42086416027E+02 -0.29188350992E+00 -0.24610265781E+00  0.42295207488E+02  0.41800000000E+01 0.  1.
         -5    1    3    3    0  502  0.54093199121E+02  0.79838452148E+02  0.86613410837E+02  0.12969043129E+03  0.41800000000E+01 0.  1.
        -11    1    1    2    0    0  0.13986363649E+02 -0.71922075556E+02  0.35236460815E+02  0.81301977167E+02  0.00000000000E+00 0.  1.
         11    1    1    2    0    0 -0.25993146744E+02 -0.76244930824E+01  0.90055171820E+02  0.94041004588E+02  0.00000000000E+00 0. -1.
</event>
<event>
 7    1  0.6506388E-006  0.1154390E+03  0.7561462E-02  0.1250817E+00
         -2   -1    0    0    0  501 -0.00000000000E+00  0.00000000000E+00  0.10804743135E+03  0.10804743135E+03  0.00000000000E+00 0.  1.
          2   -1    0    0  501    0  0.00000000000E+00 -0.00000000000E+00 -0.17981090642E+03  0.17981090642E+03  0.00000000000E+00 0. -1.
         23    2    1    2    0    0  0.24293044861E+02  0.60977687272E+02  0.19990596415E+02  0.14267464432E+03  0.12509196542E+03 0.  0.
          5    1    3    3  502    0  0.12458640197E+02  0.96143397921E+02 -0.59342591990E+01  0.97218611961E+02  0.41800000000E+01 0. -1.
         -5    1    3    3    0  502  0.11834404664E+02 -0.35165710649E+02  0.25924855614E+02  0.45456032359E+02  0.41800000000E+01 0. -1.
        -11    1    1    2    0    0 -0.44125437030E+02 -0.62616822123E+02 -0.97945060553E+02  0.12434289482E+03  0.00000000000E+00 0. -1.
         11    1    1    2    0    0  0.19832392169E+02  0.16391348501E+01  0.61909890678E+01  0.20840798637E+02  0.00000000000E+00 0.  1.
</event>
<event>
 7    1  0.6506388E-006  0.1419781E+03  0.7561462E-02  0.1210692E+00
          1   -1    0    0  501    0  0.00000000000E+00  0.00000000000E+00  0.23203931622E+02  0.23203931622E+02  0.00000000000E+00 0. -1.
         -1   -1    0    0    0  501 -0.00000000000E+00 -0.00000000000E+00 -0.11864487375E+04  0.11864487375E+04  0.00000000000E+00 0.  1.
         23    2    1    2    0    0 -0.93716352379E+02  0.73594907156E+02 -0.75994127263E+03  0.77933170361E+03  0.12509277096E+03 0.  0.
          5    1    3    3  502    0 -0.16106051417E+02 -0.19108433122E+02 -0.29270192714E+02  0.38713740327E+02  0.41800000000E+01 0.  1.
         -5    1    3    3    0  502 -0.77610300962E+02  0.92703340277E+02 -0.73067107992E+03  0.74061796329E+03  0.41800000000E+01 0.  1.
        -11    1    1    2    0    0  0.37997621456E+02 -0.72569944567E+02 -0.14950029602E+03  0.17047156537E+03  0.00000000000E+00 0. -1.
         11    1    1    2    0    0  0.55718730924E+02 -0.10249625890E+01 -0.25380323719E+03  0.25984940010E+03  0.00000000000E+00 0.  1.
</event>
<event>
 7    1  0.6506388E-006  0.1127126E+03  0.7561462E-02  0.1255627E+00
          2   -1    0    0  501    0  0.00000000000E+00  0.00000000000E+00  0.44862977257E+03  0.44862977257E+03  0.00000000000E+00 0. -1.
         -2   -1    0    0    0  501 -0.00000000000E+00 -0.00000000000E+00 -0.61261609688E+02  0.61261609688E+02  0.00000000000E+00 0.  1.
         23    2    1    2    0    0 -0.35210885150E+02  0.75739505848E+01  0.22437344542E+02  0.13209094114E+03  0.12508961244E+03 0.  0.
          5    1    3    3  502    0  0.10441384627E+02  0.59688834209E+02  0.92201108720E+01  0.61435024917E+02  0.41800000000E+01 0. -1.
         -5    1    3    3    0  502 -0.45652269777E+02 -0.52114883624E+02  0.13217233670E+02  0.70655916220E+02  0.41800000000E+01 0. -1.
        -11    1    1    2    0    0  0.58533290277E+02  0.17441215577E+02  0.19060738762E+03  0.20015373663E+03  0.00000000000E+00 0.  1.
         11    1    1    2    0    0 -0.23322405127E+02 -0.25015166162E+02  0.17432343072E+03  0.17764670450E+03  0.00000000000E+00 0. -1.
</event>
<event>
 7    1  0.6506388E-006  0.2138955E+03  0.7561462E-02  0.1138518E+00
         -2   -1    0    0    0  501 -0.00000000000E+00  0.00000000000E+00  0.13343599711E+03  0.13343599711E+03  0.00000000000E+00 0.  1.
          2   -1    0    0  501    0  0.00000000000E+00 -0.00000000000E+00 -0.39619810332E+03  0.39619810332E+03  0.00000000000E+00 0. -1.
         23    2    1    2    0    0  0.90992502295E+01  0.19847461901E+03 -0.89977294513E+02  0.25143372638E+03  0.12509210402E+03 0.  0.
          5    1    3    3  502    0 -0.35293582641E+02  0.14106994957E+03 -0.13783515816E+02  0.14612948147E+03  0.41800000000E+01 0. -1.
         -5    1    3    3    0  502  0.44392832871E+02  0.57404669441E+02 -0.76193778696E+02  0.10530424491E+03  0.41800000000E+01 0. -1.
        -11    1    1    2    0    0  0.17050842752E+02 -0.17042876235E+03 -0.16736430282E+03  0.23947338919E+03  0.00000000000E+00 0.  1.
         11    1    1    2    0    0 -0.26150092981E+02 -0.28045856663E+02 -0.54205088806E+01  0.38726984848E+02  0.00000000000E+00 0. -1.
</event>
<event>
 7    1  0.6506388E-006  0.1544016E+03  0.7561462E-02  0.1195166E+00
         -1   -1    0    0    0  501 -0.00000000000E+00  0.00000000000E+00  0.47377888246E+02  0.47377888246E+02  0.00000000000E+00 0.  1.
          1   -1    0    0  501    0  0.00000000000E+00 -0.00000000000E+00 -0.61226768421E+03  0.61226768421E+03  0.00000000000E+00 0. -1.
         23    2    1    2    0    0 -0.30105576361E+02 -0.10816285946E+03 -0.16759762261E+03  0.23736494704E+03  0.12509038766E+03 0.  0.
          5    1    3    3  502    0 -0.77886816612E+02 -0.49805398573E+02 -0.91476765307E+02  0.13012457462E+03  0.41800000000E+01 0. -1.
         -5    1    3    3    0  502  0.47781240251E+02 -0.58357460889E+02 -0.76120857300E+02  0.10724037242E+03  0.41800000000E+01 0. -1.
        -11    1    1    2    0    0  0.46582114739E+02  0.19432209497E+02 -0.10746246289E+03  0.11872525051E+03  0.00000000000E+00 0.  1.
         11    1    1    2    0    0 -0.16476538378E+02  0.88730649966E+02 -0.28982971048E+03  0.30355537491E+03  0.00000000000E+00 0. -1.
</event>
<event>
 7    1  0.6506388E-006  0.1408560E+03  0.7561462E-02  0.1212182E+00
          2   -1    0    0  501    0  0.00000000000E+00  0.00000000000E+00  0.50102434651E+03  0.50102434651E+03  0.00000000000E+00 0. -1.
         -2   -1    0    0    0  501 -0.00000000000E+00 -0.00000000000E+00 -0.61324843533E+02  0.61324843533E+02  0.00000000000E+00 0.  1.
         23    2    1    2    0    0 -0.12492546181E+03 -0.57707732808E+02  0.23333546849E+03  0.29837614134E+03  0.12508528063E+03 0.  0.
          5    1    3    3  502    0 -0.34821512835E+02 -0.32398940060E+00  0.17113308787E+03  0.17469015110E+03  0.41800000000E+01 0.  1.
         -5    1    3    3    0  502 -0.90103948972E+02 -0.57383743407E+02  0.62202380618E+02  0.12368599024E+03  0.41800000000E+01 0.  1.
        -11    1    1    2    0    0  0.65618488912E+01  0.10331455734E+02 -0.79567108174E+01  0.14598153495E+02  0.00000000000E+00 0.  1.
         11    1    1    2    0    0  0.11836361292E+03  0.47376277074E+02  0.21432074530E+03  0.24937489520E+03  0.00000000000E+00 0. -1.
</event>
<event>
 7    1  0.6506388E-006  0.1972560E+03  0.7561462E-02  0.1152075E+00
          2   -1    0    0  501    0  0.00000000000E+00  0.00000000000E+00  0.68403332336E+03  0.68403332336E+03  0.00000000000E+00 0. -1.
         -2   -1    0    0    0  501 -0.00000000000E+00 -0.00000000000E+00 -0.63215176817E+02  0.63215176817E+02  0.00000000000E+00 0.  1.
         23    2    1    2    0    0  0.16984213659E+03  0.50225473480E+02  0.30262085670E+03  0.37228055596E+03  0.12507789528E+03 0.  0.
          5    1    3    3  502    0  0.11527316438E+03 -0.29921285417E+02  0.18056998915E+03  0.21634735757E+03  0.41800000000E+01 0.  1.
         -5    1    3    3    0  502  0.54568972212E+02  0.80146758896E+02  0.12205086755E+03  0.15593319839E+03  0.41800000000E+01 0.  1.
        -11    1    1    2    0    0 -0.17745443938E+02 -0.12145891257E+02  0.12168645134E+03  0.12357190576E+03  0.00000000000E+00 0. -1.
         11    1    1    2    0    0 -0.15209669265E+03 -0.38079582223E+02  0.19651083851E+03  0.25139603845E+03  0.00000000000E+00 0.  1.
</event>
<event>
 7    1  0.6506388E-006  0.1197564E+03  0.7561462E-02  0.1243499E+00
         -3   -1    0    0    0  501 -0.00000000000E+00  0.00000000000E+00  0.56560804436E+02  0.56560804436E+02  0.00000000000E+00 0.  1.
          3   -1    0    0  501    0  0.00000000000E+00 -0.00000000000E+00 -0.50800510854E+03  0.50800510854E+03  0.00000000000E+00 0. -1.
         23    2    1    2    0    0 -0.64213807912E+02 -0.77227742706E+02 -0.10315371770E+03  0.19072345446E+03  0.12508880539E+03 0.  0.
          5    1    3    3  502    0 -0.19809113863E+02 -0.35044972592E+01 -0.10251767861E+03  0.10455634519E+03  0.41800000000E+01 0.  1.
         -5    1    3    3    0  502 -0.44404694050E+02 -0.73723245447E+02 -0.63603909593E+00  0.86167109262E+02  0.41800000000E+01 0.  1.
        -11    1    1    2    0    0 -0.20793512223E+02  0.53284383688E+01 -0.90972876893E+02  0.93470994090E+02  0.00000000000E+00 0. -1.
         11    1    1    2    0    0  0.85007320135E+02  0.71899304337E+02 -0.25731770951E+03  0.28037146443E+03  0.00000000000E+00 0.  1.
</event>
<event>
 7    1  0.6506388E-006  0.7363323E+02  0.7561462E-02  0.1348156E+00
          2   -1    0    0  501    0  0.00000000000E+00  0.00000000000E+00  0.11779828071E+03  0.11779828071E+03  0.00000000000E+00 0. -1.
         -2   -1    0    0    0  501 -0.00000000000E+00 -0.00000000000E+00 -0.12594961298E+03  0.12594961298E+03  0.00000000000E+00 0.  1.
         23    2    1    2    0    0 -0.49313649220E+02  0.23160661162E+02 -0.96535369070E+01  0.13677965170E+03  0.12508888887E+03 0.  0.
          5    1    3    3  502    0  0.55113148077E+01  0.82733118748E+01 -0.59874987459E+02  0.60838382650E+02  0.41800000000E+01 0. -1.
         -5    1    3    3    0  502 -0.54824964028E+02  0.14887349287E+02  0.50221450552E+02  0.75941269050E+02  0.41800000000E+01 0. -1.
        -11    1    1    2    0    0 -0.92920270617E+01 -0.18531211264E+02  0.33980675082E+02  0.39804947392E+02  0.00000000000E+00 0. -1.
         11    1    1    2    0    0  0.58605676282E+02 -0.46294498973E+01 -0.32478470449E+02  0.67163294600E+02  0.00000000000E+00 0.  1.
</event>
<event>
 7    1  0.6506388E-006  0.1716989E+03  0.7561462E-02  0.1176088E+00
          1   -1    0    0  501    0  0.00000000000E+00  0.00000000000E+00  0.13212558913E+04  0.13212558913E+04  0.00000000000E+00 0. -1.
         -1   -1    0    0    0  501 -0.00000000000E+00 -0.00000000000E+00 -0.27349845696E+02  0.27349845696E+02  0.00000000000E+00 0.  1.
         23    2    1    2    0    0  0.10266026909E+03  0.11555539865E+03  0.63693058351E+03  0.66724929075E+03  0.12509543073E+03 0.  0.
          5    1    3    3  502    0  0.68716022269E+01  0.40021288073E+02  0.37216524895E+02  0.55240062830E+02  0.41800000000E+01 0.  1.
         -5    1    3    3    0  502  0.95788666863E+02  0.75534110574E+02  0.59971405862E+03  0.61200922792E+03  0.41800000000E+01 0.  1.
        -11    1    1    2    0    0 -0.88124199754E+02 -0.29034399350E+02  0.32526717212E+03  0.33824193145E+03  0.00000000000E+00 0.  1.
         11    1    1    2    0    0 -0.14536069336E+02 -0.86520999296E+02  0.33170828997E+03  0.34311451480E+03  0.00000000000E+00 0. -1.
</event>
<event>
 7    1  0.6506388E-006  0.1173035E+03  0.7561462E-02  0.1247613E+00
          2   -1    0    0  501    0  0.00000000000E+00  0.00000000000E+00  0.21958611090E+03  0.21958611090E+03  0.00000000000E+00 0. -1.
         -2   -1    0    0    0  501 -0.00000000000E+00 -0.00000000000E+00 -0.77044655087E+02  0.77044655087E+02  0.00000000000E+00 0.  1.
         23    2    1    2    0    0  0.20031637430E+02  0.68290631843E+02  0.73675300545E+02  0.16168055374E+03  0.12509066572E+03 0.  0.
          5    1    3    3  502    0 -0.30821763858E+01  0.10127496149E+03  0.39990369321E+02  0.10900834681E+03  0.41800000000E+01 0.  1.
         -5    1    3    3    0  502  0.23113813816E+02 -0.32984329645E+02  0.33684931224E+02  0.52672206929E+02  0.41800000000E+01 0.  1.
        -11    1    1    2    0    0 -0.28249380164E+02 -0.76219869068E+02  0.18578923636E+02  0.83382685996E+02  0.00000000000E+00 0.  1.
         11    1    1    2    0    0  0.82177427336E+01  0.79292372250E+01  0.50287231632E+02  0.51567526252E+02  0.00000000000E+00 0. -1.
</event>
<event>
 7    1  0.6506388E-006  0.7887499E+02  0.7561462E-02  0.1332275E+00
          1   -1    0    0  501    0  0.00000000000E+00  0.00000000000E+00  0.63204765179E+02  0.63204765179E+02  0.00000000000E+00 0. -1.
         -1   -1    0    0    0  501 -0.00000000000E+00 -0.00000000000E+00 -0.22605213202E+03  0.22605213202E+03  0.00000000000E+00 0.  1.
         23    2    1    2    0    0  0.24972829485E+02  0.37171107270E+02 -0.12323336179E+03  0.18121394932E+03  0.12508677205E+03 0.  0.
          5    1    3    3  502    0  0.35440507529E+02  0.39495678651E+02  0.40758539376E+01  0.53385608467E+02  0.41800000000E+01 0.  1.
         -5    1    3    3    0  502 -0.10467678045E+02 -0.23245713807E+01 -0.12730921572E+03  0.12782834085E+03  0.41800000000E+01 0.  1.
        -11    1    1    2    0    0  0.59002306784E+01 -0.56355440719E+02 -0.34490953872E+01  0.56768342231E+02  0.00000000000E+00 0. -1.
         11    1    1    2    0    0 -0.30873060163E+02  0.19184333449E+02 -0.36164909673E+02  0.51274605657E+02  0.00000000000E+00 0.  1.
</event>
<event>
 7    1  0.6506388E-006  0.1648106E+03  0.7561462E-02  0.1183370E+00
          2   -1    0    0  501    0  0.00000000000E+00  0.00000000000E+00  0.32845009861E+03  0.32845009861E+03  0.00000000000E+00 0. -1.
         -2   -1    0    0    0  501 -0.00000000000E+00 -0.00000000000E+00 -0.20440301834E+03  0.20440301834E+03  0.00000000000E+00 0.  1.
         23    2    1    2    0    0 -0.95668599842E+02 -0.11588623786E+03 -0.12201010326E+03  0.23046660797E+03  0.12508513489E+03 0.  0.
          5    1    3    3  502    0 -0.10169049579E+03 -0.61166258413E+02 -0.12839983085E+03  0.17488927086E+03  0.41800000000E+01 0.  1.
         -5    1    3    3    0  502  0.60218959437E+01 -0.54719979447E+02  0.63897275861E+01  0.55577337109E+02  0.41800000000E+01 0.  1.
        -11    1    1    2    0    0  0.28257769599E+02  0.66040345896E+02  0.45548157117E+02  0.85055649111E+02  0.00000000000E+00 0.  1.
         11    1    1    2    0    0  0.67410830242E+02  0.49845891964E+02  0.20050902641E+03  0.21733085987E+03  0.00000000000E+00 0. -1.
</event>
<event>
 7    1  0.7468382E-006  0.1963441E+03  0.7561462E-02  0.1152861E+00
         -1   -1    0    0    0  501 -0.00000000000E+00  0.00000000000E+00  0.94804053393E+03  0.94804053393E+03  0.00000000000E+00 0.  1.
          1   -1    0    0  501    0  0.00000000000E+00 -0.00000000000E+00 -0.43973661353E+02  0.43973661353E+02  0.00000000000E+00 0. -1.
         23    2    1    2    0    0 -0.84521832330E+02  0.14943739417E+03  0.51005761315E+03  0.55252289008E+03  0.12508916982E+03 0.  0.
          5    1    3    3  502    0 -0.61561530097E+02  0.63017925238E+01  0.10107392866E+03  0.11858729288E+03  0.41800000000E+01 0. -1.
         -5    1    3    3    0  502 -0.22960302234E+02  0.14313560164E+03  0.40898368449E+03  0.43393559720E+03  0.41800000000E+01 0. -1.
        -11    1    1    2    0    0  0.83791296602E+02 -0.78883819843E+02  0.17544379744E+03  0.20981936155E+03  0.00000000000E+00 0. -1.
         11    1    1    2    0    0  0.73053572837E+00 -0.70553574326E+02  0.21856546198E+03  0.22967194366E+03  0.00000000000E+00 0.  1.
</event>
<event>
 7    1  0.6506388E-006  0.1009367E+03  0.7561462E-02  0.1278338E+00
         -2   -1    0    0    0  501 -0.00000000000E+00  0.00000000000E+00  0.24760640801E+03  0.24760640801E+03  0.00000000000E+00 0.  1.
          2   -1    0    0  501    0  0.00000000000E+00 -0.00000000000E+00 -0.79291145828E+02  0.79291145828E+02  0.00000000000E+00 0. -1.
         23    2    1    2    0    0  0.33115012522E+02  0.39394390624E+02  0.17836298541E+03  0.22384853610E+03  0.12508513294E+03 0.  0.
          5    1    3    3  502    0  0.17439761693E+02 -0.26655942408E+02  0.14420302184E+03  0.14773851381E+03  0.41800000000E+01 0.  1.
         -5    1    3    3    0  502  0.15675250829E+02  0.66050333032E+02  0.34159963569E+02  0.76110022292E+02  0.41800000000E+01 0.  1.
        -11    1    1    2    0    0  0.26678539516E+02  0.51496971465E+01  0.30641195669E+01  0.27343238289E+02  0.00000000000E+00 0.  1.
         11    1    1    2    0    0 -0.59793552038E+02 -0.44544087771E+02 -0.13111842796E+02  0.75705779450E+02  0.00000000000E+00 0. -1.
</event>
<event>
 7    1  0.6506388E-006  0.1040799E+03  0.7561462E-02  0.1271943E+00
         -2   -1    0    0    0  501 -0.00000000000E+00  0.00000000000E+00  0.25321298396E+02  0.25321298396E+02  0.00000000000E+00 0.  1.
          2   -1    0    0  501    0  0.00000000000E+00 -0.00000000000E+00 -0.64872453888E+03  0.64872453888E+03  0.00000000000E+00 0. -1.
         23    2    1    2    0    0  0.36593143372E+01 -0.10444941227E+02 -0.17477094063E+03  0.21520703327E+03  0.12508676229E+03 0.  0.
          5    1    3    3  502    0 -0.54194663716E+02 -0.14571317375E+02 -0.13051583914E+03  0.14213107166E+03  0.41800000000E+01 0. -1.
         -5    1    3    3    0  502  0.57853978053E+02  0.41263761481E+01 -0.44255101496E+02  0.73075961609E+02  0.41800000000E+01 0. -1.
        -11    1    1    2    0    0 -0.48343370489E+02  0.78275391270E+01 -0.28584409320E+03  0.29000896100E+03  0.00000000000E+00 0.  1.
         11    1    1    2    0    0  0.44684056152E+02  0.26174021000E+01 -0.16278820665E+03  0.16882984302E+03  0.00000000000E+00 0. -1.
</event>
<event>
 7    1  0.6506388E-006  0.1241505E+03  0.7561462E-02  0.1236403E+00
          2   -1    0    0  501    0  0.00000000000E+00  0.00000000000E+00  0.34818813632E+03  0.34818813632E+03  0.00000000000E+00 0. -1.
         -2   -1    0    0    0  501 -0.00000000000E+00 -0.00000000000E+00 -0.66830154688E+02  0.66830154688E+02  0.00000000000E+00 0.  1.
         23    2    1    2    0    0  0.15485506225E+02 -0.10615424198E+03  0.15831700854E+03  0.22851547704E+03  0.12508606662E+03 0.  0.
          5    1    3    3  502    0 -0.15083300664E+02 -0.10890216955E+03  0.59755903534E+02  0.12520155310E+03  0.41800000000E+01 0.  1.
         -5    1    3    3    0  502  0.30568806889E+02  0.27479275668E+01  0.98561105007E+02  0.10331392394E+03  0.41800000000E+01 0.  1.
        -11    1    1    2    0    0 -0.57487570108E+01  0.31806517690E+02 -0.99596879707E+01  0.33821563524E+02  0.00000000000E+00 0.  1.
         11    1    1    2    0    0 -0.97367492140E+01  0.74347724293E+02  0.13300066106E+03  0.15268125044E+03  0.00000000000E+00 0. -1.
</event>
<event>
 7    1  0.6506388E-006  0.1341489E+03  0.7561462E-02  0.1221426E+00
         -2   -1    0    0    0  501 -0.00000000000E+00  0.00000000000E+00  0.45118220100E+02  0.45118220100E+02  0.00000000000E+00 0.  1.
          2   -1    0    0  501    0  0.00000000000E+00 -0.00000000000E+00 -0.54439983519E+03  0.54439983519E+03  0.00000000000E+00 0. -1.
         23    2    1    2    0    0  0.61105954484E+02 -0.92747852593E+02 -0.23196893469E+03  0.28599666962E+03  0.12509359112E+03 0.  0.
          5    1    3    3  502    0  0.68030401069E+02 -0.60008431772E+02 -0.23519630142E+03  0.25211886077E+03  0.41800000000E+01 0. -1.
         -5    1    3    3    0  502 -0.69244465852E+01 -0.32739420821E+02  0.32273667368E+01  0.33877808847E+02  0.41800000000E+01 0. -1.
        -11    1    1    2    0    0  0.19261831934E+02 -0.21786156615E+01 -0.36876922614E+02  0.41661396486E+02  0.00000000000E+00 0. -1.
         11    1    1    2    0    0 -0.80367786418E+02  0.94926468254E+02 -0.23043575779E+03  0.26185998918E+03  0.00000000000E+00 0.  1.
</event>
<event>
 7    1  0.6506388E-006  0.1105448E+03  0.7561462E-02  0.1259564E+00
         -2   -1    0    0    0  501 -0.00000000000E+00  0.00000000000E+00  0.39040210798E+02  0.39040210798E+02  0.00000000000E+00 0.  1.
          2   -1    0    0  501    0  0.00000000000E+00 -0.00000000000E+00 -0.37817614769E+03  0.37817614769E+03  0.00000000000E+00 0. -1.
         23    2    1    2    0    0 -0.47354459366E+01 -0.29892239380E+02 -0.11092833440E+03  0.16990766896E+03  0.12509016818E+03 0.  0.
          5    1    3    3  502    0  0.55300632034E+02 -0.35378164288E+02 -0.41121024874E+02  0.77576964999E+02  0.41800000000E+01 0.  1.
         -5    1    3    3    0  502 -0.60036077971E+02  0.54859249075E+01 -0.69807309523E+02  0.92330703956E+02  0.41800000000E+01 0.  1.
        -11    1    1    2    0    0  0.47032058660E+02  0.21688301170E+02 -0.13612999656E+03  0.14564948648E+03  0.00000000000E+00 0. -1.
         11    1    1    2    0    0 -0.42296612723E+02  0.82039382107E+01 -0.92077605937E+02  0.10165920305E+03  0.00000000000E+00 0.  1.
</event>
<event>
 7    1  0.6506388E-006  0.1578434E+03  0.7561462E-02  0.1191153E+00
          2   -1    0    0  501    0  0.00000000000E+00  0.00000000000E+00  0.30799242456E+03  0.30799242456E+03  0.00000000000E+00 0. -1.
         -2   -1    0    0    0  501 -0.00000000000E+00 -0.00000000000E+00 -0.11195805686E+03  0.11195805686E+03  0.00000000000E+00 0.  1.
         23    2    1    2    0    0 -0.11252427356E+03  0.76447009582E+02  0.11343777494E+03  0.21684418100E+03  0.12508961841E+03 0.  0.
          5    1    3    3  502    0 -0.94492489369E+02  0.10708265459E+03  0.11107785312E+03  0.18097316739E+03  0.41800000000E+01 0. -1.
         -5    1    3    3    0  502 -0.18031784195E+02 -0.30635645009E+02  0.23599218222E+01  0.35871013609E+02  0.41800000000E+01 0. -1.
        -11    1    1    2    0    0  0.74533050866E+02 -0.41030845728E+02 -0.20633123216E+02  0.87546740351E+02  0.00000000000E+00 0.  1.
         11    1    1    2    0    0  0.37991222698E+02 -0.35416163854E+02  0.10322971598E+03  0.11555956007E+03  0.00000000000E+00 0. -1.
</event>
<event>
 7    1  0.6506388E-006  0.2918278E+03  0.7561462E-02  0.1089399E+00
         -1   -1    0    0    0  501 -0.00000000000E+00  0.00000000000E+00  0.56853772059E+02  0.56853772059E+02  0.00000000000E+00 0.  1.
          1   -1    0    0  501    0  0.00000000000E+00 -0.00000000000E+00 -0.18859424070E+04  0.18859424070E+04  0.00000000000E+00 0. -1.
         23    2    1    2    0    0 -0.26802423578E+03  0.90347342087E+02 -0.56201383519E+03  0.64149283941E+03  0.12511546221E+03 0.  0.
          5    1    3    3  502    0 -0.25705899922E+03  0.95640703672E+02 -0.43795182654E+03  0.51676469311E+03  0.41800000000E+01 0.  1.
         -5    1    3    3    0  502 -0.10965236566E+02 -0.52933615856E+01 -0.12406200864E+03  0.12472814630E+03  0.41800000000E+01 0.  1.
        -11    1    1    2    0    0  0.25479840776E+03 -0.10601368231E+03 -0.11835336123E+04  0.12152830703E+04  0.00000000000E+00 0.  1.
         11    1    1    2    0    0  0.13225828023E+02  0.15666340223E+02 -0.83541187407E+02  0.86020269333E+02  0.00000000000E+00 0. -1.
</event>
<event>
 7    1  0.6506388E-006  0.1310741E+03  0.7561462E-02  0.1225871E+00
          1   -1    0    0  501    0  0.00000000000E+00  0.00000000000E+00  0.31329805089E+03  0.31329805089E+03  0.00000000000E+00 0. -1.
         -1   -1    0    0    0  501 -0.00000000000E+00 -0.00000000000E+00 -0.96972241835E+02  0.96972241835E+02  0.00000000000E+00 0.  1.
         23    2    1    2    0    0 -0.76312810640E+02  0.73185712686E+02  0.14401047564E+02  0.16441367006E+03  0.12507865974E+03 0.  0.
          5    1    3    3  502    0 -0.61451464170E+02  0.96186900451E+02  0.45337833783E+02  0.12288691484E+03  0.41800000000E+01 0.  1.
         -5    1    3    3    0  502 -0.14861346471E+02 -0.23001187766E+02 -0.30936786219E+02  0.41526755220E+02  0.41800000000E+01 0.  1.
        -11    1    1    2    0    0  0.37562874746E+02 -0.72292256800E+02  0.67017450886E+02  0.10549160476E+03  0.00000000000E+00 0.  1.
         11    1    1    2    0    0  0.38749935894E+02 -0.89345588602E+00  0.13490731060E+03  0.14036501790E+03  0.00000000000E+00 0. -1.
</event>
<event>
 7    1  0.1632835E-005  0.3491662E+03  0.7561462E-02  0.1062958E+00
         -2   -1    0    0    0  501 -0.00000000000E+00  0.00000000000E+00  0.13147048136E+03  0.13147048136E+03  0.00000000000E+00 0. -1.
          2   -1    0    0  501    0  0.00000000000E+00 -0.00000000000E+00 -0.10335412633E+04  0.10335412633E+04  0.00000000000E+00 0.  1.
         23    2    1    2    0    0 -0.26450899529E+03 -0.21799863332E+03 -0.33090619272E+03  0.49257951199E+03  0.12508898647E+03 0.  0.
          5    1    3    3  502    0 -0.13686512921E+03 -0.95850005266E+02 -0.79015385932E+02  0.18487885416E+03  0.41800000000E+01 0.  1.
         -5    1    3    3    0  502 -0.12764386608E+03 -0.12214862805E+03 -0.25189080679E+03  0.30770065782E+03  0.41800000000E+01 0.  1.
        -11    1    1    2    0    0  0.25006957974E+02  0.66562988815E+02 -0.12787515020E+03  0.14631484363E+03  0.00000000000E+00 0. -1.
         11    1    1    2    0    0  0.23950203731E+03  0.15143564450E+03 -0.44328943898E+03  0.52611738900E+03  0.00000000000E+00 0.  1.
</event>
<event>
 7    1  0.6506388E-006  0.1431142E+03  0.7561462E-02  0.1209199E+00
         -2   -1    0    0    0  501 -0.00000000000E+00  0.00000000000E+00  0.22341386438E+02  0.22341386438E+02  0.00000000000E+00 0.  1.
          2   -1    0    0  501    0  0.00000000000E+00 -0.00000000000E+00 -0.11718800839E+04  0.11718800839E+04  0.00000000000E+00 0. -1.
         23    2    1    2    0    0  0.77187526410E+02  0.90625563109E+02 -0.64116158483E+03  0.66402947668E+03  0.12520407785E+03 0.  0.
          5    1    3    3  502    0  0.19475140309E+00  0.55849159275E+02 -0.87125241829E+02  0.10357338791E+03  0.41800000000E+01 0.  1.
         -5    1    3    3    0  502  0.76992775007E+02  0.34776403835E+02 -0.55403634300E+03  0.56045608877E+03  0.41800000000E+01 0.  1.
        -11    1    1    2    0    0  0.11918097859E+02 -0.42961679878E+02 -0.99837872136E+02  0.10934051265E+03  0.00000000000E+00 0.  1.
         11    1    1    2    0    0 -0.89105624269E+02 -0.47663883231E+02 -0.40853924045E+03  0.42085148096E+03  0.00000000000E+00 0. -1.
</event>
<event>
 7    1  0.6506388E-006  0.1083002E+03  0.7561462E-02  0.1263750E+00
         -1   -1    0    0    0  501 -0.00000000000E+00  0.00000000000E+00  0.43920370270E+02  0.43920370270E+02  0.00000000000E+00 0.  1.
          1   -1    0    0  501    0  0.00000000000E+00 -0.00000000000E+00 -0.27813578195E+03  0.27813578195E+03  0.00000000000E+00 0. -1.
         23    2    1    2    0    0 -0.17856124467E+02 -0.33708613010E+01 -0.11022005077E+03  0.16765947405E+03  0.12502414071E+03 0.  0.
          5    1    3    3  502    0 -0.61944461984E+02  0.31581833935E+02 -0.66258541551E+02  0.96136337218E+02  0.41800000000E+01 0.  1.
         -5    1    3    3    0  502  0.44088337517E+02 -0.34952695236E+02 -0.43961509219E+02  0.71523136831E+02  0.41800000000E+01 0.  1.
        -11    1    1    2    0    0  0.20693004719E+02 -0.41073499965E+02 -0.76710678989E+02  0.89441383680E+02  0.00000000000E+00 0. -1.
         11    1    1    2    0    0 -0.28368802517E+01  0.44444361266E+02 -0.47284681918E+02  0.64955294488E+02  0.00000000000E+00 0.  1.
</event>
<event>
 7    1  0.6506388E-006  0.1451023E+03  0.7561462E-02  0.1206624E+00
         -2   -1    0    0    0  501 -0.00000000000E+00  0.00000000000E+00  0.24694276162E+04  0.24694276162E+04  0.00000000000E+00 0.  1.
          2   -1    0    0  501    0  0.00000000000E+00 -0.00000000000E+00 -0.12176151139E+02  0.12176151139E+02  0.00000000000E+00 0. -1.
         23    2    1    2    0    0  0.85855659442E+02 -0.46572720823E+02  0.19678743928E+04  0.19742637275E+04  0.12508967628E+03 0.  0.
          5    1    3    3  502    0 -0.22560063827E+02  0.20648436609E+02  0.42465887176E+03  0.42577922000E+03  0.41800000000E+01 0. -1.
         -5    1    3    3    0  502  0.10841572327E+03 -0.67221157432E+02  0.15432155210E+04  0.15484845075E+04  0.41800000000E+01 0. -1.
        -11    1    1    2    0    0 -0.93176161343E+02  0.63840765269E+02  0.38242853797E+03  0.39875935978E+03  0.00000000000E+00 0.  1.
         11    1    1    2    0    0  0.73205019009E+01 -0.17268044446E+02  0.10694853430E+03  0.10858068012E+03  0.00000000000E+00 0. -1.
</event>
<event>
 7    1  0.6506388E-006  0.2000808E+03  0.7561462E-02  0.1149671E+00
          1   -1    0    0  501    0  0.00000000000E+00  0.00000000000E+00  0.37683787960E+02  0.37683787960E+02  0.00000000000E+00 0. -1.
         -1   -1    0    0    0  501 -0.00000000000E+00 -0.00000000000E+00 -0.12166569250E+04  0.12166569250E+04  0.00000000000E+00 0.  1.
         23    2    1    2    0    0 -0.85714973179E+02 -0.16160480058E+03 -0.68859741166E+03  0.72337828636E+03  0.12508629672E+03 0.  0.
          5    1    3    3  502    0 -0.75095521636E+02 -0.65311104344E+02 -0.18097749940E+03  0.20657977977E+03  0.41800000000E+01 0.  1.
         -5    1    3    3    0  502 -0.10619451543E+02 -0.96293696233E+02 -0.50761991226E+03  0.51679850659E+03  0.41800000000E+01 0.  1.
        -11    1    1    2    0    0  0.52100755039E+02  0.16178609255E+03 -0.40687426096E+03  0.44094885491E+03  0.00000000000E+00 0. -1.
         11    1    1    2    0    0  0.33614218140E+02 -0.18129197774E+00 -0.83501464403E+02  0.90013571674E+02  0.00000000000E+00 0.  1.
</event>
<event>
 6    1  0.6506388E-006  0.1274356E+03  0.7561462E-02  0.1231311E+00
          1   -1    0    0  501    0  0.00000000000E+00  0.00000000000E+00  0.37984675040E+03  0.37984675040E+03  0.00000000000E+00 0. -1.
         -1   -1    0    0    0  501 -0.00000000000E+00 -0.00000000000E+00 -0.48447977749E+02  0.48447977749E+02  0.00000000000E+00 0.  1.
          5    1    1    2  502    0 -0.78498041436E+02  0.87326521709E+02  0.12880054593E+03  0.17434138044E+03  0.41800000000E+01 0. -1.
         -5    1    1    2    0  502  0.62455360840E+02 -0.17720817418E+02  0.47921396972E+02  0.80799951456E+02  0.41800000000E+01 0.  1.
        -11    1    1    2    0    0  0.60549618887E+00 -0.26950614661E+02  0.91426182939E+02  0.95317622626E+02  0.00000000000E+00 0. -1.
         11    1    1    2    0    0  0.15437184407E+02 -0.42655089630E+02  0.63250646812E+02  0.77835773626E+02  0.00000000000E+00 0.  1.
</event>
<event>
 7    1  0.6506388E-006  0.1176952E+03  0.7561462E-02  0.1246948E+00
         -1   -1    0    0    0  501 -0.00000000000E+00  0.00000000000E+00  0.12066853524E+03  0.12066853524E+03  0.00000000000E+00 0.  1.
          1   -1    0    0  501    0  0.00000000000E+00 -0.00000000000E+00 -0.21661497051E+03  0.21661497051E+03  0.00000000000E+00 0. -1.
         23    2    1    2    0    0  0.21312461288E+02 -0.86059046262E+02  0.32213111258E+02  0.15666562647E+03  0.12508418578E+03 0.  0.
          5    1    3    3  502    0 -0.14546024270E+02  0.73419036611E+01 -0.33088739124E+02  0.37119097891E+02  0.41800000000E+01 0.  1.
         -5    1    3    3    0  502  0.35858485557E+02 -0.93400949923E+02  0.65301850382E+02  0.11954652858E+03  0.41800000000E+01 0.  1.
        -11    1    1    2    0    0 -0.51312121463E+02  0.56375859380E+02 -0.48161697400E+02  0.90170507519E+02  0.00000000000E+00 0.  1.
         11    1    1    2    0    0  0.29999660175E+02  0.29683186882E+02 -0.79997849124E+02  0.90447371761E+02  0.00000000000E+00 0. -1.
</event>
<event>
 7    1  0.6506388E-006  0.2710000E+03  0.7561462E-02  0.1100709E+00
          1   -1    0    0  501    0  0.00000000000E+00  0.00000000000E+00  0.16659550763E+04  0.16659550763E+04  0.00000000000E+00 0. -1.
         -1   -1    0    0    0  501 -0.00000000000E+00 -0.00000000000E+00 -0.48186634377E+02  0.48186634377E+02  0.00000000000E+00 0.  1.
         23    2    1    2    0    0  0.21261496974E+03  0.14341855591E+03  0.69000519759E+03  0.74667059070E+03  0.12504315568E+03 0.  0.
          5    1    3    3  502    0  0.81561622584E+02  0.12693856319E+02  0.10845536321E+03  0.13635787647E+03  0.41800000000E+01 0. -1.
         -5    1    3    3    0  502  0.13105334716E+03  0.13072469959E+03  0.58154983438E+03  0.61031271423E+03  0.41800000000E+01 0. -1.
        -11    1    1    2    0    0 -0.18681691594E+03 -0.75412946621E+02  0.66833372654E+03  0.69803842489E+03  0.00000000000E+00 0. -1.
         11    1    1    2    0    0 -0.25798053805E+02 -0.68005609285E+02  0.25942951777E+03  0.26943269505E+03  0.00000000000E+00 0.  1.
</event>
<event>
 7    1  0.6506388E-006  0.1285838E+03  0.7561462E-02  0.1229572E+00
          1   -1    0    0  501    0  0.00000000000E+00  0.00000000000E+00  0.47201390143E+03  0.47201390143E+03  0.00000000000E+00 0. -1.
         -1   -1    0    0    0  501 -0.00000000000E+00 -0.00000000000E+00 -0.45477970565E+02  0.45477970565E+02  0.00000000000E+00 0.  1.
         23    2    1    2    0    0 -0.85111021900E+02  0.41794309900E+02  0.28018662102E+03  0.32115862392E+03  0.12509064206E+03 0.  0.
          5    1    3    3  502    0  0.18221738222E+02 -0.26938629441E+02  0.59034774690E+02  0.67529982399E+02  0.41800000000E+01 0. -1.
         -5    1    3    3    0  502 -0.10333276012E+03  0.68732939342E+02  0.22115184633E+03  0.25362864152E+03  0.41800000000E+01 0. -1.
        -11    1    1    2    0    0  0.64396165435E+02 -0.45906189301E+02  0.41370332134E+02  0.89251043242E+02  0.00000000000E+00 0.  1.
         11    1    1    2    0    0  0.20714856465E+02  0.41118794010E+01  0.10497897771E+03  0.10708220483E+03  0.00000000000E+00 0. -1.
</event>
<event>
 7    1  0.6506388E-006  0.1104263E+03  0.7561462E-02  0.1259782E+00
          2   -1    0    0  501    0  0.00000000000E+00  0.00000000000E+00  0.36730147611E+03  0.36730147611E+03  0.00000000000E+00 0.  1.
         -2   -1    0    0    0  501 -0.00000000000E+00 -0.00000000000E+00 -0.50332879731E+02  0.50332879731E+02  0.00000000000E+00 0. -1.
         23    2    1    2    0    0 -0.19106712761E+02 -0.77744823409E+02  0.13592978268E+03  0.20132963039E+03  0.12508952880E+03 0.  0.
          5    1    3    3  502    0  0.49643964294E+01 -0.93410848530E+02  0.41282495989E+02  0.10233253994E+03  0.41800000000E+01 0.  1.
         -5    1    3    3    0  502 -0.24071109190E+02  0.15666025121E+02  0.94647286689E+02  0.98997090454E+02  0.41800000000E+01 0.  1.
        -11    1    1    2    0    0 -0.20386557167E+02  0.29221118293E+02  0.13225172820E+03  0.13696716789E+03  0.00000000000E+00 0.  1.
         11    1    1    2    0    0  0.39493269928E+02  0.48523705116E+02  0.48787085499E+02  0.79337557558E+02  0.00000000000E+00 0. -1.
</event>
<event>
 7    1  0.6506388E-006  0.1171837E+03  0.7561462E-02  0.1247817E+00
         -2   -1    0    0    0  501 -0.00000000000E+00  0.00000000000E+00  0.25671466279E+02  0.25671466279E+02  0.00000000000E+00 0.  1.
          2   -1    0    0  501    0  0.00000000000E+00 -0.00000000000E+00 -0.79457512149E+03  0.79457512149E+03  0.00000000000E+00 0. -1.
         23    2    1    2    0    0  0.71588348393E+02  0.57822070902E+02 -0.37129788172E+03  0.40246437677E+03  0.12508866494E+03 0.  0.
          5    1    3    3  502    0  0.71227615090E+02  0.18191818420E+02 -0.34923499659E+03  0.35691297350E+03  0.41800000000E+01 0. -1.
         -5    1    3    3    0  502  0.36073330276E+00  0.39630252482E+02 -0.22062885129E+02  0.45551403277E+02  0.41800000000E+01 0. -1.
        -11    1    1    2    0    0  0.40266697104E+01 -0.43792698434E+02 -0.21820156339E+03  0.22258916589E+03  0.00000000000E+00 0. -1.
         11    1    1    2    0    0 -0.75615018104E+02 -0.14029372468E+02 -0.17940421010E+03  0.19519304510E+03  0.00000000000E+00 0.  1.
</event>
<event>
 7    1  0.6506388E-006  0.6748941E+02  0.7561462E-02  0.1368845E+00
          3   -1    0    0  501    0  0.00000000000E+00  0.00000000000E+00  0.14363522512E+02  0.14363522512E+02  0.00000000000E+00 0. -1.
         -3   -1    0    0    0  501 -0.00000000000E+00 -0.00000000000E+00 -0.86123429866E+03  0.86123429866E+03  0.00000000000E+00 0.  1.
         23    2    1    2    0    0 -0.12221243575E+02  0.12931266272E+02 -0.55595371791E+03  0.57013039023E+03  0.12509016335E+03 0.  0.
          5    1    3    3  502    0 -0.72358134153E+01 -0.19720268454E+02 -0.10846883160E+02  0.24007774948E+02  0.41800000000E+01 0. -1.
         -5    1    3    3    0  502 -0.49854301594E+01  0.32651534726E+02 -0.54510683475E+03  0.54612261529E+03  0.41800000000E+01 0. -1.
        -11    1    1    2    0    0 -0.29883484165E+02  0.10992251822E+02 -0.46873408419E+02  0.56665409579E+02  0.00000000000E+00 0. -1.
         11    1    1    2    0    0  0.42104727739E+02 -0.23923518094E+02 -0.24404364982E+03  0.24880202136E+03  0.00000000000E+00 0.  1.
</event>
<event>
 7    1  0.6506388E-006  0.1043159E+03  0.7561462E-02  0.1271473E+00
         -1   -1    0    0    0  501 -0.00000000000E+00  0.00000000000E+00  0.26640081389E+03  0.26640081389E+03  0.00000000000E+00 0.  1.
          1   -1    0    0  501    0  0.00000000000E+00 -0.00000000000E+00 -0.57606843957E+02  0.57606843957E+02  0.00000000000E+00 0. -1.
         23    2    1    2    0    0 -0.35234959067E+02 -0.31545991588E+02  0.16482085835E+03  0.21225070338E+03  0.12509114203E+03 0.  0.
          5    1    3    3  502    0  0.35125853314E+02 -0.58572950151E+01  0.11913664478E+03  0.12441521614E+03  0.41800000000E+01 0. -1.
         -5    1    3    3    0  502 -0.70360812381E+02 -0.25688696573E+02  0.45684213566E+02  0.87835487246E+02  0.41800000000E+01 0. -1.
        -11    1    1    2    0    0  0.27959592502E+02 -0.26935871042E+02  0.34755432123E+02  0.52107773160E+02  0.00000000000E+00 0.  1.
         11    1    1    2    0    0  0.72753665654E+01  0.58481862630E+02  0.92176794570E+01  0.59649181301E+02  0.00000000000E+00 0. -1.
</event>
<event>
 7    1  0.6506388E-006  0.1106444E+03  0.7561462E-02  0.1259381E+00
          2   -1    0    0  501    0  0.00000000000E+00  0.00000000000E+00  0.20308758663E+03  0.20308758663E+03  0.00000000000E+00 0. -1.
         -2   -1    0    0    0  501 -0.00000000000E+00 -0.00000000000E+00 -0.70786233774E+02  0.70786233774E+02  0.00000000000E+00 0.  1.
         23    2    1    2    0    0 -0.50385050478E+02  0.99960930759E+01  0.58304544376E+02  0.14725939869E+03  0.12508930977E+03 0.  0.
          5    1    3    3  502    0 -0.92276032012E+02  0.96024877725E+01  0.35877941038E+02  0.99557887223E+02  0.41800000000E+01 0. -1.
         -5    1    3    3    0  502  0.41890981534E+02  0.39360530340E+00  0.22426603338E+02  0.47701511468E+02  0.41800000000E+01 0. -1.
        -11    1    1    2    0    0  0.29192065822E+02  0.29496635057E+02  0.16786539237E+01  0.41533673875E+02  0.00000000000E+00 0.  1.
         11    1    1    2    0    0  0.21192984656E+02 -0.39492728133E+02  0.72318154552E+02  0.85080747833E+02  0.00000000000E+00 0. -1.
</event>
<event>
 7    1  0.6506388E-006  0.1031374E+03  0.7561462E-02  0.1273833E+00
         -3   -1    0    0    0  501 -0.00000000000E+00  0.00000000000E+00  0.18229866331E+03  0.18229866331E+03  0.00000000000E+00 0.  1.
          3   -1    0    0  501    0  0.00000000000E+00 -0.00000000000E+00 -0.11170918432E+03  0.11170918432E+03  0.00000000000E+00 0. -1.
         23    2    1    2    0    0  0.32749200991E+02  0.84254559452E+02  0.55296073661E+02  0.16394189437E+03  0.12509175838E+03 0.  0.
          5    1    3    3  502    0  0.20177833050E+02  0.27663301183E+02 -0.39689843227E+02  0.52584781394E+02  0.41800000000E+01 0.  1.
         -5    1    3    3    0  502  0.12571367942E+02  0.56591258269E+02  0.94985916887E+02  0.11135711298E+03  0.41800000000E+01 0.  1.
        -11    1    1    2    0    0  0.21616309928E+02 -0.19535782642E+02  0.32670449794E+02  0.43775220708E+02  0.00000000000E+00 0.  1.
         11    1    1    2    0    0 -0.54365510919E+02 -0.64718776810E+02 -0.17377044468E+02  0.86290732549E+02  0.00000000000E+00 0. -1.
</event>
<event>
 7    1  0.6506388E-006  0.1153462E+03  0.7561462E-02  0.1250978E+00
         -2   -1    0    0    0  501 -0.00000000000E+00  0.00000000000E+00  0.32163336900E+02  0.32163336900E+02  0.00000000000E+00 0. -1.
          2   -1    0    0  501    0  0.00000000000E+00 -0.00000000000E+00 -0.42878323109E+03  0.42878323109E+03  0.00000000000E+00 0.  1.
         23    2    1    2    0    0  0.34077540737E+02  0.28931491731E+02 -0.23434565465E+03  0.26937563777E+03  0.12508812244E+03 0.  0.
          5    1    3    3  502    0  0.76315754818E+02  0.38198192631E+02 -0.12220024169E+03  0.14910924794E+03  0.41800000000E+01 0.  1.
         -5    1    3    3    0  502 -0.42238214081E+02 -0.92667008993E+01 -0.11214541296E+03  0.12026638983E+03  0.41800000000E+01 0.  1.
        -11    1    1    2    0    0 -0.22100992251E+02 -0.62431309236E+02 -0.10416776988E+03  0.12343843207E+03  0.00000000000E+00 0.  1.
         11    1    1    2    0    0 -0.11976548486E+02  0.33499817505E+02 -0.58106469667E+02  0.68132498146E+02  0.00000000000E+00 0. -1.
</event>
<event>
 7    1  0.6506388E-006  0.1367665E+03  0.7561462E-02  0.1217747E+00
          1   -1    0    0  501    0  0.00000000000E+00  0.00000000000E+00  0.12927844707E+04  0.12927844707E+04  0.00000000000E+00 0. -1.
         -1   -1    0    0    0  501 -0.00000000000E+00 -0.00000000000E+00 -0.17002320862E+02  0.17002320862E+02  0.00000000000E+00 0.  1.
         23    2    1    2    0    0 -0.27615355410E+02 -0.93407186166E+02  0.64150285997E+03  0.66080310396E+03  0.12508921848E+03 0.  0.
          5    1    3    3  502    0 -0.56995402131E+02 -0.90758362269E+02  0.31128016475E+03  0.32923907659E+03  0.41800000000E+01 0.  1.
         -5    1    3    3    0  502  0.29380046722E+02 -0.26488238968E+01  0.33022269522E+03  0.33156402738E+03  0.41800000000E+01 0.  1.
        -11    1    1    2    0    0 -0.35792588345E+02  0.39015880513E+02  0.28270493047E+03  0.28762028097E+03  0.00000000000E+00 0. -1.
         11    1    1    2    0    0  0.63407943754E+02  0.54391305653E+02  0.35157435937E+03  0.36136340659E+03  0.00000000000E+00 0.  1.
</event>
<event>
 7    1  0.6506388E-006  0.2539519E+03  0.7561462E-02  0.1110832E+00
          2   -1    0    0  501    0  0.00000000000E+00  0.00000000000E+00  0.50864774444E+03  0.50864774444E+03  0.00000000000E+00 0. -1.
         -2   -1    0    0    0  501 -0.00000000000E+00 -0.00000000000E+00 -0.14496729316E+03  0.14496729316E+03  0.00000000000E+00 0.  1.
         23    2    1    2    0    0 -0.67638750968E+02  0.22754695256E+03  0.96609953591E+02  0.28519945858E+03  0.12511047833E+03 0.  0.
          5    1    3    3  502    0 -0.87651717578E+02  0.84799052057E+02  0.62105594840E+02  0.13692435917E+03  0.41800000000E+01 0. -1.
         -5    1    3    3    0  502  0.20012966610E+02  0.14274790050E+03  0.34504358751E+02  0.14827509941E+03  0.41800000000E+01 0. -1.
        -11    1    1    2    0    0  0.11815116485E+02 -0.11923093053E+03  0.76294296430E+02  0.14204376593E+03  0.00000000000E+00 0.  1.
         11    1    1    2    0    0  0.55823634483E+02 -0.10831602203E+03  0.19077620126E+03  0.22637181309E+03  0.00000000000E+00 0. -1.
</event>
<event>
 7    1  0.6506388E-006  0.1099082E+03  0.7561462E-02  0.1260740E+00
          1   -1    0    0  501    0  0.00000000000E+00  0.00000000000E+00  0.92711038742E+03  0.92711038742E+03  0.00000000000E+00 0. -1.
         -1   -1    0    0    0  501 -0.00000000000E+00 -0.00000000000E+00 -0.13738238892E+02  0.13738238892E+02  0.00000000000E+00 0.  1.
         23    2    1    2    0    0 -0.31585182349E+02 -0.20278367377E+02  0.53514676458E+03  0.55085272329E+03  0.12509127546E+03 0.  0.
          5    1    3    3  502    0 -0.79841322298E+02 -0.63843091511E+01  0.33118107232E+03  0.34075470827E+03  0.41800000000E+01 0. -1.
         -5    1    3    3    0  502  0.48256139949E+02 -0.13894058226E+02  0.20396569226E+03  0.21009801502E+03  0.41800000000E+01 0. -1.
        -11    1    1    2    0    0  0.43614258132E+02 -0.19418317868E+02  0.26810465090E+03  0.27232219596E+03  0.00000000000E+00 0.  1.
         11    1    1    2    0    0 -0.12029075783E+02  0.39696685245E+02  0.11012073306E+03  0.11767370706E+03  0.00000000000E+00 0. -1.
</event>
<event>
 7    1  0.6506388E-006  0.9236744E+02  0.7561462E-02  0.1297218E+00
         -1   -1    0    0    0  501 -0.00000000000E+00  0.00000000000E+00  0.42882747958E+02  0.42882747958E+02  0.00000000000E+00 0.  1.
          1   -1    0    0  501    0  0.00000000000E+00 -0.00000000000E+00 -0.32686359288E+03  0.32686359288E+03  0.00000000000E+00 0. -1.
         23    2    1    2    0    0 -0.16693111644E+02 -0.33002649973E+02 -0.11671891518E+03  0.17503599729E+03  0.12508581176E+03 0.  0.
          5    1    3    3  502    0  0.20813259124E+02  0.15847899502E+02 -0.10976384843E+03  0.11291555471E+03  0.41800000000E+01 0. -1.
         -5    1    3    3    0  502 -0.37506370768E+02 -0.48850549475E+02 -0.69550667497E+01  0.62120442575E+02  0.41800000000E+01 0. -1.
        -11    1    1    2    0    0  0.43355110810E+02 -0.11302585340E+02 -0.53745069749E+02  0.69971041089E+02  0.00000000000E+00 0.  1.
         11    1    1    2    0    0 -0.26661999166E+02  0.44305235313E+02 -0.11351685999E+03  0.12473930246E+03  0.00000000000E+00 0. -1.
</event>
<event>
 6    1  0.6506388E-006  0.1053661E+03  0.7561462E-02  0.1269400E+00
         -2   -1    0    0    0  501 -0.00000000000E+00  0.00000000000E+00  0.58301197058E+02  0.58301197058E+02  0.00000000000E+00 0.  1.
          2   -1    0    0  501    0  0.00000000000E+00 -0.00000000000E+00 -0.40434002387E+03  0.40434002387E+03  0.00000000000E+00 0. -1.
          5    1    1    2  502    0  0.43828563924E+02  0.16968399703E+02 -0.16958470985E+03  0.17602646341E+03  0.41800000000E+01 0. -1.
         -5    1    1    2    0  502 -0.67901062994E+02 -0.29289190688E+02  0.12630754855E+02  0.75136006116E+02  0.41800000000E+01 0.  1.
        -11    1    1    2    0    0 -0.30089768713E+02 -0.87944043974E+01 -0.36046125713E+02  0.47770900230E+02  0.00000000000E+00 0.  1.
         11    1    1    2    0    0  0.54162267783E+02  0.21115195382E+02 -0.15303874611E+03  0.16370785118E+03  0.00000000000E+00 0. -1.
</event>
<event>
 7    1  0.6506388E-006  0.2067066E+03  0.7561462E-02  0.1144201E+00
         -2   -1    0    0    0  501 -0.00000000000E+00  0.00000000000E+00  0.12071598778E+03  0.12071598778E+03  0.00000000000E+00 0.  1.
          2   -1    0    0  501    0  0.00000000000E+00 -0.00000000000E+00 -0.39062351598E+03  0.39062351598E+03  0.00000000000E+00 0. -1.
         23    2    1    2    0    0  0.17557485631E+03 -0.23915438817E+02 -0.67547462744E+02  0.22717627459E+03  0.12509165293E+03 0.  0.
          5    1    3    3  502    0  0.28751864156E+02 -0.56544725104E+02 -0.37286728282E+02  0.73700394405E+02  0.41800000000E+01 0.  1.
         -5    1    3    3    0  502  0.14682299216E+03  0.32629286287E+02 -0.30260734462E+02  0.15347588019E+03  0.41800000000E+01 0.  1.
        -11    1    1    2    0    0 -0.13958376807E+03 -0.21713603553E+02 -0.13885451896E+03  0.19807999980E+03  0.00000000000E+00 0.  1.
         11    1    1    2    0    0 -0.35991088244E+02  0.45629042370E+02 -0.63505546505E+02  0.86083229362E+02  0.00000000000E+00 0. -1.
</event>
<event>
 7    1  0.6506388E-006  0.1646935E+03  0.7561462E-02  0.1183497E+00
         -2   -1    0    0    0  501 -0.00000000000E+00  0.00000000000E+00  0.90373616280E+03  0.90373616280E+03  0.00000000000E+00 0.  1.
          2   -1    0    0  501    0  0.00000000000E+00 -0.00000000000E+00 -0.39698677248E+02  0.39698677248E+02  0.00000000000E+00 0. -1.
         23    2    1    2    0    0  0.37264285245E+02 -0.13929023826E+03  0.55159482305E+03  0.58368856619E+03  0.12508035842E+03 0.  0.
          5    1    3    3  502    0  0.36430223221E+02 -0.92846206207E+01  0.37018418527E+02  0.52926373901E+02  0.41800000000E+01 0. -1.
         -5    1    3    3    0  502  0.83406202355E+00 -0.13000561764E+03  0.51457640452E+03  0.53076219229E+03  0.41800000000E+01 0. -1.
        -11    1    1    2    0    0 -0.97051549658E+01  0.13282325101E+03  0.17772384178E+03  0.22208550151E+03  0.00000000000E+00 0. -1.
         11    1    1    2    0    0 -0.27559130279E+02  0.64669872492E+01  0.13471882073E+03  0.13766077235E+03  0.00000000000E+00 0.  1.
</event>
<event>
 7    1  0.6506388E-006  0.1573226E+03  0.7561462E-02  0.1191753E+00
         -2   -1    0    0    0  501 -0.00000000000E+00  0.00000000000E+00  0.13103075051E+03  0.13103075051E+03  0.00000000000E+00 0.  1.
          2   -1    0    0  501    0  0.00000000000E+00 -0.00000000000E+00 -0.28237589829E+03  0.28237589829E+03  0.00000000000E+00 0. -1.
         23    2    1    2    0    0 -0.13104385052E+03 -0.66253551619E+02 -0.15717860286E+02  0.19353676899E+03  0.12508959172E+03 0.  0.
          5    1    3    3  502    0 -0.86882370274E+02 -0.63249167273E+02 -0.66182960629E+02  0.12628008593E+03  0.41800000000E+01 0. -1.
         -5    1    3    3    0  502 -0.44161480249E+02 -0.30043843461E+01  0.50465100343E+02  0.67256683056E+02  0.41800000000E+01 0. -1.
        -11    1    1    2    0    0  0.97330595855E+02  0.11053547781E+02 -0.43201824048E+02  0.10705990570E+03  0.00000000000E+00 0.  1.
         11    1    1    2    0    0  0.33713254668E+02  0.55200003838E+02 -0.92425463452E+02  0.11280997411E+03  0.00000000000E+00 0. -1.
</event>
<event>
 7    1  0.6506388E-006  0.1181755E+03  0.7561462E-02  0.1246138E+00
         -1   -1    0    0    0  501 -0.00000000000E+00  0.00000000000E+00  0.51673881081E+02  0.51673881081E+02  0.00000000000E+00 0.  1.
          1   -1    0    0  501    0  0.00000000000E+00 -0.00000000000E+00 -0.38950475624E+03  0.38950475624E+03  0.00000000000E+00 0. -1.
         23    2    1    2    0    0 -0.14477576018E+02 -0.72159779186E+02 -0.12933035111E+03  0.19439379951E+03  0.12508387438E+03 0.  0.
          5    1    3    3  502    0  0.30594149029E+02 -0.54068559294E+02 -0.13160831329E+03  0.14559406439E+03  0.41800000000E+01 0. -1.
         -5    1    3    3    0  502 -0.45071725047E+02 -0.18091219892E+02  0.22779621830E+01  0.48799735118E+02  0.41800000000E+01 0. -1.
        -11    1    1    2    0    0  0.53314129576E+02  0.13513303600E+02 -0.13125204461E+03  0.14230989073E+03  0.00000000000E+00 0.  1.
         11    1    1    2    0    0 -0.38836553558E+02  0.58646475586E+02 -0.77248479446E+02  0.10447494708E+03  0.00000000000E+00 0. -1.
</event>
<event>
 7    1  0.6506388E-006  0.8697396E+02  0.7561462E-02  0.1310350E+00
         -2   -1    0    0    0  501 -0.00000000000E+00  0.00000000000E+00  0.84308059929E+02  0.84308059929E+02  0.00000000000E+00 0.  1.
          2   -1    0    0  501    0  0.00000000000E+00 -0.00000000000E+00 -0.12376283863E+03  0.12376283863E+03  0.00000000000E+00 0. -1.
         23    2    1    2    0    0 -0.11412367447E+02  0.28697778945E+02  0.94467585455E+01  0.12918458062E+03  0.12508241274E+03 0.  0.
          5    1    3    3  502    0 -0.31297957086E+02 -0.33852039234E+02  0.35609553729E+02  0.58404070020E+02  0.41800000000E+01 0. -1.
         -5    1    3    3    0  502  0.19885589640E+02  0.62549818179E+02 -0.26162795184E+02  0.70780510604E+02  0.41800000000E+01 0. -1.
        -11    1    1    2    0    0 -0.19823175076E+02 -0.22601176080E+02 -0.24559981474E+02  0.38819635757E+02  0.00000000000E+00 0. -1.
         11    1    1    2    0    0  0.31235542523E+02 -0.60966028647E+01 -0.24341555769E+02  0.40066682174E+02  0.00000000000E+00 0.  1.
</event>
<event>
 7    1  0.6506388E-006  0.7883028E+02  0.7561462E-02  0.1332404E+00
         -2   -1    0    0    0  501 -0.00000000000E+00  0.00000000000E+00  0.69913405790E+02  0.69913405790E+02  0.00000000000E+00 0. -1.
          2   -1    0    0  501    0  0.00000000000E+00 -0.00000000000E+00 -0.35760048669E+03  0.35760048669E+03  0.00000000000E+00 0.  1.
         23    2    1    2    0    0  0.42143650964E+01  0.60613149217E+02 -0.21934858482E+02  0.14078522219E+03  0.12509047142E+03 0.  0.
          5    1    3    3  502    0  0.31133495950E+02  0.31905600004E+02  0.44710291843E+02  0.63275148980E+02  0.41800000000E+01 0.  1.
         -5    1    3    3    0  502 -0.26919130854E+02  0.28707549213E+02 -0.66645150325E+02  0.77510073213E+02  0.41800000000E+01 0.  1.
        -11    1    1    2    0    0 -0.21163519917E+02 -0.19246567187E+02 -0.15541085288E+02  0.32555341431E+02  0.00000000000E+00 0. -1.
         11    1    1    2    0    0  0.16949154821E+02 -0.41366582030E+02 -0.25021113713E+03  0.25417332885E+03  0.00000000000E+00 0.  1.
</event>
<event>
 7    1  0.6506388E-006  0.1120165E+03  0.7561462E-02  0.1256881E+00
         -1   -1    0    0    0  501 -0.00000000000E+00  0.00000000000E+00  0.10780510383E+04  0.10780510383E+04  0.00000000000E+00 0.  1.
          1   -1    0    0  501    0  0.00000000000E+00 -0.00000000000E+00 -0.17926454719E+02  0.17926454719E+02  0.00000000000E+00 0. -1.
         23    2    1    2    0    0  0.23095054104E+02  0.70999237109E+02  0.79792955592E+03  0.81111821750E+03  0.12508762271E+03 0.  0.
          5    1    3    3  502    0 -0.33187829216E+02  0.21561585409E+02  0.80745371624E+02  0.90020116708E+02  0.41800000000E+01 0. -1.
         -5    1    3    3    0  502  0.56282883321E+02  0.49437651700E+02  0.71718418429E+03  0.72109810079E+03  0.41800000000E+01 0. -1.
        -11    1    1    2    0    0 -0.34423133891E+02 -0.84701171621E+02  0.23699308237E+03  0.25401764055E+03  0.00000000000E+00 0. -1.
         11    1    1    2    0    0  0.11328079787E+02  0.13701934512E+02  0.25201945302E+02  0.30841634977E+02  0.00000000000E+00 0.  1.
</event>
<event>
 7    1  0.6506388E-006  0.7466536E+02  0.7561462E-02  0.1344910E+00
          2   -1    0    0  501    0  0.00000000000E+00  0.00000000000E+00  0.99965715354E+03  0.99965715354E+03  0.00000000000E+00 0. -1.
         -2   -1    0    0    0  501 -0.00000000000E+00 -0.00000000000E+00 -0.13473184522E+02  0.13473184522E+02  0.00000000000E+00 0.  1.
         23    2    1    2    0    0 -0.32244498809E+02  0.22264301896E+02  0.48848383405E+03  0.50576634993E+03  0.12509091794E+03 0.  0.
          5    1    3    3  502    0 -0.37542577704E+02  0.12732782691E+02  0.37812910005E+02  0.54944130340E+02  0.41800000000E+01 0. -1.
         -5    1    3    3    0  502  0.52980788949E+01  0.95315192046E+01  0.45067092404E+03  0.45082221959E+03  0.41800000000E+01 0. -1.
        -11    1    1    2    0    0 -0.31106598952E+02 -0.15791861974E+01  0.13050187196E+03  0.13416725723E+03  0.00000000000E+00 0.  1.
         11    1    1    2    0    0  0.63351097761E+02 -0.20685115698E+02  0.36719826301E+03  0.37319673090E+03  0.00000000000E+00 0. -1.
</event>
<event>
 7    1  0.6506388E-006  0.1589423E+03  0.7561462E-02  0.1189896E+00
         -2   -1    0    0    0  501 -0.00000000000E+00  0.00000000000E+00  0.83505945196E+02  0.83505945196E+02  0.00000000000E+00 0.  1.
          2   -1    0    0  501    0  0.00000000000E+00 -0.00000000000E+00 -0.80616700713E+03  0.80616700713E+03  0.00000000000E+00 0. -1.
         23    2    1    2    0    0  0.15560279287E+02 -0.13349307081E+03 -0.39913826968E+02  0.18789175301E+03  0.12509066719E+03 0.  0.
          5    1    3    3  502    0  0.50215429034E+02 -0.53829008013E+01 -0.76773393190E+01  0.51254062015E+02  0.41800000000E+01 0.  1.
         -5    1    3    3    0  502 -0.34655149747E+02 -0.12811017001E+03 -0.32236487649E+02  0.13663769099E+03  0.41800000000E+01 0.  1.
        -11    1    1    2    0    0 -0.58514251323E+00  0.12221609895E+02 -0.51849170782E+01  0.13288848907E+02  0.00000000000E+00 0.  1.
         11    1    1    2    0    0 -0.14975136773E+02  0.12127146091E+03 -0.67756231789E+03  0.68849235041E+03  0.00000000000E+00 0. -1.
</event>
<event>
 7    1  0.6506388E-006  0.9049781E+02  0.7561462E-02  0.1301651E+00
         -1   -1    0    0    0  501 -0.00000000000E+00  0.00000000000E+00  0.17141914972E+03  0.17141914972E+03  0.00000000000E+00 0.  1.
          1   -1    0    0  501    0  0.00000000000E+00 -0.00000000000E+00 -0.72058483174E+02  0.72058483174E+02  0.00000000000E+00 0. -1.
         23    2    1    2    0    0 -0.41164243914E+01  0.60377964275E+01  0.10065336945E+03  0.16072131543E+03  0.12508733156E+03 0.  0.
          5    1    3    3  502    0  0.43290714996E+02 -0.16238064741E+02 -0.84000153830E+00  0.46432087547E+02  0.41800000000E+01 0. -1.
         -5    1    3    3    0  502 -0.47407139388E+02  0.22275861168E+02  0.10149337099E+03  0.11428922788E+03  0.41800000000E+01 0. -1.
        -11    1    1    2    0    0 -0.11915920779E+02 -0.41462610512E+02 -0.61243172588E+01  0.43573438014E+02  0.00000000000E+00 0. -1.
         11    1    1    2    0    0  0.16032345171E+02  0.35424814085E+02  0.48316143545E+01  0.39182879449E+02  0.00000000000E+00 0.  1.
</event>
<event>
 7    1  0.6506388E-006  0.1628584E+03  0.7561462E-02  0.1185507E+00
         -1   -1    0    0    0  501 -0.00000000000E+00  0.00000000000E+00  0.41366061659E+02  0.41366061659E+02  0.00000000000E+00 0.  1.
          1   -1    0    0  501    0  0.00000000000E+00 -0.00000000000E+00 -0.90266505623E+03  0.90266505623E+03  0.00000000000E+00 0. -1.
         23    2    1    2    0    0  0.10763863805E+03  0.10862961727E+03 -0.56570286840E+03  0.59921072282E+03  0.12508910772E+03 0.  0.
          5    1    3    3  502    0 -0.10019135193E+02 -0.28835672619E+00  0.35870784494E+00  0.10865877366E+02  0.41800000000E+01 0.  1.
         -5    1    3    3    0  502  0.11765777325E+03  0.10891797400E+03 -0.56606157625E+03  0.58834484545E+03  0.41800000000E+01 0.  1.
        -11    1    1    2    0    0 -0.87499734030E+02 -0.74869052653E+02 -0.12587058889E+03  0.17060182780E+03  0.00000000000E+00 0.  1.
         11    1    1    2    0    0 -0.20138904023E+02 -0.33760564620E+02 -0.16972553728E+03  0.17421856727E+03  0.00000000000E+00 0. -1.
</event>
<event>
 7    1  0.6506388E-006  0.1319426E+03  0.7561462E-02  0.1224601E+00
         -2   -1    0    0    0  501 -0.00000000000E+00  0.00000000000E+00  0.54327108201E+03  0.54327108201E+03  0.00000000000E+00 0.  1.
          2   -1    0    0  501    0  0.00000000000E+00 -0.00000000000E+00 -0.65564201833E+02  0.65564201833E+02  0.00000000000E+00 0. -1.
         23    2    1    2    0    0  0.40667275889E+02  0.93067828893E+02  0.43793676466E+03  0.46663351577E+03  0.12507110017E+03 0.  0.
          5    1    3    3  502    0  0.85920102028E+02  0.58865656353E+02  0.28197342723E+03  0.30062254655E+03  0.41800000000E+01 0. -1.
         -5    1    3    3    0  502 -0.45252826138E+02  0.34202172540E+02  0.15596333743E+03  0.16601096922E+03  0.41800000000E+01 0. -1.
        -11    1    1    2    0    0 -0.11218662449E+02 -0.45201786617E+02 -0.27858996982E+02  0.54269545911E+02  0.00000000000E+00 0. -1.
         11    1    1    2    0    0 -0.29448613441E+02 -0.47866042276E+02  0.67629112506E+02  0.87932222166E+02  0.00000000000E+00 0.  1.
</event>
<event>
 7    1  0.6506388E-006  0.1615296E+03  0.7561462E-02  0.1186981E+00
         -2   -1    0    0    0  501 -0.00000000000E+00  0.00000000000E+00  0.97433729912E+02  0.97433729912E+02  0.00000000000E+00 0.  1.
          2   -1    0    0  501    0  0.00000000000E+00 -0.00000000000E+00 -0.27410907392E+03  0.27410907392E+03  0.00000000000E+00 0. -1.
         23    2    1    2    0    0  0.69116034489E+01 -0.11861748369E+03 -0.82351036528E+02  0.19117210274E+03  0.12508877627E+03 0.  0.
          5    1    3    3  502    0 -0.51697189913E+02 -0.96806954834E+02 -0.50863093357E+02  0.12103186611E+03  0.41800000000E+01 0.  1.
         -5    1    3    3    0  502  0.58608793362E+02 -0.21810528851E+02 -0.31487943171E+02  0.70140236621E+02  0.41800000000E+01 0.  1.
        -11    1    1    2    0    0  0.26767810840E+02  0.11335234037E+03 -0.56495839906E+02  0.12944901966E+03  0.00000000000E+00 0.  1.
         11    1    1    2    0    0 -0.33679414289E+02  0.52651433107E+01 -0.37828467575E+02  0.50921681433E+02  0.00000000000E+00 0. -1.
</event>
<event>
 7    1  0.6506388E-006  0.8854802E+02  0.7561462E-02  0.1306406E+00
         -1   -1    0    0    0  501 -0.00000000000E+00  0.00000000000E+00  0.29363688820E+03  0.29363688820E+03  0.00000000000E+00 0.  1.
          1   -1    0    0  501    0  0.00000000000E+00 -0.00000000000E+00 -0.59017406598E+02  0.59017406598E+02  0.00000000000E+00 0. -1.
         23    2    1    2    0    0  0.13700971228E+02 -0.38576983551E+02  0.21177976500E+03  0.24934725395E+03  0.12508990334E+03 0.  0.
          5    1    3    3  502    0  0.43604076433E+02 -0.22089457993E+02  0.20917026284E+03  0.21484629597E+03  0.41800000000E+01 0. -1.
         -5    1    3    3    0  502 -0.29903105205E+02 -0.16487525558E+02  0.26095021599E+01  0.34500957978E+02  0.41800000000E+01 0. -1.
        -11    1    1    2    0    0 -0.41756692911E+02  0.48387624620E+02  0.32956983028E+02  0.71910683139E+02  0.00000000000E+00 0.  1.
         11    1    1    2    0    0  0.28055721683E+02 -0.98106410691E+01 -0.10117266428E+02  0.31396357708E+02  0.00000000000E+00 0. -1.
</event>
<event>
 7    1  0.6506388E-006  0.1261971E+03  0.7561462E-02  0.1233210E+00
          2   -1    0    0  501    0  0.00000000000E+00  0.00000000000E+00  0.81659253251E+02  0.81659253251E+02  0.00000000000E+00 0. -1.
         -2   -1    0    0    0  501 -0.00000000000E+00 -0.00000000000E+00 -0.27099710936E+03  0.27099710936E+03  0.00000000000E+00 0.  1.
         23    2    1    2    0    0 -0.94247399049E+02 -0.16853547127E+02 -0.13934329887E+03  0.21031085584E+03  0.12508991514E+03 0.  0.
          5    1    3    3  502    0 -0.15305716994E+02  0.48865255098E+02 -0.27031195659E+02  0.58053734309E+02  0.41800000000E+01 0. -1.
         -5    1    3    3    0  502 -0.78941682055E+02 -0.65718802224E+02 -0.11231210321E+03  0.15225712153E+03  0.41800000000E+01 0. -1.
        -11    1    1    2    0    0  0.21254404114E+02 -0.53559084206E+01  0.26442665528E+02  0.34346033388E+02  0.00000000000E+00 0. -1.
         11    1    1    2    0    0  0.72992994935E+02  0.22209455547E+02 -0.76437222774E+02  0.10799947338E+03  0.00000000000E+00 0.  1.
</event>
<event>
 7    1  0.6506388E-006  0.7669822E+02  0.7561462E-02  0.1338691E+00
          4   -1    0    0  501    0  0.00000000000E+00  0.00000000000E+00  0.49759680060E+02  0.49759680060E+02  0.00000000000E+00 0. -1.
         -4   -1    0    0    0  501 -0.00000000000E+00 -0.00000000000E+00 -0.36868424601E+03  0.36868424601E+03  0.00000000000E+00 0.  1.
         23    2    1    2    0    0 -0.15211135669E+00 -0.76312856942E+02 -0.21581577161E+03  0.26085993481E+03  0.12509109897E+03 0.  0.
          5    1    3    3  502    0  0.26411055094E+01 -0.51647346882E+02 -0.91712429646E+01  0.52687835179E+02  0.41800000000E+01 0. -1.
         -5    1    3    3    0  502 -0.27932168661E+01 -0.24665510060E+02 -0.20664452865E+03  0.20817209964E+03  0.41800000000E+01 0. -1.
        -11    1    1    2    0    0  0.90705533995E+00  0.62683245663E+02 -0.12028683672E+03  0.13564267442E+03  0.00000000000E+00 0.  1.
         11    1    1    2    0    0 -0.75494398326E+00  0.13629611279E+02  0.17178042385E+02  0.21941316830E+02  0.00000000000E+00 0. -1.
</event>
<event>
 6    1  0.6506388E-006  0.7119829E+02  0.7561462E-02  0.1356065E+00
          1   -1    0    0  501    0  0.00000000000E+00  0.00000000000E+00  0.10523343571E+03  0.10523343571E+03  0.00000000000E+00 0. -1.
         -1   -1    0    0    0  501 -0.00000000000E+00 -0.00000000000E+00 -0.51378747997E+03  0.51378747997E+03  0.00000000000E+00 0.  1.
          5    1    1    2  502    0  0.20122977220E+02 -0.30543196254E+01  0.13527284582E+02  0.24793606206E+02  0.41800000000E+01 0. -1.
         -5    1    1    2    0  502 -0.21251942196E+02 -0.17645118226E+02 -0.48204143925E+03  0.48285030475E+03  0.41800000000E+01 0.  1.
        -11    1    1    2    0    0  0.20650166182E+02  0.52473073443E+02  0.39426209519E+02  0.68806095638E+02  0.00000000000E+00 0. -1.
         11    1    1    2    0    0 -0.19521201206E+02 -0.31773635591E+02  0.20533900887E+02  0.42570909091E+02  0.00000000000E+00 0.  1.
</event>
<event>
 7    1  0.6506388E-006  0.1079603E+03  0.7561462E-02  0.1264394E+00
         -1   -1    0    0    0  501 -0.00000000000E+00  0.00000000000E+00  0.16553637792E+03  0.16553637792E+03  0.00000000000E+00 0.  1.
          1   -1    0    0  501    0  0.00000000000E+00 -0.00000000000E+00 -0.27585711571E+03  0.27585711571E+03  0.00000000000E+00 0. -1.
         23    2    1    2    0    0 -0.15093199313E+02 -0.36636743661E+02  0.13368256205E+03  0.17841531138E+03  0.11131460050E+03 0.  0.
          5    1    3    3  502    0  0.48397456712E+02 -0.13205385021E+02  0.58154765341E+02  0.76916481599E+02  0.41800000000E+01 0. -1.
         -5    1    3    3    0  502 -0.63490656024E+02 -0.23431358641E+02  0.75527796712E+02  0.10149882978E+03  0.41800000000E+01 0.  1.
        -11    1    1    2    0    0  0.36008845046E+02  0.57749329966E+02 -0.17909830817E+03  0.19159286527E+03  0.00000000000E+00 0. -1.
         11    1    1    2    0    0 -0.20915645734E+02 -0.21112586305E+02 -0.64904991672E+02  0.71385316983E+02  0.00000000000E+00 0.  1.
</event>
<event>
 7    1  0.6506388E-006  0.1173455E+03  0.7561462E-02  0.1247542E+00
          2   -1    0    0  501    0  0.00000000000E+00  0.00000000000E+00  0.64032253647E+03  0.64032253647E+03  0.00000000000E+00 0.  1.
         -2   -1    0    0    0  501 -0.00000000000E+00 -0.00000000000E+00 -0.35231082127E+02  0.35231082127E+02  0.00000000000E+00 0. -1.
         23    2    1    2    0    0 -0.10101563257E+03 -0.18167741046E+02  0.35073059752E+03  0.38625665134E+03  0.12509206142E+03 0.  0.
          5    1    3    3  502    0 -0.10840135075E+03 -0.34246652097E+02  0.35004118337E+03  0.36806247905E+03  0.41800000000E+01 0.  1.
         -5    1    3    3    0  502  0.73857181804E+01  0.16078911051E+02  0.68941414728E+00  0.18194172295E+02  0.41800000000E+01 0.  1.
        -11    1    1    2    0    0  0.85552970121E+02  0.17145979213E+02  0.25885246863E+03  0.27316276433E+03  0.00000000000E+00 0.  1.
         11    1    1    2    0    0  0.15462662453E+02  0.10217618328E+01 -0.44916118087E+01  0.16134202925E+02  0.00000000000E+00 0. -1.
</event>
<event>
 7    1  0.6506388E-006  0.2974750E+03  0.7561462E-02  0.1086510E+00
         -2   -1    0    0    0  501 -0.00000000000E+00  0.00000000000E+00  0.74824152416E+03  0.74824152416E+03  0.00000000000E+00 0.  1.
          2   -1    0    0  501    0  0.00000000000E+00 -0.00000000000E+00 -0.18453727491E+03  0.18453727491E+03  0.00000000000E+00 0. -1.
         23    2    1    2    0    0 -0.24733628907E+03 -0.14603022456E+03  0.54819374066E+03  0.63139887012E+03  0.12509232397E+03 0.  0.
          5    1    3    3  502    0 -0.20158557266E+03 -0.68437476966E+02  0.45146512344E+03  0.49915795240E+03  0.41800000000E+01 0.  1.
         -5    1    3    3    0  502 -0.45750716414E+02 -0.77592747592E+02  0.96728617213E+02  0.13224091772E+03  0.41800000000E+01 0.  1.
        -11    1    1    2    0    0  0.57553872504E+02  0.61073988506E+02 -0.28906879776E+02  0.88758594010E+02  0.00000000000E+00 0.  1.
         11    1    1    2    0    0  0.18978241657E+03  0.84956236052E+02  0.44417388373E+02  0.21262133494E+03  0.00000000000E+00 0. -1.
</event>
<event>
 7    1  0.6506388E-006  0.1209929E+03  0.7561462E-02  0.1241468E+00
         -2   -1    0    0    0  501 -0.00000000000E+00  0.00000000000E+00  0.89967268998E+02  0.89967268998E+02  0.00000000000E+00 0. -1.
          2   -1    0    0  501    0  0.00000000000E+00 -0.00000000000E+00 -0.23849542255E+03  0.23849542255E+03  0.00000000000E+00 0.  1.
         23    2    1    2    0    0  0.73601709322E+02  0.37752247294E+02 -0.18694240164E+02  0.15112620721E+03  0.12508881685E+03 0.  0.
          5    1    3    3  502    0  0.17034722394E+02  0.73077996634E+02 -0.34136347791E+02  0.82542946395E+02  0.41800000000E+01 0. -1.
         -5    1    3    3    0  502  0.56566986927E+02 -0.35325749340E+02  0.15442107627E+02  0.68583260818E+02  0.41800000000E+01 0. -1.
        -11    1    1    2    0    0 -0.25229633255E+02  0.14260327632E+02  0.40955624675E+00  0.28983772609E+02  0.00000000000E+00 0. -1.
         11    1    1    2    0    0 -0.48372076067E+02 -0.52012574926E+02 -0.13024346963E+03  0.14835271172E+03  0.00000000000E+00 0.  1.
</event>
<event>
 7    1  0.6506388E-006  0.8784720E+02  0.7561462E-02  0.1308150E+00
          2   -1    0    0  501    0  0.00000000000E+00  0.00000000000E+00  0.77312893978E+02  0.77312893978E+02  0.00000000000E+00 0. -1.
         -2   -1    0    0    0  501 -0.00000000000E+00 -0.00000000000E+00 -0.19151692011E+03  0.19151692011E+03  0.00000000000E+00 0.  1.
         23    2    1    2    0    0 -0.12310552304E+02  0.19340349728E+02 -0.11961497562E+03  0.17459078321E+03  0.12509436583E+03 0.  0.
          5    1    3    3  502    0 -0.19437553698E+02 -0.40498415014E+02 -0.10221411303E+03  0.11172796166E+03  0.41800000000E+01 0. -1.
         -5    1    3    3    0  502  0.71270013940E+01  0.59838764742E+02 -0.17400862586E+02  0.62862821552E+02  0.41800000000E+01 0. -1.
        -11    1    1    2    0    0  0.38194888119E+02 -0.22122347750E+02  0.33894016277E+02  0.55651164298E+02  0.00000000000E+00 0. -1.
         11    1    1    2    0    0 -0.25884335814E+02  0.27819980216E+01 -0.28483066784E+02  0.38587866577E+02  0.00000000000E+00 0.  1.
</event>
<event>
 7    1  0.6506388E-006  0.6925839E+02  0.7561462E-02  0.1362633E+00
         -1   -1    0    0    0  501 -0.00000000000E+00  0.00000000000E+00  0.13055238107E+03  0.13055238107E+03  0.00000000000E+00 0.  1.
          1   -1    0    0  501    0  0.00000000000E+00 -0.00000000000E+00 -0.90708882994E+02  0.90708882994E+02  0.00000000000E+00 0. -1.
         23    2    1    2    0    0 -0.22534899359E+01  0.10875640065E+01  0.34119559750E+02  0.12968083977E+03  0.12508682918E+03 0.  0.
          5    1    3    3  502    0  0.49141786988E+02 -0.27540532708E+02 -0.82136897348E+01  0.57081812070E+02  0.41800000000E+01 0. -1.
         -5    1    3    3    0  502 -0.51395276924E+02  0.28628096714E+02  0.42333249485E+02  0.72599027704E+02  0.41800000000E+01 0. -1.
        -11    1    1    2    0    0  0.66132365502E+01  0.95142213902E+01  0.47173131319E+02  0.48575298504E+02  0.00000000000E+00 0.  1.
         11    1    1    2    0    0 -0.43597466143E+01 -0.10601785397E+02 -0.41449192993E+02  0.43005125787E+02  0.00000000000E+00 0. -1.
</event>
<event>
 7    1  0.6506388E-006  0.1109144E+03  0.7561462E-02  0.1258886E+00
         -2   -1    0    0    0  501 -0.00000000000E+00  0.00000000000E+00  0.24427535979E+02  0.24427535979E+02  0.00000000000E+00 0.  1.
          2   -1    0    0  501    0  0.00000000000E+00 -0.00000000000E+00 -0.94379727937E+03  0.94379727937E+03  0.00000000000E+00 0. -1.
         23    2    1    2    0    0  0.84283794567E+02 -0.63702927479E+02 -0.48361792241E+03  0.51058111931E+03  0.12507982860E+03 0.  0.
          5    1    3    3  502    0  0.60295266586E+02 -0.22419548048E+02 -0.73884119957E+02  0.98053510335E+02  0.41800000000E+01 0. -1.
         -5    1    3    3    0  502  0.23988527981E+02 -0.41283379431E+02 -0.40973380246E+03  0.41252760897E+03  0.41800000000E+01 0. -1.
        -11    1    1    2    0    0 -0.72589902870E+02  0.39703944677E+02 -0.41672875398E+03  0.42486297981E+03  0.00000000000E+00 0. -1.
         11    1    1    2    0    0 -0.11693891697E+02  0.23998982801E+02 -0.19023067006E+02  0.32780716234E+02  0.00000000000E+00 0.  1.
</event>
<event>
 7    1  0.6506388E-006  0.1053462E+03  0.7561462E-02  0.1269439E+00
         -1   -1    0    0    0  501 -0.00000000000E+00  0.00000000000E+00  0.46812744161E+03  0.46812744161E+03  0.00000000000E+00 0.  1.
          1   -1    0    0  501    0  0.00000000000E+00 -0.00000000000E+00 -0.32863572435E+02  0.32863572435E+02  0.00000000000E+00 0. -1.
         23    2    1    2    0    0  0.11701796563E+02  0.39761975305E+02  0.33395715806E+03  0.35901732428E+03  0.12509240182E+03 0.  0.
          5    1    3    3  502    0  0.43548552770E+02 -0.28941292479E+02  0.17848516380E+03  0.18603360168E+03  0.41800000000E+01 0.  1.
         -5    1    3    3    0  502 -0.31846756207E+02  0.68703267785E+02  0.15547199426E+03  0.17298372260E+03  0.41800000000E+01 0.  1.
        -11    1    1    2    0    0 -0.17398354383E+02  0.17602511862E+02  0.74301380320E+02  0.78315045020E+02  0.00000000000E+00 0.  1.
         11    1    1    2    0    0  0.56965578199E+01 -0.57364487168E+02  0.27005330797E+02  0.63658644743E+02  0.00000000000E+00 0. -1.
</event>
<event>
 7    1  0.6506388E-006  0.1107654E+03  0.7561462E-02  0.1259159E+00
         -1   -1    0    0    0  501 -0.00000000000E+00  0.00000000000E+00  0.48110424828E+02  0.48110424828E+02  0.00000000000E+00 0.  1.
          1   -1    0    0  501    0  0.00000000000E+00 -0.00000000000E+00 -0.28531940961E+03  0.28531940961E+03  0.00000000000E+00 0. -1.
         23    2    1    2    0    0  0.31030311849E+02  0.30544220736E+02 -0.11935409891E+03  0.17829536882E+03  0.12509199791E+03 0.  0.
          5    1    3    3  502    0 -0.44242685710E+02  0.18421108453E+02 -0.17925063717E+02  0.51337440380E+02  0.41800000000E+01 0.  1.
         -5    1    3    3    0  502  0.75272997560E+02  0.12123112283E+02 -0.10142903519E+03  0.12695792844E+03  0.41800000000E+01 0.  1.
        -11    1    1    2    0    0 -0.55696548923E+02 -0.42109897793E+02 -0.10201218215E+03  0.12361971672E+03  0.00000000000E+00 0.  1.
         11    1    1    2    0    0  0.24666237073E+02  0.11565677056E+02 -0.15842703719E+02  0.31514748900E+02  0.00000000000E+00 0. -1.
</event>
<event>
 7    1  0.6506388E-006  0.1308992E+03  0.7561462E-02  0.1226128E+00
         -2   -1    0    0    0  501 -0.00000000000E+00  0.00000000000E+00  0.50291080696E+02  0.50291080696E+02  0.00000000000E+00 0.  1.
          2   -1    0    0  501    0  0.00000000000E+00 -0.00000000000E+00 -0.56508812576E+03  0.56508812576E+03  0.00000000000E+00 0. -1.
         23    2    1    2    0    0  0.45578884478E+02  0.96369173584E+02 -0.13108807953E+03  0.21022683496E+03  0.12508711050E+03 0.  0.
          5    1    3    3  502    0  0.47582556413E+02  0.71379591010E+01 -0.10744451470E+03  0.11780002663E+03  0.41800000000E+01 0. -1.
         -5    1    3    3    0  502 -0.20036719350E+01  0.89231214483E+02 -0.23643564829E+02  0.92426808325E+02  0.41800000000E+01 0. -1.
        -11    1    1    2    0    0  0.15702977474E+02 -0.11475378385E+02 -0.26217671807E+02  0.32644051918E+02  0.00000000000E+00 0.  1.
         11    1    1    2    0    0 -0.61281861952E+02 -0.84893795199E+02 -0.35749129373E+03  0.37250831958E+03  0.00000000000E+00 0. -1.
</event>
<event>
 7    1  0.6506388E-006  0.1326644E+03  0.7561462E-02  0.1223555E+00
          2   -1    0    0  501    0  0.00000000000E+00  0.00000000000E+00  0.58860145065E+03  0.58860145065E+03  0.00000000000E+00 0. -1.
         -2   -1    0    0    0  501 -0.00000000000E+00 -0.00000000000E+00 -0.48961749414E+02  0.48961749414E+02  0.00000000000E+00 0.  1.
         23    2    1    2    0    0 -0.51684957792E+02  0.89806850763E+02  0.13929831771E+03  0.21398397157E+03  0.12509401850E+03 0.  0.
          5    1    3    3  502    0 -0.39112417098E+02 -0.11717568182E+01  0.11103049304E+03  0.11779811955E+03  0.41800000000E+01 0.  1.
         -5    1    3    3    0  502 -0.12572540693E+02  0.90978607581E+02  0.28267824675E+02  0.96185852019E+02  0.41800000000E+01 0.  1.
        -11    1    1    2    0    0 -0.21875092976E+02 -0.38740810150E+02  0.87317396338E+02  0.97998457983E+02  0.00000000000E+00 0.  1.
         11    1    1    2    0    0  0.73560050767E+02 -0.51066040613E+02  0.31302398718E+03  0.32558077051E+03  0.00000000000E+00 0. -1.
</event>
<event>
 7    1  0.6506388E-006  0.1603731E+03  0.7561462E-02  0.1188276E+00
          1   -1    0    0  501    0  0.00000000000E+00  0.00000000000E+00  0.61822023563E+02  0.61822023563E+02  0.00000000000E+00 0. -1.
         -1   -1    0    0    0  501 -0.00000000000E+00 -0.00000000000E+00 -0.11967302805E+04  0.11967302805E+04  0.00000000000E+00 0.  1.
         23    2    1    2    0    0 -0.10271737484E+03 -0.62595096869E+02 -0.10857703087E+04  0.10994102185E+04  0.12384126953E+03 0.  0.
          5    1    3    3  502    0 -0.12779421300E+03 -0.36459932398E+02 -0.92833525399E+03  0.93780835129E+03  0.41800000000E+01 0.  1.
         -5    1    3    3    0  502  0.25076838161E+02 -0.26135164471E+02 -0.15743505468E+03  0.16160186718E+03  0.41800000000E+01 0. -1.
        -11    1    1    2    0    0  0.97839854119E+02  0.84258552443E+02 -0.43206679712E+02  0.13615784181E+03  0.00000000000E+00 0. -1.
         11    1    1    2    0    0  0.48775207162E+01 -0.21663455574E+02 -0.59312685527E+01  0.22984243785E+02  0.00000000000E+00 0.  1.
</event>
<event>
 7    1  0.6506388E-006  0.7812548E+02  0.7561462E-02  0.1334457E+00
         -1   -1    0    0    0  501 -0.00000000000E+00  0.00000000000E+00  0.45755176391E+03  0.45755176391E+03  0.00000000000E+00 0.  1.
          1   -1    0    0  501    0  0.00000000000E+00 -0.00000000000E+00 -0.25065740191E+02  0.25065740191E+02  0.00000000000E+00 0. -1.
         23    2    1    2    0    0  0.23186679106E+00 -0.86817074292E+01  0.28142591895E+03  0.30809650562E+03  0.12508990013E+03 0.  0.
          5    1    3    3  502    0  0.22024882155E+02  0.29717038264E+02  0.18707403223E+02  0.41660978534E+02  0.41800000000E+01 0. -1.
         -5    1    3    3    0  502 -0.21793015364E+02 -0.38398745693E+02  0.26271851573E+03  0.26643552709E+03  0.41800000000E+01 0. -1.
        -11    1    1    2    0    0 -0.85960592736E+01  0.40692970452E+02  0.36690168866E+02  0.55461505305E+02  0.00000000000E+00 0. -1.
         11    1    1    2    0    0  0.83641924825E+01 -0.32011263022E+02  0.11436993590E+03  0.11905949317E+03  0.00000000000E+00 0.  1.
</event>
<event>
 7    1  0.6506388E-006  0.8529446E+02  0.7561462E-02  0.1314664E+00
         -2   -1    0    0    0  501 -0.00000000000E+00  0.00000000000E+00  0.27393256508E+03  0.27393256508E+03  0.00000000000E+00 0.  1.
          2   -1    0    0  501    0  0.00000000000E+00 -0.00000000000E+00 -0.51807881320E+02  0.51807881320E+02  0.00000000000E+00 0. -1.
         23    2    1    2    0    0  0.32619349182E+02  0.26225626014E+02  0.16015069491E+03  0.20747862460E+03  0.12508928484E+03 0.  0.
          5    1    3    3  502    0  0.46404057178E+02 -0.28885827686E+02  0.23906165274E+02  0.59805557449E+02  0.41800000000E+01 0.  1.
         -5    1    3    3    0  502 -0.13784707996E+02  0.55111453701E+02  0.13624452964E+03  0.14767306715E+03  0.41800000000E+01 0.  1.
        -11    1    1    2    0    0  0.89945001221E+01 -0.11640494891E+02 -0.20209030606E+02  0.24996141138E+02  0.00000000000E+00 0. -1.
         11    1    1    2    0    0 -0.41613849304E+02 -0.14585131124E+02  0.82183019453E+02  0.93265680667E+02  0.00000000000E+00 0.  1.
</event>
<event>
 7    1  0.6506388E-006  0.8599242E+02  0.7561462E-02  0.1312857E+00
         -1   -1    0    0    0  501 -0.00000000000E+00  0.00000000000E+00  0.18115639717E+03  0.18115639717E+03  0.00000000000E+00 0.  1.
          1   -1    0    0  501    0  0.00000000000E+00 -0.00000000000E+00 -0.17103466784E+03  0.17103466784E+03  0.00000000000E+00 0. -1.
         23    2    1    2    0    0 -0.18642252396E+02  0.36613884807E+02  0.13755383154E+03  0.19039698046E+03  0.12506735570E+03 0.  0.
          5    1    3    3  502    0  0.13095646244E+02 -0.31524509843E+02  0.10102669107E+03  0.10671998586E+03  0.41800000000E+01 0.  1.
         -5    1    3    3    0  502 -0.31737898640E+02  0.68138394650E+02  0.36527140465E+02  0.83676994605E+02  0.41800000000E+01 0.  1.
        -11    1    1    2    0    0  0.28201391158E+02 -0.41956317534E+01 -0.12466377156E+03  0.12788267173E+03  0.00000000000E+00 0. -1.
         11    1    1    2    0    0 -0.95591387616E+01 -0.32418253053E+02 -0.27683306565E+01  0.33911412821E+02  0.00000000000E+00 0.  1.
</event>
<event>
 7    1  0.6506388E-006  0.1058120E+03  0.7561462E-02  0.1268528E+00
          1   -1    0    0  501    0  0.00000000000E+00  0.00000000000E+00  0.27632365839E+03  0.27632365839E+03  0.00000000000E+00 0. -1.
         -1   -1    0    0    0  501 -0.00000000000E+00 -0.00000000000E+00 -0.58097923888E+02  0.58097923888E+02  0.00000000000E+00 0.  1.
         23    2    1    2    0    0  0.64570428032E+02 -0.22585946602E+02  0.12639312337E+03  0.19053781995E+03  0.12509985626E+03 0.  0.
          5    1    3    3  502    0  0.50497461184E+02 -0.57770073221E+02  0.13126566156E+03  0.15210365299E+03  0.41800000000E+01 0.  1.
         -5    1    3    3    0  502  0.14072966848E+02  0.35184126620E+02 -0.48725381951E+01  0.38434166966E+02  0.41800000000E+01 0.  1.
        -11    1    1    2    0    0 -0.66999521907E+02  0.40692039516E+02  0.97174401983E+02  0.12485048024E+03  0.00000000000E+00 0. -1.
         11    1    1    2    0    0  0.24290938753E+01 -0.18106092915E+02 -0.53417908443E+01  0.19033282090E+02  0.00000000000E+00 0.  1.
</event>
<event>
 7    1  0.6506388E-006  0.8317839E+02  0.7561462E-02  0.1320266E+00
          2   -1    0    0  501    0  0.00000000000E+00  0.00000000000E+00  0.34796198588E+03  0.34796198588E+03  0.00000000000E+00 0. -1.
         -2   -1    0    0    0  501 -0.00000000000E+00 -0.00000000000E+00 -0.53728004355E+02  0.53728004355E+02  0.00000000000E+00 0.  1.
         23    2    1    2    0    0 -0.68664423773E+02 -0.34282967412E+02  0.11827648264E+03  0.18848573129E+03  0.12508964628E+03 0.  0.
          5    1    3    3  502    0 -0.10349788828E+02 -0.10414705137E+02  0.12413096246E+03  0.12506619229E+03  0.41800000000E+01 0. -1.
         -5    1    3    3    0  502 -0.58314634945E+02 -0.23868262275E+02 -0.58544798178E+01  0.63419538998E+02  0.41800000000E+01 0. -1.
        -11    1    1    2    0    0  0.47447718227E+02  0.43905502068E+02  0.17842726714E+03  0.18977689199E+03  0.00000000000E+00 0. -1.
         11    1    1    2    0    0  0.21216705546E+02 -0.96225346564E+01 -0.24697682504E+01  0.23427366959E+02  0.00000000000E+00 0.  1.
</event>
<event>
 6    1  0.6506388E-006  0.1049818E+03  0.7561462E-02  0.1270156E+00
          1   -1    0    0  501    0  0.00000000000E+00  0.00000000000E+00  0.83526300672E+02  0.83526300672E+02  0.00000000000E+00 0. -1.
         -1   -1    0    0    0  501 -0.00000000000E+00 -0.00000000000E+00 -0.46382073010E+03  0.46382073010E+03  0.00000000000E+00 0.  1.
          5    1    1    2  502    0  0.16269679900E+02  0.66627871987E+02 -0.14025843669E+03  0.15618539391E+03  0.41800000000E+01 0. -1.
         -5    1    1    2    0  502 -0.54157538855E+01 -0.89537560891E+02 -0.27675610791E+03  0.29095999874E+03  0.41800000000E+01 0.  1.
        -11    1    1    2    0    0  0.33637469900E+01  0.33534727731E+02  0.61257969257E+02  0.69917319423E+02  0.00000000000E+00 0. -1.
         11    1    1    2    0    0 -0.14217673004E+02 -0.10625038827E+02 -0.24537854086E+02  0.30284318696E+02  0.00000000000E+00 0.  1.
</event>
<event>
 7    1  0.6506388E-006  0.1255827E+03  0.7561462E-02  0.1234161E+00
          4   -1    0    0  501    0  0.00000000000E+00  0.00000000000E+00  0.27633021731E+02  0.27633021731E+02  0.00000000000E+00 0. -1.
         -4   -1    0    0    0  501 -0.00000000000E+00 -0.00000000000E+00 -0.66485669853E+03  0.66485669853E+03  0.00000000000E+00 0.  1.
         23    2    1    2    0    0  0.90086991164E+01  0.75339516379E+02 -0.40403947477E+03  0.42971228311E+03  0.12509016626E+03 0.  0.
          5    1    3    3  502    0  0.48351108350E+02  0.71145388701E+00 -0.70149967066E+02  0.85304314807E+02  0.41800000000E+01 0.  1.
         -5    1    3    3    0  502 -0.39342409234E+02  0.74628062492E+02 -0.33388950771E+03  0.34440796831E+03  0.41800000000E+01 0.  1.
        -11    1    1    2    0    0  0.49107052112E+01  0.20620755218E+02 -0.22846725116E+02  0.31165741126E+02  0.00000000000E+00 0. -1.
         11    1    1    2    0    0 -0.13919404328E+02 -0.95960271597E+02 -0.21033747692E+03  0.23161169603E+03  0.00000000000E+00 0.  1.
</event>
<event>
 7    1  0.7002011E-006  0.1190401E+03  0.7561462E-02  0.1244689E+00
         -1   -1    0    0    0  501 -0.00000000000E+00  0.00000000000E+00  0.34428052823E+02  0.34428052823E+02  0.00000000000E+00 0.  1.
          1   -1    0    0  501    0  0.00000000000E+00 -0.00000000000E+00 -0.62842999948E+03  0.62842999948E+03  0.00000000000E+00 0. -1.
         23    2    1    2    0    0 -0.61057511843E+02  0.74692143022E+02 -0.29040994944E+03  0.33059418029E+03  0.12509051653E+03 0.  0.
          5    1    3    3  502    0 -0.34082294129E+02 -0.90967517677E+01 -0.10353380474E+02  0.37000250716E+02  0.41800000000E+01 0.  1.
         -5    1    3    3    0  502 -0.26975217714E+02  0.83788894789E+02 -0.28005656897E+03  0.29359392958E+03  0.41800000000E+01 0.  1.
        -11    1    1    2    0    0  0.57580602554E+02 -0.22019114568E+02 -0.24822372033E+03  0.25576431051E+03  0.00000000000E+00 0. -1.
         11    1    1    2    0    0  0.34769092888E+01 -0.52673028454E+02 -0.55368276887E+02  0.76499561503E+02  0.00000000000E+00 0.  1.
</event>
<event>
 7    1  0.6506388E-006  0.1409743E+03  0.7561462E-02  0.1212024E+00
         -2   -1    0    0    0  501 -0.00000000000E+00  0.00000000000E+00  0.41596092054E+03  0.41596092054E+03  0.00000000000E+00 0.  1.
          2   -1    0    0  501    0  0.00000000000E+00 -0.00000000000E+00 -0.92218717214E+02  0.92218717214E+02  0.00000000000E+00 0. -1.
         23    2    1    2    0    0  0.24515818325E+02  0.11566575116E+03  0.31788122641E+03  0.36148947984E+03  0.12508628460E+03 0.  0.
          5    1    3    3  502    0 -0.11230075473E+02 -0.24123367633E+01 -0.69032530263E+01  0.14037851194E+02  0.41800000000E+01 0. -1.
         -5    1    3    3    0  502  0.35745893798E+02  0.11807808792E+03  0.32478447943E+03  0.34745162865E+03  0.41800000000E+01 0. -1.
        -11    1    1    2    0    0 -0.56861845266E+02 -0.79814952549E+02 -0.40448106289E+00  0.97999284193E+02  0.00000000000E+00 0. -1.
         11    1    1    2    0    0  0.32346026940E+02 -0.35850798611E+02  0.62654579852E+01  0.48690873720E+02  0.00000000000E+00 0.  1.
</event>
<event>
 7    1  0.6506388E-006  0.9698098E+02  0.7561462E-02  0.1286776E+00
         -1   -1    0    0    0  501 -0.00000000000E+00  0.00000000000E+00  0.26834675977E+03  0.26834675977E+03  0.00000000000E+00 0.  1.
          1   -1    0    0  501    0  0.00000000000E+00 -0.00000000000E+00 -0.69973677193E+02  0.69973677193E+02  0.00000000000E+00 0. -1.
         23    2    1    2    0    0  0.30213432912E+02 -0.48102852825E+02  0.17998917042E+03  0.22676943284E+03  0.12570416948E+03 0.  0.
          5    1    3    3  502    0  0.17362804963E+02 -0.62019361539E+02  0.22891832508E+02  0.68479023047E+02  0.41800000000E+01 0. -1.
         -5    1    3    3    0  502  0.12850627949E+02  0.13916508714E+02  0.15709733792E+03  0.15829040980E+03  0.41800000000E+01 0. -1.
        -11    1    1    2    0    0  0.34076465389E+02  0.22442580335E+02  0.70652567032E+01  0.41410056240E+02  0.00000000000E+00 0.  1.
         11    1    1    2    0    0 -0.64289898301E+02  0.25660272491E+02  0.11318655447E+02  0.70140947877E+02  0.00000000000E+00 0. -1.
</event>
<event>
 7    1  0.6506388E-006  0.1389649E+03  0.7561462E-02  0.1214729E+00
          1   -1    0    0  501    0  0.00000000000E+00  0.00000000000E+00  0.43304004539E+03  0.43304004539E+03  0.00000000000E+00 0. -1.
         -1   -1    0    0    0  501 -0.00000000000E+00 -0.00000000000E+00 -0.46648887595E+02  0.46648887595E+02  0.00000000000E+00 0.  1.
         23    2    1    2    0    0 -0.72913995252E+02 -0.54539452757E+02  0.22210160780E+03  0.27068011317E+03  0.12509035482E+03 0.  0.
          5    1    3    3  502    0  0.33423267117E+02 -0.65389423775E+01  0.78067108214E+02  0.85274957268E+02  0.41800000000E+01 0.  1.
         -5    1    3    3    0  502 -0.10633726237E+03 -0.48000510380E+02  0.14403449959E+03  0.18540515590E+03  0.41800000000E+01 0.  1.
        -11    1    1    2    0    0  0.60453536952E+02 -0.98837764679E+01  0.99169954346E+02  0.11656328329E+03  0.00000000000E+00 0. -1.
         11    1    1    2    0    0  0.12460458300E+02  0.64423229225E+02  0.65119595647E+02  0.92445536518E+02  0.00000000000E+00 0.  1.
</event>
<event>
 7    1  0.6506388E-006  0.1119628E+03  0.7561462E-02  0.1256978E+00
          2   -1    0    0  501    0  0.00000000000E+00  0.00000000000E+00  0.12669512480E+04  0.12669512480E+04  0.00000000000E+00 0. -1.
         -2   -1    0    0    0  501 -0.00000000000E+00 -0.00000000000E+00 -0.16308068355E+02  0.16308068355E+02  0.00000000000E+00 0.  1.
         23    2    1    2    0    0  0.60677357770E+02 -0.71166252219E+02  0.64194126094E+03  0.66066826150E+03  0.12509033560E+03 0.  0.
          5    1    3    3  502    0  0.20980696198E+02 -0.21989302660E+02  0.53852065538E+03  0.53939381505E+03  0.41800000000E+01 0.  1.
         -5    1    3    3    0  502  0.39696661572E+02 -0.49176949559E+02  0.10342060556E+03  0.12127444645E+03  0.41800000000E+01 0.  1.
        -11    1    1    2    0    0 -0.53463709108E+02 -0.47282440084E+01  0.28737551894E+03  0.29234468247E+03  0.00000000000E+00 0.  1.
         11    1    1    2    0    0 -0.72136486618E+01  0.75894496227E+02  0.32132639977E+03  0.33024637238E+03  0.00000000000E+00 0. -1.
</event>
<event>
 7    1  0.6506388E-006  0.9681070E+02  0.7561462E-02  0.1287149E+00
          1   -1    0    0  501    0  0.00000000000E+00  0.00000000000E+00  0.78148826453E+03  0.78148826453E+03  0.00000000000E+00 0. -1.
         -1   -1    0    0    0  501 -0.00000000000E+00 -0.00000000000E+00 -0.18195059201E+02  0.18195059201E+02  0.00000000000E+00 0.  1.
         23    2    1    2    0    0 -0.10102526656E+02  0.36801277497E+02  0.33752175113E+03  0.36197268283E+03  0.12508755158E+03 0.  0.
          5    1    3    3  502    0 -0.47000815780E+02  0.11828857966E+02  0.45719069000E+02  0.66758551774E+02  0.41800000000E+01 0. -1.
         -5    1    3    3    0  502  0.36898289124E+02  0.24972419531E+02  0.29180268213E+03  0.29521413105E+03  0.41800000000E+01 0. -1.
        -11    1    1    2    0    0  0.99929580533E+01 -0.68148581041E+02  0.25800099032E+03  0.26703670031E+03  0.00000000000E+00 0.  1.
         11    1    1    2    0    0  0.10956860261E+00  0.31347303544E+02  0.16777046388E+03  0.17067394059E+03  0.00000000000E+00 0. -1.
</event>
<event>
 7    1  0.6506388E-006  0.1735599E+03  0.7561462E-02  0.1174186E+00
         -2   -1    0    0    0  501 -0.00000000000E+00  0.00000000000E+00  0.31384792873E+02  0.31384792873E+02  0.00000000000E+00 0.  1.
          2   -1    0    0  501    0  0.00000000000E+00 -0.00000000000E+00 -0.10066926200E+04  0.10066926200E+04  0.00000000000E+00 0. -1.
         23    2    1    2    0    0  0.11580391178E+03 -0.76415013962E+02 -0.50445776904E+03  0.53793622703E+03  0.12509173940E+03 0.  0.
          5    1    3    3  502    0  0.13709684697E+03 -0.42324154175E+02 -0.35028009834E+03  0.37855052393E+03  0.41800000000E+01 0. -1.
         -5    1    3    3    0  502 -0.21292935192E+02 -0.34090859787E+02 -0.15417767071E+03  0.15938570310E+03  0.41800000000E+01 0. -1.
        -11    1    1    2    0    0 -0.77836567995E+02 -0.28442618184E-02 -0.16214068770E+03  0.17985586989E+03  0.00000000000E+00 0.  1.
         11    1    1    2    0    0 -0.37967343785E+02  0.76417858224E+02 -0.30870937034E+03  0.32028531590E+03  0.00000000000E+00 0. -1.
</event>
<event>
 7    1  0.6506388E-006  0.9474458E+02  0.7561462E-02  0.1291752E+00
         -2   -1    0    0    0  501 -0.00000000000E+00  0.00000000000E+00  0.14646535396E+02  0.14646535396E+02  0.00000000000E+00 0. -1.
          2   -1    0    0  501    0  0.00000000000E+00 -0.00000000000E+00 -0.90159032096E+03  0.90159032096E+03  0.00000000000E+00 0.  1.
         23    2    1    2    0    0  0.31152091974E+02 -0.10048081022E+01 -0.56673904974E+03  0.58121502991E+03  0.12508516307E+03 0.  0.
          5    1    3    3  502    0 -0.37704336033E+02  0.71403049062E+01 -0.72662249938E+02  0.82279255441E+02  0.41800000000E+01 0. -1.
         -5    1    3    3    0  502  0.68856428007E+02 -0.81451130084E+01 -0.49407679980E+03  0.49893577447E+03  0.41800000000E+01 0. -1.
        -11    1    1    2    0    0 -0.53157286904E+02 -0.13780267993E+02 -0.28856416075E+03  0.29374286001E+03  0.00000000000E+00 0.  1.
         11    1    1    2    0    0  0.22005194931E+02  0.14785076095E+02 -0.31640575075E+02  0.41278966437E+02  0.00000000000E+00 0. -1.
</event>
<event>
 7    1  0.6506388E-006  0.1497365E+03  0.7561462E-02  0.1200797E+00
          2   -1    0    0  501    0  0.00000000000E+00  0.00000000000E+00  0.80156336592E+02  0.80156336592E+02  0.00000000000E+00 0. -1.
         -2   -1    0    0    0  501 -0.00000000000E+00 -0.00000000000E+00 -0.29656718316E+03  0.29656718316E+03  0.00000000000E+00 0.  1.
         23    2    1    2    0    0  0.83344125729E+02  0.69883007984E+02 -0.10308761572E+03  0.19519501813E+03  0.12507661847E+03 0.  0.
          5    1    3    3  502    0 -0.17536106927E+02  0.54710814217E+02 -0.63376885572E+02  0.85643973888E+02  0.41800000000E+01 0. -1.
         -5    1    3    3    0  502  0.10088023266E+03  0.15172193767E+02 -0.39710730152E+02  0.10955104424E+03  0.41800000000E+01 0. -1.
        -11    1    1    2    0    0 -0.59776381799E+02 -0.90497187067E+02 -0.74160765480E+02  0.13138788310E+03  0.00000000000E+00 0.  1.
         11    1    1    2    0    0 -0.23567743930E+02  0.20614179083E+02 -0.39162465365E+02  0.50140618531E+02  0.00000000000E+00 0. -1.
</event>
<event>
 7    1  0.6506388E-006  0.6410690E+02  0.7561462E-02  0.1381363E+00
         -1   -1    0    0    0  501 -0.00000000000E+00  0.00000000000E+00  0.29038872788E+02  0.29038872788E+02  0.00000000000E+00 0.  1.
          1   -1    0    0  501    0  0.00000000000E+00 -0.00000000000E+00 -0.44094560212E+03  0.44094560212E+03  0.00000000000E+00 0. -1.
         23    2    1    2    0    0  0.11650171136E+02  0.31343115625E+02 -0.22604087536E+03  0.26050729026E+03  0.12510576950E+03 0.  0.
          5    1    3    3  502    0  0.12899226282E+02  0.54846078552E+02 -0.31861832658E+02  0.64862401679E+02  0.41800000000E+01 0.  1.
         -5    1    3    3    0  502 -0.12490551456E+01 -0.23502962927E+02 -0.19417904270E+03  0.19564488859E+03  0.41800000000E+01 0.  1.
        -11    1    1    2    0    0 -0.23008917838E+02 -0.27420116865E+02 -0.19246640043E+03  0.19576666827E+03  0.00000000000E+00 0. -1.
         11    1    1    2    0    0  0.11358746702E+02 -0.39229987596E+01  0.66005464562E+01  0.13710516380E+02  0.00000000000E+00 0.  1.
</event>
<event>
 7    1  0.6506388E-006  0.9256420E+02  0.7561462E-02  0.1296758E+00
          2   -1    0    0  501    0  0.00000000000E+00  0.00000000000E+00  0.15907896323E+03  0.15907896323E+03  0.00000000000E+00 0. -1.
         -2   -1    0    0    0  501 -0.00000000000E+00 -0.00000000000E+00 -0.91519480322E+02  0.91519480322E+02  0.00000000000E+00 0.  1.
         23    2    1    2    0    0  0.41470489874E+02 -0.58487044477E+01  0.29909410643E+00  0.13191273709E+03  0.12508745690E+03 0.  0.
          5    1    3    3  502    0  0.38386425433E+02  0.36134660722E+02  0.45673670913E+02  0.69876948829E+02  0.41800000000E+01 0. -1.
         -5    1    3    3    0  502  0.30840644411E+01 -0.41983365169E+02 -0.45374576807E+02  0.62035788258E+02  0.41800000000E+01 0. -1.
        -11    1    1    2    0    0 -0.22615569670E+02  0.42827901687E+02  0.59052413111E+02  0.76373298008E+02  0.00000000000E+00 0. -1.
         11    1    1    2    0    0 -0.18854920204E+02 -0.36979197239E+02  0.82079756883E+01  0.42312408455E+02  0.00000000000E+00 0.  1.
</event>
<event>
 7    1  0.9184746E-006  0.1578218E+03  0.7561462E-02  0.1191178E+00
         -1   -1    0    0    0  501 -0.00000000000E+00  0.00000000000E+00  0.11262033116E+03  0.11262033116E+03  0.00000000000E+00 0.  1.
          1   -1    0    0  501    0  0.00000000000E+00 -0.00000000000E+00 -0.24699228641E+03  0.24699228641E+03  0.00000000000E+00 0. -1.
         23    2    1    2    0    0 -0.12301017521E+03 -0.19716758034E+02 -0.38992421794E+02  0.18079819158E+03  0.12508926160E+03 0.  0.
          5    1    3    3  502    0 -0.13999605949E+03  0.11347148146E+02 -0.35793251329E+02  0.14500442643E+03  0.41800000000E+01 0. -1.
         -5    1    3    3    0  502  0.16985884281E+02 -0.31063906180E+02 -0.31991704646E+01  0.35793765150E+02  0.41800000000E+01 0. -1.
        -11    1    1    2    0    0  0.73345219557E+02  0.42571085250E+02 -0.22556147419E+02  0.87753053039E+02  0.00000000000E+00 0.  1.
         11    1    1    2    0    0  0.49664955649E+02 -0.22854327216E+02 -0.72823386037E+02  0.91061372963E+02  0.00000000000E+00 0. -1.
</event>
<event>
 7    1  0.6506388E-006  0.1091024E+03  0.7561462E-02  0.1262241E+00
         -3   -1    0    0    0  501 -0.00000000000E+00  0.00000000000E+00  0.60497028657E+02  0.60497028657E+02  0.00000000000E+00 0.  1.
          3   -1    0    0  501    0  0.00000000000E+00 -0.00000000000E+00 -0.27268463091E+03  0.27268463091E+03  0.00000000000E+00 0. -1.
         23    2    1    2    0    0 -0.53564100417E+02  0.35986245293E+02 -0.87173999926E+02  0.16555220996E+03  0.12507639768E+03 0.  0.
          5    1    3    3  502    0 -0.80450950020E+02  0.62643883183E+02 -0.70112416709E+02  0.12381371021E+03  0.41800000000E+01 0. -1.
         -5    1    3    3    0  502  0.26886849603E+02 -0.26657637891E+02 -0.17061583218E+02  0.41738499750E+02  0.41800000000E+01 0. -1.
        -11    1    1    2    0    0  0.19110120221E+02  0.92250005173E+01 -0.10537367799E+03  0.10748911267E+03  0.00000000000E+00 0. -1.
         11    1    1    2    0    0  0.34453980196E+02 -0.45211245810E+02 -0.19639924337E+02  0.60140336938E+02  0.00000000000E+00 0.  1.
</event>
<event>
 7    1  0.6506388E-006  0.1074705E+03  0.7561462E-02  0.1265327E+00
         -2   -1    0    0    0  501 -0.00000000000E+00  0.00000000000E+00  0.21599988470E+02  0.21599988470E+02  0.00000000000E+00 0.  1.
          2   -1    0    0  501    0  0.00000000000E+00 -0.00000000000E+00 -0.77128795731E+03  0.77128795731E+03  0.00000000000E+00 0. -1.
         23    2    1    2    0    0  0.29868075993E+02  0.31751165480E+02 -0.25351752954E+03  0.28603956927E+03  0.12508900404E+03 0.  0.
          5    1    3    3  502    0  0.26799108893E+02 -0.37228556458E+02 -0.17697315986E+03  0.18286915914E+03  0.41800000000E+01 0.  1.
         -5    1    3    3    0  502  0.30689670998E+01  0.68979721938E+02 -0.76544369684E+02  0.10317041014E+03  0.41800000000E+01 0.  1.
        -11    1    1    2    0    0 -0.48068179825E+02 -0.53117601990E+02 -0.41030883649E+03  0.41651575103E+03  0.00000000000E+00 0. -1.
         11    1    1    2    0    0  0.18200103832E+02  0.21366436510E+02 -0.85861602806E+02  0.90332625474E+02  0.00000000000E+00 0.  1.
</event>
<event>
 7    1  0.6506388E-006  0.1018831E+03  0.7561462E-02  0.1276385E+00
         -2   -1    0    0    0  501 -0.00000000000E+00  0.00000000000E+00  0.93350121196E+02  0.93350121196E+02  0.00000000000E+00 0.  1.
          2   -1    0    0  501    0  0.00000000000E+00 -0.00000000000E+00 -0.16273360398E+03  0.16273360398E+03  0.00000000000E+00 0. -1.
         23    2    1    2    0    0  0.77063198680E+01  0.57815977721E+02 -0.30303329392E+02  0.14130850325E+03  0.12509087366E+03 0.  0.
          5    1    3    3  502    0  0.41837557777E+02  0.29188622430E+02 -0.66387527143E+02  0.83827996995E+02  0.41800000000E+01 0.  1.
         -5    1    3    3    0  502 -0.34131237909E+02  0.28627355291E+02  0.36084197750E+02  0.57480506256E+02  0.41800000000E+01 0.  1.
        -11    1    1    2    0    0 -0.19464453045E+02  0.20719470733E+02 -0.12239718598E+02  0.30951124554E+02  0.00000000000E+00 0. -1.
         11    1    1    2    0    0  0.11758133177E+02 -0.78535448454E+02 -0.26840434792E+02  0.83824097368E+02  0.00000000000E+00 0.  1.
</event>
<event>
 7    1  0.6506388E-006  0.9635613E+02  0.7561462E-02  0.1288151E+00
          3   -1    0    0  501    0  0.00000000000E+00  0.00000000000E+00  0.32597020084E+03  0.32597020084E+03  0.00000000000E+00 0. -1.
         -3   -1    0    0    0  501 -0.00000000000E+00 -0.00000000000E+00 -0.50381444656E+02  0.50381444656E+02  0.00000000000E+00 0.  1.
         23    2    1    2    0    0 -0.16568599444E+02  0.22594501098E+02  0.62086303903E+02  0.14243425669E+03  0.12509108034E+03 0.  0.
          5    1    3    3  502    0 -0.63235285439E+02 -0.12877210760E+02  0.51617235825E+02  0.82742584657E+02  0.41800000000E+01 0.  1.
         -5    1    3    3    0  502  0.46666685995E+02  0.35471711858E+02  0.10469068079E+02  0.59691672035E+02  0.41800000000E+01 0.  1.
        -11    1    1    2    0    0  0.22902658498E+02  0.17413697572E+02  0.17288069211E+02  0.33565547314E+02  0.00000000000E+00 0.  1.
         11    1    1    2    0    0 -0.63340590547E+01 -0.40008198670E+02  0.19621438307E+03  0.20035184149E+03  0.00000000000E+00 0. -1.
</event>
<event>
 7    1  0.6506388E-006  0.1297831E+03  0.7561462E-02  0.1227778E+00
         -2   -1    0    0    0  501 -0.00000000000E+00  0.00000000000E+00  0.12490790313E+03  0.12490790313E+03  0.00000000000E+00 0. -1.
          2   -1    0    0  501    0  0.00000000000E+00 -0.00000000000E+00 -0.21200251675E+03  0.21200251675E+03  0.00000000000E+00 0.  1.
         23    2    1    2    0    0 -0.96295807183E+02 -0.31036284986E+02  0.22063432040E+02  0.16239101034E+03  0.12509161338E+03 0.  0.
          5    1    3    3  502    0 -0.10412103522E+03  0.20313987018E+02  0.28391428276E+02  0.10989719580E+03  0.41800000000E+01 0. -1.
         -5    1    3    3    0  502  0.78252280389E+01 -0.51350272004E+02 -0.63279962364E+01  0.52493814541E+02  0.41800000000E+01 0. -1.
        -11    1    1    2    0    0  0.35194503795E+02  0.13795392207E+02  0.10351469167E+02  0.39193352210E+02  0.00000000000E+00 0. -1.
         11    1    1    2    0    0  0.61101303388E+02  0.17240892780E+02 -0.11950951483E+03  0.13532605734E+03  0.00000000000E+00 0.  1.
</event>
<event>
 7    1  0.6506388E-006  0.9772590E+02  0.7561462E-02  0.1285152E+00
          2   -1    0    0  501    0  0.00000000000E+00  0.00000000000E+00  0.35240275754E+03  0.35240275754E+03  0.00000000000E+00 0.  1.
         -2   -1    0    0    0  501 -0.00000000000E+00 -0.00000000000E+00 -0.55525909549E+02  0.55525909549E+02  0.00000000000E+00 0. -1.
         23    2    1    2    0    0 -0.39289934504E+02  0.43562565623E+00  0.45233488948E+02  0.13869003619E+03  0.12507985007E+03 0.  0.
          5    1    3    3  502    0 -0.12089230813E+02  0.45308118221E+02  0.66867575649E+02  0.81778482204E+02  0.41800000000E+01 0. -1.
         -5    1    3    3    0  502 -0.27200703691E+02 -0.44872492565E+02 -0.21634086701E+02  0.56911553991E+02  0.41800000000E+01 0. -1.
        -11    1    1    2    0    0  0.49818989755E+01  0.41360664795E+02  0.11009906969E+03  0.11771715702E+03  0.00000000000E+00 0.  1.
         11    1    1    2    0    0  0.34308035529E+02 -0.41796290451E+02  0.14154428936E+03  0.15152147388E+03  0.00000000000E+00 0. -1.
</event>
<event>
 7    1  0.6506388E-006  0.1013591E+03  0.7561462E-02  0.1277464E+00
          1   -1    0    0  501    0  0.00000000000E+00  0.00000000000E+00  0.35350093929E+02  0.35350093929E+02  0.00000000000E+00 0. -1.
         -1   -1    0    0    0  501 -0.00000000000E+00 -0.00000000000E+00 -0.62874490842E+03  0.62874490842E+03  0.00000000000E+00 0.  1.
         23    2    1    2    0    0 -0.70451376852E+02  0.15776718201E+02 -0.48131522250E+03  0.50252044477E+03  0.12510057017E+03 0.  0.
          5    1    3    3  502    0 -0.16242993274E+01  0.48001119869E+02 -0.32614150062E+03  0.32968545113E+03  0.41800000000E+01 0.  1.
         -5    1    3    3    0  502 -0.68827077524E+02 -0.32224401669E+02 -0.15517372188E+03  0.17283499364E+03  0.41800000000E+01 0.  1.
        -11    1    1    2    0    0  0.64074537456E+02 -0.30336308847E+01 -0.12616666581E+03  0.14153719239E+03  0.00000000000E+00 0.  1.
         11    1    1    2    0    0  0.63768393952E+01 -0.12743087316E+02  0.14087073825E+02  0.20037365195E+02  0.00000000000E+00 0. -1.
</event>
<event>
 7    1  0.6506388E-006  0.1518015E+03  0.7561462E-02  0.1198277E+00
          1   -1    0    0  501    0  0.00000000000E+00  0.00000000000E+00  0.26044575888E+02  0.26044575888E+02  0.00000000000E+00 0. -1.
         -1   -1    0    0    0  501 -0.00000000000E+00 -0.00000000000E+00 -0.90679685850E+03  0.90679685850E+03  0.00000000000E+00 0.  1.
         23    2    1    2    0    0  0.10587001900E+03  0.11478514086E+01 -0.54443143508E+03  0.56856217144E+03  0.12509027461E+03 0.  0.
          5    1    3    3  502    0  0.58618166477E+02  0.62854865768E+02 -0.28684628413E+03  0.29947468459E+03  0.41800000000E+01 0. -1.
         -5    1    3    3    0  502  0.47251852525E+02 -0.61707014360E+02 -0.25758515095E+03  0.26908748685E+03  0.41800000000E+01 0. -1.
        -11    1    1    2    0    0 -0.56836552465E+02 -0.46114789888E+02 -0.18666978033E+03  0.20050579650E+03  0.00000000000E+00 0. -1.
         11    1    1    2    0    0 -0.49033466538E+02  0.44966938479E+02 -0.14965106720E+03  0.16377346644E+03  0.00000000000E+00 0.  1.
</event>
<event>
 7    1  0.6506388E-006  0.1170456E+03  0.7561462E-02  0.1248052E+00
          1   -1    0    0  501    0  0.00000000000E+00  0.00000000000E+00  0.53090716732E+02  0.53090716732E+02  0.00000000000E+00 0. -1.
         -1   -1    0    0    0  501 -0.00000000000E+00 -0.00000000000E+00 -0.34858134934E+03  0.34858134934E+03  0.00000000000E+00 0.  1.
         23    2    1    2    0    0 -0.58531785751E+02 -0.19598142395E+02 -0.24308786000E+03  0.28026726470E+03  0.12509186565E+03 0.  0.
          5    1    3    3  502    0 -0.77198010562E+02  0.26359737240E+02 -0.19336069587E+03  0.20990521597E+03  0.41800000000E+01 0.  1.
         -5    1    3    3    0  502  0.18666224811E+02 -0.45957879635E+02 -0.49727164125E+02  0.70362048727E+02  0.41800000000E+01 0.  1.
        -11    1    1    2    0    0  0.68717718558E+02 -0.11708415424E+02 -0.54399485504E+02  0.88422371935E+02  0.00000000000E+00 0.  1.
         11    1    1    2    0    0 -0.10185932807E+02  0.31306557819E+02  0.19967128927E+01  0.32982429443E+02  0.00000000000E+00 0. -1.
</event>
<event>
 7    1  0.6506388E-006  0.1055151E+03  0.7561462E-02  0.1269108E+00
         -2   -1    0    0    0  501 -0.00000000000E+00  0.00000000000E+00  0.44470646070E+02  0.44470646070E+02  0.00000000000E+00 0.  1.
          2   -1    0    0  501    0  0.00000000000E+00 -0.00000000000E+00 -0.54206505294E+03  0.54206505294E+03  0.00000000000E+00 0. -1.
         23    2    1    2    0    0  0.41850118673E+02  0.35560660531E+01 -0.75509119607E+02  0.15203110630E+03  0.12509097530E+03 0.  0.
          5    1    3    3  502    0 -0.15197659914E+02  0.40751948751E+02 -0.71359660839E+02  0.83674152454E+02  0.41800000000E+01 0.  1.
         -5    1    3    3    0  502  0.57047778587E+02 -0.37195882698E+02 -0.41494587686E+01  0.68356953849E+02  0.41800000000E+01 0.  1.
        -11    1    1    2    0    0 -0.35568656821E+02 -0.44903257371E+02 -0.18193940056E+03  0.19074427212E+03  0.00000000000E+00 0.  1.
         11    1    1    2    0    0 -0.62814618522E+01  0.41347191318E+02 -0.24014588670E+03  0.24376032059E+03  0.00000000000E+00 0. -1.
</event>
<event>
 7    1  0.6506388E-006  0.9367832E+02  0.7561462E-02  0.1294181E+00
         -2   -1    0    0    0  501 -0.00000000000E+00  0.00000000000E+00  0.91739219797E+02  0.91739219797E+02  0.00000000000E+00 0.  1.
          2   -1    0    0  501    0  0.00000000000E+00 -0.00000000000E+00 -0.16370101135E+03  0.16370101135E+03  0.00000000000E+00 0. -1.
         23    2    1    2    0    0  0.47431012828E+02 -0.15066258836E+02 -0.96355453992E+01  0.13497054441E+03  0.12509001155E+03 0.  0.
          5    1    3    3  502    0 -0.63500461868E+01  0.21520251525E+02  0.44649901127E+02  0.50145093309E+02  0.41800000000E+01 0.  1.
         -5    1    3    3    0  502  0.53781059015E+02 -0.36586510361E+02 -0.54285446526E+02  0.84825451096E+02  0.41800000000E+01 0.  1.
        -11    1    1    2    0    0 -0.33095999703E+02  0.50925197158E+02 -0.21900849425E+02  0.64562900395E+02  0.00000000000E+00 0.  1.
         11    1    1    2    0    0 -0.14335013125E+02 -0.35858938322E+02 -0.40425396726E+02  0.55906786344E+02  0.00000000000E+00 0. -1.
</event>
<event>
 7    1  0.6506388E-006  0.1089818E+03  0.7561462E-02  0.1262467E+00
         -2   -1    0    0    0  501 -0.00000000000E+00  0.00000000000E+00  0.86166056697E+03  0.86166056697E+03  0.00000000000E+00 0.  1.
          2   -1    0    0  501    0  0.00000000000E+00 -0.00000000000E+00 -0.23275612309E+02  0.23275612309E+02  0.00000000000E+00 0. -1.
         23    2    1    2    0    0 -0.74561443406E+02  0.37206878638E+02  0.57499989165E+03  0.59431881796E+03  0.12508485648E+03 0.  0.
          5    1    3    3  502    0  0.83231818819E+01 -0.27717038936E+02  0.43098635090E+02  0.52081420398E+02  0.41800000000E+01 0.  1.
         -5    1    3    3    0  502 -0.82884625288E+02  0.64923917574E+02  0.53190125656E+03  0.54223739756E+03  0.41800000000E+01 0.  1.
        -11    1    1    2    0    0  0.38153547438E+02 -0.20202527779E+02  0.27173059747E+02  0.51011866137E+02  0.00000000000E+00 0. -1.
         11    1    1    2    0    0  0.36407895968E+02 -0.17004350859E+02  0.23621200327E+03  0.23960549519E+03  0.00000000000E+00 0.  1.
</event>
<event>
 6    1  0.6506388E-006  0.2067882E+03  0.7561462E-02  0.1144135E+00
         -2   -1    0    0    0  501 -0.00000000000E+00  0.00000000000E+00  0.64533278502E+03  0.64533278502E+03  0.00000000000E+00 0.  1.
          2   -1    0    0  501    0  0.00000000000E+00 -0.00000000000E+00 -0.13774757989E+03  0.13774757989E+03  0.00000000000E+00 0. -1.
          5    1    1    2  502    0 -0.13274669912E+03  0.10913952788E+03  0.41374730016E+01  0.17195264975E+03  0.41800000000E+01 0. -1.
         -5    1    1    2    0  502  0.74753780911E+02  0.20813961351E+02  0.41107148349E+03  0.41835222682E+03  0.41800000000E+01 0.  1.
        -11    1    1    2    0    0  0.54903733934E+02 -0.27395295060E+02  0.12199101707E+02  0.62559893492E+02  0.00000000000E+00 0. -1.
         11    1    1    2    0    0  0.30891842757E+01 -0.10255819417E+03  0.80177146936E+02  0.13021559485E+03  0.00000000000E+00 0.  1.
</event>
<event>
 7    1  0.6506388E-006  0.1179694E+03  0.7561462E-02  0.1246485E+00
         -2   -1    0    0    0  501 -0.00000000000E+00  0.00000000000E+00  0.78506960192E+02  0.78506960192E+02  0.00000000000E+00 0.  1.
          2   -1    0    0  501    0  0.00000000000E+00 -0.00000000000E+00 -0.21930418855E+03  0.21930418855E+03  0.00000000000E+00 0. -1.
         23    2    1    2    0    0  0.63323298987E+02  0.75950665342E+00 -0.48289137717E+02  0.14829212203E+03  0.12509314766E+03 0.  0.
          5    1    3    3  502    0 -0.27606545126E+02  0.54736846082E+00  0.20125152207E+02  0.34422595739E+02  0.41800000000E+01 0.  1.
         -5    1    3    3    0  502  0.90929844113E+02  0.21213819260E+00 -0.68414289924E+02  0.11386952630E+03  0.41800000000E+01 0.  1.
        -11    1    1    2    0    0  0.16733984288E+02 -0.27831951162E+02 -0.31898051557E+02  0.45520648378E+02  0.00000000000E+00 0. -1.
         11    1    1    2    0    0 -0.80057283275E+02  0.27072444508E+02 -0.60610039081E+02  0.10399837833E+03  0.00000000000E+00 0.  1.
</event>
<event>
 7    1  0.6506388E-006  0.2278992E+03  0.7561462E-02  0.1128127E+00
          2   -1    0    0  501    0  0.00000000000E+00  0.00000000000E+00  0.83858465865E+02  0.83858465865E+02  0.00000000000E+00 0. -1.
         -2   -1    0    0    0  501 -0.00000000000E+00 -0.00000000000E+00 -0.87957271795E+03  0.87957271795E+03  0.00000000000E+00 0.  1.
         23    2    1    2    0    0  0.17329928450E+03 -0.11305997139E+03 -0.65597255155E+03  0.69911602725E+03  0.12509209419E+03 0.  0.
          5    1    3    3  502    0  0.41392239095E+02 -0.99206580176E+02 -0.33300257634E+03  0.34994778362E+03  0.41800000000E+01 0.  1.
         -5    1    3    3    0  502  0.13190704541E+03 -0.13853391216E+02 -0.32296997520E+03  0.34916824363E+03  0.41800000000E+01 0.  1.
        -11    1    1    2    0    0 -0.12098090502E+03  0.43672790212E+02 -0.11842556894E+03  0.17483794601E+03  0.00000000000E+00 0. -1.
         11    1    1    2    0    0 -0.52318379480E+02  0.69387181180E+02 -0.21316131593E+02  0.89477210560E+02  0.00000000000E+00 0.  1.
</event>
<event>
 6    1  0.6506388E-006  0.1601038E+03  0.7561462E-02  0.1188580E+00
         -4   -1    0    0    0  501 -0.00000000000E+00  0.00000000000E+00  0.44592880251E+02  0.44592880251E+02  0.00000000000E+00 0.  1.
          4   -1    0    0  501    0  0.00000000000E+00 -0.00000000000E+00 -0.10144205763E+04  0.10144205763E+04  0.00000000000E+00 0. -1.
          5    1    1    2  502    0 -0.25146409630E+01 -0.80977970972E+02 -0.42489149259E+03  0.43256676719E+03  0.41800000000E+01 0. -1.
         -5    1    1    2    0  502 -0.78292415327E+02 -0.26428146313E+02 -0.32344395624E+02  0.88835699713E+02  0.41800000000E+01 0.  1.
        -11    1    1    2    0    0  0.54409710456E+02  0.11637420709E+03 -0.35403935170E+03  0.37662612127E+03  0.00000000000E+00 0. -1.
         11    1    1    2    0    0  0.26397345834E+02 -0.89680898006E+01 -0.15855245614E+03  0.16098486839E+03  0.00000000000E+00 0.  1.
</event>
<event>
 7    1  0.6506388E-006  0.1586011E+03  0.7561462E-02  0.1190285E+00
         -1   -1    0    0    0  501 -0.00000000000E+00  0.00000000000E+00  0.91345996831E+03  0.91345996831E+03  0.00000000000E+00 0.  1.
          1   -1    0    0  501    0  0.00000000000E+00 -0.00000000000E+00 -0.32023090762E+02  0.32023090762E+02  0.00000000000E+00 0. -1.
         23    2    1    2    0    0  0.98880598834E+02 -0.64480670242E+02  0.62213349663E+03  0.64546892709E+03  0.12507964878E+03 0.  0.
          5    1    3    3  502    0  0.22160392899E+00 -0.69785498554E+02  0.19866144919E+03  0.21060367687E+03  0.41800000000E+01 0. -1.
         -5    1    3    3    0  502  0.98658994905E+02  0.53048283117E+01  0.42347204745E+03  0.43486525022E+03  0.41800000000E+01 0. -1.
        -11    1    1    2    0    0 -0.45293767975E+02 -0.19068593972E+02  0.11293890516E+03  0.12316790569E+03  0.00000000000E+00 0.  1.
         11    1    1    2    0    0 -0.53586830859E+02  0.83549264214E+02  0.14636447575E+03  0.17684622630E+03  0.00000000000E+00 0. -1.
</event>
<event>
 7    1  0.6506388E-006  0.1121051E+03  0.7561462E-02  0.1256720E+00
          4   -1    0    0  501    0  0.00000000000E+00  0.00000000000E+00  0.12457574977E+03  0.12457574977E+03  0.00000000000E+00 0. -1.
         -4   -1    0    0    0  501 -0.00000000000E+00 -0.00000000000E+00 -0.11784170096E+03  0.11784170096E+03  0.00000000000E+00 0.  1.
         23    2    1    2    0    0  0.41983805637E+02  0.10882445924E+02 -0.28001838364E+02  0.13532601694E+03  0.12509180766E+03 0.  0.
          5    1    3    3  502    0  0.12345363765E+02 -0.56371836618E+02 -0.20269959456E+02  0.61306897055E+02  0.41800000000E+01 0.  1.
         -5    1    3    3    0  502  0.29638441872E+02  0.67254282542E+02 -0.77318789087E+01  0.74019119883E+02  0.41800000000E+01 0.  1.
        -11    1    1    2    0    0 -0.54709109977E+02  0.20850483342E+02  0.27544362682E+00  0.58548315427E+02  0.00000000000E+00 0.  1.
         11    1    1    2    0    0  0.12725304340E+02 -0.31732929266E+02  0.34460443551E+02  0.48543118360E+02  0.00000000000E+00 0. -1.
</event>
<event>
 7    1  0.6506388E-006  0.1344684E+03  0.7561462E-02  0.1220972E+00
         -2   -1    0    0    0  501 -0.00000000000E+00  0.00000000000E+00  0.10011506773E+03  0.10011506773E+03  0.00000000000E+00 0.  1.
          2   -1    0    0  501    0  0.00000000000E+00 -0.00000000000E+00 -0.50972343324E+03  0.50972343324E+03  0.00000000000E+00 0. -1.
         23    2    1    2    0    0 -0.98854394905E+01  0.10167441410E+03  0.16573332358E+02  0.16234676801E+03  0.12508552811E+03 0.  0.
          5    1    3    3  502    0  0.14032519673E+02  0.11630627171E+03  0.41745313703E+02  0.12443554180E+03  0.41800000000E+01 0.  1.
         -5    1    3    3    0  502 -0.23917959164E+02 -0.14631857615E+02 -0.25171981345E+02  0.37911226209E+02  0.41800000000E+01 0.  1.
        -11    1    1    2    0    0  0.39491427352E+02 -0.48929983974E+02 -0.12087860826E+03  0.13625473974E+03  0.00000000000E+00 0.  1.
         11    1    1    2    0    0 -0.29605987862E+02 -0.52744430123E+02 -0.30530308960E+03  0.31123699322E+03  0.00000000000E+00 0. -1.
</event>
<event>
 7    1  0.6506388E-006  0.1230668E+03  0.7561462E-02  0.1238122E+00
          3   -1    0    0  501    0  0.00000000000E+00  0.00000000000E+00  0.35817545900E+03  0.35817545900E+03  0.00000000000E+00 0. -1.
         -3   -1    0    0    0  501 -0.00000000000E+00 -0.00000000000E+00 -0.10556822756E+03  0.10556822756E+03  0.00000000000E+00 0.  1.
         23    2    1    2    0    0  0.44621453174E+02 -0.95336106514E+02 -0.13066346872E+02  0.16400652300E+03  0.12508941952E+03 0.  0.
          5    1    3    3  502    0  0.22031099342E+02 -0.24715597148E+02  0.54303384691E+02  0.63738215142E+02  0.41800000000E+01 0.  1.
         -5    1    3    3    0  502  0.22590353833E+02 -0.70620509366E+02 -0.67369731563E+02  0.10026830786E+03  0.41800000000E+01 0.  1.
        -11    1    1    2    0    0  0.69199967664E+01  0.85803983998E+02  0.17426128837E+03  0.19436359394E+03  0.00000000000E+00 0.  1.
         11    1    1    2    0    0 -0.51541449941E+02  0.95321225164E+01  0.91412289938E+02  0.10537356962E+03  0.00000000000E+00 0. -1.
</event>
<event>
 7    1  0.6506388E-006  0.6664124E+02  0.7561462E-02  0.1371902E+00
         -2   -1    0    0    0  501 -0.00000000000E+00  0.00000000000E+00  0.19445906422E+02  0.19445906422E+02  0.00000000000E+00 0. -1.
          2   -1    0    0  501    0  0.00000000000E+00 -0.00000000000E+00 -0.59939661491E+03  0.59939661491E+03  0.00000000000E+00 0.  1.
         23    2    1    2    0    0 -0.26270375415E+01 -0.10504935444E+02 -0.32219735870E+03  0.34579820848E+03  0.12509199829E+03 0.  0.
          5    1    3    3  502    0  0.20241395375E+02 -0.21806953601E+02 -0.31823149445E+03  0.31964670149E+03  0.41800000000E+01 0. -1.
         -5    1    3    3    0  502 -0.22868432916E+02  0.11302018156E+02 -0.39658642497E+01  0.26151506987E+02  0.41800000000E+01 0. -1.
        -11    1    1    2    0    0 -0.35472034478E+02  0.15965832123E+02 -0.59485795345E+02  0.71075543426E+02  0.00000000000E+00 0. -1.
         11    1    1    2    0    0  0.38099072019E+02 -0.54608966790E+01 -0.19826755445E+03  0.20196876944E+03  0.00000000000E+00 0.  1.
</event>
<event>
 7    1  0.6506388E-006  0.8028332E+02  0.7561462E-02  0.1328249E+00
         -4   -1    0    0    0  501 -0.00000000000E+00  0.00000000000E+00  0.45345444084E+03  0.45345444084E+03  0.00000000000E+00 0.  1.
          4   -1    0    0  501    0  0.00000000000E+00 -0.00000000000E+00 -0.31098021249E+02  0.31098021249E+02  0.00000000000E+00 0. -1.
         23    2    1    2    0    0  0.17545005180E+02  0.31217459276E+02  0.32193447852E+03  0.34597753721E+03  0.12155776744E+03 0.  0.
          5    1    3    3  502    0  0.41665287890E+02 -0.13024129917E+02  0.39395739526E+02  0.58950155792E+02  0.41800000000E+01 0. -1.
         -5    1    3    3    0  502 -0.24120282711E+02  0.44241589193E+02  0.28253873899E+03  0.28702738142E+03  0.41800000000E+01 0.  1.
        -11    1    1    2    0    0  0.41128092251E+01 -0.41830704946E+02  0.76547811496E+01  0.42723749255E+02  0.00000000000E+00 0. -1.
         11    1    1    2    0    0 -0.21657814405E+02  0.10613245669E+02  0.92767159920E+02  0.95851175621E+02  0.00000000000E+00 0.  1.
</event>
<event>
 7    1  0.6506388E-006  0.1109365E+03  0.7561462E-02  0.1258845E+00
         -2   -1    0    0    0  501 -0.00000000000E+00  0.00000000000E+00  0.52760417746E+02  0.52760417746E+02  0.00000000000E+00 0. -1.
          2   -1    0    0  501    0  0.00000000000E+00 -0.00000000000E+00 -0.36202352930E+03  0.36202352930E+03  0.00000000000E+00 0.  1.
         23    2    1    2    0    0 -0.42500021267E+02  0.44305081788E+02 -0.79115558847E+02  0.16023929807E+03  0.12509264132E+03 0.  0.
          5    1    3    3  502    0 -0.61799594611E+02 -0.79494151223E+01  0.11370080552E+01  0.62459172923E+02  0.41800000000E+01 0. -1.
         -5    1    3    3    0  502  0.19299573344E+02  0.52254496910E+02 -0.80252566902E+02  0.97780125143E+02  0.41800000000E+01 0. -1.
        -11    1    1    2    0    0  0.62272454605E+02 -0.87558509076E+01 -0.17545010410E+03  0.18637935121E+03  0.00000000000E+00 0.  1.
         11    1    1    2    0    0 -0.19772433338E+02 -0.35549230880E+02 -0.54697448608E+02  0.68165297773E+02  0.00000000000E+00 0. -1.
</event>
<event>
 7    1  0.6506388E-006  0.8763694E+02  0.7561462E-02  0.1308677E+00
          1   -1    0    0  501    0  0.00000000000E+00  0.00000000000E+00  0.44004529670E+03  0.44004529670E+03  0.00000000000E+00 0. -1.
         -1   -1    0    0    0  501 -0.00000000000E+00 -0.00000000000E+00 -0.37447883049E+02  0.37447883049E+02  0.00000000000E+00 0.  1.
         23    2    1    2    0    0  0.57597799484E+02  0.30535132378E+02  0.17967845991E+03  0.22842608095E+03  0.12507687512E+03 0.  0.
          5    1    3    3  502    0  0.65156281456E+01 -0.23011937246E+02  0.14423708275E+03  0.14626623365E+03  0.41800000000E+01 0. -1.
         -5    1    3    3    0  502  0.51082171338E+02  0.53547069624E+02  0.35441377158E+02  0.82159847303E+02  0.41800000000E+01 0. -1.
        -11    1    1    2    0    0 -0.17900073210E+02  0.96920566491E+01  0.13461726969E+01  0.20400018724E+02  0.00000000000E+00 0.  1.
         11    1    1    2    0    0 -0.39697726274E+02 -0.40227189028E+02  0.22157278105E+03  0.22866708008E+03  0.00000000000E+00 0. -1.
</event>
<event>
 7    1  0.6506388E-006  0.1484877E+03  0.7561462E-02  0.1202344E+00
         -4   -1    0    0    0  501 -0.00000000000E+00  0.00000000000E+00  0.73955880332E+03  0.73955880332E+03  0.00000000000E+00 0.  1.
          4   -1    0    0  501    0  0.00000000000E+00 -0.00000000000E+00 -0.41732498425E+02  0.41732498425E+02  0.00000000000E+00 0. -1.
         23    2    1    2    0    0  0.34980941581E+02 -0.12446777402E+03  0.47069793399E+03  0.50390588954E+03  0.12509479368E+03 0.  0.
          5    1    3    3  502    0 -0.13284495667E+02  0.49229991517E+01  0.19468002728E+03  0.19523959427E+03  0.41800000000E+01 0. -1.
         -5    1    3    3    0  502  0.48265437248E+02 -0.12939077317E+03  0.27601790671E+03  0.30866629528E+03  0.41800000000E+01 0. -1.
        -11    1    1    2    0    0 -0.37148256914E+02  0.25519311471E+02  0.13442033813E+03  0.14177466471E+03  0.00000000000E+00 0.  1.
         11    1    1    2    0    0  0.21673153330E+01  0.98948462549E+02  0.92708032772E+02  0.13561074750E+03  0.00000000000E+00 0. -1.
</event>
<event>
 7    1  0.6506388E-006  0.7349646E+02  0.7561462E-02  0.1348591E+00
          2   -1    0    0  501    0  0.00000000000E+00  0.00000000000E+00  0.94959066863E+02  0.94959066863E+02  0.00000000000E+00 0.  1.
         -2   -1    0    0    0  501 -0.00000000000E+00 -0.00000000000E+00 -0.15786177975E+03  0.15786177975E+03  0.00000000000E+00 0. -1.
         23    2    1    2    0    0 -0.42599358702E+02 -0.12062564261E+02 -0.72018745094E+02  0.15097979047E+03  0.12509191287E+03 0.  0.
          5    1    3    3  502    0 -0.40742834839E+01 -0.15768724000E+02  0.34059727850E+02  0.37984074343E+02  0.41800000000E+01 0.  1.
         -5    1    3    3    0  502 -0.38525075218E+02  0.37061597381E+01 -0.10607847294E+03  0.11299571613E+03  0.41800000000E+01 0.  1.
        -11    1    1    2    0    0 -0.16103830252E+02  0.26306230936E+02  0.24633212302E+02  0.39473361690E+02  0.00000000000E+00 0.  1.
         11    1    1    2    0    0  0.58703188953E+02 -0.14243666674E+02 -0.15517180096E+02  0.62367694456E+02  0.00000000000E+00 0. -1.
</event>
<event>
 7    1  0.6506388E-006  0.7916284E+02  0.7561462E-02  0.1331444E+00
          1   -1    0    0  501    0  0.00000000000E+00  0.00000000000E+00  0.21394719674E+02  0.21394719674E+02  0.00000000000E+00 0. -1.
         -1   -1    0    0    0  501 -0.00000000000E+00 -0.00000000000E+00 -0.69184091247E+03  0.69184091247E+03  0.00000000000E+00 0.  1.
         23    2    1    2    0    0 -0.26233765877E+01  0.16500675046E+02 -0.52898215328E+03  0.54382726050E+03  0.12508723515E+03 0.  0.
          5    1    3    3  502    0  0.54951318818E+02  0.26519826879E+02 -0.35540102156E+03  0.36062488430E+03  0.41800000000E+01 0.  1.
         -5    1    3    3    0  502 -0.57574695405E+02 -0.10019151833E+02 -0.17358113172E+03  0.18320237620E+03  0.41800000000E+01 0.  1.
        -11    1    1    2    0    0  0.15695085891E+02 -0.19633227139E+02 -0.15090391328E+03  0.15298297413E+03  0.00000000000E+00 0.  1.
         11    1    1    2    0    0 -0.13071709304E+02  0.31325520933E+01  0.94398737653E+01  0.16425397512E+02  0.00000000000E+00 0. -1.
</event>
<event>
 6    1  0.6506388E-006  0.1401849E+03  0.7561462E-02  0.1213080E+00
         -1   -1    0    0    0  501 -0.00000000000E+00  0.00000000000E+00  0.11740931283E+04  0.11740931283E+04  0.00000000000E+00 0.  1.
          1   -1    0    0  501    0  0.00000000000E+00 -0.00000000000E+00 -0.52211792947E+02  0.52211792947E+02  0.00000000000E+00 0. -1.
          5    1    1    2  502    0  0.38722895332E+02 -0.47519027275E+02  0.27012133538E+03  0.27702080934E+03  0.41800000000E+01 0. -1.
         -5    1    1    2    0  502  0.38464574160E+02  0.85330786120E+02  0.81166679904E+03  0.81705650453E+03  0.41800000000E+01 0.  1.
        -11    1    1    2    0    0  0.15508986951E+02  0.12360928059E+02  0.11860685575E+02  0.23108376858E+02  0.00000000000E+00 0.  1.
         11    1    1    2    0    0 -0.92696456443E+02 -0.50172686904E+02  0.28232515361E+02  0.10911923053E+03  0.00000000000E+00 0. -1.
</event>
<event>
 7    1  0.6506388E-006  0.1859069E+03  0.7561462E-02  0.1162206E+00
          2   -1    0    0  501    0  0.00000000000E+00  0.00000000000E+00  0.95230273616E+03  0.95230273616E+03  0.00000000000E+00 0. -1.
         -2   -1    0    0    0  501 -0.00000000000E+00 -0.00000000000E+00 -0.49571007352E+02  0.49571007352E+02  0.00000000000E+00 0.  1.
         23    2    1    2    0    0  0.15473154454E+03 -0.69605703992E+02  0.28328055893E+03  0.35310278985E+03  0.12508757024E+03 0.  0.
          5    1    3    3  502    0  0.26490521188E+02 -0.64819107309E+02  0.16176586508E+03  0.17632053735E+03  0.41800000000E+01 0.  1.
         -5    1    3    3    0  502  0.12824102335E+03 -0.47865966833E+01  0.12151469385E+03  0.17678225250E+03  0.41800000000E+01 0.  1.
        -11    1    1    2    0    0 -0.11023711482E+03  0.31403054978E+02  0.52675260232E+03  0.53907947224E+03  0.00000000000E+00 0. -1.
         11    1    1    2    0    0 -0.44494429724E+02  0.38202649014E+02  0.92698567557E+02  0.10969148142E+03  0.00000000000E+00 0.  1.
</event>
<event>
 7    1  0.6506388E-006  0.7139969E+02  0.7561462E-02  0.1355397E+00
          3   -1    0    0  501    0  0.00000000000E+00  0.00000000000E+00  0.66860814030E+02  0.66860814030E+02  0.00000000000E+00 0. -1.
         -3   -1    0    0    0  501 -0.00000000000E+00 -0.00000000000E+00 -0.19240897407E+03  0.19240897407E+03  0.00000000000E+00 0.  1.
         23    2    1    2    0    0 -0.33993330440E+02 -0.26664202730E+01 -0.76863632559E+02  0.15072429344E+03  0.12508852190E+03 0.  0.
          5    1    3    3  502    0 -0.67790882762E+02  0.46064132035E+01 -0.90569577484E+02  0.11330111912E+03  0.41800000000E+01 0.  1.
         -5    1    3    3    0  502  0.33797552322E+02 -0.72728334765E+01  0.13705944925E+02  0.37423174318E+02  0.41800000000E+01 0.  1.
        -11    1    1    2    0    0  0.18532004111E+02 -0.89323962612E+01 -0.73936590776E+02  0.76745308227E+02  0.00000000000E+00 0.  1.
         11    1    1    2    0    0  0.15461326329E+02  0.11598816534E+02  0.25252063293E+02  0.31800186436E+02  0.00000000000E+00 0. -1.
</event>
<event>
 7    1  0.6506388E-006  0.1205600E+03  0.7561462E-02  0.1242176E+00
         -1   -1    0    0    0  501 -0.00000000000E+00  0.00000000000E+00  0.43957798842E+02  0.43957798842E+02  0.00000000000E+00 0.  1.
          1   -1    0    0  501    0  0.00000000000E+00 -0.00000000000E+00 -0.54834732969E+03  0.54834732969E+03  0.00000000000E+00 0. -1.
         23    2    1    2    0    0 -0.55048976385E+02 -0.19951825346E+02 -0.91411866706E+02  0.16562474853E+03  0.12508782041E+03 0.  0.
          5    1    3    3  502    0  0.15573715243E+02 -0.55674564438E+02 -0.48018395091E+02  0.75269093252E+02  0.41800000000E+01 0. -1.
         -5    1    3    3    0  502 -0.70622691628E+02  0.35722739093E+02 -0.43393471615E+02  0.90355655273E+02  0.41800000000E+01 0. -1.
        -11    1    1    2    0    0 -0.15370561623E+02  0.29082707549E+02 -0.18494000344E+03  0.18784265468E+03  0.00000000000E+00 0. -1.
         11    1    1    2    0    0  0.70419538008E+02 -0.91308822038E+01 -0.22803766070E+03  0.23883772533E+03  0.00000000000E+00 0.  1.
</event>
<event>
 7    1  0.6506388E-006  0.1242442E+03  0.7561462E-02  0.1236255E+00
          2   -1    0    0  501    0  0.00000000000E+00  0.00000000000E+00  0.19191100214E+03  0.19191100214E+03  0.00000000000E+00 0. -1.
         -2   -1    0    0    0  501 -0.00000000000E+00 -0.00000000000E+00 -0.89952128743E+02  0.89952128743E+02  0.00000000000E+00 0.  1.
         23    2    1    2    0    0  0.15713092523E+02 -0.69391432624E+02  0.36587607373E+02  0.14848661442E+03  0.12509016528E+03 0.  0.
          5    1    3    3  502    0  0.55630202298E+02  0.83583728100E+01  0.14582419372E+02  0.58264064041E+02  0.41800000000E+01 0. -1.
         -5    1    3    3    0  502 -0.39917109776E+02 -0.77749805434E+02  0.22005188000E+02  0.90222550378E+02  0.41800000000E+01 0. -1.
        -11    1    1    2    0    0  0.27089767480E+02  0.51497694554E+02  0.66897576105E+01  0.58571502485E+02  0.00000000000E+00 0.  1.
         11    1    1    2    0    0 -0.42802860003E+02  0.17893738070E+02  0.58681508413E+02  0.74805013977E+02  0.00000000000E+00 0. -1.
</event>
<event>
 7    1  0.6506388E-006  0.1521784E+03  0.7561462E-02  0.1197821E+00
          2   -1    0    0  501    0  0.00000000000E+00  0.00000000000E+00  0.22074561868E+03  0.22074561868E+03  0.00000000000E+00 0. -1.
         -2   -1    0    0    0  501 -0.00000000000E+00 -0.00000000000E+00 -0.13974011110E+03  0.13974011110E+03  0.00000000000E+00 0.  1.
         23    2    1    2    0    0 -0.79045075176E+02 -0.11266794422E+03  0.39499290892E+02  0.19013270875E+03  0.12509221956E+03 0.  0.
          5    1    3    3  502    0 -0.88792819341E+02 -0.12308429888E+03  0.61309299839E+02  0.16373824246E+03  0.41800000000E+01 0. -1.
         -5    1    3    3    0  502  0.97477441649E+01  0.10416354660E+02 -0.21810008947E+02  0.26394466295E+02  0.41800000000E+01 0. -1.
        -11    1    1    2    0    0  0.56844197175E+02  0.83366531599E+02  0.70869615919E+02  0.12330346225E+03  0.00000000000E+00 0. -1.
         11    1    1    2    0    0  0.22200878002E+02  0.29301412618E+02 -0.29363399230E+02  0.47049558763E+02  0.00000000000E+00 0.  1.
</event>
<event>
 7    1  0.6506388E-006  0.1334433E+03  0.7561462E-02  0.1222434E+00
         -2   -1    0    0    0  501 -0.00000000000E+00  0.00000000000E+00  0.77460207341E+02  0.77460207341E+02  0.00000000000E+00 0.  1.
          2   -1    0    0  501    0  0.00000000000E+00 -0.00000000000E+00 -0.35669942757E+03  0.35669942757E+03  0.00000000000E+00 0. -1.
         23    2    1    2    0    0  0.44561051089E+02 -0.10183965438E+03 -0.72735769701E+02  0.18247042478E+03  0.12509181127E+03 0.  0.
          5    1    3    3  502    0  0.16295412883E+02  0.18874463542E+02 -0.50455295610E+02  0.56435760916E+02  0.41800000000E+01 0.  1.
         -5    1    3    3    0  502  0.28265638206E+02 -0.12071411793E+03 -0.22280474091E+02  0.12603466387E+03  0.41800000000E+01 0.  1.
        -11    1    1    2    0    0 -0.45282661621E+02  0.57416511951E+02 -0.48961469975E+02  0.88002277415E+02  0.00000000000E+00 0.  1.
         11    1    1    2    0    0  0.72161053252E+00  0.44423142433E+02 -0.15754198056E+03  0.16368693272E+03  0.00000000000E+00 0. -1.
</event>
<event>
 7    1  0.6506388E-006  0.8655552E+02  0.7561462E-02  0.1311414E+00
         -2   -1    0    0    0  501 -0.00000000000E+00  0.00000000000E+00  0.13095377818E+04  0.13095377818E+04  0.00000000000E+00 0.  1.
          2   -1    0    0  501    0  0.00000000000E+00 -0.00000000000E+00 -0.12564917899E+02  0.12564917899E+02  0.00000000000E+00 0. -1.
         23    2    1    2    0    0  0.86171273109E+01 -0.44717383322E+02  0.82457752063E+03  0.83525387079E+03  0.12508813648E+03 0.  0.
          5    1    3    3  502    0 -0.78311039186E+01  0.44561727748E+01  0.70231007565E+03  0.70238030897E+03  0.41800000000E+01 0. -1.
         -5    1    3    3    0  502  0.16448231229E+02 -0.49173556097E+02  0.12226744498E+03  0.13287356182E+03  0.41800000000E+01 0. -1.
        -11    1    1    2    0    0  0.46310305732E+02  0.14832332431E+02  0.28959218708E+03  0.29364651763E+03  0.00000000000E+00 0.  1.
         11    1    1    2    0    0 -0.54927433043E+02  0.29885050891E+02  0.18280315620E+03  0.19320231128E+03  0.00000000000E+00 0. -1.
</event>
<event>
 7    1  0.6506388E-006  0.1085818E+03  0.7561462E-02  0.1263219E+00
         -1   -1    0    0    0  501 -0.00000000000E+00  0.00000000000E+00  0.79892999801E+03  0.79892999801E+03  0.00000000000E+00 0.  1.
          1   -1    0    0  501    0  0.00000000000E+00 -0.00000000000E+00 -0.28985263436E+02  0.28985263436E+02  0.00000000000E+00 0. -1.
         23    2    1    2    0    0 -0.33935387998E+02 -0.64492630970E+02  0.62751139894E+03  0.64399499665E+03  0.12509232547E+03 0.  0.
          5    1    3    3  502    0 -0.75998278430E+02 -0.15772606817E+02  0.40173391894E+03  0.40918471071E+03  0.41800000000E+01 0. -1.
         -5    1    3    3    0  502  0.42062890433E+02 -0.48720024153E+02  0.22577748001E+03  0.23481028594E+03  0.41800000000E+01 0. -1.
        -11    1    1    2    0    0  0.17729723040E+02  0.16285688379E+02 -0.78045569971E+01  0.25307663562E+02  0.00000000000E+00 0. -1.
         11    1    1    2    0    0  0.16205664958E+02  0.48206942591E+02  0.15023789263E+03  0.15861260124E+03  0.00000000000E+00 0.  1.
</event>
<event>
 7    1  0.6506388E-006  0.8529161E+02  0.7561462E-02  0.1314672E+00
          2   -1    0    0  501    0  0.00000000000E+00  0.00000000000E+00  0.22898403353E+03  0.22898403353E+03  0.00000000000E+00 0. -1.
         -2   -1    0    0    0  501 -0.00000000000E+00 -0.00000000000E+00 -0.65863729945E+02  0.65863729945E+02  0.00000000000E+00 0.  1.
         23    2    1    2    0    0  0.54609065022E+02 -0.19780550429E+02  0.98179024393E+02  0.16929301964E+03  0.12509030942E+03 0.  0.
          5    1    3    3  502    0  0.43712716279E+02  0.13807031205E+02 -0.16753706546E+02  0.48985658700E+02  0.41800000000E+01 0.  1.
         -5    1    3    3    0  502  0.10896348743E+02 -0.33587581634E+02  0.11493273094E+03  0.12030736094E+03  0.41800000000E+01 0.  1.
        -11    1    1    2    0    0 -0.70645846217E+02  0.14574450987E+02  0.16132125369E+02  0.73915463052E+02  0.00000000000E+00 0.  1.
         11    1    1    2    0    0  0.16036781195E+02  0.52060994417E+01  0.48809153823E+02  0.51639280779E+02  0.00000000000E+00 0. -1.
</event>
<event>
 6    1  0.6506388E-006  0.1029203E+03  0.7561462E-02  0.1274272E+00
          2   -1    0    0  501    0  0.00000000000E+00  0.00000000000E+00  0.20619911590E+03  0.20619911590E+03  0.00000000000E+00 0. -1.
         -2   -1    0    0    0  501 -0.00000000000E+00 -0.00000000000E+00 -0.21759121145E+03  0.21759121145E+03  0.00000000000E+00 0.  1.
          5    1    1    2  502    0  0.13377064065E+02  0.36430769572E+02 -0.11782533710E+03  0.12412263805E+03  0.41800000000E+01 0. -1.
         -5    1    1    2    0  502 -0.61877457690E+02 -0.72168609296E+02 -0.34649702707E+02  0.10126797241E+03  0.41800000000E+01 0.  1.
        -11    1    1    2    0    0  0.63196939092E+01 -0.84573611928E+01 -0.21916651160E+02  0.24327044365E+02  0.00000000000E+00 0.  1.
         11    1    1    2    0    0  0.42180699716E+02  0.44195200917E+02  0.16299959542E+03  0.17407267252E+03  0.00000000000E+00 0. -1.
</event>
<event>
 7    1  0.6506388E-006  0.1216690E+03  0.7561462E-02  0.1240369E+00
          1   -1    0    0  501    0  0.00000000000E+00  0.00000000000E+00  0.27659751547E+03  0.27659751547E+03  0.00000000000E+00 0. -1.
         -1   -1    0    0    0  501 -0.00000000000E+00 -0.00000000000E+00 -0.82132048296E+02  0.82132048296E+02  0.00000000000E+00 0.  1.
         23    2    1    2    0    0 -0.84124225111E+02 -0.48258250041E+02  0.57052354556E+02  0.16824971370E+03  0.12508897255E+03 0.  0.
          5    1    3    3  502    0 -0.11074771360E+03 -0.43105461844E+02  0.17622807402E+02  0.12021303028E+03  0.41800000000E+01 0.  1.
         -5    1    3    3    0  502  0.26623488490E+02 -0.51527881964E+01  0.39429547154E+02  0.48036683424E+02  0.41800000000E+01 0.  1.
        -11    1    1    2    0    0  0.63831239237E+02  0.36971106533E+02  0.28436034191E+02  0.79056295520E+02  0.00000000000E+00 0.  1.
         11    1    1    2    0    0  0.20292985874E+02  0.11287143508E+02  0.10897707842E+03  0.11142355454E+03  0.00000000000E+00 0. -1.
</event>
<event>
 7    1  0.6506388E-006  0.8322941E+02  0.7561462E-02  0.1320129E+00
          2   -1    0    0  501    0  0.00000000000E+00  0.00000000000E+00  0.65183587560E+02  0.65183587560E+02  0.00000000000E+00 0. -1.
         -2   -1    0    0    0  501 -0.00000000000E+00 -0.00000000000E+00 -0.33228295610E+03  0.33228295610E+03  0.00000000000E+00 0.  1.
         23    2    1    2    0    0  0.28649058648E+02  0.21170100563E+02 -0.27214653175E+03  0.30162812152E+03  0.12508735838E+03 0.  0.
          5    1    3    3  502    0 -0.42268563582E+02  0.31670369423E+02 -0.75137954093E+02  0.91939264256E+02  0.41800000000E+01 0. -1.
         -5    1    3    3    0  502  0.70917622230E+02 -0.10500268859E+02 -0.19700857766E+03  0.20968885726E+03  0.41800000000E+01 0. -1.
        -11    1    1    2    0    0 -0.43580991887E+01 -0.16322306821E+02 -0.40560622577E+02  0.43938307117E+02  0.00000000000E+00 0.  1.
         11    1    1    2    0    0 -0.24290959459E+02 -0.48477937423E+01  0.45607785785E+02  0.51900115027E+02  0.00000000000E+00 0. -1.
</event>
<event>
 7    1  0.6506388E-006  0.1062967E+03  0.7561462E-02  0.1267586E+00
          1   -1    0    0  501    0  0.00000000000E+00  0.00000000000E+00  0.64389817353E+03  0.64389817353E+03  0.00000000000E+00 0. -1.
         -1   -1    0    0    0  501 -0.00000000000E+00 -0.00000000000E+00 -0.19820259036E+02  0.19820259036E+02  0.00000000000E+00 0.  1.
         23    2    1    2    0    0 -0.94827797276E+01  0.15997302929E+02  0.27201447329E+03  0.29997482260E+03  0.12508870332E+03 0.  0.
          5    1    3    3  502    0  0.23314780371E+02 -0.45549502458E+02  0.74574566963E+02  0.90538249351E+02  0.41800000000E+01 0. -1.
         -5    1    3    3    0  502 -0.32797560098E+02  0.61546805386E+02  0.19743990633E+03  0.20943657325E+03  0.41800000000E+01 0. -1.
        -11    1    1    2    0    0  0.49284937744E+02 -0.15208279095E+02  0.20458359046E+03  0.21098517087E+03  0.00000000000E+00 0.  1.
         11    1    1    2    0    0 -0.39802158017E+02 -0.78902383396E+00  0.14747985074E+03  0.15275843910E+03  0.00000000000E+00 0. -1.
</event>
<event>
 7    1  0.6506388E-006  0.9437437E+02  0.7561462E-02  0.1292591E+00
          1   -1    0    0  501    0  0.00000000000E+00  0.00000000000E+00  0.80959910308E+02  0.80959910308E+02  0.00000000000E+00 0. -1.
         -1   -1    0    0    0  501 -0.00000000000E+00 -0.00000000000E+00 -0.18615491853E+03  0.18615491853E+03  0.00000000000E+00 0.  1.
         23    2    1    2    0    0 -0.45094120593E+02  0.15596956176E+02 -0.94027587311E+02  0.16354532257E+03  0.12501656132E+03 0.  0.
          5    1    3    3  502    0  0.10662106681E+02 -0.24238083087E+02  0.17904734602E+02  0.32236890542E+02  0.41800000000E+01 0.  1.
         -5    1    3    3    0  502 -0.55756227274E+02  0.39835039263E+02 -0.11193232191E+03  0.13130843203E+03  0.41800000000E+01 0.  1.
        -11    1    1    2    0    0  0.41101487044E+02  0.27857234104E+02  0.15999752137E+02  0.52166558230E+02  0.00000000000E+00 0. -1.
         11    1    1    2    0    0  0.39926335492E+01 -0.43454190280E+02 -0.27167173047E+02  0.51402948037E+02  0.00000000000E+00 0.  1.
</event>
<event>
 7    1  0.6506388E-006  0.2228115E+03  0.7561462E-02  0.1131804E+00
          1   -1    0    0  501    0  0.00000000000E+00  0.00000000000E+00  0.35732915881E+03  0.35732915881E+03  0.00000000000E+00 0. -1.
         -1   -1    0    0    0  501 -0.00000000000E+00 -0.00000000000E+00 -0.14710389607E+03  0.14710389607E+03  0.00000000000E+00 0.  1.
         23    2    1    2    0    0 -0.23978751268E+02  0.19833558401E+03  0.14464764435E+03  0.27655550742E+03  0.12509205919E+03 0.  0.
          5    1    3    3  502    0 -0.68282244165E+02  0.16910012967E+03  0.10948729643E+03  0.21274928720E+03  0.41800000000E+01 0. -1.
         -5    1    3    3    0  502  0.44303492897E+02  0.29235454335E+02  0.35160347918E+02  0.63806220220E+02  0.41800000000E+01 0. -1.
        -11    1    1    2    0    0  0.46136609850E+02 -0.14646125302E+03  0.19005429197E+02  0.15472779887E+03  0.00000000000E+00 0.  1.
         11    1    1    2    0    0 -0.22157858582E+02 -0.51874330992E+02  0.46572189198E+02  0.73149748595E+02  0.00000000000E+00 0. -1.
</event>
<event>
 7    1  0.6506388E-006  0.1304358E+03  0.7561462E-02  0.1226810E+00
         -1   -1    0    0    0  501 -0.00000000000E+00  0.00000000000E+00  0.38578295914E+03  0.38578295914E+03  0.00000000000E+00 0.  1.
          1   -1    0    0  501    0  0.00000000000E+00 -0.00000000000E+00 -0.84834476521E+02  0.84834476521E+02  0.00000000000E+00 0. -1.
         23    2    1    2    0    0  0.10871098042E+03  0.59112168688E+02  0.25532181055E+03  0.31008038720E+03  0.12509314063E+03 0.  0.
          5    1    3    3  502    0  0.74365910494E+02  0.58081250086E+02  0.25860236906E+03  0.27531141992E+03  0.41800000000E+01 0. -1.
         -5    1    3    3    0  502  0.34345069929E+02  0.10309186021E+01 -0.32805585086E+01  0.34768967280E+02  0.41800000000E+01 0. -1.
        -11    1    1    2    0    0 -0.41037249102E+01 -0.19535906881E+02 -0.22103972107E+02  0.29783851308E+02  0.00000000000E+00 0. -1.
         11    1    1    2    0    0 -0.10460725551E+03 -0.39576261807E+02  0.67730644166E+02  0.13075319715E+03  0.00000000000E+00 0.  1.
</event>
<event>
 7    1  0.6506388E-006  0.1012774E+03  0.7561462E-02  0.1277633E+00
         -3   -1    0    0    0  501 -0.00000000000E+00  0.00000000000E+00  0.42984389143E+03  0.42984389143E+03  0.00000000000E+00 0.  1.
          3   -1    0    0  501    0  0.00000000000E+00 -0.00000000000E+00 -0.30263859231E+02  0.30263859231E+02  0.00000000000E+00 0. -1.
         23    2    1    2    0    0  0.25964428105E+02 -0.19541624637E+02  0.26714470671E+03  0.29676572259E+03  0.12509026004E+03 0.  0.
          5    1    3    3  502    0 -0.13929083519E+02 -0.52881498161E+02  0.21907133480E+03  0.22583222610E+03  0.41800000000E+01 0. -1.
         -5    1    3    3    0  502  0.39893511624E+02  0.33339873525E+02  0.48073371914E+02  0.70933496484E+02  0.41800000000E+01 0. -1.
        -11    1    1    2    0    0 -0.55035897644E+02 -0.78686770922E+01  0.74194844076E+02  0.92713219101E+02  0.00000000000E+00 0. -1.
         11    1    1    2    0    0  0.29071469539E+02  0.27410301729E+02  0.58240481408E+02  0.70628808971E+02  0.00000000000E+00 0.  1.
</event>
<event>
 7    1  0.6506388E-006  0.7291220E+02  0.7561462E-02  0.1350461E+00
         -2   -1    0    0    0  501 -0.00000000000E+00  0.00000000000E+00  0.75346079675E+02  0.75346079675E+02  0.00000000000E+00 0. -1.
          2   -1    0    0  501    0  0.00000000000E+00 -0.00000000000E+00 -0.29003281255E+03  0.29003281255E+03  0.00000000000E+00 0.  1.
         23    2    1    2    0    0  0.31145126416E+02  0.53104043630E+01  0.20461201022E+01  0.12903424041E+03  0.12508968501E+03 0.  0.
          5    1    3    3  502    0  0.11557727031E+02  0.24109014581E+02  0.59492772574E+02  0.65358151953E+02  0.41800000000E+01 0. -1.
         -5    1    3    3    0  502  0.19587399385E+02 -0.18798610217E+02 -0.57446652472E+02  0.63676088456E+02  0.41800000000E+01 0. -1.
        -11    1    1    2    0    0  0.11782590328E+02  0.32199704365E+02 -0.54513037002E+02  0.64399701857E+02  0.00000000000E+00 0. -1.
         11    1    1    2    0    0 -0.42927716744E+02 -0.37510108728E+02 -0.16221981597E+03  0.17194494996E+03  0.00000000000E+00 0.  1.
</event>
<event>
 6    1  0.6506388E-006  0.2572553E+03  0.7561462E-02  0.1108804E+00
          2   -1    0    0  501    0  0.00000000000E+00  0.00000000000E+00  0.92948476007E+03  0.92948476007E+03  0.00000000000E+00 0. -1.
         -2   -1    0    0    0  501 -0.00000000000E+00 -0.00000000000E+00 -0.99141458174E+02  0.99141458174E+02  0.00000000000E+00 0.  1.
          5    1    1    2  502    0  0.23403197024E+03  0.10254112703E+03  0.53895814744E+03  0.59647213088E+03  0.41800000000E+01 0. -1.
         -5    1    1    2    0  502 -0.26215321543E+01  0.23534311181E+00 -0.13243867975E+02  0.14135071848E+02  0.41800000000E+01 0.  1.
        -11    1    1    2    0    0 -0.20037268226E+03 -0.96331718331E+02  0.17045131068E+03  0.28014757016E+03  0.00000000000E+00 0.  1.
         11    1    1    2    0    0 -0.31037755825E+02 -0.64447518123E+01  0.13417771175E+03  0.13787144535E+03  0.00000000000E+00 0. -1.
</event>
<event>
 7    1  0.6506388E-006  0.1546469E+03  0.7561462E-02  0.1194876E+00
         -2   -1    0    0    0  501 -0.00000000000E+00  0.00000000000E+00  0.40852095130E+03  0.40852095130E+03  0.00000000000E+00 0.  1.
          2   -1    0    0  501    0  0.00000000000E+00 -0.00000000000E+00 -0.71655795882E+02  0.71655795882E+02  0.00000000000E+00 0. -1.
         23    2    1    2    0    0 -0.71231191279E+02  0.10669233562E+03  0.21954576218E+03  0.28337823033E+03  0.12508294304E+03 0.  0.
          5    1    3    3  502    0  0.30017165169E+02  0.16408176844E+02  0.87409592261E+02  0.93958329547E+02  0.41800000000E+01 0.  1.
         -5    1    3    3    0  502 -0.10124835645E+03  0.90284158778E+02  0.13213616992E+03  0.18941990078E+03  0.41800000000E+01 0.  1.
        -11    1    1    2    0    0  0.70924091216E+02 -0.61377869004E+02  0.30094284494E+02  0.98504494707E+02  0.00000000000E+00 0. -1.
         11    1    1    2    0    0  0.30710006291E+00 -0.45314466617E+02  0.87225108737E+02  0.98294022145E+02  0.00000000000E+00 0.  1.
</event>
<event>
 7    1  0.6506388E-006  0.1718415E+03  0.7561462E-02  0.1175941E+00
         -3   -1    0    0    0  501 -0.00000000000E+00  0.00000000000E+00  0.42748565331E+02  0.42748565331E+02  0.00000000000E+00 0.  1.
          3   -1    0    0  501    0  0.00000000000E+00 -0.00000000000E+00 -0.78727787366E+03  0.78727787366E+03  0.00000000000E+00 0. -1.
         23    2    1    2    0    0 -0.14349192808E+03  0.52231222248E+01 -0.31068008581E+03  0.36439883641E+03  0.12508869587E+03 0.  0.
          5    1    3    3  502    0 -0.78219960980E+02  0.52228505334E+02 -0.23786704761E+03  0.25582099953E+03  0.41800000000E+01 0. -1.
         -5    1    3    3    0  502 -0.65271967097E+02 -0.47005383109E+02 -0.72813038201E+02  0.10857783688E+03  0.41800000000E+01 0. -1.
        -11    1    1    2    0    0 -0.12709100528E+02 -0.25466378608E+00 -0.36489042766E+02  0.38639828310E+02  0.00000000000E+00 0.  1.
         11    1    1    2    0    0  0.15620102860E+03 -0.49684584387E+01 -0.39736017975E+03  0.42698777426E+03  0.00000000000E+00 0. -1.
</event>
<event>
 7    1  0.6506388E-006  0.9195514E+02  0.7561462E-02  0.1298185E+00
          2   -1    0    0  501    0  0.00000000000E+00  0.00000000000E+00  0.14957564149E+02  0.14957564149E+02  0.00000000000E+00 0.  1.
         -2   -1    0    0    0  501 -0.00000000000E+00 -0.00000000000E+00 -0.12336029696E+04  0.12336029696E+04  0.00000000000E+00 0. -1.
         23    2    1    2    0    0  0.20577346561E+02  0.60204358732E+02 -0.90448922167E+03  0.91531284051E+03  0.12509537114E+03 0.  0.
          5    1    3    3  502    0  0.13045533816E+02  0.73513179854E+02 -0.25772322171E+03  0.26835257587E+03  0.41800000000E+01 0. -1.
         -5    1    3    3    0  502  0.75318127443E+01 -0.13308821122E+02 -0.64676599996E+03  0.64696026464E+03  0.41800000000E+01 0. -1.
        -11    1    1    2    0    0 -0.45045209494E+02 -0.28790308334E+02 -0.26322362713E+03  0.26859752536E+03  0.00000000000E+00 0. -1.
         11    1    1    2    0    0  0.24467862933E+02 -0.31414050397E+02 -0.50932556626E+02  0.64650167852E+02  0.00000000000E+00 0.  1.
</event>
<event>
 7    1  0.6506388E-006  0.1171363E+03  0.7561462E-02  0.1247897E+00
         -2   -1    0    0    0  501 -0.00000000000E+00  0.00000000000E+00  0.20662784289E+03  0.20662784289E+03  0.00000000000E+00 0.  1.
          2   -1    0    0  501    0  0.00000000000E+00 -0.00000000000E+00 -0.69086735048E+02  0.69086735048E+02  0.00000000000E+00 0. -1.
         23    2    1    2    0    0  0.90712744349E+01 -0.42968006685E+02  0.10265636010E+03  0.16767082813E+03  0.12508653293E+03 0.  0.
          5    1    3    3  502    0  0.41767386452E+02  0.30464465610E+02  0.35610630060E+02  0.62914128852E+02  0.41800000000E+01 0. -1.
         -5    1    3    3    0  502 -0.32696112017E+02 -0.73432472295E+02  0.67045730037E+02  0.10475669928E+03  0.41800000000E+01 0. -1.
        -11    1    1    2    0    0  0.37622689215E+02  0.40319527312E+02  0.23263690840E+02  0.59852571691E+02  0.00000000000E+00 0. -1.
         11    1    1    2    0    0 -0.46693963650E+02  0.26484793729E+01  0.11621056907E+02  0.48191178114E+02  0.00000000000E+00 0.  1.
</event>
<event>
 7    1  0.6506388E-006  0.1020873E+03  0.7561462E-02  0.1275967E+00
          2   -1    0    0  501    0  0.00000000000E+00  0.00000000000E+00  0.69432399753E+03  0.69432399753E+03  0.00000000000E+00 0. -1.
         -2   -1    0    0    0  501 -0.00000000000E+00 -0.00000000000E+00 -0.19192209998E+02  0.19192209998E+02  0.00000000000E+00 0.  1.
         23    2    1    2    0    0  0.50781370084E+01 -0.17123780299E+02  0.26485454869E+03  0.29345272462E+03  0.12509020065E+03 0.  0.
          5    1    3    3  502    0  0.46184475634E+02 -0.44669151884E+02  0.83615288007E+02  0.10553353831E+03  0.41800000000E+01 0.  1.
         -5    1    3    3    0  502 -0.41106338626E+02  0.27545371585E+02  0.18123926069E+03  0.18791918632E+03  0.41800000000E+01 0.  1.
        -11    1    1    2    0    0  0.40091886948E+02 -0.39465710727E+01  0.17951557420E+03  0.18398036906E+03  0.00000000000E+00 0.  1.
         11    1    1    2    0    0 -0.45170023957E+02  0.21070351371E+02  0.23076166465E+03  0.23608311384E+03  0.00000000000E+00 0. -1.
</event>
<event>
 7    1  0.6506388E-006  0.1083695E+03  0.7561462E-02  0.1263619E+00
          2   -1    0    0  501    0  0.00000000000E+00  0.00000000000E+00  0.22493421378E+03  0.22493421378E+03  0.00000000000E+00 0.  1.
         -2   -1    0    0    0  501 -0.00000000000E+00 -0.00000000000E+00 -0.71374702802E+02  0.71374702802E+02  0.00000000000E+00 0. -1.
         23    2    1    2    0    0  0.33405531496E+02 -0.61158833811E+01  0.20003437983E+02  0.13115135769E+03  0.12508879858E+03 0.  0.
          5    1    3    3  502    0 -0.21453856337E+02  0.46489283236E+02 -0.34853847771E+01  0.51489238823E+02  0.41800000000E+01 0.  1.
         -5    1    3    3    0  502  0.54859387832E+02 -0.52605166617E+02  0.23488822760E+02  0.79662118870E+02  0.41800000000E+01 0.  1.
        -11    1    1    2    0    0 -0.11995665240E+02  0.44068680883E+02  0.35470284060E+02  0.57828069920E+02  0.00000000000E+00 0. -1.
         11    1    1    2    0    0 -0.21409866255E+02 -0.37952797502E+02  0.98085788939E+02  0.10732948897E+03  0.00000000000E+00 0.  1.
</event>
<event>
 7    1  0.6506388E-006  0.9783676E+02  0.7561462E-02  0.1284912E+00
          2   -1    0    0  501    0  0.00000000000E+00  0.00000000000E+00  0.77579072564E+03  0.77579072564E+03  0.00000000000E+00 0. -1.
         -2   -1    0    0    0  501 -0.00000000000E+00 -0.00000000000E+00 -0.22582173097E+02  0.22582173097E+02  0.00000000000E+00 0.  1.
         23    2    1    2    0    0  0.18872597310E+02  0.73688026905E+02  0.42553057897E+03  0.45000900079E+03  0.12508288017E+03 0.  0.
          5    1    3    3  502    0  0.22105369772E+02  0.34053062542E+02  0.40105672666E+03  0.40312805514E+03  0.41800000000E+01 0.  1.
         -5    1    3    3    0  502 -0.32327724623E+01  0.39634964363E+02  0.24473852310E+02  0.46880945647E+02  0.41800000000E+01 0.  1.
        -11    1    1    2    0    0 -0.34147370948E+02 -0.87720514219E+02  0.23018143959E+03  0.24868539702E+03  0.00000000000E+00 0.  1.
         11    1    1    2    0    0  0.15274773638E+02  0.14032487314E+02  0.97496533982E+02  0.99678500934E+02  0.00000000000E+00 0. -1.
</event>
<event>
 7    1  0.6506388E-006  0.7833326E+02  0.7561462E-02  0.1333849E+00
         -3   -1    0    0    0  501 -0.00000000000E+00  0.00000000000E+00  0.76999640200E+02  0.76999640200E+02  0.00000000000E+00 0.  1.
          3   -1    0    0  501    0  0.00000000000E+00 -0.00000000000E+00 -0.16246949245E+03  0.16246949245E+03  0.00000000000E+00 0. -1.
         23    2    1    2    0    0 -0.31480347513E+01  0.16396675824E+02 -0.25214436603E+02  0.12869194718E+03  0.12508832222E+03 0.  0.
          5    1    3    3  502    0 -0.42196371816E+02 -0.25265937133E+02 -0.46302434555E+02  0.67677834033E+02  0.41800000000E+01 0.  1.
         -5    1    3    3    0  502  0.39048337065E+02  0.41662612957E+02  0.21087997952E+02  0.61014113151E+02  0.41800000000E+01 0.  1.
        -11    1    1    2    0    0 -0.17637119998E+02 -0.22313275682E+02  0.15227315093E+02  0.32261763722E+02  0.00000000000E+00 0.  1.
         11    1    1    2    0    0  0.20785154749E+02  0.59165998576E+01 -0.75482730739E+02  0.78515421744E+02  0.00000000000E+00 0. -1.
</event>
<event>
 6    1  0.6506388E-006  0.1061884E+03  0.7561462E-02  0.1267796E+00
         -1   -1    0    0    0  501 -0.00000000000E+00  0.00000000000E+00  0.52109937554E+03  0.52109937554E+03  0.00000000000E+00 0.  1.
          1   -1    0    0  501    0  0.00000000000E+00 -0.00000000000E+00 -0.32199738306E+02  0.32199738306E+02  0.00000000000E+00 0. -1.
          5    1    1    2  502    0  0.69394595294E+02 -0.43666889279E+01  0.82584684066E+02  0.10803879058E+03  0.41800000000E+01 0. -1.
         -5    1    1    2    0  502 -0.28802684544E+02  0.29043387276E+02  0.27931058063E+03  0.28232071449E+03  0.41800000000E+01 0.  1.
        -11    1    1    2    0    0 -0.77015227870E+01  0.33715879940E+02  0.35999355419E+02  0.49920212379E+02  0.00000000000E+00 0.  1.
         11    1    1    2    0    0 -0.32890387964E+02 -0.58392578288E+02  0.91005017124E+02  0.11301939639E+03  0.00000000000E+00 0. -1.
</event>
<event>
 6    1  0.6506388E-006  0.8473764E+02  0.7561462E-02  0.1316120E+00
         -4   -1    0    0    0  501 -0.00000000000E+00  0.00000000000E+00  0.89571687981E+03  0.89571687981E+03  0.00000000000E+00 0.  1.
          4   -1    0    0  501    0  0.00000000000E+00 -0.00000000000E+00 -0.97454130444E+01  0.97454130444E+01  0.00000000000E+00 0. -1.
          5    1    1    2  502    0 -0.60878896775E+02  0.42318670495E+02  0.24282325535E+03  0.25392462599E+03  0.41800000000E+01 0. -1.
         -5    1    1    2    0  502  0.54907473210E+02 -0.38999083702E+02  0.55592823678E+03  0.56000842493E+03  0.41800000000E+01 0.  1.
        -11    1    1    2    0    0  0.11551964185E+01  0.11806594550E+02  0.35749931898E+02  0.37666799497E+02  0.00000000000E+00 0. -1.
         11    1    1    2    0    0  0.48162271465E+01 -0.15126181342E+02  0.51470042729E+02  0.53862442429E+02  0.00000000000E+00 0.  1.
</event>
<event>
 7    1  0.6506388E-006  0.1130246E+03  0.7561462E-02  0.1255069E+00
          1   -1    0    0  501    0  0.00000000000E+00  0.00000000000E+00  0.22878402840E+02  0.22878402840E+02  0.00000000000E+00 0. -1.
         -1   -1    0    0    0  501 -0.00000000000E+00 -0.00000000000E+00 -0.11745806635E+04  0.11745806635E+04  0.00000000000E+00 0.  1.
         23    2    1    2    0    0  0.42316763812E+02  0.74181536878E+02 -0.93345532258E+03  0.94566462358E+03  0.12509649130E+03 0.  0.
          5    1    3    3  502    0 -0.29920102591E+00  0.63021958089E+02 -0.17727647162E+03  0.18819212660E+03  0.41800000000E+01 0. -1.
         -5    1    3    3    0  502  0.42615964838E+02  0.11159578789E+02 -0.75617885096E+03  0.75747249699E+03  0.41800000000E+01 0. -1.
        -11    1    1    2    0    0 -0.51587087011E+02 -0.84732451639E+01 -0.13856606435E+03  0.14809989068E+03  0.00000000000E+00 0.  1.
         11    1    1    2    0    0  0.92703231989E+01 -0.65708291714E+02 -0.79680873750E+02  0.10369455209E+03  0.00000000000E+00 0. -1.
</event>
<event>
 7    1  0.6506388E-006  0.1525558E+03  0.7561462E-02  0.1197367E+00
          1   -1    0    0  501    0  0.00000000000E+00  0.00000000000E+00  0.50039117991E+03  0.50039117991E+03  0.00000000000E+00 0. -1.
         -1   -1    0    0    0  501 -0.00000000000E+00 -0.00000000000E+00 -0.63826354573E+02  0.63826354573E+02  0.00000000000E+00 0.  1.
         23    2    1    2    0    0  0.89256414377E+02  0.10721752204E+03  0.16263942378E+03  0.24811386045E+03  0.12508637432E+03 0.  0.
          5    1    3    3  502    0  0.72407871971E+02  0.51361406200E+02  0.16082824250E+02  0.90316242205E+02  0.41800000000E+01 0. -1.
         -5    1    3    3    0  502  0.16848542406E+02  0.55856115839E+02  0.14655659953E+03  0.15779761825E+03  0.41800000000E+01 0. -1.
        -11    1    1    2    0    0 -0.91656157354E+02 -0.57988052689E+02  0.18969651615E+03  0.21851369219E+03  0.00000000000E+00 0.  1.
         11    1    1    2    0    0  0.23997429776E+01 -0.49229469350E+02  0.84228885399E+02  0.97589981834E+02  0.00000000000E+00 0. -1.
</event>
<event>
 7    1  0.1560842E-005  0.1243626E+03  0.7561462E-02  0.1236069E+00
         -1   -1    0    0    0  501 -0.00000000000E+00  0.00000000000E+00  0.18737854308E+02  0.18737854308E+02  0.00000000000E+00 0.  1.
          1   -1    0    0  501    0  0.00000000000E+00 -0.00000000000E+00 -0.97128017102E+03  0.97128017102E+03  0.00000000000E+00 0. -1.
         23    2    1    2    0    0 -0.46415709598E+02  0.62728944519E+02 -0.51701163299E+03  0.53762234171E+03  0.12508962817E+03 0.  0.
          5    1    3    3  502    0  0.19466387879E+02 -0.28338473389E+02 -0.10721681029E+03  0.11267176283E+03  0.41800000000E+01 0. -1.
         -5    1    3    3    0  502 -0.65882097478E+02  0.91067417907E+02 -0.40979482270E+03  0.42495057888E+03  0.41800000000E+01 0. -1.
        -11    1    1    2    0    0 -0.16762383903E+02 -0.13226917244E+02 -0.20242272278E+02  0.29422413920E+02  0.00000000000E+00 0.  1.
         11    1    1    2    0    0  0.63178093501E+02 -0.49502027275E+02 -0.41528841144E+03  0.42297326970E+03  0.00000000000E+00 0. -1.
</event>
<event>
 7    1  0.6506388E-006  0.8529810E+02  0.7561462E-02  0.1314655E+00
         -1   -1    0    0    0  501 -0.00000000000E+00  0.00000000000E+00  0.13042394201E+02  0.13042394201E+02  0.00000000000E+00 0.  1.
          1   -1    0    0  501    0  0.00000000000E+00 -0.00000000000E+00 -0.11683102861E+04  0.11683102861E+04  0.00000000000E+00 0. -1.
         23    2    1    2    0    0  0.42652984300E+02 -0.42329629376E+02 -0.67708290539E+03  0.69115768825E+03  0.12508642880E+03 0.  0.
          5    1    3    3  502    0 -0.93894404764E+00 -0.14118771204E+02 -0.29891835394E+01  0.15054199895E+02  0.41800000000E+01 0.  1.
         -5    1    3    3    0  502  0.43591928347E+02 -0.28210858172E+02 -0.67409372185E+03  0.67610348836E+03  0.41800000000E+01 0.  1.
        -11    1    1    2    0    0 -0.47430539379E+02  0.65065013270E+02 -0.41794870143E+03  0.42563391435E+03  0.00000000000E+00 0.  1.
         11    1    1    2    0    0  0.47775550790E+01 -0.22735383895E+02 -0.60236285104E+02  0.64561077721E+02  0.00000000000E+00 0. -1.
</event>
<event>
 7    1  0.6506388E-006  0.1239208E+03  0.7561462E-02  0.1236766E+00
          2   -1    0    0  501    0  0.00000000000E+00  0.00000000000E+00  0.13282982201E+03  0.13282982201E+03  0.00000000000E+00 0. -1.
         -2   -1    0    0    0  501 -0.00000000000E+00 -0.00000000000E+00 -0.13461604966E+03  0.13461604966E+03  0.00000000000E+00 0.  1.
         23    2    1    2    0    0  0.74032936168E+02 -0.24191229031E+00 -0.24708196979E+02  0.14744247745E+03  0.12509138659E+03 0.  0.
          5    1    3    3  502    0  0.96314287029E+02  0.23443889450E+02  0.99758091581E+01  0.99714828420E+02  0.41800000000E+01 0.  1.
         -5    1    3    3    0  502 -0.22281350861E+02 -0.23685801740E+02 -0.34684006137E+02  0.47727649030E+02  0.41800000000E+01 0.  1.
        -11    1    1    2    0    0 -0.31496030547E+02 -0.44231714600E+02  0.21629203644E+02  0.58448840595E+02  0.00000000000E+00 0.  1.
         11    1    1    2    0    0 -0.42536905621E+02  0.44473626890E+02  0.12927656834E+01  0.61554553623E+02  0.00000000000E+00 0. -1.
</event>
<event>
 7    1  0.6506388E-006  0.1560456E+03  0.7561462E-02  0.1193235E+00
          1   -1    0    0  501    0  0.00000000000E+00  0.00000000000E+00  0.60093394224E+02  0.60093394224E+02  0.00000000000E+00 0. -1.
         -1   -1    0    0    0  501 -0.00000000000E+00 -0.00000000000E+00 -0.44693293968E+03  0.44693293968E+03  0.00000000000E+00 0.  1.
         23    2    1    2    0    0  0.11813119875E+03 -0.15561877450E+02 -0.28078697673E+03  0.32967583432E+03  0.12509067626E+03 0.  0.
          5    1    3    3  502    0  0.15634823506E+02  0.47824396751E+02 -0.63005989646E+02  0.80739381729E+02  0.41800000000E+01 0. -1.
         -5    1    3    3    0  502  0.10249637525E+03 -0.63386274201E+02 -0.21778098708E+03  0.24893645259E+03  0.41800000000E+01 0. -1.
        -11    1    1    2    0    0 -0.34301740366E+02  0.40959004487E+02 -0.51216889576E+02  0.74009588693E+02  0.00000000000E+00 0.  1.
         11    1    1    2    0    0 -0.83829458386E+02 -0.25397127037E+02 -0.54835679152E+02  0.10334091089E+03  0.00000000000E+00 0. -1.
</event>
<event>
 7    1  0.6506388E-006  0.1259911E+03  0.7561462E-02  0.1233528E+00
         -1   -1    0    0    0  501 -0.00000000000E+00  0.00000000000E+00  0.82138331315E+03  0.82138331315E+03  0.00000000000E+00 0.  1.
          1   -1    0    0  501    0  0.00000000000E+00 -0.00000000000E+00 -0.36707308834E+02  0.36707308834E+02  0.00000000000E+00 0. -1.
         23    2    1    2    0    0 -0.90032089988E+02 -0.24173707881E+02  0.59813823089E+03  0.61703671026E+03  0.11947724961E+03 0.  0.
          5    1    3    3  502    0 -0.92953219265E+01  0.89656766025E+01  0.40302387882E+03  0.40325240937E+03  0.41800000000E+01 0. -1.
         -5    1    3    3    0  502 -0.80736768062E+02 -0.33139384483E+02  0.19511435208E+03  0.21378430089E+03  0.41800000000E+01 0.  1.
        -11    1    1    2    0    0  0.22690816917E+02  0.67330436358E+02  0.70263216868E+02  0.99925874913E+02  0.00000000000E+00 0.  1.
         11    1    1    2    0    0  0.67341273072E+02 -0.43156728478E+02  0.11627455656E+03  0.14112803681E+03  0.00000000000E+00 0. -1.
</event>
<event>
 7    1  0.6506388E-006  0.8436021E+02  0.7561462E-02  0.1317114E+00
         -2   -1    0    0    0  501 -0.00000000000E+00  0.00000000000E+00  0.72225678391E+02  0.72225678391E+02  0.00000000000E+00 0.  1.
          2   -1    0    0  501    0  0.00000000000E+00 -0.00000000000E+00 -0.16330407842E+03  0.16330407842E+03  0.00000000000E+00 0. -1.
         23    2    1    2    0    0 -0.87638673399E+01 -0.92466196005E-01 -0.56058143608E+02  0.13735499007E+03  0.12508822451E+03 0.  0.
          5    1    3    3  502    0 -0.63330583513E+02 -0.13027557270E+02 -0.47803574698E+02  0.80517912358E+02  0.41800000000E+01 0. -1.
         -5    1    3    3    0  502  0.54566716173E+02  0.12935091074E+02 -0.82545689101E+01  0.56837077713E+02  0.41800000000E+01 0. -1.
        -11    1    1    2    0    0 -0.94522572438E+01 -0.19052218735E+02  0.24863779182E+02  0.32719103303E+02  0.00000000000E+00 0.  1.
         11    1    1    2    0    0  0.18216124584E+02  0.19144684931E+02 -0.59884035607E+02  0.65455663441E+02  0.00000000000E+00 0. -1.
</event>
<event>
 7    1  0.6506388E-006  0.9729725E+02  0.7561462E-02  0.1286084E+00
          2   -1    0    0  501    0  0.00000000000E+00  0.00000000000E+00  0.13282193725E+03  0.13282193725E+03  0.00000000000E+00 0. -1.
         -2   -1    0    0    0  501 -0.00000000000E+00 -0.00000000000E+00 -0.11050048335E+03  0.11050048335E+03  0.00000000000E+00 0.  1.
         23    2    1    2    0    0  0.48935320003E+02 -0.22485649842E+02  0.54969865451E+01  0.13630092538E+03  0.12508978937E+03 0.  0.
          5    1    3    3  502    0 -0.30730176631E+02 -0.41598010276E+02 -0.99358306254E+01  0.52829265988E+02  0.41800000000E+01 0. -1.
         -5    1    3    3    0  502  0.79665496634E+02  0.19112360433E+02  0.15432817170E+02  0.83471659389E+02  0.41800000000E+01 0. -1.
        -11    1    1    2    0    0 -0.12515998884E+02 -0.65241053694E+01  0.48628271800E+02  0.50635195242E+02  0.00000000000E+00 0. -1.
         11    1    1    2    0    0 -0.36419321119E+02  0.29009755212E+02 -0.31803804451E+02  0.56386299983E+02  0.00000000000E+00 0.  1.
</event>
<event>
 7    1  0.6506388E-006  0.1350947E+03  0.7561462E-02  0.1220086E+00
          1   -1    0    0  501    0  0.00000000000E+00  0.00000000000E+00  0.87742942336E+02  0.87742942336E+02  0.00000000000E+00 0. -1.
         -1   -1    0    0    0  501 -0.00000000000E+00 -0.00000000000E+00 -0.35704762360E+03  0.35704762360E+03  0.00000000000E+00 0.  1.
         23    2    1    2    0    0 -0.99956783387E+02  0.46046251743E+02 -0.25204778238E+03  0.30213764268E+03  0.12508978647E+03 0.  0.
          5    1    3    3  502    0 -0.77023970699E+02  0.77263819046E-01 -0.23579906334E+03  0.24809548304E+03  0.41800000000E+01 0. -1.
         -5    1    3    3    0  502 -0.22932812687E+02  0.45968987923E+02 -0.16248719036E+02  0.54042159642E+02  0.41800000000E+01 0. -1.
        -11    1    1    2    0    0  0.71806123186E+02 -0.73099342924E+02 -0.10156171265E+02  0.10296980663E+03  0.00000000000E+00 0. -1.
         11    1    1    2    0    0  0.28150660200E+02  0.27053091182E+02 -0.71007276226E+01  0.39683116624E+02  0.00000000000E+00 0.  1.
</event>
<event>
 7    1  0.6506388E-006  0.1150351E+03  0.7561462E-02  0.1251520E+00
          4   -1    0    0  501    0  0.00000000000E+00  0.00000000000E+00  0.83949975693E+03  0.83949975693E+03  0.00000000000E+00 0. -1.
         -4   -1    0    0    0  501 -0.00000000000E+00 -0.00000000000E+00 -0.24663982073E+02  0.24663982073E+02  0.00000000000E+00 0.  1.
         23    2    1    2    0    0 -0.62030144660E+02  0.50304768781E+02  0.29043030979E+03  0.32615345257E+03  0.12509197084E+03 0.  0.
          5    1    3    3  502    0 -0.78813758589E+02  0.32993464757E+02  0.89750470818E+02  0.12398708268E+03  0.41800000000E+01 0.  1.
         -5    1    3    3    0  502  0.16783613930E+02  0.17311304024E+02  0.20067983897E+03  0.20216636989E+03  0.41800000000E+01 0.  1.
        -11    1    1    2    0    0 -0.20598974872E+02  0.42616852875E+01  0.81510683067E+02  0.84181180684E+02  0.00000000000E+00 0.  1.
         11    1    1    2    0    0  0.82629119531E+02 -0.54566454068E+02  0.44289478200E+03  0.45382910575E+03  0.00000000000E+00 0. -1.
</event>
<event>
 7    1  0.6506388E-006  0.2245407E+03  0.7561462E-02  0.1130542E+00
         -2   -1    0    0    0  501 -0.00000000000E+00  0.00000000000E+00  0.50128073190E+02  0.50128073190E+02  0.00000000000E+00 0.  1.
          2   -1    0    0  501    0  0.00000000000E+00 -0.00000000000E+00 -0.11322012677E+04  0.11322012677E+04  0.00000000000E+00 0. -1.
         23    2    1    2    0    0 -0.53447359437E+02  0.19803807730E+03 -0.50721527638E+03  0.56123969312E+03  0.12508779419E+03 0.  0.
          5    1    3    3  502    0 -0.72170055354E+02  0.18728647122E+03 -0.49881726239E+03  0.53769961210E+03  0.41800000000E+01 0.  1.
         -5    1    3    3    0  502  0.18722695917E+02  0.10751606077E+02 -0.83980139831E+01  0.23540081021E+02  0.41800000000E+01 0.  1.
        -11    1    1    2    0    0  0.77089770916E+02 -0.18231335634E+03 -0.42859387189E+03  0.47209501131E+03  0.00000000000E+00 0.  1.
         11    1    1    2    0    0 -0.23642411479E+02 -0.15724720962E+02 -0.14626404622E+03  0.14899463643E+03  0.00000000000E+00 0. -1.
</event>
<event>
 7    1  0.6506388E-006  0.1316021E+03  0.7561462E-02  0.1225098E+00
         -2   -1    0    0    0  501 -0.00000000000E+00  0.00000000000E+00  0.74759662064E+02  0.74759662064E+02  0.00000000000E+00 0.  1.
          2   -1    0    0  501    0  0.00000000000E+00 -0.00000000000E+00 -0.33491753297E+03  0.33491753297E+03  0.00000000000E+00 0. -1.
         23    2    1    2    0    0  0.40614685588E+02  0.74840311129E+02 -0.37337896948E+02  0.15585699937E+03  0.12508661339E+03 0.  0.
          5    1    3    3  502    0  0.12276988574E+02 -0.34481866194E+02 -0.12620276690E-01  0.36840142561E+02  0.41800000000E+01 0.  1.
         -5    1    3    3    0  502  0.28337697014E+02  0.10932217732E+03 -0.37325276672E+02  0.11901685681E+03  0.41800000000E+01 0.  1.
        -11    1    1    2    0    0 -0.61371417828E+02 -0.41527043838E+02 -0.97284096095E+02  0.12229121657E+03  0.00000000000E+00 0.  1.
         11    1    1    2    0    0  0.20756732240E+02 -0.33313267292E+02 -0.12553587786E+03  0.13152897909E+03  0.00000000000E+00 0. -1.
</event>
<event>
 7    1  0.6506388E-006  0.1094916E+03  0.7561462E-02  0.1261514E+00
         -2   -1    0    0    0  501 -0.00000000000E+00  0.00000000000E+00  0.18279825589E+03  0.18279825589E+03  0.00000000000E+00 0.  1.
          2   -1    0    0  501    0  0.00000000000E+00 -0.00000000000E+00 -0.12634883951E+03  0.12634883951E+03  0.00000000000E+00 0. -1.
         23    2    1    2    0    0 -0.15641508927E+01 -0.10543906103E+03  0.18763700666E+02  0.16467842292E+03  0.12508822627E+03 0.  0.
          5    1    3    3  502    0  0.17558166483E+02 -0.29696420146E+02  0.65071250839E+02  0.73769279958E+02  0.41800000000E+01 0. -1.
         -5    1    3    3    0  502 -0.19122317375E+02 -0.75742640888E+02 -0.46307550173E+02  0.90909142959E+02  0.41800000000E+01 0. -1.
        -11    1    1    2    0    0 -0.29987294119E+01  0.85258495550E+02  0.67078358728E+02  0.10852423532E+03  0.00000000000E+00 0.  1.
         11    1    1    2    0    0  0.45628803047E+01  0.20180565485E+02 -0.29392643017E+02  0.35944437170E+02  0.00000000000E+00 0. -1.
</event>
<event>
 7    1  0.6506388E-006  0.1462736E+03  0.7561462E-02  0.1205128E+00
         -3   -1    0    0    0  501 -0.00000000000E+00  0.00000000000E+00  0.40393141115E+03  0.40393141115E+03  0.00000000000E+00 0.  1.
          3   -1    0    0  501    0  0.00000000000E+00 -0.00000000000E+00 -0.65000868246E+02  0.65000868246E+02  0.00000000000E+00 0. -1.
         23    2    1    2    0    0 -0.11634240793E+03  0.23190475926E+02  0.19485227231E+03  0.26017062403E+03  0.12509193232E+03 0.  0.
          5    1    3    3  502    0  0.24411165250E+02  0.18435060157E+02  0.26933447949E+02  0.40971202695E+02  0.41800000000E+01 0.  1.
         -5    1    3    3    0  502 -0.14075357318E+03  0.47554157691E+01  0.16791882436E+03  0.21919942134E+03  0.41800000000E+01 0.  1.
        -11    1    1    2    0    0  0.66299111241E+02 -0.17178054148E+01  0.13907205352E+03  0.15407647153E+03  0.00000000000E+00 0.  1.
         11    1    1    2    0    0  0.50043296688E+02 -0.21472670511E+02  0.50062170791E+01  0.54685183841E+02  0.00000000000E+00 0. -1.
</event>
<event>
 7    1  0.6506388E-006  0.2066809E+03  0.7561462E-02  0.1144222E+00
          1   -1    0    0  501    0  0.00000000000E+00  0.00000000000E+00  0.53877186142E+03  0.53877186142E+03  0.00000000000E+00 0. -1.
         -1   -1    0    0    0  501 -0.00000000000E+00 -0.00000000000E+00 -0.10580719695E+03  0.10580719695E+03  0.00000000000E+00 0.  1.
         23    2    1    2    0    0 -0.12806172054E+03  0.15924222263E+03  0.30658068506E+03  0.38909732792E+03  0.12508846632E+03 0.  0.
          5    1    3    3  502    0 -0.78052979725E+02  0.12677497823E+03  0.29167050732E+03  0.32749552667E+03  0.41800000000E+01 0.  1.
         -5    1    3    3    0  502 -0.50008740816E+02  0.32467244399E+02  0.14910177741E+02  0.61601801249E+02  0.41800000000E+01 0.  1.
        -11    1    1    2    0    0  0.36923803308E+02 -0.38056317343E+02 -0.70601064316E+01  0.53492949473E+02  0.00000000000E+00 0.  1.
         11    1    1    2    0    0  0.91137917232E+02 -0.12118590528E+03  0.13344408584E+03  0.20198878098E+03  0.00000000000E+00 0. -1.
</event>
<event>
 7    1  0.6506388E-006  0.2967536E+03  0.7561462E-02  0.1086875E+00
          2   -1    0    0  501    0  0.00000000000E+00  0.00000000000E+00  0.14723603050E+04  0.14723603050E+04  0.00000000000E+00 0. -1.
         -2   -1    0    0    0  501 -0.00000000000E+00 -0.00000000000E+00 -0.67490900323E+02  0.67490900323E+02  0.00000000000E+00 0.  1.
         23    2    1    2    0    0 -0.27511709038E+03  0.53520984514E+02  0.48504260562E+03  0.57399281411E+03  0.12509001631E+03 0.  0.
          5    1    3    3  502    0  0.82582883378E+01  0.72803371543E+01  0.18589019778E+01  0.11921851866E+02  0.41800000000E+01 0.  1.
         -5    1    3    3    0  502 -0.28337537872E+03  0.46240647359E+02  0.48318370364E+03  0.56207096224E+03  0.41800000000E+01 0.  1.
        -11    1    1    2    0    0  0.18942375869E+03  0.71856299807E+01  0.59976448811E+03  0.62900749982E+03  0.00000000000E+00 0.  1.
         11    1    1    2    0    0  0.85693331695E+02 -0.60706614494E+02  0.32006231090E+03  0.33685089135E+03  0.00000000000E+00 0. -1.
</event>
<event>
 7    1  0.6506388E-006  0.1087521E+03  0.7561462E-02  0.1262898E+00
         -2   -1    0    0    0  501 -0.00000000000E+00  0.00000000000E+00  0.23621962451E+03  0.23621962451E+03  0.00000000000E+00 0.  1.
          2   -1    0    0  501    0  0.00000000000E+00 -0.00000000000E+00 -0.81774416319E+02  0.81774416319E+02  0.00000000000E+00 0. -1.
         23    2    1    2    0    0  0.43405745604E+02 -0.60129461159E+02  0.13823643942E+03  0.20064057756E+03  0.12509083630E+03 0.  0.
          5    1    3    3  502    0  0.11854115855E+02 -0.75216498396E+02  0.14586956487E+03  0.16460086285E+03  0.41800000000E+01 0.  1.
         -5    1    3    3    0  502  0.31551629749E+02  0.15087037237E+02 -0.76331254475E+01  0.36039714712E+02  0.41800000000E+01 0.  1.
        -11    1    1    2    0    0 -0.62973509892E+02  0.29178575329E+02 -0.12877491784E+02  0.70589531809E+02  0.00000000000E+00 0. -1.
         11    1    1    2    0    0  0.19567764288E+02  0.30950885830E+02  0.29086260550E+02  0.46763931461E+02  0.00000000000E+00 0.  1.
</event>
<event>
 7    1  0.6506388E-006  0.9379760E+02  0.7561462E-02  0.1293907E+00
         -3   -1    0    0    0  501 -0.00000000000E+00  0.00000000000E+00  0.48634188884E+02  0.48634188884E+02  0.00000000000E+00 0.  1.
          3   -1    0    0  501    0  0.00000000000E+00 -0.00000000000E+00 -0.26828314065E+03  0.26828314065E+03  0.00000000000E+00 0. -1.
         23    2    1    2    0    0  0.24990315645E+02 -0.14441248425E+02 -0.77079724881E+02  0.14477340960E+03  0.11910075821E+03 0.  0.
          5    1    3    3  502    0  0.42111539818E+02  0.25262353362E+02 -0.87205829533E+02  0.10016934355E+03  0.41800000000E+01 0. -1.
         -5    1    3    3    0  502 -0.17121224174E+02 -0.39703601787E+02  0.10126104652E+02  0.44604066043E+02  0.41800000000E+01 0.  1.
        -11    1    1    2    0    0 -0.59252874970E+02  0.12472748533E+02 -0.75298457443E+02  0.96624688053E+02  0.00000000000E+00 0.  1.
         11    1    1    2    0    0  0.34262559325E+02  0.19684998920E+01 -0.67270769447E+02  0.75519231890E+02  0.00000000000E+00 0. -1.
</event>
<event>
 7    1  0.6506388E-006  0.9824323E+02  0.7561462E-02  0.1284034E+00
         -1   -1    0    0    0  501 -0.00000000000E+00  0.00000000000E+00  0.11432525576E+03  0.11432525576E+03  0.00000000000E+00 0.  1.
          1   -1    0    0  501    0  0.00000000000E+00 -0.00000000000E+00 -0.12705682682E+03  0.12705682682E+03  0.00000000000E+00 0. -1.
         23    2    1    2    0    0  0.11394979386E+02  0.23856368453E+02  0.36954253908E+02  0.13306379088E+03  0.12506551759E+03 0.  0.
          5    1    3    3  502    0  0.62980806969E+02  0.33205963362E+02  0.49364270057E+01  0.71491669171E+02  0.41800000000E+01 0. -1.
         -5    1    3    3    0  502 -0.51585827583E+02 -0.93495949090E+01  0.32017826903E+02  0.61572121711E+02  0.41800000000E+01 0. -1.
        -11    1    1    2    0    0 -0.39924874405E+02 -0.12128666319E+02  0.83874897399E+01  0.42561133996E+02  0.00000000000E+00 0.  1.
         11    1    1    2    0    0  0.28529895019E+02 -0.11727702134E+02 -0.58073314706E+02  0.65757157695E+02  0.00000000000E+00 0. -1.
</event>
<event>
 7    1  0.6506388E-006  0.1612074E+03  0.7561462E-02  0.1187340E+00
          1   -1    0    0  501    0  0.00000000000E+00  0.00000000000E+00  0.22496284737E+03  0.22496284737E+03  0.00000000000E+00 0. -1.
         -1   -1    0    0    0  501 -0.00000000000E+00 -0.00000000000E+00 -0.27096598958E+03  0.27096598958E+03  0.00000000000E+00 0.  1.
         23    2    1    2    0    0 -0.74292519518E+02 -0.10400218615E+03 -0.20657730555E+03  0.27324094300E+03  0.12510234443E+03 0.  0.
          5    1    3    3  502    0 -0.96741228456E+02 -0.47962761250E+02 -0.17316890991E+03  0.20411819005E+03  0.41800000000E+01 0.  1.
         -5    1    3    3    0  502  0.22448708938E+02 -0.56039424896E+02 -0.33408395637E+02  0.69122752945E+02  0.41800000000E+01 0.  1.
        -11    1    1    2    0    0  0.86245578499E+02  0.52492360637E+02  0.11329971906E+03  0.15175827514E+03  0.00000000000E+00 0. -1.
         11    1    1    2    0    0 -0.11953058981E+02  0.51509825509E+02  0.47274444281E+02  0.70929618814E+02  0.00000000000E+00 0.  1.
</event>
<event>
 7    1  0.6506388E-006  0.6066203E+02  0.7561462E-02  0.1395074E+00
         -1   -1    0    0    0  501 -0.00000000000E+00  0.00000000000E+00  0.10453998759E+03  0.10453998759E+03  0.00000000000E+00 0.  1.
          1   -1    0    0  501    0  0.00000000000E+00 -0.00000000000E+00 -0.11365197757E+03  0.11365197757E+03  0.00000000000E+00 0. -1.
         23    2    1    2    0    0 -0.18111422990E+01 -0.13823357276E+02  0.46728401210E+01  0.12594858637E+03  0.12508735161E+03 0.  0.
          5    1    3    3  502    0  0.16685383796E+02  0.51777725846E+01 -0.56423934900E+02  0.59214391755E+02  0.41800000000E+01 0. -1.
         -5    1    3    3    0  502 -0.18496526095E+02 -0.19001129861E+02  0.61096775021E+02  0.66734194619E+02  0.41800000000E+01 0. -1.
        -11    1    1    2    0    0  0.67738422819E+01 -0.30841322438E+02 -0.30876209543E+02  0.44163473875E+02  0.00000000000E+00 0.  1.
         11    1    1    2    0    0 -0.49626999828E+01  0.44664679714E+02  0.17091379438E+02  0.48079904910E+02  0.00000000000E+00 0. -1.
</event>
<event>
 7    1  0.6506388E-006  0.1059022E+03  0.7561462E-02  0.1268352E+00
         -2   -1    0    0    0  501 -0.00000000000E+00  0.00000000000E+00  0.92893947406E+02  0.92893947406E+02  0.00000000000E+00 0.  1.
          2   -1    0    0  501    0  0.00000000000E+00 -0.00000000000E+00 -0.17759369225E+03  0.17759369225E+03  0.00000000000E+00 0. -1.
         23    2    1    2    0    0 -0.54041510484E+02  0.30829591266E+02 -0.14688508402E+02  0.14047870811E+03  0.12509023383E+03 0.  0.
          5    1    3    3  502    0  0.36548834386E+02  0.32104557768E+02 -0.86107025151E+01  0.49579597843E+02  0.41800000000E+01 0. -1.
         -5    1    3    3    0  502 -0.90590344870E+02 -0.12749665012E+01 -0.60778058868E+01  0.90899110269E+02  0.41800000000E+01 0. -1.
        -11    1    1    2    0    0  0.40002627291E+02 -0.39142321462E+02  0.21674983368E+01  0.56009191823E+02  0.00000000000E+00 0.  1.
         11    1    1    2    0    0  0.14038883193E+02  0.83127301959E+01 -0.72178734781E+02  0.73999739724E+02  0.00000000000E+00 0. -1.
</event>
<event>
 7    1  0.6506388E-006  0.1018376E+03  0.7561462E-02  0.1276478E+00
          2   -1    0    0  501    0  0.00000000000E+00  0.00000000000E+00  0.27872706619E+03  0.27872706619E+03  0.00000000000E+00 0.  1.
         -2   -1    0    0    0  501 -0.00000000000E+00 -0.00000000000E+00 -0.46999358691E+02  0.46999358691E+02  0.00000000000E+00 0. -1.
         23    2    1    2    0    0  0.19403340425E+02 -0.17433345341E+02  0.93704892148E+02  0.15845888777E+03  0.12509277018E+03 0.  0.
          5    1    3    3  502    0 -0.99488333019E+01 -0.63326837884E+02  0.21148761448E+02  0.67631429019E+02  0.41800000000E+01 0.  1.
         -5    1    3    3    0  502  0.29352173726E+02  0.45893492542E+02  0.72556130700E+02  0.90827458747E+02  0.41800000000E+01 0.  1.
        -11    1    1    2    0    0  0.30359269538E+02  0.17487309471E+02  0.95801080227E+02  0.10200655965E+03  0.00000000000E+00 0.  1.
         11    1    1    2    0    0 -0.49762609963E+02 -0.53964130010E-01  0.42221735124E+02  0.65260977462E+02  0.00000000000E+00 0. -1.
</event>
<event>
 7    1  0.6506388E-006  0.1258867E+03  0.7561462E-02  0.1233690E+00
         -4   -1    0    0    0  501 -0.00000000000E+00  0.00000000000E+00  0.17855618421E+03  0.17855618421E+03  0.00000000000E+00 0.  1.
          4   -1    0    0  501    0  0.00000000000E+00 -0.00000000000E+00 -0.11675533974E+03  0.11675533974E+03  0.00000000000E+00 0. -1.
         23    2    1    2    0    0 -0.85119154545E+02  0.29618436244E+02  0.39980166391E+02  0.15927446712E+03  0.12508964760E+03 0.  0.
          5    1    3    3  502    0  0.83572607159E+01  0.34583217996E+02 -0.26350991635E+02  0.44471225908E+02  0.41800000000E+01 0.  1.
         -5    1    3    3    0  502 -0.93476415261E+02 -0.49647817514E+01  0.66331158026E+02  0.11480324121E+03  0.41800000000E+01 0.  1.
        -11    1    1    2    0    0  0.15953072893E+02  0.28000956083E+02  0.32031960958E+02  0.45437876260E+02  0.00000000000E+00 0.  1.
         11    1    1    2    0    0  0.69166081652E+02 -0.57619392327E+02 -0.10211282879E+02  0.90599180577E+02  0.00000000000E+00 0. -1.
</event>
<event>
 7    1  0.6506388E-006  0.1166812E+03  0.7561462E-02  0.1248675E+00
          1   -1    0    0  501    0  0.00000000000E+00  0.00000000000E+00  0.13759606293E+03  0.13759606293E+03  0.00000000000E+00 0. -1.
         -1   -1    0    0    0  501 -0.00000000000E+00 -0.00000000000E+00 -0.18250839193E+03  0.18250839193E+03  0.00000000000E+00 0.  1.
         23    2    1    2    0    0 -0.10248487990E+03 -0.42969029764E+02 -0.52439418926E+02  0.17535073198E+03  0.12509395838E+03 0.  0.
          5    1    3    3  502    0 -0.25691964938E+02 -0.36563167182E+02  0.36317249086E+02  0.57735233939E+02  0.41800000000E+01 0.  1.
         -5    1    3    3    0  502 -0.76792914958E+02 -0.64058625818E+01 -0.88756668012E+02  0.11761549804E+03  0.41800000000E+01 0.  1.
        -11    1    1    2    0    0  0.50549035077E+02  0.24614145410E+02  0.49966004159E+02  0.75217435965E+02  0.00000000000E+00 0. -1.
         11    1    1    2    0    0  0.51935844820E+02  0.18354884354E+02 -0.42438914237E+02  0.69536286919E+02  0.00000000000E+00 0.  1.
</event>
<event>
 7    1  0.6506388E-006  0.2781371E+03  0.7561462E-02  0.1096711E+00
          2   -1    0    0  501    0  0.00000000000E+00  0.00000000000E+00  0.77411847248E+02  0.77411847248E+02  0.00000000000E+00 0.  1.
         -2   -1    0    0    0  501 -0.00000000000E+00 -0.00000000000E+00 -0.10960438947E+04  0.10960438947E+04  0.00000000000E+00 0. -1.
         23    2    1    2    0    0 -0.14887977375E+03  0.22471700206E+03 -0.53841808004E+03  0.61498114039E+03  0.12507939911E+03 0.  0.
          5    1    3    3  502    0 -0.10169244147E+03  0.74110708021E+02 -0.33225422935E+03  0.35530845053E+03  0.41800000000E+01 0.  1.
         -5    1    3    3    0  502 -0.47187332286E+02  0.15060629404E+03 -0.20616385068E+03  0.25967268987E+03  0.41800000000E+01 0.  1.
        -11    1    1    2    0    0  0.13833766074E+03 -0.18265721786E+03 -0.32730587764E+03  0.39953736390E+03  0.00000000000E+00 0.  1.
         11    1    1    2    0    0  0.10542113014E+02 -0.42059784207E+02 -0.15290808979E+03  0.15893723767E+03  0.00000000000E+00 0. -1.
</event>
<event>
 7    1  0.6506388E-006  0.1085054E+03  0.7561462E-02  0.1263363E+00
          2   -1    0    0  501    0  0.00000000000E+00  0.00000000000E+00  0.68206100987E+03  0.68206100987E+03  0.00000000000E+00 0. -1.
         -2   -1    0    0    0  501 -0.00000000000E+00 -0.00000000000E+00 -0.25096046990E+02  0.25096046990E+02  0.00000000000E+00 0.  1.
         23    2    1    2    0    0 -0.15384844571E+02  0.72613752109E+02  0.33610272151E+03  0.36623243281E+03  0.12510677440E+03 0.  0.
          5    1    3    3  502    0 -0.65855447700E+02  0.51542222694E+02  0.25439457342E+03  0.26782011145E+03  0.41800000000E+01 0. -1.
         -5    1    3    3    0  502  0.50470603129E+02  0.21071529415E+02  0.81708148087E+02  0.98412321362E+02  0.41800000000E+01 0. -1.
        -11    1    1    2    0    0  0.12707160605E+02 -0.11152308954E+02  0.30090444191E+01  0.17172660655E+02  0.00000000000E+00 0.  1.
         11    1    1    2    0    0  0.26776839657E+01 -0.61461443155E+02  0.31785319695E+03  0.32375196339E+03  0.00000000000E+00 0. -1.
</event>
<event>
 7    1  0.6506388E-006  0.1114339E+03  0.7561462E-02  0.1257937E+00
          1   -1    0    0  501    0  0.00000000000E+00  0.00000000000E+00  0.12757743676E+03  0.12757743676E+03  0.00000000000E+00 0. -1.
         -1   -1    0    0    0  501 -0.00000000000E+00 -0.00000000000E+00 -0.12187208101E+03  0.12187208101E+03  0.00000000000E+00 0.  1.
         23    2    1    2    0    0 -0.14549547772E+02  0.58591812082E+02 -0.26802204253E+01  0.13891859371E+03  0.12508597968E+03 0.  0.
          5    1    3    3  502    0 -0.45773326579E+02  0.83232318511E+02  0.12990397588E+02  0.95963738465E+02  0.41800000000E+01 0.  1.
         -5    1    3    3    0  502  0.31223778807E+02 -0.24640506429E+02 -0.15670618013E+02  0.42954855243E+02  0.41800000000E+01 0.  1.
        -11    1    1    2    0    0  0.36306269048E+02 -0.15412731324E+02 -0.29377634239E+02  0.49180716267E+02  0.00000000000E+00 0.  1.
         11    1    1    2    0    0 -0.21756721276E+02 -0.43179080758E+02  0.37763210419E+02  0.61350207798E+02  0.00000000000E+00 0. -1.
</event>
<event>
 7    1  0.6506388E-006  0.1013326E+03  0.7561462E-02  0.1277518E+00
          2   -1    0    0  501    0  0.00000000000E+00  0.00000000000E+00  0.88132293805E+02  0.88132293805E+02  0.00000000000E+00 0. -1.
         -2   -1    0    0    0  501 -0.00000000000E+00 -0.00000000000E+00 -0.21857609421E+03  0.21857609421E+03  0.00000000000E+00 0.  1.
         23    2    1    2    0    0  0.52343473306E+02  0.64281298137E+02 -0.10100289369E+03  0.18089119038E+03  0.12509242078E+03 0.  0.
          5    1    3    3  502    0  0.50452601767E+02  0.57745046030E+02 -0.12990487632E+03  0.15090627773E+03  0.41800000000E+01 0. -1.
         -5    1    3    3    0  502  0.18908715385E+01  0.65362521064E+01  0.28901982632E+02  0.29984912654E+02  0.41800000000E+01 0. -1.
        -11    1    1    2    0    0 -0.74422283596E+02 -0.38007255129E+02 -0.35804554707E+02  0.90913111683E+02  0.00000000000E+00 0. -1.
         11    1    1    2    0    0  0.22078810290E+02 -0.26274043007E+02  0.63636479956E+01  0.34904085944E+02  0.00000000000E+00 0.  1.
</event>
<event>
 7    1  0.6506388E-006  0.1223141E+03  0.7561462E-02  0.1239328E+00
          2   -1    0    0  501    0  0.00000000000E+00  0.00000000000E+00  0.57749026916E+03  0.57749026916E+03  0.00000000000E+00 0. -1.
         -2   -1    0    0    0  501 -0.00000000000E+00 -0.00000000000E+00 -0.40760831040E+02  0.40760831040E+02  0.00000000000E+00 0.  1.
         23    2    1    2    0    0 -0.10348459922E+03 -0.61496972866E+01  0.22737950983E+03  0.27945548953E+03  0.12508816126E+03 0.  0.
          5    1    3    3  502    0 -0.66391419009E+02  0.27234748454E+02  0.33669230927E+02  0.79376580630E+02  0.41800000000E+01 0. -1.
         -5    1    3    3    0  502 -0.37093180208E+02 -0.33384445740E+02  0.19371027890E+03  0.20007890890E+03  0.41800000000E+01 0. -1.
        -11    1    1    2    0    0  0.52050736365E+02  0.35917352178E+02  0.80578152403E+02  0.10243131351E+03  0.00000000000E+00 0.  1.
         11    1    1    2    0    0  0.51433862852E+02 -0.29767654892E+02  0.22877177589E+03  0.23636429716E+03  0.00000000000E+00 0. -1.
</event>
<event>
 7    1  0.6506388E-006  0.1544294E+03  0.7561462E-02  0.1195133E+00
         -1   -1    0    0    0  501 -0.00000000000E+00  0.00000000000E+00  0.43412251530E+03  0.43412251530E+03  0.00000000000E+00 0.  1.
          1   -1    0    0  501    0  0.00000000000E+00 -0.00000000000E+00 -0.62885111272E+02  0.62885111272E+02  0.00000000000E+00 0. -1.
         23    2    1    2    0    0  0.83192202872E+02 -0.91796169614E+02  0.20538434198E+03  0.27051270974E+03  0.12508764457E+03 0.  0.
          5    1    3    3  502    0 -0.24014301717E+02 -0.29316577320E+02  0.10219046664E+03  0.10907113397E+03  0.41800000000E+01 0. -1.
         -5    1    3    3    0  502  0.10720650459E+03 -0.62479592293E+02  0.10319387534E+03  0.16144157577E+03  0.41800000000E+01 0. -1.
        -11    1    1    2    0    0 -0.37270002989E+02  0.93468496569E+02  0.77878242514E+02  0.12724163482E+03  0.00000000000E+00 0. -1.
         11    1    1    2    0    0 -0.45922199883E+02 -0.16723269555E+01  0.87974819534E+02  0.99253282019E+02  0.00000000000E+00 0.  1.
</event>
<event>
 7    1  0.6506388E-006  0.2394904E+03  0.7561462E-02  0.1120133E+00
          2   -1    0    0  501    0  0.00000000000E+00  0.00000000000E+00  0.38333749629E+03  0.38333749629E+03  0.00000000000E+00 0. -1.
         -2   -1    0    0    0  501 -0.00000000000E+00 -0.00000000000E+00 -0.16707362153E+03  0.16707362153E+03  0.00000000000E+00 0.  1.
         23    2    1    2    0    0  0.19452434973E+02 -0.22522540472E+03  0.14461059389E+03  0.29608284523E+03  0.12509175517E+03 0.  0.
          5    1    3    3  502    0 -0.22421025474E+01 -0.22874547312E+03  0.14933432677E+03  0.27321737143E+03  0.41800000000E+01 0. -1.
         -5    1    3    3    0  502  0.21694537520E+02  0.35200683964E+01 -0.47237328780E+01  0.22865473798E+02  0.41800000000E+01 0. -1.
        -11    1    1    2    0    0  0.18789338624E+01  0.13818192995E+03  0.87149345301E+02  0.16337926595E+03  0.00000000000E+00 0.  1.
         11    1    1    2    0    0 -0.21331368835E+02  0.87043474777E+02 -0.15496064437E+02  0.90949006650E+02  0.00000000000E+00 0. -1.
</event>
<event>
 7    1  0.6506388E-006  0.9960806E+02  0.7561462E-02  0.1281122E+00
          2   -1    0    0  501    0  0.00000000000E+00  0.00000000000E+00  0.39151044193E+03  0.39151044193E+03  0.00000000000E+00 0. -1.
         -2   -1    0    0    0  501 -0.00000000000E+00 -0.00000000000E+00 -0.36272046246E+02  0.36272046246E+02  0.00000000000E+00 0.  1.
         23    2    1    2    0    0  0.94632238573E+01  0.88313098169E+01  0.11172176867E+03  0.16821811988E+03  0.12509211655E+03 0.  0.
          5    1    3    3  502    0 -0.52444337345E+02  0.61937494513E+01  0.85981960854E+02  0.10099079683E+03  0.41800000000E+01 0.  1.
         -5    1    3    3    0  502  0.61907561202E+02  0.26375603656E+01  0.25739807814E+02  0.67227323053E+02  0.41800000000E+01 0.  1.
        -11    1    1    2    0    0 -0.44524604651E+02  0.80129504466E+01  0.17523558837E+03  0.18098110184E+03  0.00000000000E+00 0. -1.
         11    1    1    2    0    0  0.35061380794E+02 -0.16844260263E+02  0.68281038652E+02  0.78583266453E+02  0.00000000000E+00 0.  1.
</event>
<event>
 7    1  0.6506388E-006  0.1207879E+03  0.7561462E-02  0.1241803E+00
          2   -1    0    0  501    0  0.00000000000E+00  0.00000000000E+00  0.42933413999E+03  0.42933413999E+03  0.00000000000E+00 0. -1.
         -2   -1    0    0    0  501 -0.00000000000E+00 -0.00000000000E+00 -0.38474414771E+02  0.38474414771E+02  0.00000000000E+00 0.  1.
         23    2    1    2    0    0  0.61939427686E+02  0.23537607547E+02  0.18907468928E+03  0.23619478925E+03  0.12509288018E+03 0.  0.
          5    1    3    3  502    0  0.70157037604E+01  0.68988325736E+02  0.81727842467E+02  0.10726379548E+03  0.41800000000E+01 0.  1.
         -5    1    3    3    0  502  0.54923723925E+02 -0.45450718189E+02  0.10734684681E+03  0.12893099377E+03  0.41800000000E+01 0.  1.
        -11    1    1    2    0    0 -0.16376447575E+02 -0.46765792715E+02  0.15342321458E+03  0.16122627011E+03  0.00000000000E+00 0. -1.
         11    1    1    2    0    0 -0.45562980110E+02  0.23228185168E+02  0.48361821363E+02  0.70387495397E+02  0.00000000000E+00 0.  1.
</event>
<event>
 7    1  0.6506388E-006  0.1205058E+03  0.7561462E-02  0.1242265E+00
          2   -1    0    0  501    0  0.00000000000E+00  0.00000000000E+00  0.85574148247E+02  0.85574148247E+02  0.00000000000E+00 0. -1.
         -2   -1    0    0    0  501 -0.00000000000E+00 -0.00000000000E+00 -0.22124452269E+03  0.22124452269E+03  0.00000000000E+00 0.  1.
         23    2    1    2    0    0  0.73952006359E+02 -0.32484698328E+02 -0.67296051116E+02  0.16340018689E+03  0.12508680071E+03 0.  0.
          5    1    3    3  502    0  0.24454850860E+01 -0.47100405210E+02  0.18364850557E+02  0.50785516678E+02  0.41800000000E+01 0.  1.
         -5    1    3    3    0  502  0.71506521273E+02  0.14615706883E+02 -0.85660901673E+02  0.11261467021E+03  0.41800000000E+01 0.  1.
        -11    1    1    2    0    0 -0.21737004971E+02 -0.31312280600E+02 -0.42327124010E+02  0.56960878930E+02  0.00000000000E+00 0.  1.
         11    1    1    2    0    0 -0.52215001388E+02  0.63796978928E+02 -0.26047199319E+02  0.86457605117E+02  0.00000000000E+00 0. -1.
</event>
<event>
 7    1  0.6506388E-006  0.1558626E+03  0.7561462E-02  0.1193449E+00
          4   -1    0    0  501    0  0.00000000000E+00  0.00000000000E+00  0.25545961074E+03  0.25545961074E+03  0.00000000000E+00 0. -1.
         -4   -1    0    0    0  501 -0.00000000000E+00 -0.00000000000E+00 -0.11376152139E+03  0.11376152139E+03  0.00000000000E+00 0.  1.
         23    2    1    2    0    0  0.97669061515E+02 -0.72626033103E+02  0.22527313105E+02  0.17598029261E+03  0.12509115592E+03 0.  0.
          5    1    3    3  502    0  0.72553949250E+02 -0.99162778367E+02  0.47203918508E+02  0.13169287941E+03  0.41800000000E+01 0.  1.
         -5    1    3    3    0  502  0.25115112265E+02  0.26536745264E+02 -0.24676605403E+02  0.44287413195E+02  0.41800000000E+01 0.  1.
        -11    1    1    2    0    0 -0.44957545225E+02  0.86513196320E+02  0.79968718922E+02  0.12609801749E+03  0.00000000000E+00 0.  1.
         11    1    1    2    0    0 -0.52711516290E+02 -0.13887163217E+02  0.39202057325E+02  0.67142822031E+02  0.00000000000E+00 0. -1.
</event>
<event>
 6    1  0.6506388E-006  0.1316155E+03  0.7561462E-02  0.1225078E+00
         -1   -1    0    0    0  501 -0.00000000000E+00  0.00000000000E+00  0.24891384889E+03  0.24891384889E+03  0.00000000000E+00 0.  1.
          1   -1    0    0  501    0  0.00000000000E+00 -0.00000000000E+00 -0.95281318600E+02  0.95281318600E+02  0.00000000000E+00 0. -1.
          5    1    1    2  502    0 -0.87813473257E+02  0.28697784366E+02  0.10879723482E+03  0.14279033447E+03  0.41800000000E+01 0. -1.
         -5    1    1    2    0  502 -0.12568454444E+02 -0.41011383914E+02 -0.23541195076E+02  0.49107636100E+02  0.41800000000E+01 0.  1.
        -11    1    1    2    0    0  0.47290301151E+02  0.45024222544E+02  0.61258133061E+02  0.89532742976E+02  0.00000000000E+00 0.  1.
         11    1    1    2    0    0  0.53091626550E+02 -0.32710622995E+02  0.71183574887E+01  0.62764453951E+02  0.00000000000E+00 0. -1.
</event>
<event>
 7    1  0.6506388E-006  0.1489820E+03  0.7561462E-02  0.1201730E+00
          1   -1    0    0  501    0  0.00000000000E+00  0.00000000000E+00  0.19525521190E+03  0.19525521190E+03  0.00000000000E+00 0. -1.
         -1   -1    0    0    0  501 -0.00000000000E+00 -0.00000000000E+00 -0.15002333848E+03  0.15002333848E+03  0.00000000000E+00 0.  1.
         23    2    1    2    0    0  0.11782200910E+03  0.35591638477E+02 -0.22676087108E+02  0.17694782712E+03  0.12509011967E+03 0.  0.
          5    1    3    3  502    0  0.97168716784E+02 -0.27587573032E+02 -0.39031018723E+02  0.10836847572E+03  0.41800000000E+01 0.  1.
         -5    1    3    3    0  502  0.20653292314E+02  0.63179211509E+02  0.16354931615E+02  0.68579351400E+02  0.41800000000E+01 0.  1.
        -11    1    1    2    0    0 -0.36569351903E+02 -0.32551503230E+02 -0.15983858431E+02  0.51501471741E+02  0.00000000000E+00 0. -1.
         11    1    1    2    0    0 -0.81252657196E+02 -0.30401352464E+01  0.83891818959E+02  0.11682925153E+03  0.00000000000E+00 0.  1.
</event>
<event>
 7    1  0.6506388E-006  0.8299140E+02  0.7561462E-02  0.1320770E+00
          1   -1    0    0  501    0  0.00000000000E+00  0.00000000000E+00  0.59200471446E+03  0.59200471446E+03  0.00000000000E+00 0. -1.
         -1   -1    0    0    0  501 -0.00000000000E+00 -0.00000000000E+00 -0.25257237941E+02  0.25257237941E+02  0.00000000000E+00 0.  1.
         23    2    1    2    0    0  0.21528465889E+02 -0.48483113011E+02  0.27801157289E+03  0.30944094638E+03  0.12509667279E+03 0.  0.
          5    1    3    3  502    0  0.19492783571E+02 -0.76836235853E+01 -0.62247771914E+01  0.22253694836E+02  0.41800000000E+01 0. -1.
         -5    1    3    3    0  502  0.20356823178E+01 -0.40799489426E+02  0.28423635008E+03  0.28718725154E+03  0.41800000000E+01 0. -1.
        -11    1    1    2    0    0  0.39947388500E+01  0.70034811311E+02  0.22745644916E+03  0.23802787441E+03  0.00000000000E+00 0. -1.
         11    1    1    2    0    0 -0.25523204739E+02 -0.21551698300E+02  0.61279454468E+02  0.69793131608E+02  0.00000000000E+00 0.  1.
</event>
<event>
 7    1  0.6506388E-006  0.1616847E+03  0.7561462E-02  0.1186808E+00
          1   -1    0    0  501    0  0.00000000000E+00  0.00000000000E+00  0.18736684170E+03  0.18736684170E+03  0.00000000000E+00 0. -1.
         -1   -1    0    0    0  501 -0.00000000000E+00 -0.00000000000E+00 -0.14827990934E+03  0.14827990934E+03  0.00000000000E+00 0.  1.
         23    2    1    2    0    0  0.11200941124E+03 -0.41851719316E+02 -0.17115453308E+02  0.17389321884E+03  0.12509291827E+03 0.  0.
          5    1    3    3  502    0  0.19752810489E+02 -0.72066892476E+02 -0.16892799600E+02  0.76724504506E+02  0.41800000000E+01 0.  1.
         -5    1    3    3    0  502  0.92256600748E+02  0.30215173160E+02 -0.22265370756E+00  0.97168714334E+02  0.41800000000E+01 0.  1.
        -11    1    1    2    0    0 -0.20876814002E+02 -0.29134544492E+02  0.89280881073E+01  0.36937430919E+02  0.00000000000E+00 0.  1.
         11    1    1    2    0    0 -0.91132597234E+02  0.70986263807E+02  0.47274297561E+02  0.12481610128E+03  0.00000000000E+00 0. -1.
</event>
<event>
 7    1  0.6506388E-006  0.1772747E+03  0.7561462E-02  0.1170467E+00
         -2   -1    0    0    0  501 -0.00000000000E+00  0.00000000000E+00  0.47183377745E+02  0.47183377745E+02  0.00000000000E+00 0.  1.
          2   -1    0    0  501    0  0.00000000000E+00 -0.00000000000E+00 -0.83289730741E+03  0.83289730741E+03  0.00000000000E+00 0. -1.
         23    2    1    2    0    0  0.16053562274E+03  0.39359387215E+02 -0.38092559550E+03  0.43367637875E+03  0.12510013846E+03 0.  0.
          5    1    3    3  502    0  0.11770892811E+03  0.87072691354E+01 -0.35634435848E+03  0.37540642311E+03  0.41800000000E+01 0.  1.
         -5    1    3    3    0  502  0.42826694633E+02  0.30652118079E+02 -0.24581237018E+02  0.58269955631E+02  0.41800000000E+01 0.  1.
        -11    1    1    2    0    0 -0.13955210864E+03 -0.61680187964E+00 -0.34482573587E+03  0.37199456930E+03  0.00000000000E+00 0. -1.
         11    1    1    2    0    0 -0.20983514108E+02 -0.38742585335E+02 -0.59962598290E+02  0.74409737108E+02  0.00000000000E+00 0.  1.
</event>
<event>
 7    1  0.6506388E-006  0.9486848E+02  0.7561462E-02  0.1291473E+00
          1   -1    0    0  501    0  0.00000000000E+00  0.00000000000E+00  0.32153053086E+03  0.32153053086E+03  0.00000000000E+00 0. -1.
         -1   -1    0    0    0  501 -0.00000000000E+00 -0.00000000000E+00 -0.47324835471E+02  0.47324835471E+02  0.00000000000E+00 0.  1.
         23    2    1    2    0    0 -0.46516552122E+02 -0.26050079610E+02  0.14986184560E+03  0.20235438963E+03  0.12508529078E+03 0.  0.
          5    1    3    3  502    0  0.52768433052E+01 -0.55672998382E+02  0.20277327096E+02  0.59631956351E+02  0.41800000000E+01 0. -1.
         -5    1    3    3    0  502 -0.51793395427E+02  0.29622918773E+02  0.12958451850E+03  0.14272243328E+03  0.41800000000E+01 0. -1.
        -11    1    1    2    0    0 -0.78957546051E+01 -0.66849515105E+01 -0.12150738226E+02  0.15958444690E+02  0.00000000000E+00 0.  1.
         11    1    1    2    0    0  0.54412306727E+02  0.32735031120E+02  0.13649458801E+03  0.15054253200E+03  0.00000000000E+00 0. -1.
</event>
<event>
 7    1  0.6506388E-006  0.2434753E+03  0.7561462E-02  0.1117499E+00
         -1   -1    0    0    0  501 -0.00000000000E+00  0.00000000000E+00  0.76000574243E+03  0.76000574243E+03  0.00000000000E+00 0.  1.
          1   -1    0    0  501    0  0.00000000000E+00 -0.00000000000E+00 -0.85840657670E+02  0.85840657670E+02  0.00000000000E+00 0. -1.
         23    2    1    2    0    0 -0.22685488122E+03  0.31546898914E+02  0.39024732022E+03  0.46946719932E+03  0.12509251111E+03 0.  0.
          5    1    3    3  502    0 -0.20126758566E+02  0.27765160951E+02  0.14309229769E+03  0.14720349395E+03  0.41800000000E+01 0. -1.
         -5    1    3    3    0  502 -0.20672812265E+03  0.37817379629E+01  0.24715502253E+03  0.32226370537E+03  0.41800000000E+01 0. -1.
        -11    1    1    2    0    0  0.15106236428E+03  0.22198686223E+02  0.15608299887E+03  0.21834496126E+03  0.00000000000E+00 0. -1.
         11    1    1    2    0    0  0.75792516944E+02 -0.53745585138E+02  0.12783476568E+03  0.15803423952E+03  0.00000000000E+00 0.  1.
</event>
<event>
 6    1  0.6506388E-006  0.1793815E+03  0.7561462E-02  0.1168403E+00
          1   -1    0    0  501    0  0.00000000000E+00  0.00000000000E+00  0.10037921950E+03  0.10037921950E+03  0.00000000000E+00 0. -1.
         -1   -1    0    0    0  501 -0.00000000000E+00 -0.00000000000E+00 -0.46221396898E+03  0.46221396898E+03  0.00000000000E+00 0.  1.
          5    1    1    2  502    0  0.13011044573E+02 -0.12569863455E+03 -0.75237696615E+02  0.14713129307E+03  0.41800000000E+01 0. -1.
         -5    1    1    2    0  502  0.46320462993E+02 -0.22158789548E+02 -0.21174309552E+03  0.21792018756E+03  0.41800000000E+01 0.  1.
        -11    1    1    2    0    0 -0.27685518305E+02  0.14654019090E+03 -0.72387770583E+02  0.16577244887E+03  0.00000000000E+00 0. -1.
         11    1    1    2    0    0 -0.31645989262E+02  0.13172331968E+01 -0.24661867622E+01  0.31769258991E+02  0.00000000000E+00 0.  1.
</event>
<event>
 7    1  0.6506388E-006  0.2375873E+03  0.7561462E-02  0.1121411E+00
          1   -1    0    0  501    0  0.00000000000E+00  0.00000000000E+00  0.90979708733E+03  0.90979708733E+03  0.00000000000E+00 0. -1.
         -1   -1    0    0    0  501 -0.00000000000E+00 -0.00000000000E+00 -0.66974025333E+02  0.66974025333E+02  0.00000000000E+00 0.  1.
         23    2    1    2    0    0  0.35577064297E+02  0.21776613436E+03  0.39379143280E+03  0.46840960185E+03  0.12509214917E+03 0.  0.
          5    1    3    3  502    0 -0.39877752870E+02  0.87926996129E+02  0.10384191283E+03  0.14185206055E+03  0.41800000000E+01 0. -1.
         -5    1    3    3    0  502  0.75454817167E+02  0.12983913823E+03  0.28994951997E+03  0.32655754130E+03  0.41800000000E+01 0. -1.
        -11    1    1    2    0    0  0.12831796001E+02 -0.14530318273E+02  0.97700894055E+02  0.99605470919E+02  0.00000000000E+00 0. -1.
         11    1    1    2    0    0 -0.48408860297E+02 -0.20323581608E+03  0.35133073514E+03  0.40875603989E+03  0.00000000000E+00 0.  1.
</event>
<event>
 7    1  0.6506388E-006  0.1070559E+03  0.7561462E-02  0.1266121E+00
         -1   -1    0    0    0  501 -0.00000000000E+00  0.00000000000E+00  0.55274914418E+02  0.55274914418E+02  0.00000000000E+00 0.  1.
          1   -1    0    0  501    0  0.00000000000E+00 -0.00000000000E+00 -0.25440082897E+03  0.25440082897E+03  0.00000000000E+00 0. -1.
         23    2    1    2    0    0 -0.38254078490E+02 -0.27385644170E+02 -0.94820761604E+02  0.16386132820E+03  0.12508481131E+03 0.  0.
          5    1    3    3  502    0 -0.14498951845E+02 -0.76947434898E+02 -0.52436114495E+02  0.94329983809E+02  0.41800000000E+01 0. -1.
         -5    1    3    3    0  502 -0.23755126645E+02  0.49561790728E+02 -0.42384647109E+02  0.69531344390E+02  0.41800000000E+01 0. -1.
        -11    1    1    2    0    0 -0.18690357616E+02  0.46207568395E+01  0.55184694694E+01  0.20028339094E+02  0.00000000000E+00 0.  1.
         11    1    1    2    0    0  0.56944436105E+02  0.22764887330E+02 -0.10982362241E+03  0.12578607609E+03  0.00000000000E+00 0. -1.
</event>
<event>
 7    1  0.1079501E-005  0.4788406E+03  0.7561462E-02  0.1019454E+00
         -2   -1    0    0    0  501 -0.00000000000E+00  0.00000000000E+00  0.45797510446E+03  0.45797510446E+03  0.00000000000E+00 0.  1.
          2   -1    0    0  501    0  0.00000000000E+00 -0.00000000000E+00 -0.58605808043E+03  0.58605808043E+03  0.00000000000E+00 0. -1.
         23    2    1    2    0    0 -0.47784799955E+03  0.64690568714E+01  0.10394296122E+03  0.50480878323E+03  0.12508880475E+03 0.  0.
          5    1    3    3  502    0 -0.82857102879E+02 -0.10700908368E+02  0.67982196048E+02  0.10779081740E+03  0.41800000000E+01 0.  1.
         -5    1    3    3    0  502 -0.39499089667E+03  0.17169965240E+02  0.35960765168E+02  0.39701796583E+03  0.41800000000E+01 0.  1.
        -11    1    1    2    0    0  0.38067438155E+03  0.56693985317E+01 -0.14240896472E+03  0.40647932307E+03  0.00000000000E+00 0. -1.
         11    1    1    2    0    0  0.97173617995E+02 -0.12138455403E+02 -0.89616972469E+02  0.13274507858E+03  0.00000000000E+00 0.  1.
</event>
<event>
 7    1  0.6506388E-006  0.1218322E+03  0.7561462E-02  0.1240105E+00
         -2   -1    0    0    0  501 -0.00000000000E+00  0.00000000000E+00  0.24660082653E+02  0.24660082653E+02  0.00000000000E+00 0.  1.
          2   -1    0    0  501    0  0.00000000000E+00 -0.00000000000E+00 -0.66974963604E+03  0.66974963604E+03  0.00000000000E+00 0. -1.
         23    2    1    2    0    0  0.35092310744E+02  0.59519422054E+02 -0.28734484099E+03  0.32092166803E+03  0.12509847118E+03 0.  0.
          5    1    3    3  502    0  0.61568651595E+02 -0.15170731497E+02 -0.12595581093E+03  0.14107866126E+03  0.41800000000E+01 0.  1.
         -5    1    3    3    0  502 -0.26476340851E+02  0.74690153551E+02 -0.16138903005E+03  0.17984300677E+03  0.41800000000E+01 0.  1.
        -11    1    1    2    0    0  0.83486621641E+01 -0.56612011119E+02 -0.13666222236E+03  0.14815931622E+03  0.00000000000E+00 0. -1.
         11    1    1    2    0    0 -0.43440972908E+02 -0.29074109353E+01 -0.22108249004E+03  0.22532873445E+03  0.00000000000E+00 0.  1.
</event>
<event>
 7    1  0.6506388E-006  0.1012618E+03  0.7561462E-02  0.1277665E+00
         -2   -1    0    0    0  501 -0.00000000000E+00  0.00000000000E+00  0.54202929808E+02  0.54202929808E+02  0.00000000000E+00 0.  1.
          2   -1    0    0  501    0  0.00000000000E+00 -0.00000000000E+00 -0.46868864676E+03  0.46868864676E+03  0.00000000000E+00 0. -1.
         23    2    1    2    0    0 -0.64612658139E+02  0.19817199869E+02 -0.66677098896E+02  0.15704046125E+03  0.12509338093E+03 0.  0.
          5    1    3    3  502    0 -0.60786215006E+02 -0.27635100605E+02  0.90311581339E+01  0.67510717204E+02  0.41800000000E+01 0.  1.
         -5    1    3    3    0  502 -0.38264431330E+01  0.47452300474E+02 -0.75708257030E+02  0.89529744051E+02  0.41800000000E+01 0.  1.
        -11    1    1    2    0    0  0.24505114306E+02  0.19762825001E+02 -0.31398900178E+02  0.44463027467E+02  0.00000000000E+00 0.  1.
         11    1    1    2    0    0  0.40107543833E+02 -0.39580024870E+02 -0.31640971788E+03  0.32138808785E+03  0.00000000000E+00 0. -1.
</event>
<event>
 7    1  0.6506388E-006  0.1482942E+03  0.7561462E-02  0.1202585E+00
         -2   -1    0    0    0  501 -0.00000000000E+00  0.00000000000E+00  0.22127113480E+03  0.22127113480E+03  0.00000000000E+00 0.  1.
          2   -1    0    0  501    0  0.00000000000E+00 -0.00000000000E+00 -0.13417621927E+03  0.13417621927E+03  0.00000000000E+00 0. -1.
         23    2    1    2    0    0  0.12204851151E+03  0.15150789752E+02  0.89392050400E+02  0.19688616367E+03  0.12509131536E+03 0.  0.
          5    1    3    3  502    0  0.71997958095E+02 -0.51506304057E+02  0.65093654800E+02  0.10996027293E+03  0.41800000000E+01 0. -1.
         -5    1    3    3    0  502  0.50050553417E+02  0.66657093809E+02  0.24298395600E+02  0.86925890741E+02  0.41800000000E+01 0. -1.
        -11    1    1    2    0    0 -0.50780611559E+02 -0.15967367267E+02  0.47719496935E+02  0.71489703563E+02  0.00000000000E+00 0.  1.
         11    1    1    2    0    0 -0.71267899953E+02  0.81657751444E+00 -0.50016631805E+02  0.87071486835E+02  0.00000000000E+00 0. -1.
</event>
<event>
 7    1  0.6506388E-006  0.1088251E+03  0.7561462E-02  0.1262761E+00
         -2   -1    0    0    0  501 -0.00000000000E+00  0.00000000000E+00  0.19312826762E+02  0.19312826762E+02  0.00000000000E+00 0.  1.
          2   -1    0    0  501    0  0.00000000000E+00 -0.00000000000E+00 -0.65581246583E+03  0.65581246583E+03  0.00000000000E+00 0. -1.
         23    2    1    2    0    0 -0.11907051732E+02  0.44193301951E+01 -0.28018344884E+03  0.30710282123E+03  0.12509224374E+03 0.  0.
          5    1    3    3  502    0 -0.22025205015E+02 -0.58010051832E+02 -0.14656167272E+03  0.15921077878E+03  0.41800000000E+01 0. -1.
         -5    1    3    3    0  502  0.10118153283E+02  0.62429382027E+02 -0.13362177612E+03  0.14789204245E+03  0.41800000000E+01 0. -1.
        -11    1    1    2    0    0  0.20488675321E+02 -0.45610726305E+02 -0.19560253056E+03  0.20189223396E+03  0.00000000000E+00 0.  1.
         11    1    1    2    0    0 -0.85816235881E+01  0.41191396110E+02 -0.16071365966E+03  0.16613023740E+03  0.00000000000E+00 0. -1.
</event>
<event>
 7    1  0.6506388E-006  0.1256628E+03  0.7561462E-02  0.1234037E+00
         -4   -1    0    0    0  501 -0.00000000000E+00  0.00000000000E+00  0.37374164335E+03  0.37374164335E+03  0.00000000000E+00 0.  1.
          4   -1    0    0  501    0  0.00000000000E+00 -0.00000000000E+00 -0.59912722211E+02  0.59912722211E+02  0.00000000000E+00 0. -1.
         23    2    1    2    0    0  0.66896407940E+02 -0.65046935717E+02  0.22880629234E+03  0.27695770536E+03  0.12508804060E+03 0.  0.
          5    1    3    3  502    0  0.33527960373E+02  0.26197085107E+02  0.21235228824E+02  0.47736974538E+02  0.41800000000E+01 0. -1.
         -5    1    3    3    0  502  0.33368447567E+02 -0.91244020824E+02  0.20757106352E+03  0.22922073083E+03  0.41800000000E+01 0. -1.
        -11    1    1    2    0    0  0.35072012045E+01  0.34340658586E+02  0.70542036691E+02  0.78535089183E+02  0.00000000000E+00 0.  1.
         11    1    1    2    0    0 -0.70403609144E+02  0.30706277131E+02  0.14480592103E+02  0.78161571014E+02  0.00000000000E+00 0. -1.
</event>
<event>
 7    1  0.6506388E-006  0.9090513E+02  0.7561462E-02  0.1300674E+00
          2   -1    0    0  501    0  0.00000000000E+00  0.00000000000E+00  0.12854501761E+03  0.12854501761E+03  0.00000000000E+00 0. -1.
         -2   -1    0    0    0  501 -0.00000000000E+00 -0.00000000000E+00 -0.10758217887E+03  0.10758217887E+03  0.00000000000E+00 0.  1.
         23    2    1    2    0    0 -0.15947398116E+02  0.41388589474E+02  0.46970824876E+01  0.13280027462E+03  0.12508603244E+03 0.  0.
          5    1    3    3  502    0 -0.43009065122E+02  0.86471725452E+01  0.52613055712E+02  0.68630600369E+02  0.41800000000E+01 0.  1.
         -5    1    3    3    0  502  0.27061667006E+02  0.32741416928E+02 -0.47915973224E+02  0.64169674252E+02  0.41800000000E+01 0.  1.
        -11    1    1    2    0    0 -0.76294572255E+01 -0.62769436760E+02  0.28332056438E+02  0.69288644313E+02  0.00000000000E+00 0. -1.
         11    1    1    2    0    0  0.23576855341E+02  0.21380847286E+02 -0.12066300178E+02  0.34038277548E+02  0.00000000000E+00 0.  1.
</event>
<event>
 7    1  0.6506388E-006  0.8425711E+02  0.7561462E-02  0.1317387E+00
         -1   -1    0    0    0  501 -0.00000000000E+00  0.00000000000E+00  0.61047603591E+02  0.61047603591E+02  0.00000000000E+00 0.  1.
          1   -1    0    0  501    0  0.00000000000E+00 -0.00000000000E+00 -0.21155490575E+03  0.21155490575E+03  0.00000000000E+00 0. -1.
         23    2    1    2    0    0  0.31741396575E+02 -0.24806800192E+01 -0.65045782578E+02  0.14454590445E+03  0.12509554202E+03 0.  0.
          5    1    3    3  502    0 -0.27513408483E+02  0.29547115304E+02 -0.65501696845E+02  0.77058188135E+02  0.41800000000E+01 0. -1.
         -5    1    3    3    0  502  0.59254805058E+02 -0.32027795323E+02  0.45591426711E+00  0.67487716316E+02  0.41800000000E+01 0. -1.
        -11    1    1    2    0    0  0.55359001349E+01 -0.17352197813E+02  0.12020255558E+02  0.21822729044E+02  0.00000000000E+00 0.  1.
         11    1    1    2    0    0 -0.37277296710E+02  0.19832877832E+02 -0.97481775136E+02  0.10623387584E+03  0.00000000000E+00 0. -1.
</event>
<event>
 7    1  0.6506388E-006  0.1333121E+03  0.7561462E-02  0.1222622E+00
         -1   -1    0    0    0  501 -0.00000000000E+00  0.00000000000E+00  0.40853790630E+02  0.40853790630E+02  0.00000000000E+00 0.  1.
          1   -1    0    0  501    0  0.00000000000E+00 -0.00000000000E+00 -0.71148406333E+03  0.71148406333E+03  0.00000000000E+00 0. -1.
         23    2    1    2    0    0  0.10053049804E+03  0.64829846598E+02 -0.23667305663E+03  0.29320760468E+03  0.12508906291E+03 0.  0.
          5    1    3    3  502    0  0.93569069400E+02  0.60458645994E+02 -0.82322199019E+02  0.13858151203E+03  0.41800000000E+01 0. -1.
         -5    1    3    3    0  502  0.69614286439E+01  0.43712006045E+01 -0.15435085761E+03  0.15462609265E+03  0.41800000000E+01 0. -1.
        -11    1    1    2    0    0  0.59350275570E+01 -0.34799851142E+02 -0.15654611814E+03  0.16047722984E+03  0.00000000000E+00 0. -1.
         11    1    1    2    0    0 -0.10646552560E+03 -0.30029995456E+02 -0.27741109793E+03  0.29865301944E+03  0.00000000000E+00 0.  1.
</event>
<event>
 7    1  0.6506388E-006  0.3543853E+03  0.7561462E-02  0.1060829E+00
         -1   -1    0    0    0  501 -0.00000000000E+00  0.00000000000E+00  0.88959388684E+02  0.88959388684E+02  0.00000000000E+00 0.  1.
          1   -1    0    0  501    0  0.00000000000E+00 -0.00000000000E+00 -0.14694897748E+04  0.14694897748E+04  0.00000000000E+00 0. -1.
         23    2    1    2    0    0 -0.21792588655E+02 -0.34395371509E+03 -0.72854213115E+03  0.81559681603E+03  0.12508179094E+03 0.  0.
          5    1    3    3  502    0  0.52170578592E+00  0.37995147065E+01  0.21404152412E+01  0.60631894525E+01  0.41800000000E+01 0.  1.
         -5    1    3    3    0  502 -0.22314294441E+02 -0.34775322980E+03 -0.73068254639E+03  0.80953362658E+03  0.41800000000E+01 0.  1.
        -11    1    1    2    0    0  0.15302971265E+02  0.57643928574E+01 -0.18324879857E+02  0.24560341535E+02  0.00000000000E+00 0.  1.
         11    1    1    2    0    0  0.64896173900E+01  0.33818932223E+03 -0.63366337514E+03  0.71829200594E+03  0.00000000000E+00 0. -1.
</event>
<event>
 7    1  0.6506388E-006  0.1144248E+03  0.7561462E-02  0.1252589E+00
         -1   -1    0    0    0  501 -0.00000000000E+00  0.00000000000E+00  0.75870324256E+02  0.75870324256E+02  0.00000000000E+00 0.  1.
          1   -1    0    0  501    0  0.00000000000E+00 -0.00000000000E+00 -0.30234693574E+03  0.30234693574E+03  0.00000000000E+00 0. -1.
         23    2    1    2    0    0  0.52553359664E+02 -0.56547390577E+02 -0.32512441324E+02  0.15054594968E+03  0.12509021197E+03 0.  0.
          5    1    3    3  502    0 -0.16184137355E+02  0.16917492269E+02  0.25064941740E+02  0.34552156966E+02  0.41800000000E+01 0. -1.
         -5    1    3    3    0  502  0.68737497019E+02 -0.73464882845E+02 -0.57577383064E+02  0.11599379272E+03  0.41800000000E+01 0. -1.
        -11    1    1    2    0    0 -0.19375659400E+02  0.66874474558E+02 -0.17442294939E+03  0.18780568894E+03  0.00000000000E+00 0. -1.
         11    1    1    2    0    0 -0.33177700265E+02 -0.10327083981E+02 -0.19541220771E+02  0.39865621375E+02  0.00000000000E+00 0.  1.
</event>
<event>
 7    1  0.6506388E-006  0.1498046E+03  0.7561462E-02  0.1200713E+00
         -1   -1    0    0    0  501 -0.00000000000E+00  0.00000000000E+00  0.72191961419E+02  0.72191961419E+02  0.00000000000E+00 0.  1.
          1   -1    0    0  501    0  0.00000000000E+00 -0.00000000000E+00 -0.34632992095E+03  0.34632992095E+03  0.00000000000E+00 0. -1.
         23    2    1    2    0    0 -0.10355465551E+03 -0.75939808711E+01 -0.82601738809E+02  0.18233218275E+03  0.12506295370E+03 0.  0.
          5    1    3    3  502    0 -0.95376097501E+02  0.46746446409E+02 -0.43990043029E+02  0.11504097753E+03  0.41800000000E+01 0. -1.
         -5    1    3    3    0  502 -0.81785580077E+01 -0.54340427281E+02 -0.38611695780E+02  0.67291205214E+02  0.41800000000E+01 0. -1.
        -11    1    1    2    0    0  0.41769498445E+02  0.48571105824E+02 -0.89215912124E+02  0.10983315664E+03  0.00000000000E+00 0. -1.
         11    1    1    2    0    0  0.61785157064E+02 -0.40977124952E+02 -0.10232030860E+03  0.12635654298E+03  0.00000000000E+00 0.  1.
</event>
<event>
 7    1  0.6506388E-006  0.1930319E+03  0.7561462E-02  0.1155755E+00
          1   -1    0    0  501    0  0.00000000000E+00  0.00000000000E+00  0.93115240190E+02  0.93115240190E+02  0.00000000000E+00 0. -1.
         -1   -1    0    0    0  501 -0.00000000000E+00 -0.00000000000E+00 -0.59918729126E+03  0.59918729126E+03  0.00000000000E+00 0.  1.
         23    2    1    2    0    0  0.18591675436E+03  0.20003208536E+02 -0.40146082282E+03  0.46019992516E+03  0.12509200996E+03 0.  0.
          5    1    3    3  502    0  0.13974482379E+03  0.39220431437E+02 -0.37774621361E+03  0.40469313352E+03  0.41800000000E+01 0.  1.
         -5    1    3    3    0  502  0.46171930567E+02 -0.19217222901E+02 -0.23714609204E+02  0.55506791639E+02  0.41800000000E+01 0.  1.
        -11    1    1    2    0    0 -0.15814531295E+03 -0.31264254996E+01 -0.45405005782E+02  0.16456405773E+03  0.00000000000E+00 0.  1.
         11    1    1    2    0    0 -0.27771441402E+02 -0.16876783036E+02 -0.59206222469E+02  0.67538548565E+02  0.00000000000E+00 0. -1.
</event>
<event>
 7    1  0.6506388E-006  0.9836554E+02  0.7561462E-02  0.1283771E+00
          1   -1    0    0  501    0  0.00000000000E+00  0.00000000000E+00  0.18371195181E+03  0.18371195181E+03  0.00000000000E+00 0. -1.
         -1   -1    0    0    0  501 -0.00000000000E+00 -0.00000000000E+00 -0.69834742892E+02  0.69834742892E+02  0.00000000000E+00 0.  1.
         23    2    1    2    0    0  0.21498398645E+00  0.44956816075E+01  0.30245865978E+02  0.12877317844E+03  0.12508981456E+03 0.  0.
          5    1    3    3  502    0 -0.54990335758E+02  0.28002558405E+02  0.92042651460E+00  0.61857900780E+02  0.41800000000E+01 0. -1.
         -5    1    3    3    0  502  0.55205319744E+02 -0.23506876798E+02  0.29325439463E+02  0.66915277662E+02  0.41800000000E+01 0. -1.
        -11    1    1    2    0    0  0.29743061957E+02  0.20161738421E+02  0.39519919134E+01  0.36149186309E+02  0.00000000000E+00 0.  1.
         11    1    1    2    0    0 -0.29958045943E+02 -0.24657420029E+02  0.79679351027E+02  0.88624329951E+02  0.00000000000E+00 0. -1.
</event>
<event>
 7    1  0.6506388E-006  0.1357718E+03  0.7561462E-02  0.1219134E+00
         -1   -1    0    0    0  501 -0.00000000000E+00  0.00000000000E+00  0.52471799065E+02  0.52471799065E+02  0.00000000000E+00 0.  1.
          1   -1    0    0  501    0  0.00000000000E+00 -0.00000000000E+00 -0.45143056003E+03  0.45143056003E+03  0.00000000000E+00 0. -1.
         23    2    1    2    0    0  0.10823664433E+03 -0.26486369873E+01 -0.24610893548E+03  0.29654563023E+03  0.12509003250E+03 0.  0.
          5    1    3    3  502    0  0.11590573759E+03  0.31261307786E+02 -0.13824838034E+03  0.18314337672E+03  0.41800000000E+01 0.  1.
         -5    1    3    3    0  502 -0.76690932556E+01 -0.33909944773E+02 -0.10786055514E+03  0.11340225351E+03  0.41800000000E+01 0.  1.
        -11    1    1    2    0    0 -0.97336507986E+01  0.14213621832E+02  0.75194912148E+01  0.18796642029E+02  0.00000000000E+00 0.  1.
         11    1    1    2    0    0 -0.98502993532E+02 -0.11564984845E+02 -0.16036931670E+03  0.18856008684E+03  0.00000000000E+00 0. -1.
</event>
<event>
 7    1  0.6506388E-006  0.1938845E+03  0.7561462E-02  0.1155004E+00
          2   -1    0    0  501    0  0.00000000000E+00  0.00000000000E+00  0.11341581429E+04  0.11341581429E+04  0.00000000000E+00 0. -1.
         -2   -1    0    0    0  501 -0.00000000000E+00 -0.00000000000E+00 -0.65094445594E+02  0.65094445594E+02  0.00000000000E+00 0.  1.
         23    2    1    2    0    0  0.14473349804E+03  0.97425324666E+02  0.14086239978E+03  0.25028749897E+03  0.11118514797E+03 0.  0.
          5    1    3    3  502    0  0.10207468641E+03  0.11018414542E+02  0.10625825252E+03  0.14781385488E+03  0.41800000000E+01 0. -1.
         -5    1    3    3    0  502  0.42658811636E+02  0.86406910124E+02  0.34604147258E+02  0.10247364410E+03  0.41800000000E+01 0.  1.
        -11    1    1    2    0    0 -0.59569109542E+02 -0.54599721763E+00  0.17663950851E+03  0.18641430442E+03  0.00000000000E+00 0.  1.
         11    1    1    2    0    0 -0.85164388500E+02 -0.96879327449E+02  0.75156178898E+03  0.76255078507E+03  0.00000000000E+00 0. -1.
</event>
<event>
 6    1  0.6506388E-006  0.7881105E+02  0.7561462E-02  0.1332460E+00
          2   -1    0    0  501    0  0.00000000000E+00  0.00000000000E+00  0.42813409050E+03  0.42813409050E+03  0.00000000000E+00 0. -1.
         -2   -1    0    0    0  501 -0.00000000000E+00 -0.00000000000E+00 -0.35481650610E+02  0.35481650610E+02  0.00000000000E+00 0.  1.
          5    1    1    2  502    0  0.45788140149E+02  0.15443749260E+02  0.19699143149E+03  0.20287473882E+03  0.41800000000E+01 0. -1.
         -5    1    1    2    0  502 -0.16679451708E+01 -0.70315765183E+01 -0.20547142864E+02  0.22178426214E+02  0.41800000000E+01 0.  1.
        -11    1    1    2    0    0  0.12113254417E+02  0.30212218792E+02  0.73618783845E+02  0.80493691876E+02  0.00000000000E+00 0.  1.
         11    1    1    2    0    0 -0.56233449395E+02 -0.38624391534E+02  0.14258936742E+03  0.15806888420E+03  0.00000000000E+00 0. -1.
</event>
<event>
 7    1  0.8094264E-006  0.2089021E+03  0.7561462E-02  0.1142438E+00
         -1   -1    0    0    0  501 -0.00000000000E+00  0.00000000000E+00  0.19316905432E+04  0.19316905432E+04  0.00000000000E+00 0.  1.
          1   -1    0    0  501    0  0.00000000000E+00 -0.00000000000E+00 -0.28315614458E+02  0.28315614458E+02  0.00000000000E+00 0. -1.
         23    2    1    2    0    0 -0.15644015095E+03 -0.11146678617E+03  0.13044809292E+04  0.13244683744E+04  0.12509042724E+03 0.  0.
          5    1    3    3  502    0 -0.27011040988E+02 -0.60378395136E+02  0.74446064584E+03  0.74740502577E+03  0.41800000000E+01 0.  1.
         -5    1    3    3    0  502 -0.12942910996E+03 -0.51088391033E+02  0.56002028333E+03  0.57706334864E+03  0.41800000000E+01 0.  1.
        -11    1    1    2    0    0 -0.24076061983E+01  0.36655604972E+02  0.11840904415E+03  0.12397633516E+03  0.00000000000E+00 0.  1.
         11    1    1    2    0    0  0.15884775715E+03  0.74811181198E+02  0.48048495541E+03  0.51156144808E+03  0.00000000000E+00 0. -1.
</event>
<event>
 6    1  0.6506388E-006  0.1274089E+03  0.7561462E-02  0.1231352E+00
         -1   -1    0    0    0  501 -0.00000000000E+00  0.00000000000E+00  0.20393866352E+03  0.20393866352E+03  0.00000000000E+00 0.  1.
          1   -1    0    0  501    0  0.00000000000E+00 -0.00000000000E+00 -0.88281487917E+02  0.88281487917E+02  0.00000000000E+00 0. -1.
          5    1    1    2  502    0 -0.46700340612E+02  0.91375139598E+01  0.53561181318E+02  0.71768297449E+02  0.41800000000E+01 0. -1.
         -5    1    1    2    0  502  0.94515714229E+02 -0.44033144584E+02  0.36172266056E+02  0.11044475221E+03  0.41800000000E+01 0.  1.
        -11    1    1    2    0    0  0.31910691915E+01  0.49528665765E+02 -0.27199476626E+01  0.49705832358E+02  0.00000000000E+00 0. -1.
         11    1    1    2    0    0 -0.51006442809E+02 -0.14633035141E+02  0.28643675892E+02  0.60301269423E+02  0.00000000000E+00 0.  1.
</event>
<event>
 7    1  0.6506388E-006  0.1276165E+03  0.7561462E-02  0.1231036E+00
         -1   -1    0    0    0  501 -0.00000000000E+00  0.00000000000E+00  0.89292981281E+03  0.89292981281E+03  0.00000000000E+00 0.  1.
          1   -1    0    0  501    0  0.00000000000E+00 -0.00000000000E+00 -0.24918777623E+02  0.24918777623E+02  0.00000000000E+00 0. -1.
         23    2    1    2    0    0  0.46709489062E+02  0.88657578882E+02  0.53007989309E+03  0.55378142976E+03  0.12508891327E+03 0.  0.
          5    1    3    3  502    0 -0.25088146556E+02  0.49145274902E+01  0.22421632375E+02  0.34260322189E+02  0.41800000000E+01 0. -1.
         -5    1    3    3    0  502  0.71797635619E+02  0.83743051392E+02  0.50765826071E+03  0.51952110757E+03  0.41800000000E+01 0. -1.
        -11    1    1    2    0    0 -0.52218166132E+02 -0.30396856476E+02  0.25813614658E+03  0.26511313798E+03  0.00000000000E+00 0.  1.
         11    1    1    2    0    0  0.55086770702E+01 -0.58260722407E+02  0.79794995520E+02  0.98954022699E+02  0.00000000000E+00 0. -1.
</event>
<event>
 6    1  0.6506388E-006  0.2431411E+03  0.7561462E-02  0.1117718E+00
         -1   -1    0    0    0  501 -0.00000000000E+00  0.00000000000E+00  0.56806126211E+03  0.56806126211E+03  0.00000000000E+00 0.  1.
          1   -1    0    0  501    0  0.00000000000E+00 -0.00000000000E+00 -0.14096040911E+03  0.14096040911E+03  0.00000000000E+00 0. -1.
          5    1    1    2  502    0 -0.34225295542E+01  0.18755728240E+02  0.28251996373E+01  0.19721693724E+02  0.41800000000E+01 0. -1.
         -5    1    1    2    0  502  0.14328706963E+03 -0.10703893213E+03  0.34454534518E+03  0.38822349825E+03  0.41800000000E+01 0.  1.
        -11    1    1    2    0    0  0.20615234744E+02  0.12212481284E+03  0.53788310232E+02  0.13502829382E+03  0.00000000000E+00 0.  1.
         11    1    1    2    0    0 -0.16047977481E+03 -0.33841608953E+02  0.25941997955E+02  0.16604818541E+03  0.00000000000E+00 0. -1.
</event>
<event>
 7    1  0.6506388E-006  0.1011888E+03  0.7561462E-02  0.1277816E+00
          2   -1    0    0  501    0  0.00000000000E+00  0.00000000000E+00  0.79364483385E+03  0.79364483385E+03  0.00000000000E+00 0.  1.
         -2   -1    0    0    0  501 -0.00000000000E+00 -0.00000000000E+00 -0.15589239861E+02  0.15589239861E+02  0.00000000000E+00 0. -1.
         23    2    1    2    0    0  0.24354992572E+02 -0.23674868463E+02  0.39099449174E+03  0.41192053054E+03  0.12509262908E+03 0.  0.
          5    1    3    3  502    0 -0.13788184828E+02  0.37686626224E+02  0.25204075883E+03  0.25524970587E+03  0.41800000000E+01 0.  1.
         -5    1    3    3    0  502  0.38143177399E+02 -0.61361494687E+02  0.13895373291E+03  0.15667082467E+03  0.41800000000E+01 0.  1.
        -11    1    1    2    0    0 -0.55084055001E+02  0.98244562422E+01  0.24520277469E+03  0.25150581260E+03  0.00000000000E+00 0.  1.
         11    1    1    2    0    0  0.30729062430E+02  0.13850412221E+02  0.14185832756E+03  0.14580773057E+03  0.00000000000E+00 0. -1.
</event>
<event>
 7    1  0.6506388E-006  0.1008746E+03  0.7561462E-02  0.1278468E+00
         -2   -1    0    0    0  501 -0.00000000000E+00  0.00000000000E+00  0.49825756243E+02  0.49825756243E+02  0.00000000000E+00 0.  1.
          2   -1    0    0  501    0  0.00000000000E+00 -0.00000000000E+00 -0.33651548076E+03  0.33651548076E+03  0.00000000000E+00 0. -1.
         23    2    1    2    0    0  0.66048691909E+02  0.11137895239E+02 -0.11874532688E+03  0.18503289234E+03  0.12510090399E+03 0.  0.
          5    1    3    3  502    0 -0.15797385414E+02  0.20770162296E+02 -0.95809795044E+02  0.99387857679E+02  0.41800000000E+01 0.  1.
         -5    1    3    3    0  502  0.81846077323E+02 -0.96322670570E+01 -0.22935531841E+02  0.85645034664E+02  0.41800000000E+01 0.  1.
        -11    1    1    2    0    0 -0.21030429371E+01 -0.26869866793E+02 -0.11107687500E+03  0.11429997677E+03  0.00000000000E+00 0. -1.
         11    1    1    2    0    0 -0.63945648972E+02  0.15731971553E+02 -0.56867522634E+02  0.87008367885E+02  0.00000000000E+00 0.  1.
</event>
<event>
 7    1  0.6506388E-006  0.8887747E+02  0.7561462E-02  0.1305593E+00
         -1   -1    0    0    0  501 -0.00000000000E+00  0.00000000000E+00  0.18570086675E+03  0.18570086675E+03  0.00000000000E+00 0.  1.
          1   -1    0    0  501    0  0.00000000000E+00 -0.00000000000E+00 -0.82237911735E+02  0.82237911735E+02  0.00000000000E+00 0. -1.
         23    2    1    2    0    0 -0.45051622219E+02  0.33280809733E+02  0.49091879208E+02  0.14558710436E+03  0.12509329075E+03 0.  0.
          5    1    3    3  502    0 -0.29025833359E+02 -0.80994608642E+01  0.83764014147E+02  0.89117802567E+02  0.41800000000E+01 0.  1.
         -5    1    3    3    0  502 -0.16025788860E+02  0.41380270598E+02 -0.34672134939E+02  0.56469301789E+02  0.41800000000E+01 0.  1.
        -11    1    1    2    0    0 -0.26069823686E+02 -0.10068543790E+02  0.35526700921E+02  0.45201302630E+02  0.00000000000E+00 0.  1.
         11    1    1    2    0    0  0.71121445905E+02 -0.23212265944E+02  0.18844374889E+02  0.77150371501E+02  0.00000000000E+00 0. -1.
</event>
<event>
 7    1  0.6506388E-006  0.2018805E+03  0.7561462E-02  0.1148162E+00
         -1   -1    0    0    0  501 -0.00000000000E+00  0.00000000000E+00  0.16589331439E+03  0.16589331439E+03  0.00000000000E+00 0.  1.
          1   -1    0    0  501    0  0.00000000000E+00 -0.00000000000E+00 -0.30270135803E+03  0.30270135803E+03  0.00000000000E+00 0. -1.
         23    2    1    2    0    0  0.19327621292E+03 -0.23532324114E+02 -0.96075204012E+02  0.25067775310E+03  0.12529735158E+03 0.  0.
          5    1    3    3  502    0  0.15918742663E+03  0.11931074445E+02 -0.21338553083E+02  0.16110801836E+03  0.41800000000E+01 0.  1.
         -5    1    3    3    0  502  0.34088786293E+02 -0.35463398559E+02 -0.74736650930E+02  0.89569734735E+02  0.41800000000E+01 0.  1.
        -11    1    1    2    0    0 -0.78434174313E+02  0.92190289885E+01  0.27433240302E+02  0.83603186955E+02  0.00000000000E+00 0.  1.
         11    1    1    2    0    0 -0.11484203861E+03  0.14313295126E+02 -0.68166079926E+02  0.13431373236E+03  0.00000000000E+00 0. -1.
</event>
<event>
 7    1  0.6506388E-006  0.9653720E+02  0.7561462E-02  0.1287751E+00
          4   -1    0    0  501    0  0.00000000000E+00  0.00000000000E+00  0.27279079341E+02  0.27279079341E+02  0.00000000000E+00 0. -1.
         -4   -1    0    0    0  501 -0.00000000000E+00 -0.00000000000E+00 -0.38895190169E+03  0.38895190169E+03  0.00000000000E+00 0.  1.
         23    2    1    2    0    0  0.55294565438E+02  0.28457528759E+02 -0.29778919547E+03  0.32465432633E+03  0.11337859920E+03 0.  0.
          5    1    3    3  502    0  0.28988229702E+02 -0.42859252119E+02 -0.98952749431E+02  0.11174234637E+03  0.41800000000E+01 0. -1.
         -5    1    3    3    0  502  0.26306335736E+02  0.71316780877E+02 -0.19883644604E+03  0.21291197996E+03  0.41800000000E+01 0.  1.
        -11    1    1    2    0    0 -0.28280287977E+02 -0.39391030203E+01 -0.34139161221E+02  0.44505882190E+02  0.00000000000E+00 0. -1.
         11    1    1    2    0    0 -0.27014277461E+02 -0.24518425738E+02 -0.29744465655E+02  0.47070772508E+02  0.00000000000E+00 0.  1.
</event>
<event>
 7    1  0.6506388E-006  0.8596176E+02  0.7561462E-02  0.1312936E+00
         -1   -1    0    0    0  501 -0.00000000000E+00  0.00000000000E+00  0.20938683551E+02  0.20938683551E+02  0.00000000000E+00 0.  1.
          1   -1    0    0  501    0  0.00000000000E+00 -0.00000000000E+00 -0.79103474723E+03  0.79103474723E+03  0.00000000000E+00 0. -1.
         23    2    1    2    0    0  0.52969706483E+02  0.31621040982E+02 -0.32592483429E+03  0.35451426260E+03  0.12509070605E+03 0.  0.
          5    1    3    3  502    0  0.16971729879E+02 -0.17450397281E+02 -0.27192549249E+03  0.27304487149E+03  0.41800000000E+01 0.  1.
         -5    1    3    3    0  502  0.35997976604E+02  0.49071438263E+02 -0.53999341799E+02  0.81469391108E+02  0.41800000000E+01 0.  1.
        -11    1    1    2    0    0  0.11979454632E+02  0.33733385329E+01 -0.73545762818E+01  0.14456020836E+02  0.00000000000E+00 0.  1.
         11    1    1    2    0    0 -0.64949161115E+02 -0.34994379515E+02 -0.43681665310E+03  0.44300314734E+03  0.00000000000E+00 0. -1.
</event>
<event>
 7    1  0.6506388E-006  0.1695895E+03  0.7561462E-02  0.1178277E+00
         -1   -1    0    0    0  501 -0.00000000000E+00  0.00000000000E+00  0.52579248424E+03  0.52579248424E+03  0.00000000000E+00 0.  1.
          1   -1    0    0  501    0  0.00000000000E+00 -0.00000000000E+00 -0.61148354640E+02  0.61148354640E+02  0.00000000000E+00 0. -1.
         23    2    1    2    0    0  0.18351633872E+02 -0.12063978714E+03  0.31025436511E+03  0.35611937013E+03  0.12518983187E+03 0.  0.
          5    1    3    3  502    0  0.55959831575E+02 -0.19168490154E+02  0.64810698347E+02  0.87845505206E+02  0.41800000000E+01 0.  1.
         -5    1    3    3    0  502 -0.37608197703E+02 -0.10147129699E+03  0.24544366677E+03  0.26827386493E+03  0.41800000000E+01 0.  1.
        -11    1    1    2    0    0 -0.34727210946E+02 -0.12897486365E+02  0.32592709136E+02  0.49341757401E+02  0.00000000000E+00 0.  1.
         11    1    1    2    0    0  0.16375577073E+02  0.13353727350E+03  0.12179705536E+03  0.18147971135E+03  0.00000000000E+00 0. -1.
</event>
<event>
 7    1  0.6506388E-006  0.1021275E+03  0.7561462E-02  0.1275885E+00
         -2   -1    0    0    0  501 -0.00000000000E+00  0.00000000000E+00  0.26149145159E+02  0.26149145159E+02  0.00000000000E+00 0.  1.
          2   -1    0    0  501    0  0.00000000000E+00 -0.00000000000E+00 -0.75716695525E+03  0.75716695525E+03  0.00000000000E+00 0. -1.
         23    2    1    2    0    0 -0.45137537783E+02 -0.85449511670E+02 -0.37679867922E+03  0.40861000494E+03  0.12508347259E+03 0.  0.
          5    1    3    3  502    0 -0.41554311189E+02 -0.53901199980E+02 -0.61919506229E+02  0.92106448142E+02  0.41800000000E+01 0.  1.
         -5    1    3    3    0  502 -0.35832265943E+01 -0.31548311690E+02 -0.31487917299E+03  0.31650355680E+03  0.41800000000E+01 0.  1.
        -11    1    1    2    0    0  0.48336301150E+02  0.54172667010E+02 -0.32043070722E+03  0.32855275678E+03  0.00000000000E+00 0. -1.
         11    1    1    2    0    0 -0.31987633669E+01  0.31276844660E+02 -0.33788423651E+02  0.46153338685E+02  0.00000000000E+00 0.  1.
</event>
<event>
 7    1  0.6506388E-006  0.3230960E+03  0.7561462E-02  0.1074233E+00
          2   -1    0    0  501    0  0.00000000000E+00  0.00000000000E+00  0.53256795928E+03  0.53256795928E+03  0.00000000000E+00 0. -1.
         -2   -1    0    0    0  501 -0.00000000000E+00 -0.00000000000E+00 -0.42099674042E+03  0.42099674042E+03  0.00000000000E+00 0.  1.
         23    2    1    2    0    0 -0.28220242953E+03  0.12638563721E+03 -0.28772105787E+03  0.44050248343E+03  0.12508992863E+03 0.  0.
          5    1    3    3  502    0  0.98203254172E+01 -0.66602176571E+01 -0.12265111336E+02  0.17569935874E+02  0.41800000000E+01 0. -1.
         -5    1    3    3    0  502 -0.29202275495E+03  0.13304585486E+03 -0.27545594653E+03  0.42293254756E+03  0.41800000000E+01 0. -1.
        -11    1    1    2    0    0  0.97453511834E+02 -0.68344368446E+02  0.21491061804E+03  0.24567196302E+03  0.00000000000E+00 0.  1.
         11    1    1    2    0    0  0.18474891770E+03 -0.58041268761E+02  0.18438165868E+03  0.26739025324E+03  0.00000000000E+00 0. -1.
</event>
<event>
 7    1  0.6506388E-006  0.1034048E+03  0.7561462E-02  0.1273295E+00
         -2   -1    0    0    0  501 -0.00000000000E+00  0.00000000000E+00  0.53798482719E+02  0.53798482719E+02  0.00000000000E+00 0.  1.
          2   -1    0    0  501    0  0.00000000000E+00 -0.00000000000E+00 -0.28648374456E+03  0.28648374456E+03  0.00000000000E+00 0. -1.
         23    2    1    2    0    0  0.41015079957E+02 -0.21661187549E+02 -0.76285672995E+02  0.15368283617E+03  0.12508983332E+03 0.  0.
          5    1    3    3  502    0  0.44159920123E+02  0.46895861456E+02 -0.39995721650E+02  0.75937148467E+02  0.41800000000E+01 0.  1.
         -5    1    3    3    0  502 -0.31448401658E+01 -0.68557049004E+02 -0.36289951345E+02  0.77745687703E+02  0.41800000000E+01 0.  1.
        -11    1    1    2    0    0 -0.44516134634E+02 -0.66199250661E+01 -0.23680606970E+02  0.50855489351E+02  0.00000000000E+00 0.  1.
         11    1    1    2    0    0  0.35010546763E+01  0.28281112615E+02 -0.13271898188E+03  0.13574390176E+03  0.00000000000E+00 0. -1.
</event>
<event>
 7    1  0.6506388E-006  0.8415419E+02  0.7561462E-02  0.1317659E+00
          4   -1    0    0  501    0  0.00000000000E+00  0.00000000000E+00  0.12778571144E+03  0.12778571144E+03  0.00000000000E+00 0. -1.
         -4   -1    0    0    0  501 -0.00000000000E+00 -0.00000000000E+00 -0.11318160034E+03  0.11318160034E+03  0.00000000000E+00 0.  1.
         23    2    1    2    0    0 -0.48626739070E+02  0.13109478386E+02 -0.97883004454E+01  0.13520624546E+03  0.12509396393E+03 0.  0.
          5    1    3    3  502    0 -0.30250345430E+02 -0.32343078388E+02 -0.53369641544E+02  0.69476248868E+02  0.41800000000E+01 0. -1.
         -5    1    3    3    0  502 -0.18376393640E+02  0.45452556774E+02  0.43581341098E+02  0.65729996596E+02  0.41800000000E+01 0. -1.
        -11    1    1    2    0    0 -0.67132919697E+01 -0.17858361186E+02  0.43114562223E+02  0.47147161410E+02  0.00000000000E+00 0. -1.
         11    1    1    2    0    0  0.55340031039E+02  0.47488828005E+01 -0.18722150674E+02  0.58613904913E+02  0.00000000000E+00 0.  1.
</event>
<event>
 7    1  0.6506388E-006  0.1877342E+03  0.7561462E-02  0.1160521E+00
          1   -1    0    0  501    0  0.00000000000E+00  0.00000000000E+00  0.78047002866E+03  0.78047002866E+03  0.00000000000E+00 0. -1.
         -1   -1    0    0    0  501 -0.00000000000E+00 -0.00000000000E+00 -0.47641821755E+02  0.47641821755E+02  0.00000000000E+00 0.  1.
         23    2    1    2    0    0 -0.15189965610E+03 -0.37895569235E+02  0.33595128659E+03  0.39117824187E+03  0.12509024844E+03 0.  0.
          5    1    3    3  502    0 -0.14116517831E+03 -0.72295644254E+02  0.23185894040E+03  0.28094538328E+03  0.41800000000E+01 0.  1.
         -5    1    3    3    0  502 -0.10734477784E+02  0.34400075019E+02  0.10409234620E+03  0.11023285858E+03  0.41800000000E+01 0.  1.
        -11    1    1    2    0    0  0.14030294060E+03  0.62301757548E+02  0.35862448528E+03  0.39009991743E+03  0.00000000000E+00 0. -1.
         11    1    1    2    0    0  0.11596715495E+02 -0.24406188314E+02  0.38252435031E+02  0.46833691122E+02  0.00000000000E+00 0.  1.
</event>
<event>
 6    1  0.6506388E-006  0.1802278E+03  0.7561462E-02  0.1167583E+00
         -2   -1    0    0    0  501 -0.00000000000E+00  0.00000000000E+00  0.44717181147E+03  0.44717181147E+03  0.00000000000E+00 0.  1.
          2   -1    0    0  501    0  0.00000000000E+00 -0.00000000000E+00 -0.20184448958E+03  0.20184448958E+03  0.00000000000E+00 0. -1.
          5    1    1    2  502    0  0.86273236591E+02  0.64001305375E+02 -0.11988254522E+03  0.16102340045E+03  0.41800000000E+01 0. -1.
         -5    1    1    2    0  502 -0.12620576853E+03 -0.81952824585E+02  0.35429709236E+03  0.38495202756E+03  0.41800000000E+01 0.  1.
        -11    1    1    2    0    0  0.42556683151E+02 -0.31467504621E+02  0.71763471147E+01  0.53411375996E+02  0.00000000000E+00 0.  1.
         11    1    1    2    0    0 -0.26241512125E+01  0.49419023831E+02  0.37364276419E+01  0.49629497051E+02  0.00000000000E+00 0. -1.
</event>
<event>
 7    1  0.6506388E-006  0.1196703E+03  0.7561462E-02  0.1243642E+00
         -2   -1    0    0    0  501 -0.00000000000E+00  0.00000000000E+00  0.58069626195E+02  0.58069626195E+02  0.00000000000E+00 0.  1.
          2   -1    0    0  501    0  0.00000000000E+00 -0.00000000000E+00 -0.28818907856E+03  0.28818907856E+03  0.00000000000E+00 0. -1.
         23    2    1    2    0    0  0.68162803874E+02  0.15103676794E+02 -0.10345717698E+03  0.17671056958E+03  0.12509575951E+03 0.  0.
          5    1    3    3  502    0  0.41619438972E+02  0.70215472967E+02 -0.63884919134E+02  0.10373594188E+03  0.41800000000E+01 0.  1.
         -5    1    3    3    0  502  0.26543364902E+02 -0.55111796173E+02 -0.39572257850E+02  0.72974627707E+02  0.41800000000E+01 0.  1.
        -11    1    1    2    0    0  0.18707587445E+01  0.18516909879E+02  0.25454940813E+01  0.18784441164E+02  0.00000000000E+00 0.  1.
         11    1    1    2    0    0 -0.70033562619E+02 -0.33620586673E+02 -0.12920776946E+03  0.15076369401E+03  0.00000000000E+00 0. -1.
</event>
<event>
 7    1  0.6506388E-006  0.1711736E+03  0.7561462E-02  0.1176630E+00
         -4   -1    0    0    0  501 -0.00000000000E+00  0.00000000000E+00  0.50659457648E+03  0.50659457648E+03  0.00000000000E+00 0.  1.
          4   -1    0    0  501    0  0.00000000000E+00 -0.00000000000E+00 -0.59455514501E+02  0.59455514501E+02  0.00000000000E+00 0. -1.
         23    2    1    2    0    0  0.13187237878E+03  0.20320343426E+02  0.20199594449E+03  0.27249720713E+03  0.12509646542E+03 0.  0.
          5    1    3    3  502    0  0.39481027437E+02 -0.51223558350E+02  0.87110033500E+02  0.10857363766E+03  0.41800000000E+01 0.  1.
         -5    1    3    3    0  502  0.92391351340E+02  0.71543901776E+02  0.11488591100E+03  0.16392356947E+03  0.41800000000E+01 0.  1.
        -11    1    1    2    0    0 -0.20087886345E+02  0.31531154462E+02  0.44838993281E+02  0.58380409368E+02  0.00000000000E+00 0.  1.
         11    1    1    2    0    0 -0.11178449243E+03 -0.51851497888E+02  0.20030412420E+03  0.23517247448E+03  0.00000000000E+00 0. -1.
</event>
<event>
 7    1  0.6506388E-006  0.1368053E+03  0.7561462E-02  0.1217693E+00
         -4   -1    0    0    0  501 -0.00000000000E+00  0.00000000000E+00  0.23341078663E+03  0.23341078663E+03  0.00000000000E+00 0.  1.
          4   -1    0    0  501    0  0.00000000000E+00 -0.00000000000E+00 -0.13264001248E+03  0.13264001248E+03  0.00000000000E+00 0. -1.
         23    2    1    2    0    0 -0.49111397256E+02 -0.12180537563E+03  0.97759781290E+02  0.20602981803E+03  0.12507130849E+03 0.  0.
          5    1    3    3  502    0 -0.57434392061E+01 -0.59768128082E+02  0.11362255628E+03  0.12857983482E+03  0.41800000000E+01 0.  1.
         -5    1    3    3    0  502 -0.43367958050E+02 -0.62037247546E+02 -0.15862774988E+02  0.77449983207E+02  0.41800000000E+01 0.  1.
        -11    1    1    2    0    0  0.49677358361E+02  0.70167436322E+02  0.41644625551E+02  0.95527922049E+02  0.00000000000E+00 0.  1.
         11    1    1    2    0    0 -0.56596110486E+00  0.51637939306E+02 -0.38633632695E+02  0.64493059029E+02  0.00000000000E+00 0. -1.
</event>
<event>
 7    1  0.6506388E-006  0.9842528E+02  0.7561462E-02  0.1283643E+00
         -1   -1    0    0    0  501 -0.00000000000E+00  0.00000000000E+00  0.21529093592E+02  0.21529093592E+02  0.00000000000E+00 0. -1.
          1   -1    0    0  501    0  0.00000000000E+00 -0.00000000000E+00 -0.68332372718E+03  0.68332372718E+03  0.00000000000E+00 0.  1.
         23    2    1    2    0    0  0.50136872325E+02 -0.49872559108E+02 -0.34050487957E+03  0.36958486520E+03  0.12509365074E+03 0.  0.
          5    1    3    3  502    0  0.37008443179E+01 -0.60772619080E+02 -0.62010770523E+02  0.87004686882E+02  0.41800000000E+01 0.  1.
         -5    1    3    3    0  502  0.46436028007E+02  0.10900059973E+02 -0.27849410905E+03  0.28258017832E+03  0.41800000000E+01 0.  1.
        -11    1    1    2    0    0 -0.77471547124E+00  0.36892777927E+02 -0.73116914353E+02  0.81900918260E+02  0.00000000000E+00 0. -1.
         11    1    1    2    0    0 -0.49362156854E+02  0.12979781181E+02 -0.24817283967E+03  0.25336703731E+03  0.00000000000E+00 0.  1.
</event>
<event>
 7    1  0.6506388E-006  0.6837018E+02  0.7561462E-02  0.1365725E+00
         -1   -1    0    0    0  501 -0.00000000000E+00  0.00000000000E+00  0.47510969404E+02  0.47510969404E+02  0.00000000000E+00 0.  1.
          1   -1    0    0  501    0  0.00000000000E+00 -0.00000000000E+00 -0.31568687857E+03  0.31568687857E+03  0.00000000000E+00 0. -1.
         23    2    1    2    0    0 -0.23620828451E+02 -0.58919218184E+02 -0.15590009768E+03  0.20971801929E+03  0.12508952534E+03 0.  0.
          5    1    3    3  502    0 -0.20665624159E+02 -0.19470765233E+02  0.16284913531E+02  0.32997720063E+02  0.41800000000E+01 0.  1.
         -5    1    3    3    0  502 -0.29552042927E+01 -0.39448452951E+02 -0.17218501121E+03  0.17672029923E+03  0.41800000000E+01 0.  1.
        -11    1    1    2    0    0  0.27982511129E+02  0.39806708661E+02 -0.12218258403E+03  0.13151493765E+03  0.00000000000E+00 0. -1.
         11    1    1    2    0    0 -0.43616826780E+01  0.19112509523E+02  0.99067725459E+01  0.21964891039E+02  0.00000000000E+00 0.  1.
</event>
<event>
 7    1  0.6506388E-006  0.1070249E+03  0.7561462E-02  0.1266181E+00
         -3   -1    0    0    0  501 -0.00000000000E+00  0.00000000000E+00  0.23761220150E+03  0.23761220150E+03  0.00000000000E+00 0.  1.
          3   -1    0    0  501    0  0.00000000000E+00 -0.00000000000E+00 -0.58074540654E+02  0.58074540654E+02  0.00000000000E+00 0. -1.
         23    2    1    2    0    0  0.48769515563E+02  0.32431284627E+01  0.14652605722E+03  0.19876229608E+03  0.12509029286E+03 0.  0.
          5    1    3    3  502    0  0.49184415156E+02  0.54003364981E+02  0.12193978752E+03  0.14220497285E+03  0.41800000000E+01 0.  1.
         -5    1    3    3    0  502 -0.41489959299E+00 -0.50760236518E+02  0.24586269696E+02  0.56557323227E+02  0.41800000000E+01 0.  1.
        -11    1    1    2    0    0 -0.48902454628E+02  0.29564366117E+02  0.13374640457E+02  0.58688864531E+02  0.00000000000E+00 0. -1.
         11    1    1    2    0    0  0.13293906524E+00 -0.32807494580E+02  0.19636963174E+02  0.38235581545E+02  0.00000000000E+00 0.  1.
</event>
<event>
 7    1  0.6506388E-006  0.1217675E+03  0.7561462E-02  0.1240209E+00
         -1   -1    0    0    0  501 -0.00000000000E+00  0.00000000000E+00  0.41199846847E+03  0.41199846847E+03  0.00000000000E+00 0.  1.
          1   -1    0    0  501    0  0.00000000000E+00 -0.00000000000E+00 -0.42342157217E+02  0.42342157217E+02  0.00000000000E+00 0. -1.
         23    2    1    2    0    0  0.11980198980E+02 -0.55237138390E+02  0.29215313666E+03  0.32277723648E+03  0.12504808077E+03 0.  0.
          5    1    3    3  502    0  0.68610727518E+02 -0.32863651315E+02  0.16080506627E+03  0.17794154447E+03  0.41800000000E+01 0.  1.
         -5    1    3    3    0  502 -0.56630528538E+02 -0.22373487075E+02  0.13134807039E+03  0.14483569201E+03  0.41800000000E+01 0.  1.
        -11    1    1    2    0    0  0.25095296406E+02  0.63541455207E+02  0.49761510576E+02  0.84519218917E+02  0.00000000000E+00 0. -1.
         11    1    1    2    0    0 -0.37075495386E+02 -0.83043168167E+01  0.27741664019E+02  0.47044170292E+02  0.00000000000E+00 0.  1.
</event>
<event>
 7    1  0.6506388E-006  0.2041361E+03  0.7561462E-02  0.1146296E+00
         -2   -1    0    0    0  501 -0.00000000000E+00  0.00000000000E+00  0.11634191694E+04  0.11634191694E+04  0.00000000000E+00 0.  1.
          2   -1    0    0  501    0  0.00000000000E+00 -0.00000000000E+00 -0.63190710041E+02  0.63190710041E+02  0.00000000000E+00 0. -1.
         23    2    1    2    0    0  0.51840075628E+02 -0.18497286920E+03  0.92370049495E+03  0.95172116347E+03  0.12509281693E+03 0.  0.
          5    1    3    3  502    0 -0.17563269363E+02 -0.26838781521E+02  0.40730181032E+02  0.52011620540E+02  0.41800000000E+01 0.  1.
         -5    1    3    3    0  502  0.69403344991E+02 -0.15813408768E+03  0.88297031391E+03  0.89970954293E+03  0.41800000000E+01 0.  1.
        -11    1    1    2    0    0 -0.63962130491E+02  0.11007617925E+03  0.14436526017E+03  0.19248181140E+03  0.00000000000E+00 0.  1.
         11    1    1    2    0    0  0.12122054863E+02  0.74896689948E+02  0.32162704263E+02  0.82406904594E+02  0.00000000000E+00 0. -1.
</event>
<event>
 7    1  0.6506388E-006  0.1277287E+03  0.7561462E-02  0.1230865E+00
          1   -1    0    0  501    0  0.00000000000E+00  0.00000000000E+00  0.87724018652E+02  0.87724018652E+02  0.00000000000E+00 0. -1.
         -1   -1    0    0    0  501 -0.00000000000E+00 -0.00000000000E+00 -0.41883177119E+03  0.41883177119E+03  0.00000000000E+00 0.  1.
         23    2    1    2    0    0  0.82115194904E+02 -0.50328209623E+02 -0.32102490770E+03  0.35774323289E+03  0.12508954950E+03 0.  0.
          5    1    3    3  502    0  0.52122675995E+02 -0.11891174434E+01 -0.28487513436E+03  0.28963684491E+03  0.41800000000E+01 0.  1.
         -5    1    3    3    0  502  0.29992518909E+02 -0.49139092180E+02 -0.36149773347E+02  0.68106387981E+02  0.41800000000E+01 0.  1.
        -11    1    1    2    0    0 -0.94165397037E+02  0.49795732776E+00 -0.20802868468E+02  0.96437177982E+02  0.00000000000E+00 0.  1.
         11    1    1    2    0    0  0.12050202133E+02  0.49830252295E+02  0.10720023637E+02  0.52375378968E+02  0.00000000000E+00 0. -1.
</event>
<event>
 7    1  0.6506388E-006  0.8806333E+02  0.7561462E-02  0.1307611E+00
         -1   -1    0    0    0  501 -0.00000000000E+00  0.00000000000E+00  0.24611686398E+03  0.24611686398E+03  0.00000000000E+00 0.  1.
          1   -1    0    0  501    0  0.00000000000E+00 -0.00000000000E+00 -0.13546550452E+03  0.13546550452E+03  0.00000000000E+00 0. -1.
         23    2    1    2    0    0 -0.15174811108E+02  0.15254511464E+02  0.20955412513E+03  0.24500168857E+03  0.12509964441E+03 0.  0.
          5    1    3    3  502    0 -0.52283070509E+02  0.50436948610E+02  0.96584994594E+02  0.12092782487E+03  0.41800000000E+01 0.  1.
         -5    1    3    3    0  502  0.37108259401E+02 -0.35182437146E+02  0.11296913054E+03  0.12407386370E+03  0.41800000000E+01 0.  1.
        -11    1    1    2    0    0  0.32003307055E+02 -0.14698089460E+02 -0.11060465913E+03  0.11607599286E+03  0.00000000000E+00 0. -1.
         11    1    1    2    0    0 -0.16828495947E+02 -0.55642200427E+00  0.11701893468E+02  0.20504687075E+02  0.00000000000E+00 0.  1.
</event>
<event>
 7    1  0.6506388E-006  0.8964609E+02  0.7561462E-02  0.1303711E+00
         -2   -1    0    0    0  501 -0.00000000000E+00  0.00000000000E+00  0.22669164284E+02  0.22669164284E+02  0.00000000000E+00 0.  1.
          2   -1    0    0  501    0  0.00000000000E+00 -0.00000000000E+00 -0.72167119192E+03  0.72167119192E+03  0.00000000000E+00 0. -1.
         23    2    1    2    0    0  0.54964814922E+02  0.24213335823E+02 -0.47106702736E+03  0.49107967634E+03  0.12509071806E+03 0.  0.
          5    1    3    3  502    0  0.47243965223E+02  0.19430022942E+01 -0.48601027188E+02  0.67935997466E+02  0.41800000000E+01 0. -1.
         -5    1    3    3    0  502  0.77208496993E+01  0.22270333529E+02 -0.42246600017E+03  0.42314367888E+03  0.41800000000E+01 0. -1.
        -11    1    1    2    0    0  0.23360455260E+02  0.56941371078E+01 -0.76195815559E+02  0.79899539274E+02  0.00000000000E+00 0. -1.
         11    1    1    2    0    0 -0.78325270182E+02 -0.29907472931E+02 -0.15173918472E+03  0.17336114059E+03  0.00000000000E+00 0.  1.
</event>
<event>
 7    1  0.6506388E-006  0.8771458E+02  0.7561462E-02  0.1308482E+00
          1   -1    0    0  501    0  0.00000000000E+00  0.00000000000E+00  0.43393808601E+03  0.43393808601E+03  0.00000000000E+00 0. -1.
         -1   -1    0    0    0  501 -0.00000000000E+00 -0.00000000000E+00 -0.27018466337E+02  0.27018466337E+02  0.00000000000E+00 0.  1.
         23    2    1    2    0    0  0.14670643469E+02 -0.15338867188E+01  0.25504781627E+03  0.28445364231E+03  0.12508759110E+03 0.  0.
          5    1    3    3  502    0 -0.45487192080E+02 -0.16100706095E+02  0.18336448846E+03  0.18965317136E+03  0.41800000000E+01 0.  1.
         -5    1    3    3    0  502  0.60157835549E+02  0.14566819376E+02  0.71683327812E+02  0.94800470942E+02  0.41800000000E+01 0.  1.
        -11    1    1    2    0    0 -0.77527546062E+01 -0.30867806771E+02  0.13616758190E+03  0.13983753809E+03  0.00000000000E+00 0. -1.
         11    1    1    2    0    0 -0.69178888623E+01  0.32401693490E+02  0.15704221503E+02  0.36665371952E+02  0.00000000000E+00 0.  1.
</event>
<event>
 7    1  0.6506388E-006  0.1285000E+03  0.7561462E-02  0.1229699E+00
         -1   -1    0    0    0  501 -0.00000000000E+00  0.00000000000E+00  0.14779153674E+03  0.14779153674E+03  0.00000000000E+00 0.  1.
          1   -1    0    0  501    0  0.00000000000E+00 -0.00000000000E+00 -0.13217239875E+03  0.13217239875E+03  0.00000000000E+00 0. -1.
         23    2    1    2    0    0  0.68215625526E+02 -0.50283361272E+02  0.32100658528E+02  0.15446847033E+03  0.12509303763E+03 0.  0.
          5    1    3    3  502    0  0.70540053892E+02  0.13858502678E+02 -0.16470335383E+02  0.73869490639E+02  0.41800000000E+01 0.  1.
         -5    1    3    3    0  502 -0.23244283661E+01 -0.64141863950E+02  0.48570993911E+02  0.80598979694E+02  0.41800000000E+01 0.  1.
        -11    1    1    2    0    0 -0.69501261970E+02 -0.86408262419E+00  0.56802138978E+01  0.69738345866E+02  0.00000000000E+00 0.  1.
         11    1    1    2    0    0  0.12856364437E+01  0.51147443896E+02 -0.22161734431E+02  0.55757119287E+02  0.00000000000E+00 0. -1.
</event>
<event>
 7    1  0.6506388E-006  0.4067969E+03  0.7561462E-02  0.1041451E+00
          1   -1    0    0  501    0  0.00000000000E+00  0.00000000000E+00  0.11278423679E+03  0.11278423679E+03  0.00000000000E+00 0. -1.
         -1   -1    0    0    0  501 -0.00000000000E+00 -0.00000000000E+00 -0.15755065007E+04  0.15755065007E+04  0.00000000000E+00 0.  1.
         23    2    1    2    0    0 -0.16362477314E+03  0.37120602798E+03 -0.79805736871E+03  0.90394171579E+03  0.12509228673E+03 0.  0.
          5    1    3    3  502    0 -0.32938342020E+02  0.90244111355E+02 -0.32077126962E+03  0.33487402679E+03  0.41800000000E+01 0. -1.
         -5    1    3    3    0  502 -0.13068643112E+03  0.28096191663E+03 -0.47728609910E+03  0.56906768900E+03  0.41800000000E+01 0. -1.
        -11    1    1    2    0    0  0.32129473959E+02 -0.11706669666E+03 -0.27775033776E+03  0.30312070977E+03  0.00000000000E+00 0.  1.
         11    1    1    2    0    0  0.13149529918E+03 -0.25413933132E+03 -0.38691455740E+03  0.48122831188E+03  0.00000000000E+00 0. -1.
</event>
<event>
 6    1  0.6506388E-006  0.1612605E+03  0.7561462E-02  0.1187281E+00
         -1   -1    0    0    0  501 -0.00000000000E+00  0.00000000000E+00  0.17789365801E+03  0.17789365801E+03  0.00000000000E+00 0.  1.
          1   -1    0    0  501    0  0.00000000000E+00 -0.00000000000E+00 -0.25878860406E+03  0.25878860406E+03  0.00000000000E+00 0. -1.
          5    1    1    2  502    0  0.71137821101E+02 -0.20349960418E+02  0.23550528932E+02  0.77761239014E+02  0.41800000000E+01 0. -1.
         -5    1    1    2    0  502 -0.97205634077E+00  0.11967661436E+03  0.61024694552E+02  0.13440581335E+03  0.41800000000E+01 0.  1.
        -11    1    1    2    0    0 -0.55283972342E+02 -0.41992220195E+02 -0.28057482378E+02  0.74879145777E+02  0.00000000000E+00 0.  1.
         11    1    1    2    0    0 -0.14881792418E+02 -0.57334433745E+02 -0.13741268715E+03  0.14963606393E+03  0.00000000000E+00 0. -1.
</event>
<event>
 7    1  0.6506388E-006  0.1484866E+03  0.7561462E-02  0.1202345E+00
          3   -1    0    0  501    0  0.00000000000E+00  0.00000000000E+00  0.15362360907E+03  0.15362360907E+03  0.00000000000E+00 0. -1.
         -3   -1    0    0    0  501 -0.00000000000E+00 -0.00000000000E+00 -0.20036165185E+03  0.20036165185E+03  0.00000000000E+00 0.  1.
         23    2    1    2    0    0 -0.10095024147E+03  0.96189701019E+02 -0.61443085192E+01  0.18403521874E+03  0.11994915329E+03 0.  0.
          5    1    3    3  502    0  0.59574474474E+01 -0.23273498766E+01  0.32633410222E+02  0.33515960381E+02  0.41800000000E+01 0. -1.
         -5    1    3    3    0  502 -0.10690768892E+03  0.98517050896E+02 -0.38777718741E+02  0.15051925836E+03  0.41800000000E+01 0.  1.
        -11    1    1    2    0    0  0.27444670803E+02 -0.70103076397E+01 -0.46259505953E+02  0.54242937417E+02  0.00000000000E+00 0.  1.
         11    1    1    2    0    0  0.73505570669E+02 -0.89179393379E+02  0.56657716932E+01  0.11570710476E+03  0.00000000000E+00 0. -1.
</event>
<event>
 7    1  0.6506388E-006  0.1195088E+03  0.7561462E-02  0.1243910E+00
          2   -1    0    0  501    0  0.00000000000E+00  0.00000000000E+00  0.23967356016E+03  0.23967356016E+03  0.00000000000E+00 0. -1.
         -2   -1    0    0    0  501 -0.00000000000E+00 -0.00000000000E+00 -0.71202493998E+02  0.71202493998E+02  0.00000000000E+00 0.  1.
         23    2    1    2    0    0 -0.54537644673E+02  0.43792912307E+02  0.72007779486E+02  0.16039454389E+03  0.12509642501E+03 0.  0.
          5    1    3    3  502    0 -0.22568050537E+02  0.75566421881E+02  0.82203875511E+02  0.11399364267E+03  0.41800000000E+01 0.  1.
         -5    1    3    3    0  502 -0.31969594136E+02 -0.31773509574E+02 -0.10196096025E+02  0.46400901220E+02  0.41800000000E+01 0.  1.
        -11    1    1    2    0    0  0.48198090535E+02  0.18893876806E+02  0.35212475631E+02  0.62609527645E+02  0.00000000000E+00 0. -1.
         11    1    1    2    0    0  0.63395541381E+01 -0.62686789113E+02  0.61250811050E+02  0.87871982624E+02  0.00000000000E+00 0.  1.
</event>
<event>
 7    1  0.6506388E-006  0.1227726E+03  0.7561462E-02  0.1238592E+00
         -1   -1    0    0    0  501 -0.00000000000E+00  0.00000000000E+00  0.66018099524E+02  0.66018099524E+02  0.00000000000E+00 0. -1.
          1   -1    0    0  501    0  0.00000000000E+00 -0.00000000000E+00 -0.32734274834E+03  0.32734274834E+03  0.00000000000E+00 0.  1.
         23    2    1    2    0    0  0.24787470776E+02 -0.56657652981E+02 -0.39728291923E+02  0.14515300499E+03  0.12516608698E+03 0.  0.
          5    1    3    3  502    0  0.92610399387E+01 -0.95528949968E+02 -0.37175707380E+02  0.10300996438E+03  0.41800000000E+01 0.  1.
         -5    1    3    3    0  502  0.15526430837E+02  0.38871296987E+02 -0.25525845432E+01  0.42143040610E+02  0.41800000000E+01 0.  1.
        -11    1    1    2    0    0 -0.15392712190E+01  0.76700872030E+02 -0.12318447595E+03  0.14511997878E+03  0.00000000000E+00 0.  1.
         11    1    1    2    0    0 -0.23248199557E+02 -0.20043219049E+02 -0.98411880944E+02  0.10308786409E+03  0.00000000000E+00 0. -1.
</event>
<event>
 7    1  0.6506388E-006  0.2025023E+03  0.7561462E-02  0.1147645E+00
         -1   -1    0    0    0  501 -0.00000000000E+00  0.00000000000E+00  0.14145979663E+03  0.14145979663E+03  0.00000000000E+00 0.  1.
          1   -1    0    0  501    0  0.00000000000E+00 -0.00000000000E+00 -0.37187845339E+03  0.37187845339E+03  0.00000000000E+00 0. -1.
         23    2    1    2    0    0  0.13010953755E+03 -0.11913906272E+03 -0.90588187509E+01  0.21646094550E+03  0.12510264068E+03 0.  0.
          5    1    3    3  502    0  0.34108949627E+02 -0.10835621737E+03  0.20158843564E+02  0.11544843724E+03  0.41800000000E+01 0.  1.
         -5    1    3    3    0  502  0.96000587920E+02 -0.10782845354E+02 -0.29217662315E+02  0.10101250826E+03  0.41800000000E+01 0.  1.
        -11    1    1    2    0    0  0.69932946156E+01  0.30692031581E+02 -0.18375942616E+02  0.36449722072E+02  0.00000000000E+00 0.  1.
         11    1    1    2    0    0 -0.13710283216E+03  0.88447031143E+02 -0.20298389540E+03  0.26042758244E+03  0.00000000000E+00 0. -1.
</event>
<event>
 7    1  0.6506388E-006  0.1732841E+03  0.7561462E-02  0.1174466E+00
         -1   -1    0    0    0  501 -0.00000000000E+00  0.00000000000E+00  0.60300541516E+02  0.60300541516E+02  0.00000000000E+00 0.  1.
          1   -1    0    0  501    0  0.00000000000E+00 -0.00000000000E+00 -0.52596836466E+03  0.52596836466E+03  0.00000000000E+00 0. -1.
         23    2    1    2    0    0  0.83649621052E+02 -0.11294886870E+03 -0.26129502802E+03  0.32198998286E+03  0.12509097230E+03 0.  0.
          5    1    3    3  502    0  0.10642546096E+03 -0.54905360948E+02 -0.20711937352E+03  0.23928410872E+03  0.41800000000E+01 0. -1.
         -5    1    3    3    0  502 -0.22775839905E+02 -0.58043507754E+02 -0.54175654497E+02  0.82705874132E+02  0.41800000000E+01 0. -1.
        -11    1    1    2    0    0 -0.32692172638E+02  0.10824637253E+03 -0.16346770491E+03  0.19876555503E+03  0.00000000000E+00 0.  1.
         11    1    1    2    0    0 -0.50957448414E+02  0.47024961725E+01 -0.40905090222E+02  0.65513368294E+02  0.00000000000E+00 0. -1.
</event>
<event>
 7    1  0.6506388E-006  0.1627170E+03  0.7561462E-02  0.1185663E+00
          1   -1    0    0  501    0  0.00000000000E+00  0.00000000000E+00  0.67465956375E+03  0.67465956375E+03  0.00000000000E+00 0. -1.
         -1   -1    0    0    0  501 -0.00000000000E+00 -0.00000000000E+00 -0.48949290961E+02  0.48949290961E+02  0.00000000000E+00 0.  1.
         23    2    1    2    0    0  0.33604337591E+02 -0.14115531598E+03  0.35241548033E+03  0.40112146534E+03  0.12509070489E+03 0.  0.
          5    1    3    3  502    0  0.46605085611E+02 -0.87251919135E+02  0.32377154615E+03  0.33857114155E+03  0.41800000000E+01 0. -1.
         -5    1    3    3    0  502 -0.13000748020E+02 -0.53903396849E+02  0.28643934177E+02  0.62550323788E+02  0.41800000000E+01 0. -1.
        -11    1    1    2    0    0  0.24017267910E+02  0.73199918797E+01  0.48168013446E+02  0.54319139890E+02  0.00000000000E+00 0. -1.
         11    1    1    2    0    0 -0.57621605501E+02  0.13383532410E+03  0.22512677902E+03  0.26816824948E+03  0.00000000000E+00 0.  1.
</event>
<event>
 7    1  0.6506388E-006  0.1283349E+03  0.7561462E-02  0.1229948E+00
         -2   -1    0    0    0  501 -0.00000000000E+00  0.00000000000E+00  0.12858297555E+03  0.12858297555E+03  0.00000000000E+00 0.  1.
          2   -1    0    0  501    0  0.00000000000E+00 -0.00000000000E+00 -0.18386478151E+03  0.18386478151E+03  0.00000000000E+00 0. -1.
         23    2    1    2    0    0 -0.10414254022E+03 -0.66313501696E+00 -0.64330405780E+02  0.17502070569E+03  0.12509091846E+03 0.  0.
          5    1    3    3  502    0 -0.41216046981E+02  0.33749801211E+02  0.26146757274E+02  0.59488964745E+02  0.41800000000E+01 0. -1.
         -5    1    3    3    0  502 -0.62926493241E+02 -0.34412936228E+02 -0.90477163054E+02  0.11553174094E+03  0.41800000000E+01 0. -1.
        -11    1    1    2    0    0  0.10613271622E+03  0.23306001884E+02 -0.80861885626E+01  0.10896196410E+03  0.00000000000E+00 0. -1.
         11    1    1    2    0    0 -0.19901759983E+01 -0.22642866867E+02  0.17134788384E+02  0.28465087272E+02  0.00000000000E+00 0.  1.
</event>
<event>
 7    1  0.6506388E-006  0.9833957E+02  0.7561462E-02  0.1283827E+00
         -2   -1    0    0    0  501 -0.00000000000E+00  0.00000000000E+00  0.41966269291E+02  0.41966269291E+02  0.00000000000E+00 0.  1.
          2   -1    0    0  501    0  0.00000000000E+00 -0.00000000000E+00 -0.52259365805E+03  0.52259365805E+03  0.00000000000E+00 0. -1.
         23    2    1    2    0    0  0.12872231088E+02  0.88609606679E+02 -0.17163516302E+03  0.23048399572E+03  0.12508751485E+03 0.  0.
          5    1    3    3  502    0  0.56707488455E+01  0.70993992229E+02 -0.19046482677E+03  0.20338787319E+03  0.41800000000E+01 0. -1.
         -5    1    3    3    0  502  0.72014822425E+01  0.17615614450E+02  0.18829663753E+02  0.27096122527E+02  0.41800000000E+01 0. -1.
        -11    1    1    2    0    0 -0.35295648057E+02 -0.58254153903E+02 -0.95661438152E+02  0.11743270400E+03  0.00000000000E+00 0.  1.
         11    1    1    2    0    0  0.22423416969E+02 -0.30355452776E+02 -0.21333078758E+03  0.21664322762E+03  0.00000000000E+00 0. -1.
</event>
<event>
 7    1  0.6506388E-006  0.1558656E+03  0.7561462E-02  0.1193445E+00
         -2   -1    0    0    0  501 -0.00000000000E+00  0.00000000000E+00  0.10005199697E+03  0.10005199697E+03  0.00000000000E+00 0. -1.
          2   -1    0    0  501    0  0.00000000000E+00 -0.00000000000E+00 -0.35890000420E+03  0.35890000420E+03  0.00000000000E+00 0.  1.
         23    2    1    2    0    0 -0.14419763342E+03  0.72084095140E+01 -0.70358309058E+02  0.20357344640E+03  0.12508772031E+03 0.  0.
          5    1    3    3  502    0 -0.14083376954E+03 -0.17507563674E+02 -0.92918496896E+02  0.16968201111E+03  0.41800000000E+01 0.  1.
         -5    1    3    3    0  502 -0.33638638851E+01  0.24715973188E+02  0.22560187838E+02  0.33891435292E+02  0.41800000000E+01 0.  1.
        -11    1    1    2    0    0  0.95767858708E+02 -0.24767039770E+01 -0.48916178825E+02  0.10756583740E+03  0.00000000000E+00 0.  1.
         11    1    1    2    0    0  0.48429774717E+02 -0.47317055370E+01 -0.13957351934E+03  0.14781271738E+03  0.00000000000E+00 0. -1.
</event>
<event>
 7    1  0.6506388E-006  0.1250556E+03  0.7561462E-02  0.1234982E+00
          1   -1    0    0  501    0  0.00000000000E+00  0.00000000000E+00  0.12230942679E+04  0.12230942679E+04  0.00000000000E+00 0. -1.
         -1   -1    0    0    0  501 -0.00000000000E+00 -0.00000000000E+00 -0.14818144880E+02  0.14818144880E+02  0.00000000000E+00 0.  1.
         23    2    1    2    0    0 -0.49722185499E+02  0.60431443017E+02  0.80945786973E+03  0.82131908932E+03  0.11497281675E+03 0.  0.
          5    1    3    3  502    0  0.38784026844E+01  0.77112542061E+02  0.35085807214E+03  0.35927739330E+03  0.41800000000E+01 0. -1.
         -5    1    3    3    0  502 -0.53600588184E+02 -0.16681099044E+02  0.45859979758E+03  0.46204169602E+03  0.41800000000E+01 0.  1.
        -11    1    1    2    0    0  0.58373666411E+02 -0.77698676950E+02  0.28413757909E+03  0.30029774088E+03  0.00000000000E+00 0.  1.
         11    1    1    2    0    0 -0.86514809115E+01  0.17267233934E+02  0.11468067425E+03  0.11629558262E+03  0.00000000000E+00 0. -1.
</event>
<event>
 7    1  0.6506388E-006  0.1234913E+03  0.7561462E-02  0.1237446E+00
          2   -1    0    0  501    0  0.00000000000E+00  0.00000000000E+00  0.33313442279E+02  0.33313442279E+02  0.00000000000E+00 0. -1.
         -2   -1    0    0    0  501 -0.00000000000E+00 -0.00000000000E+00 -0.68130843161E+03  0.68130843161E+03  0.00000000000E+00 0.  1.
         23    2    1    2    0    0 -0.10066287130E+03  0.29627041550E+01 -0.41299149401E+03  0.44311455499E+03  0.12508694354E+03 0.  0.
          5    1    3    3  502    0 -0.10421422816E+03 -0.65448166104E+01 -0.16782286019E+03  0.19770034086E+03  0.41800000000E+01 0. -1.
         -5    1    3    3    0  502  0.35513568577E+01  0.95075207654E+01 -0.24516863381E+03  0.24541421412E+03  0.41800000000E+01 0. -1.
        -11    1    1    2    0    0  0.15106283100E+02  0.34834930181E+02 -0.39547497446E+02  0.54824052240E+02  0.00000000000E+00 0. -1.
         11    1    1    2    0    0  0.85556588198E+02 -0.37797634336E+02 -0.19545599787E+03  0.21668326666E+03  0.00000000000E+00 0.  1.
</event>
<event>
 7    1  0.1145858E-005  0.9258656E+02  0.7561462E-02  0.1296706E+00
         -2   -1    0    0    0  501 -0.00000000000E+00  0.00000000000E+00  0.31330557997E+02  0.31330557997E+02  0.00000000000E+00 0.  1.
          2   -1    0    0  501    0  0.00000000000E+00 -0.00000000000E+00 -0.45416326784E+03  0.45416326784E+03  0.00000000000E+00 0. -1.
         23    2    1    2    0    0  0.75294621309E+01  0.30622811046E+02 -0.16198976186E+03  0.20708122716E+03  0.12508997697E+03 0.  0.
          5    1    3    3  502    0  0.63808362941E+02  0.15322689954E+02 -0.57527543105E+02  0.87368086991E+02  0.41800000000E+01 0. -1.
         -5    1    3    3    0  502 -0.56278900810E+02  0.15300121093E+02 -0.10446221876E+03  0.11971314017E+03  0.41800000000E+01 0. -1.
        -11    1    1    2    0    0  0.50888493868E+01 -0.42982994933E+02 -0.25662900077E+03  0.26025348850E+03  0.00000000000E+00 0. -1.
         11    1    1    2    0    0 -0.12618311518E+02  0.12360183886E+02 -0.42139472121E+01  0.18159110176E+02  0.00000000000E+00 0.  1.
</event>
<event>
 7    1  0.6506388E-006  0.1238648E+03  0.7561462E-02  0.1236854E+00
         -2   -1    0    0    0  501 -0.00000000000E+00  0.00000000000E+00  0.38394117375E+02  0.38394117375E+02  0.00000000000E+00 0.  1.
          2   -1    0    0  501    0  0.00000000000E+00 -0.00000000000E+00 -0.51592751946E+03  0.51592751946E+03  0.00000000000E+00 0. -1.
         23    2    1    2    0    0 -0.19718247131E+02 -0.61784815681E+02 -0.14569548537E+03  0.20268247676E+03  0.12508732634E+03 0.  0.
          5    1    3    3  502    0 -0.68560031104E+02 -0.53509460370E+02 -0.68149828979E+02  0.11056948858E+03  0.41800000000E+01 0.  1.
         -5    1    3    3    0  502  0.48841783973E+02 -0.82753553119E+01 -0.77545656395E+02  0.92112988188E+02  0.41800000000E+01 0.  1.
        -11    1    1    2    0    0 -0.21437943715E+02  0.66170269349E+02 -0.15291283753E+03  0.16798936234E+03  0.00000000000E+00 0.  1.
         11    1    1    2    0    0  0.41156190847E+02 -0.43854536672E+01 -0.17892507918E+03  0.18364979774E+03  0.00000000000E+00 0. -1.
</event>
<event>
 7    1  0.6506388E-006  0.1309782E+03  0.7561462E-02  0.1226011E+00
          1   -1    0    0  501    0  0.00000000000E+00  0.00000000000E+00  0.12184830610E+03  0.12184830610E+03  0.00000000000E+00 0. -1.
         -1   -1    0    0    0  501 -0.00000000000E+00 -0.00000000000E+00 -0.17360403083E+03  0.17360403083E+03  0.00000000000E+00 0.  1.
         23    2    1    2    0    0  0.61623491731E+02 -0.76157554231E+02 -0.10005233179E+02  0.15920863785E+03  0.12509939199E+03 0.  0.
          5    1    3    3  502    0  0.51052518999E+02 -0.96536977131E+02 -0.44137836608E+02  0.11786165055E+03  0.41800000000E+01 0.  1.
         -5    1    3    3    0  502  0.10570972732E+02  0.20379422901E+02  0.34132603429E+02  0.41346987304E+02  0.41800000000E+01 0.  1.
        -11    1    1    2    0    0 -0.73912019423E+02  0.27037353626E+02 -0.30284710236E+02  0.84327746207E+02  0.00000000000E+00 0.  1.
         11    1    1    2    0    0  0.12288527692E+02  0.49120200605E+02 -0.11465781314E+02  0.51915952861E+02  0.00000000000E+00 0. -1.
</event>
<event>
 7    1  0.6506388E-006  0.1615194E+03  0.7561462E-02  0.1186992E+00
         -1   -1    0    0    0  501 -0.00000000000E+00  0.00000000000E+00  0.16132814470E+03  0.16132814470E+03  0.00000000000E+00 0.  1.
          1   -1    0    0  501    0  0.00000000000E+00 -0.00000000000E+00 -0.41628230412E+03  0.41628230412E+03  0.00000000000E+00 0. -1.
         23    2    1    2    0    0 -0.62126512184E+02  0.13237277035E+03  0.74036960312E+02  0.20617729974E+03  0.12508138787E+03 0.  0.
          5    1    3    3  502    0 -0.30701780433E+02  0.10366039319E+03 -0.13224404025E+02  0.10899740226E+03  0.41800000000E+01 0.  1.
         -5    1    3    3    0  502 -0.31424731751E+02  0.28712377155E+02  0.87261364337E+02  0.97179897476E+02  0.41800000000E+01 0.  1.
        -11    1    1    2    0    0 -0.12813139664E+02 -0.79097227164E+02 -0.16489271017E+03  0.18333072236E+03  0.00000000000E+00 0.  1.
         11    1    1    2    0    0  0.74939651847E+02 -0.53275543184E+02 -0.16409840956E+03  0.18810242673E+03  0.00000000000E+00 0. -1.
</event>
<event>
 7    1  0.6506388E-006  0.1920077E+03  0.7561462E-02  0.1156663E+00
          2   -1    0    0  501    0  0.00000000000E+00  0.00000000000E+00  0.93833237400E+03  0.93833237400E+03  0.00000000000E+00 0. -1.
         -2   -1    0    0    0  501 -0.00000000000E+00 -0.00000000000E+00 -0.41973847819E+02  0.41973847819E+02  0.00000000000E+00 0.  1.
         23    2    1    2    0    0 -0.16375878476E+03  0.22220465806E+02  0.43309339988E+03  0.48013239840E+03  0.12508612349E+03 0.  0.
          5    1    3    3  502    0 -0.30321728615E+02 -0.38280359874E+02  0.19044911230E+03  0.19665484981E+03  0.41800000000E+01 0. -1.
         -5    1    3    3    0  502 -0.13343705615E+03  0.60500825680E+02  0.24264428758E+03  0.28347754859E+03  0.41800000000E+01 0. -1.
        -11    1    1    2    0    0  0.68100196078E+02  0.35407152081E+02  0.19826939705E+03  0.21260775370E+03  0.00000000000E+00 0. -1.
         11    1    1    2    0    0  0.95658588687E+02 -0.57627617887E+02  0.26499572926E+03  0.28756606973E+03  0.00000000000E+00 0.  1.
</event>
<event>
 7    1  0.6506388E-006  0.9500670E+02  0.7561462E-02  0.1291161E+00
         -2   -1    0    0    0  501 -0.00000000000E+00  0.00000000000E+00  0.29170645664E+03  0.29170645664E+03  0.00000000000E+00 0.  1.
          2   -1    0    0  501    0  0.00000000000E+00 -0.00000000000E+00 -0.47376754026E+02  0.47376754026E+02  0.00000000000E+00 0. -1.
         23    2    1    2    0    0  0.27167024170E+02 -0.42759093570E+02  0.15204364101E+03  0.20330187451E+03  0.12509195066E+03 0.  0.
          5    1    3    3  502    0  0.59619118763E+02 -0.36679200888E+02  0.29079593687E+02  0.75913755465E+02  0.41800000000E+01 0.  1.
         -5    1    3    3    0  502 -0.32452094593E+02 -0.60798926820E+01  0.12296404733E+03  0.12738811904E+03  0.41800000000E+01 0.  1.
        -11    1    1    2    0    0 -0.47109358291E+02  0.98472158684E+01  0.83393927433E+02  0.96285027037E+02  0.00000000000E+00 0.  1.
         11    1    1    2    0    0  0.19942334121E+02  0.32911877702E+02  0.88921341677E+01  0.39496309120E+02  0.00000000000E+00 0. -1.
</event>
<event>
 7    1  0.6506388E-006  0.1063071E+03  0.7561462E-02  0.1267566E+00
         -2   -1    0    0    0  501 -0.00000000000E+00  0.00000000000E+00  0.82148099730E+02  0.82148099730E+02  0.00000000000E+00 0.  1.
          2   -1    0    0  501    0  0.00000000000E+00 -0.00000000000E+00 -0.35861353468E+03  0.35861353468E+03  0.00000000000E+00 0. -1.
         23    2    1    2    0    0 -0.69680436377E+02  0.73756896145E+01 -0.25102665406E+01  0.14339952526E+03  0.12508940161E+03 0.  0.
          5    1    3    3  502    0 -0.25341914965E+02 -0.30129461620E+02 -0.53122339338E+02  0.66252942941E+02  0.41800000000E+01 0. -1.
         -5    1    3    3    0  502 -0.44338521412E+02  0.37505151234E+02  0.50612072797E+02  0.77146582315E+02  0.41800000000E+01 0. -1.
        -11    1    1    2    0    0  0.33506413118E+02 -0.49184588518E+02 -0.12405386094E+03  0.13759056611E+03  0.00000000000E+00 0.  1.
         11    1    1    2    0    0  0.36174023259E+02  0.41808898903E+02 -0.14990130747E+03  0.15977154305E+03  0.00000000000E+00 0. -1.
</event>
<event>
 7    1  0.6506388E-006  0.1031165E+03  0.7561462E-02  0.1273876E+00
         -1   -1    0    0    0  501 -0.00000000000E+00  0.00000000000E+00  0.23948644386E+02  0.23948644386E+02  0.00000000000E+00 0.  1.
          1   -1    0    0  501    0  0.00000000000E+00 -0.00000000000E+00 -0.62628964075E+03  0.62628964075E+03  0.00000000000E+00 0. -1.
         23    2    1    2    0    0  0.51147986695E+02  0.10275624129E+02 -0.27520541543E+03  0.30677026119E+03  0.12509303527E+03 0.  0.
          5    1    3    3  502    0  0.12687914452E+02  0.52036595255E+02 -0.22350307814E+03  0.22986928624E+03  0.41800000000E+01 0. -1.
         -5    1    3    3    0  502  0.38460072244E+02 -0.41760971126E+02 -0.51702337283E+02  0.76900974941E+02  0.41800000000E+01 0. -1.
        -11    1    1    2    0    0 -0.65768547639E+02 -0.28956193410E+02 -0.29438506079E+03  0.30302892108E+03  0.00000000000E+00 0. -1.
         11    1    1    2    0    0  0.14620560944E+02  0.18680569281E+02 -0.32750520148E+02  0.40439102870E+02  0.00000000000E+00 0.  1.
</event>
<event>
 7    1  0.6506388E-006  0.8761610E+02  0.7561462E-02  0.1308730E+00
         -2   -1    0    0    0  501 -0.00000000000E+00  0.00000000000E+00  0.14975442786E+03  0.14975442786E+03  0.00000000000E+00 0.  1.
          2   -1    0    0  501    0  0.00000000000E+00 -0.00000000000E+00 -0.99447030161E+02  0.99447030161E+02  0.00000000000E+00 0. -1.
         23    2    1    2    0    0  0.32268716800E+02  0.21051622733E+01  0.73447717213E+02  0.14881802104E+03  0.12532571337E+03 0.  0.
          5    1    3    3  502    0  0.57856139560E+02  0.18524207903E+02 -0.83409074596E+01  0.61461551399E+02  0.41800000000E+01 0. -1.
         -5    1    3    3    0  502 -0.25587422759E+02 -0.16419045630E+02  0.81788624673E+02  0.87356469644E+02  0.41800000000E+01 0.  1.
        -11    1    1    2    0    0 -0.29623302460E+02 -0.37706609315E+02  0.12898846463E+02  0.49655902718E+02  0.00000000000E+00 0. -1.
         11    1    1    2    0    0 -0.26454143401E+01  0.35601447041E+02 -0.36039165973E+02  0.50727534264E+02  0.00000000000E+00 0.  1.
</event>
<event>
 7    1  0.6506388E-006  0.1407246E+03  0.7561462E-02  0.1212357E+00
          1   -1    0    0  501    0  0.00000000000E+00  0.00000000000E+00  0.51608164499E+02  0.51608164499E+02  0.00000000000E+00 0.  1.
         -1   -1    0    0    0  501 -0.00000000000E+00 -0.00000000000E+00 -0.58409197497E+03  0.58409197497E+03  0.00000000000E+00 0. -1.
         23    2    1    2    0    0 -0.57279057061E+02 -0.80667849770E+02 -0.47059115853E+03  0.49688191924E+03  0.12508961114E+03 0.  0.
          5    1    3    3  502    0 -0.84288958789E+02 -0.95467068750E+02 -0.39850952008E+03  0.41838487041E+03  0.41800000000E+01 0.  1.
         -5    1    3    3    0  502  0.27009901728E+02  0.14799218980E+02 -0.72081638444E+02  0.78497048827E+02  0.41800000000E+01 0.  1.
        -11    1    1    2    0    0 -0.17601059794E+02  0.11615069716E+02 -0.18679696438E+02  0.28171585142E+02  0.00000000000E+00 0.  1.
         11    1    1    2    0    0  0.74880116855E+02  0.69052780054E+02 -0.43212955503E+02  0.11064663509E+03  0.00000000000E+00 0. -1.
</event>
<event>
 7    1  0.6506388E-006  0.1028353E+03  0.7561462E-02  0.1274444E+00
         -1   -1    0    0    0  501 -0.00000000000E+00  0.00000000000E+00  0.64415824161E+02  0.64415824161E+02  0.00000000000E+00 0.  1.
          1   -1    0    0  501    0  0.00000000000E+00 -0.00000000000E+00 -0.31830342402E+03  0.31830342402E+03  0.00000000000E+00 0. -1.
         23    2    1    2    0    0 -0.89932136710E+02  0.19457590709E+02 -0.11512768990E+03  0.19332667009E+03  0.12511766196E+03 0.  0.
          5    1    3    3  502    0 -0.56191587228E+02  0.41680621493E+02 -0.13191414873E+03  0.14937731996E+03  0.41800000000E+01 0.  1.
         -5    1    3    3    0  502 -0.33740549482E+02 -0.22223030784E+02  0.16786458828E+02  0.43949350127E+02  0.41800000000E+01 0.  1.
        -11    1    1    2    0    0  0.76672032277E+02 -0.24926867028E+02 -0.15058083255E+03  0.17080555133E+03  0.00000000000E+00 0. -1.
         11    1    1    2    0    0  0.13260104433E+02  0.54692763185E+01  0.11820922593E+02  0.18587026765E+02  0.00000000000E+00 0.  1.
</event>
<event>
 7    1  0.6506388E-006  0.1027547E+03  0.7561462E-02  0.1274608E+00
          2   -1    0    0  501    0  0.00000000000E+00  0.00000000000E+00  0.23847197746E+03  0.23847197746E+03  0.00000000000E+00 0. -1.
         -2   -1    0    0    0  501 -0.00000000000E+00 -0.00000000000E+00 -0.65431636379E+02  0.65431636379E+02  0.00000000000E+00 0.  1.
         23    2    1    2    0    0  0.36653241073E+02 -0.12333250943E+02  0.37431054170E+02  0.13617846137E+03  0.12509164786E+03 0.  0.
          5    1    3    3  502    0  0.75214651598E+02 -0.34220908465E+02  0.87387412149E+01  0.83199473491E+02  0.41800000000E+01 0. -1.
         -5    1    3    3    0  502 -0.38561410526E+02  0.21887657522E+02  0.28692312955E+02  0.52978987875E+02  0.41800000000E+01 0. -1.
        -11    1    1    2    0    0 -0.35839491307E+02  0.38184597823E+02  0.13149004654E+03  0.14153503095E+03  0.00000000000E+00 0. -1.
         11    1    1    2    0    0 -0.81374976594E+00 -0.25851346881E+02  0.41192403771E+01  0.26190121525E+02  0.00000000000E+00 0.  1.
</event>
<event>
 7    1  0.6506388E-006  0.1274463E+03  0.7561462E-02  0.1231295E+00
         -1   -1    0    0    0  501 -0.00000000000E+00  0.00000000000E+00  0.10724665363E+03  0.10724665363E+03  0.00000000000E+00 0.  1.
          1   -1    0    0  501    0  0.00000000000E+00 -0.00000000000E+00 -0.18819663086E+03  0.18819663086E+03  0.00000000000E+00 0. -1.
         23    2    1    2    0    0  0.61122012962E+02 -0.57108707086E+02 -0.25706265039E+02  0.15266159069E+03  0.12508974504E+03 0.  0.
          5    1    3    3  502    0  0.69475526598E+02 -0.76825269009E+02 -0.54037115549E+02  0.11690360564E+03  0.41800000000E+01 0. -1.
         -5    1    3    3    0  502 -0.83535136360E+01  0.19716561923E+02  0.28330850510E+02  0.35757985049E+02  0.41800000000E+01 0. -1.
        -11    1    1    2    0    0 -0.81778773310E+02  0.15894552703E+02 -0.22684621535E+02  0.86342322322E+02  0.00000000000E+00 0.  1.
         11    1    1    2    0    0  0.20656760349E+02  0.41214154383E+02 -0.32559090653E+02  0.56439371486E+02  0.00000000000E+00 0. -1.
</event>
<event>
 7    1  0.6506388E-006  0.1043408E+03  0.7561462E-02  0.1271424E+00
         -1   -1    0    0    0  501 -0.00000000000E+00  0.00000000000E+00  0.38677113166E+03  0.38677113166E+03  0.00000000000E+00 0.  1.
          1   -1    0    0  501    0  0.00000000000E+00 -0.00000000000E+00 -0.47871168072E+02  0.47871168072E+02  0.00000000000E+00 0. -1.
         23    2    1    2    0    0 -0.29642262718E+02 -0.72118917513E+02  0.22667772271E+03  0.27039871323E+03  0.12511143890E+03 0.  0.
          5    1    3    3  502    0 -0.27144847397E+02 -0.12644375937E+02  0.20452205306E+03  0.20674492877E+03  0.41800000000E+01 0.  1.
         -5    1    3    3    0  502 -0.24974153202E+01 -0.59474541576E+02  0.22155669644E+02  0.63653784462E+02  0.41800000000E+01 0.  1.
        -11    1    1    2    0    0 -0.87719515824E+01  0.79222699201E+02  0.85632152821E+02  0.11698738735E+03  0.00000000000E+00 0.  1.
         11    1    1    2    0    0  0.38414214300E+02 -0.71037816884E+01  0.26590088059E+02  0.47256199144E+02  0.00000000000E+00 0. -1.
</event>
<event>
 7    1  0.6506388E-006  0.1010463E+03  0.7561462E-02  0.1278111E+00
         -1   -1    0    0    0  501 -0.00000000000E+00  0.00000000000E+00  0.14893362652E+03  0.14893362652E+03  0.00000000000E+00 0.  1.
          1   -1    0    0  501    0  0.00000000000E+00 -0.00000000000E+00 -0.11436317297E+03  0.11436317297E+03  0.00000000000E+00 0. -1.
         23    2    1    2    0    0  0.80775945301E+02 -0.94390234414E+01  0.72647195623E+02  0.15689681468E+03  0.11280579295E+03 0.  0.
          5    1    3    3  502    0  0.88615714374E+02 -0.28469762856E+02  0.13515089185E+02  0.94145643908E+02  0.41800000000E+01 0. -1.
         -5    1    3    3    0  502 -0.78397690736E+01  0.19030739414E+02  0.59132106438E+02  0.62751170775E+02  0.41800000000E+01 0.  1.
        -11    1    1    2    0    0 -0.54740919674E+01 -0.88706169715E+01 -0.25944521415E+02  0.27960180969E+02  0.00000000000E+00 0. -1.
         11    1    1    2    0    0 -0.75301853333E+02  0.18309640413E+02 -0.12132220655E+02  0.78439803834E+02  0.00000000000E+00 0.  1.
</event>
<event>
 7    1  0.6506388E-006  0.2100086E+03  0.7561462E-02  0.1141559E+00
         -1   -1    0    0    0  501 -0.00000000000E+00  0.00000000000E+00  0.17379206989E+03  0.17379206989E+03  0.00000000000E+00 0.  1.
          1   -1    0    0  501    0  0.00000000000E+00 -0.00000000000E+00 -0.60582811091E+03  0.60582811091E+03  0.00000000000E+00 0. -1.
         23    2    1    2    0    0  0.19269213192E+03 -0.26029876481E+02  0.62163265706E+02  0.23941490609E+03  0.12508962180E+03 0.  0.
          5    1    3    3  502    0 -0.58813571988E+00 -0.10999357537E+02  0.42973004328E+02  0.44558761998E+02  0.41800000000E+01 0. -1.
         -5    1    3    3    0  502  0.19328026764E+03 -0.15030518944E+02  0.19190261378E+02  0.19485614409E+03  0.41800000000E+01 0. -1.
        -11    1    1    2    0    0 -0.18299757600E+03 -0.37219251699E+01 -0.37980751578E+03  0.42161085682E+03  0.00000000000E+00 0. -1.
         11    1    1    2    0    0 -0.96945559230E+01  0.29751801651E+02 -0.11439179095E+03  0.11859441788E+03  0.00000000000E+00 0.  1.
</event>
<event>
 7    1  0.6506388E-006  0.1033817E+03  0.7561462E-02  0.1273341E+00
          4   -1    0    0  501    0  0.00000000000E+00  0.00000000000E+00  0.54939241886E+03  0.54939241886E+03  0.00000000000E+00 0. -1.
         -4   -1    0    0    0  501 -0.00000000000E+00 -0.00000000000E+00 -0.24556253568E+02  0.24556253568E+02  0.00000000000E+00 0.  1.
         23    2    1    2    0    0 -0.16023616017E+02  0.38397863169E+02  0.30485653747E+03  0.33213865890E+03  0.12508968036E+03 0.  0.
          5    1    3    3  502    0 -0.61838732789E+02 -0.97240658549E+01  0.18034638469E+03  0.19094731524E+03  0.41800000000E+01 0.  1.
         -5    1    3    3    0  502  0.45815116772E+02  0.48121929024E+02  0.12451015278E+03  0.14119134365E+03  0.41800000000E+01 0.  1.
        -11    1    1    2    0    0 -0.25618762062E+02 -0.14815174307E+02  0.17021447267E+03  0.17276798623E+03  0.00000000000E+00 0. -1.
         11    1    1    2    0    0  0.41642378078E+02 -0.23582688862E+02  0.49765155157E+02  0.69042027301E+02  0.00000000000E+00 0.  1.
</event>
<event>
 7    1  0.6506388E-006  0.1026942E+03  0.7561462E-02  0.1274730E+00
         -1   -1    0    0    0  501 -0.00000000000E+00  0.00000000000E+00  0.16856907798E+03  0.16856907798E+03  0.00000000000E+00 0.  1.
          1   -1    0    0  501    0  0.00000000000E+00 -0.00000000000E+00 -0.11632439772E+03  0.11632439772E+03  0.00000000000E+00 0. -1.
         23    2    1    2    0    0  0.53791366200E+02  0.57135855286E+02  0.70060988387E+02  0.16344604610E+03  0.12509216944E+03 0.  0.
          5    1    3    3  502    0 -0.13727843202E+01  0.58537082911E+02  0.87549795934E+02  0.10540831931E+03  0.41800000000E+01 0. -1.
         -5    1    3    3    0  502  0.55164150521E+02 -0.14012276252E+01 -0.17488807547E+02  0.58037726790E+02  0.41800000000E+01 0. -1.
        -11    1    1    2    0    0  0.83274282434E+01 -0.11802694759E+02 -0.39076863898E+02  0.41661144449E+02  0.00000000000E+00 0. -1.
         11    1    1    2    0    0 -0.62118794444E+02 -0.45333160527E+02  0.21260555767E+02  0.79786285150E+02  0.00000000000E+00 0.  1.
</event>
<event>
 7    1  0.6506388E-006  0.1441593E+03  0.7561462E-02  0.1207839E+00
          1   -1    0    0  501    0  0.00000000000E+00  0.00000000000E+00  0.17237838381E+03  0.17237838381E+03  0.00000000000E+00 0. -1.
         -1   -1    0    0    0  501 -0.00000000000E+00 -0.00000000000E+00 -0.35761280656E+03  0.35761280656E+03  0.00000000000E+00 0.  1.
         23    2    1    2    0    0 -0.61181102815E+02  0.12880500645E+03 -0.27838810002E+03  0.33686972469E+03  0.12508964845E+03 0.  0.
          5    1    3    3  502    0 -0.81210393793E+01  0.47760694428E+02 -0.21638422298E+03  0.22178061134E+03  0.41800000000E+01 0. -1.
         -5    1    3    3    0  502 -0.53060063436E+02  0.81044312021E+02 -0.62003877046E+02  0.11508911335E+03  0.41800000000E+01 0. -1.
        -11    1    1    2    0    0  0.26885253371E+02 -0.63877420171E+02  0.97433863558E+02  0.11956796989E+03  0.00000000000E+00 0. -1.
         11    1    1    2    0    0  0.34295849445E+02 -0.64927586279E+02 -0.42801862830E+01  0.73553495795E+02  0.00000000000E+00 0.  1.
</event>
<event>
 7    1  0.6506388E-006  0.1256994E+03  0.7561462E-02  0.1233980E+00
          2   -1    0    0  501    0  0.00000000000E+00  0.00000000000E+00  0.76326498367E+03  0.76326498367E+03  0.00000000000E+00 0. -1.
         -2   -1    0    0    0  501 -0.00000000000E+00 -0.00000000000E+00 -0.28398758426E+02  0.28398758426E+02  0.00000000000E+00 0.  1.
         23    2    1    2    0    0  0.68160074677E+02  0.68601243588E+02  0.33778633733E+03  0.37296088285E+03  0.12509310153E+03 0.  0.
          5    1    3    3  502    0  0.19046404593E+02  0.79472233886E+02  0.96836636748E+02  0.12678094535E+03  0.41800000000E+01 0.  1.
         -5    1    3    3    0  502  0.49113670084E+02 -0.10870990298E+02  0.24094970058E+03  0.24617993750E+03  0.41800000000E+01 0.  1.
        -11    1    1    2    0    0 -0.66600335587E+02 -0.18710842714E+02  0.31605261804E+03  0.32353509501E+03  0.00000000000E+00 0. -1.
         11    1    1    2    0    0 -0.15597390900E+01 -0.49890400874E+02  0.81027269874E+02  0.95167764231E+02  0.00000000000E+00 0.  1.
</event>
<event>
 7    1  0.6506388E-006  0.9924228E+02  0.7561462E-02  0.1281897E+00
         -2   -1    0    0    0  501 -0.00000000000E+00  0.00000000000E+00  0.19219511054E+03  0.19219511054E+03  0.00000000000E+00 0.  1.
          2   -1    0    0  501    0  0.00000000000E+00 -0.00000000000E+00 -0.91592272993E+02  0.91592272993E+02  0.00000000000E+00 0. -1.
         23    2    1    2    0    0 -0.66482293152E+02 -0.31358627718E+02  0.77874824399E+02  0.16466149628E+03  0.12508261768E+03 0.  0.
          5    1    3    3  502    0 -0.49102237182E+02  0.27070411705E+01 -0.24642035866E+02  0.55163938400E+02  0.41800000000E+01 0. -1.
         -5    1    3    3    0  502 -0.17380055970E+02 -0.34065668888E+02  0.10251686026E+03  0.10949755788E+03  0.41800000000E+01 0. -1.
        -11    1    1    2    0    0  0.47169758773E+02 -0.23356823770E+02  0.30102013525E+02  0.60635456439E+02  0.00000000000E+00 0.  1.
         11    1    1    2    0    0  0.19312534379E+02  0.54715451488E+02 -0.73740003772E+01  0.58490430817E+02  0.00000000000E+00 0. -1.
</event>
<event>
 7    1  0.6506388E-006  0.1152882E+03  0.7561462E-02  0.1251079E+00
         -1   -1    0    0    0  501 -0.00000000000E+00  0.00000000000E+00  0.65942661429E+03  0.65942661429E+03  0.00000000000E+00 0.  1.
          1   -1    0    0  501    0  0.00000000000E+00 -0.00000000000E+00 -0.40815154036E+02  0.40815154036E+02  0.00000000000E+00 0. -1.
         23    2    1    2    0    0  0.19784659761E+01 -0.52760027052E+02  0.50389455516E+03  0.51884075044E+03  0.11179654208E+03 0.  0.
          5    1    3    3  502    0  0.16104536096E+02 -0.83963475057E+02  0.29700176987E+03  0.30909018899E+03  0.41800000000E+01 0. -1.
         -5    1    3    3    0  502 -0.14126070120E+02  0.31203448005E+02  0.20689278529E+03  0.20975056145E+03  0.41800000000E+01 0. -1.
        -11    1    1    2    0    0 -0.47618839176E+02  0.42202255790E+02  0.11839664062E+03  0.13441111840E+03  0.00000000000E+00 0.  1.
         11    1    1    2    0    0  0.45640373200E+02  0.10557771262E+02 -0.36797355290E+01  0.46989899483E+02  0.00000000000E+00 0. -1.
</event>
<event>
 7    1  0.6506388E-006  0.9526884E+02  0.7561462E-02  0.1290572E+00
          2   -1    0    0  501    0  0.00000000000E+00  0.00000000000E+00  0.69289034469E+03  0.69289034469E+03  0.00000000000E+00 0. -1.
         -2   -1    0    0    0  501 -0.00000000000E+00 -0.00000000000E+00 -0.19485676976E+02  0.19485676976E+02  0.00000000000E+00 0.  1.
         23    2    1    2    0    0  0.31495472214E+02  0.14852191084E+02  0.32262927073E+03  0.34778027557E+03  0.12509564896E+03 0.  0.
          5    1    3    3  502    0  0.55286046970E+02 -0.21779717986E+02  0.72507202917E+02  0.93838531425E+02  0.41800000000E+01 0.  1.
         -5    1    3    3    0  502 -0.23790574755E+02  0.36631909070E+02  0.25012206781E+03  0.25394174414E+03  0.41800000000E+01 0.  1.
        -11    1    1    2    0    0  0.26023702083E+02  0.44860669218E+01  0.39861340710E+02  0.47815105874E+02  0.00000000000E+00 0.  1.
         11    1    1    2    0    0 -0.57519174298E+02 -0.19338258005E+02  0.31091405627E+03  0.31678064022E+03  0.00000000000E+00 0. -1.
</event>
<event>
 7    1  0.6506388E-006  0.1303053E+03  0.7561462E-02  0.1227003E+00
          1   -1    0    0  501    0  0.00000000000E+00  0.00000000000E+00  0.50028058712E+02  0.50028058712E+02  0.00000000000E+00 0. -1.
         -1   -1    0    0    0  501 -0.00000000000E+00 -0.00000000000E+00 -0.43494700999E+03  0.43494700999E+03  0.00000000000E+00 0.  1.
         23    2    1    2    0    0  0.51423118076E+02 -0.85654537042E+02 -0.19085223954E+03  0.24911418418E+03  0.12510900301E+03 0.  0.
          5    1    3    3  502    0  0.73228573930E+02 -0.73021214396E+02 -0.19727272394E+03  0.22277459864E+03  0.41800000000E+01 0.  1.
         -5    1    3    3    0  502 -0.21805455854E+02 -0.12633322646E+02  0.64204843999E+01  0.26339585533E+02  0.41800000000E+01 0.  1.
        -11    1    1    2    0    0 -0.46004817120E+02  0.26514865344E+00 -0.90503220468E+02  0.10152510240E+03  0.00000000000E+00 0.  1.
         11    1    1    2    0    0 -0.54183009560E+01  0.85389388389E+02 -0.10356349127E+03  0.13433578213E+03  0.00000000000E+00 0. -1.
</event>
<event>
 7    1  0.6506388E-006  0.1295575E+03  0.7561462E-02  0.1228114E+00
         -2   -1    0    0    0  501 -0.00000000000E+00  0.00000000000E+00  0.61026614639E+02  0.61026614639E+02  0.00000000000E+00 0.  1.
          2   -1    0    0  501    0  0.00000000000E+00 -0.00000000000E+00 -0.30541122982E+03  0.30541122982E+03  0.00000000000E+00 0. -1.
         23    2    1    2    0    0  0.77549778904E+02  0.29933802466E+02 -0.13889169581E+03  0.20456895846E+03  0.12509018691E+03 0.  0.
          5    1    3    3  502    0  0.95001964955E+02 -0.18105745119E+02 -0.10646983099E+03  0.14389749359E+03  0.41800000000E+01 0. -1.
         -5    1    3    3    0  502 -0.17452186051E+02  0.48039547585E+02 -0.32421864824E+02  0.60671464865E+02  0.41800000000E+01 0. -1.
        -11    1    1    2    0    0 -0.67230899101E+02  0.11608701018E+02 -0.28833481462E+02  0.74068383177E+02  0.00000000000E+00 0.  1.
         11    1    1    2    0    0 -0.10318879803E+02 -0.41542503484E+02 -0.76659437910E+02  0.87800502827E+02  0.00000000000E+00 0. -1.
</event>
<event>
 7    1  0.6506388E-006  0.1274241E+03  0.7561462E-02  0.1231329E+00
          2   -1    0    0  501    0  0.00000000000E+00  0.00000000000E+00  0.60814518807E+03  0.60814518807E+03  0.00000000000E+00 0.  1.
         -2   -1    0    0    0  501 -0.00000000000E+00 -0.00000000000E+00 -0.35315212845E+02  0.35315212845E+02  0.00000000000E+00 0. -1.
         23    2    1    2    0    0  0.82403676450E+02  0.39524416489E+02  0.23442774630E+03  0.28099228181E+03  0.12509096214E+03 0.  0.
          5    1    3    3  502    0  0.98945149319E+02  0.18270837629E+02  0.93382729060E+02  0.13733816865E+03  0.41800000000E+01 0. -1.
         -5    1    3    3    0  502 -0.16541472868E+02  0.21253578860E+02  0.14104501724E+03  0.14365411316E+03  0.41800000000E+01 0. -1.
        -11    1    1    2    0    0 -0.10103763887E+03 -0.27503556092E+02  0.24444006898E+03  0.26592479649E+03  0.00000000000E+00 0. -1.
         11    1    1    2    0    0  0.18633962419E+02 -0.12020860397E+02  0.93962159950E+02  0.96543322620E+02  0.00000000000E+00 0.  1.
</event>
<event>
 7    1  0.6506388E-006  0.1106500E+03  0.7561462E-02  0.1259371E+00
         -2   -1    0    0    0  501 -0.00000000000E+00  0.00000000000E+00  0.12161642352E+03  0.12161642352E+03  0.00000000000E+00 0.  1.
          2   -1    0    0  501    0  0.00000000000E+00 -0.00000000000E+00 -0.16727437857E+03  0.16727437857E+03  0.00000000000E+00 0. -1.
         23    2    1    2    0    0  0.26567941187E+02  0.56552179377E+02  0.44644765059E+02  0.14678330307E+03  0.12509267973E+03 0.  0.
          5    1    3    3  502    0 -0.36327770360E+02  0.55386058721E+02  0.50599880132E+02  0.83457430282E+02  0.41800000000E+01 0. -1.
         -5    1    3    3    0  502  0.62895711547E+02  0.11661206558E+01 -0.59551150724E+01  0.63325872785E+02  0.41800000000E+01 0. -1.
        -11    1    1    2    0    0 -0.96455439082E+00  0.15443357854E+02 -0.56449105903E+02  0.58531437914E+02  0.00000000000E+00 0. -1.
         11    1    1    2    0    0 -0.25603386796E+02 -0.71995537231E+02 -0.33853614207E+02  0.83576061115E+02  0.00000000000E+00 0.  1.
</event>
<event>
 7    1  0.6506388E-006  0.1075201E+03  0.7561462E-02  0.1265232E+00
          2   -1    0    0  501    0  0.00000000000E+00  0.00000000000E+00  0.54025503743E+02  0.54025503743E+02  0.00000000000E+00 0. -1.
         -2   -1    0    0    0  501 -0.00000000000E+00 -0.00000000000E+00 -0.44011987545E+03  0.44011987545E+03  0.00000000000E+00 0.  1.
         23    2    1    2    0    0  0.59945923213E+02 -0.87532768727E+02 -0.25996771311E+03  0.30738554140E+03  0.12508860816E+03 0.  0.
          5    1    3    3  502    0  0.43466563481E+02 -0.49077333911E+02 -0.27616326696E+02  0.71260513223E+02  0.41800000000E+01 0.  1.
         -5    1    3    3    0  502  0.16479359732E+02 -0.38455434816E+02 -0.23235138641E+03  0.23612502818E+03  0.41800000000E+01 0.  1.
        -11    1    1    2    0    0 -0.23674876244E+01  0.12507338141E+02  0.13219071837E+02  0.18351631134E+02  0.00000000000E+00 0. -1.
         11    1    1    2    0    0 -0.57578435588E+02  0.75025430585E+02 -0.13934573043E+03  0.16840820666E+03  0.00000000000E+00 0.  1.
</event>
<event>
 7    1  0.6506388E-006  0.1074447E+03  0.7561462E-02  0.1265376E+00
         -2   -1    0    0    0  501 -0.00000000000E+00  0.00000000000E+00  0.19596007923E+03  0.19596007923E+03  0.00000000000E+00 0. -1.
          2   -1    0    0  501    0  0.00000000000E+00 -0.00000000000E+00 -0.83053828279E+02  0.83053828279E+02  0.00000000000E+00 0.  1.
         23    2    1    2    0    0  0.23776587189E+02 -0.42589871083E+02  0.11373801082E+03  0.17596179032E+03  0.12508794239E+03 0.  0.
          5    1    3    3  502    0  0.68214553143E+02 -0.29891287458E+01  0.86739044053E+02  0.11046852183E+03  0.41800000000E+01 0. -1.
         -5    1    3    3    0  502 -0.44437965954E+02 -0.39600742337E+02  0.26998966766E+02  0.65493268496E+02  0.41800000000E+01 0. -1.
        -11    1    1    2    0    0 -0.36121421723E+02  0.57221487079E+02  0.23910276939E+02  0.71768774785E+02  0.00000000000E+00 0. -1.
         11    1    1    2    0    0  0.12344834534E+02 -0.14631615996E+02 -0.24742036808E+02  0.31283342400E+02  0.00000000000E+00 0.  1.
</event>
<event>
 6    1  0.6506388E-006  0.1555826E+03  0.7561462E-02  0.1193776E+00
          1   -1    0    0  501    0  0.00000000000E+00  0.00000000000E+00  0.62286179084E+03  0.62286179084E+03  0.00000000000E+00 0. -1.
         -1   -1    0    0    0  501 -0.00000000000E+00 -0.00000000000E+00 -0.48191941922E+02  0.48191941922E+02  0.00000000000E+00 0.  1.
          5    1    1    2  502    0  0.37350135604E+02 -0.23422451459E+02  0.13709945229E+03  0.14407420339E+03  0.41800000000E+01 0. -1.
         -5    1    1    2    0  502 -0.12358104884E+03 -0.41122679998E+02  0.10979529411E+03  0.17039903008E+03  0.41800000000E+01 0.  1.
        -11    1    1    2    0    0  0.73292981279E+02  0.85081890694E+02  0.29606601290E+03  0.31664786945E+03  0.00000000000E+00 0. -1.
         11    1    1    2    0    0  0.12937931952E+02 -0.20536759238E+02  0.31709089610E+02  0.39932629855E+02  0.00000000000E+00 0.  1.
</event>
<event>
 7    1  0.6506388E-006  0.1287863E+03  0.7561462E-02  0.1229268E+00
          2   -1    0    0  501    0  0.00000000000E+00  0.00000000000E+00  0.41063044556E+03  0.41063044556E+03  0.00000000000E+00 0. -1.
         -2   -1    0    0    0  501 -0.00000000000E+00 -0.00000000000E+00 -0.48676749535E+02  0.48676749535E+02  0.00000000000E+00 0.  1.
         23    2    1    2    0    0  0.60090191751E+02  0.40372302206E+02  0.10842943765E+03  0.18068098806E+03  0.12509165667E+03 0.  0.
          5    1    3    3  502    0  0.98243315664E+02  0.33002318779E+02  0.90615694202E+02  0.13773009313E+03  0.41800000000E+01 0. -1.
         -5    1    3    3    0  502 -0.38153123913E+02  0.73699834270E+01  0.17813743451E+02  0.42950894935E+02  0.41800000000E+01 0. -1.
        -11    1    1    2    0    0  0.14254991077E+02 -0.37776937971E+02  0.73988421708E+02  0.84288720242E+02  0.00000000000E+00 0. -1.
         11    1    1    2    0    0 -0.74345182828E+02 -0.25953642356E+01  0.17953583667E+03  0.19433748679E+03  0.00000000000E+00 0.  1.
</event>
<event>
 7    1  0.6506388E-006  0.2148147E+03  0.7561462E-02  0.1137809E+00
          2   -1    0    0  501    0  0.00000000000E+00  0.00000000000E+00  0.19091553724E+04  0.19091553724E+04  0.00000000000E+00 0. -1.
         -2   -1    0    0    0  501 -0.00000000000E+00 -0.00000000000E+00 -0.26121621340E+02  0.26121621340E+02  0.00000000000E+00 0.  1.
         23    2    1    2    0    0 -0.17177995336E+03  0.87328210129E+02  0.84501746935E+03  0.87569271784E+03  0.12509453994E+03 0.  0.
          5    1    3    3  502    0 -0.18630274274E+03  0.76025975615E+02  0.82010481577E+03  0.84443948402E+03  0.41800000000E+01 0. -1.
         -5    1    3    3    0  502  0.14522789377E+02  0.11302234514E+02  0.24912653575E+02  0.31253233824E+02  0.41800000000E+01 0. -1.
        -11    1    1    2    0    0  0.78628502975E+02 -0.85735788169E+02  0.66573147609E+03  0.67581910680E+03  0.00000000000E+00 0. -1.
         11    1    1    2    0    0  0.93151450384E+02 -0.15924219599E+01  0.37228480558E+03  0.38376516906E+03  0.00000000000E+00 0.  1.
</event>
<event>
 7    1  0.6506388E-006  0.1364119E+03  0.7561462E-02  0.1218240E+00
          2   -1    0    0  501    0  0.00000000000E+00  0.00000000000E+00  0.56534211577E+02  0.56534211577E+02  0.00000000000E+00 0. -1.
         -2   -1    0    0    0  501 -0.00000000000E+00 -0.00000000000E+00 -0.51516405460E+03  0.51516405460E+03  0.00000000000E+00 0.  1.
         23    2    1    2    0    0  0.89815409325E+02 -0.27378143921E+02 -0.40403784751E+03  0.43025659433E+03  0.11427066213E+03 0.  0.
          5    1    3    3  502    0  0.15320510093E+02  0.39813386862E+02 -0.17506573120E+03  0.18023680657E+03  0.41800000000E+01 0. -1.
         -5    1    3    3    0  502  0.74494899232E+02 -0.67191530782E+02 -0.22897211632E+03  0.25001978776E+03  0.41800000000E+01 0.  1.
        -11    1    1    2    0    0  0.18035081550E+02 -0.89653339665E+00 -0.20083274254E+01  0.18168690588E+02  0.00000000000E+00 0.  1.
         11    1    1    2    0    0 -0.10785049087E+03  0.28274677317E+02 -0.52583668081E+02  0.12327298126E+03  0.00000000000E+00 0. -1.
</event>
<event>
 7    1  0.6506388E-006  0.1210915E+03  0.7561462E-02  0.1241307E+00
          2   -1    0    0  501    0  0.00000000000E+00  0.00000000000E+00  0.42314787682E+03  0.42314787682E+03  0.00000000000E+00 0.  1.
         -2   -1    0    0    0  501 -0.00000000000E+00 -0.00000000000E+00 -0.60084653458E+02  0.60084653458E+02  0.00000000000E+00 0. -1.
         23    2    1    2    0    0  0.57394106530E+02  0.99410876993E+02  0.16631979381E+03  0.23767086997E+03  0.12509421526E+03 0.  0.
          5    1    3    3  502    0  0.47341433590E+02  0.28214777372E+02 -0.12439533418E+01  0.55283856743E+02  0.41800000000E+01 0. -1.
         -5    1    3    3    0  502  0.10052672940E+02  0.71196099622E+02  0.16756374716E+03  0.18238701323E+03  0.41800000000E+01 0. -1.
        -11    1    1    2    0    0 -0.22653818355E+02 -0.34635671201E+02  0.68635860481E+01  0.41951567540E+02  0.00000000000E+00 0. -1.
         11    1    1    2    0    0 -0.34740288175E+02 -0.64775205792E+02  0.18987984349E+03  0.20361009276E+03  0.00000000000E+00 0.  1.
</event>
<event>
 7    1  0.6506388E-006  0.1316571E+03  0.7561462E-02  0.1225017E+00
         -1   -1    0    0    0  501 -0.00000000000E+00  0.00000000000E+00  0.43087021822E+02  0.43087021822E+02  0.00000000000E+00 0.  1.
          1   -1    0    0  501    0  0.00000000000E+00 -0.00000000000E+00 -0.56804013397E+03  0.56804013397E+03  0.00000000000E+00 0. -1.
         23    2    1    2    0    0  0.97757477605E+02 -0.29284599712E+02 -0.19118092672E+03  0.25022359593E+03  0.12509032341E+03 0.  0.
          5    1    3    3  502    0  0.94849184399E+02 -0.52413656745E+02 -0.19784713355E+03  0.22562030017E+03  0.41800000000E+01 0. -1.
         -5    1    3    3    0  502  0.29082932061E+01  0.23129057033E+02  0.66662068343E+01  0.24603295759E+02  0.41800000000E+01 0. -1.
        -11    1    1    2    0    0 -0.11830274935E+02  0.42616020802E+02 -0.16781949506E+03  0.17354959970E+03  0.00000000000E+00 0. -1.
         11    1    1    2    0    0 -0.85927202670E+02 -0.13331421091E+02 -0.16595269037E+03  0.18735396016E+03  0.00000000000E+00 0.  1.
</event>
<event>
 7    1  0.6506388E-006  0.1067784E+03  0.7561462E-02  0.1266655E+00
          2   -1    0    0  501    0  0.00000000000E+00  0.00000000000E+00  0.22150571027E+03  0.22150571027E+03  0.00000000000E+00 0. -1.
         -2   -1    0    0    0  501 -0.00000000000E+00 -0.00000000000E+00 -0.86853476460E+02  0.86853476460E+02  0.00000000000E+00 0.  1.
         23    2    1    2    0    0 -0.57088736323E+00  0.87511666396E+01 -0.21813239135E+02  0.12727909529E+03  0.12508893583E+03 0.  0.
          5    1    3    3  502    0 -0.55784789748E+02 -0.21414191682E+02  0.18534925196E+01  0.59928442389E+02  0.41800000000E+01 0. -1.
         -5    1    3    3    0  502  0.55213902385E+02  0.30165358321E+02 -0.23666731655E+02  0.67350652903E+02  0.41800000000E+01 0. -1.
        -11    1    1    2    0    0  0.37765817512E+02 -0.29580455833E+02  0.92701411934E+02  0.10437821667E+03  0.00000000000E+00 0. -1.
         11    1    1    2    0    0 -0.37194930148E+02  0.20829289194E+02  0.63764061014E+02  0.76701874775E+02  0.00000000000E+00 0.  1.
</event>
<event>
 7    1  0.6506388E-006  0.9808790E+02  0.7561462E-02  0.1284369E+00
         -4   -1    0    0    0  501 -0.00000000000E+00  0.00000000000E+00  0.37518611423E+03  0.37518611423E+03  0.00000000000E+00 0.  1.
          4   -1    0    0  501    0  0.00000000000E+00 -0.00000000000E+00 -0.48891467583E+02  0.48891467583E+02  0.00000000000E+00 0. -1.
         23    2    1    2    0    0 -0.37979165218E+02 -0.72837820553E+02  0.18871837096E+03  0.24085160014E+03  0.12508838739E+03 0.  0.
          5    1    3    3  502    0 -0.36049210496E+02 -0.58210482239E+02  0.20636838379E+03  0.21747043028E+03  0.41800000000E+01 0.  1.
         -5    1    3    3    0  502 -0.19299547222E+01 -0.14627338314E+02 -0.17650012825E+02  0.23381169862E+02  0.41800000000E+01 0.  1.
        -11    1    1    2    0    0  0.60111740119E+02  0.38473721850E+02  0.51730673578E+02  0.88145965091E+02  0.00000000000E+00 0. -1.
         11    1    1    2    0    0 -0.22132574900E+02  0.34364098703E+02  0.85845602107E+02  0.95080016578E+02  0.00000000000E+00 0.  1.
</event>
<event>
 7    1  0.1158355E-005  0.1831465E+03  0.7561462E-02  0.1164792E+00
         -1   -1    0    0    0  501 -0.00000000000E+00  0.00000000000E+00  0.27353213709E+03  0.27353213709E+03  0.00000000000E+00 0.  1.
          1   -1    0    0  501    0  0.00000000000E+00 -0.00000000000E+00 -0.16452082175E+03  0.16452082175E+03  0.00000000000E+00 0. -1.
         23    2    1    2    0    0 -0.78964852843E+01 -0.17583487093E+03  0.10308348660E+03  0.23927816952E+03  0.12509029093E+03 0.  0.
          5    1    3    3  502    0 -0.33940552983E+02 -0.14089223930E+03  0.12398150530E+03  0.19076548506E+03  0.41800000000E+01 0.  1.
         -5    1    3    3    0  502  0.26044067699E+02 -0.34942631625E+02 -0.20898018710E+02  0.48512684456E+02  0.41800000000E+01 0.  1.
        -11    1    1    2    0    0  0.14833616666E+02  0.74803661603E+02  0.46903809714E+02  0.89529834906E+02  0.00000000000E+00 0. -1.
         11    1    1    2    0    0 -0.69371313820E+01  0.10103120933E+03 -0.40975980966E+02  0.10924495442E+03  0.00000000000E+00 0.  1.
</event>
<event>
 7    1  0.6506388E-006  0.1111254E+03  0.7561462E-02  0.1258500E+00
          1   -1    0    0  501    0  0.00000000000E+00  0.00000000000E+00  0.30072710713E+03  0.30072710713E+03  0.00000000000E+00 0. -1.
         -1   -1    0    0    0  501 -0.00000000000E+00 -0.00000000000E+00 -0.72416025812E+02  0.72416025812E+02  0.00000000000E+00 0.  1.
         23    2    1    2    0    0 -0.90210754081E+02  0.40943293294E+02  0.14061541298E+03  0.21268228437E+03  0.12508687502E+03 0.  0.
          5    1    3    3  502    0 -0.97131092640E-01 -0.11680542137E+02  0.99774951783E+02  0.10054331356E+03  0.41800000000E+01 0. -1.
         -5    1    3    3    0  502 -0.90113622989E+02  0.52623835431E+02  0.40840461196E+02  0.11213897081E+03  0.41800000000E+01 0. -1.
        -11    1    1    2    0    0  0.48097595904E+02 -0.41141991355E+02  0.12884308447E+00  0.63293433980E+02  0.00000000000E+00 0. -1.
         11    1    1    2    0    0  0.42113158178E+02  0.19869806181E+00  0.87566825255E+02  0.97167414589E+02  0.00000000000E+00 0.  1.
</event>
<event>
 7    1  0.6506388E-006  0.3330433E+03  0.7561462E-02  0.1069798E+00
         -2   -1    0    0    0  501 -0.00000000000E+00  0.00000000000E+00  0.18183455775E+03  0.18183455775E+03  0.00000000000E+00 0.  1.
          2   -1    0    0  501    0  0.00000000000E+00 -0.00000000000E+00 -0.63774472837E+03  0.63774472837E+03  0.00000000000E+00 0. -1.
         23    2    1    2    0    0 -0.83507245641E+02 -0.30838040556E+03 -0.17775024675E+03  0.38641223567E+03  0.12508929229E+03 0.  0.
          5    1    3    3  502    0  0.27544116049E+02 -0.23121488424E+02 -0.11190146473E+02  0.37894238796E+02  0.41800000000E+01 0.  1.
         -5    1    3    3    0  502 -0.11105136169E+03 -0.28525891714E+03 -0.16656010028E+03  0.34851799687E+03  0.41800000000E+01 0.  1.
        -11    1    1    2    0    0  0.21114519788E+01  0.10007654426E+03 -0.43924389802E+02  0.10931205314E+03  0.00000000000E+00 0.  1.
         11    1    1    2    0    0  0.81395793662E+02  0.20830386130E+03 -0.23423553407E+03  0.32385499730E+03  0.00000000000E+00 0. -1.
</event>
<event>
 7    1  0.6506388E-006  0.1279686E+03  0.7561462E-02  0.1230502E+00
         -1   -1    0    0    0  501 -0.00000000000E+00  0.00000000000E+00  0.73778357579E+02  0.73778357579E+02  0.00000000000E+00 0.  1.
          1   -1    0    0  501    0  0.00000000000E+00 -0.00000000000E+00 -0.34062100094E+03  0.34062100094E+03  0.00000000000E+00 0. -1.
         23    2    1    2    0    0 -0.77422689447E+02  0.57813996680E+02 -0.60824552297E+02  0.16936194153E+03  0.12508840883E+03 0.  0.
          5    1    3    3  502    0 -0.28517308886E+02 -0.39581814315E+02 -0.17218800925E+02  0.51902952092E+02  0.41800000000E+01 0.  1.
         -5    1    3    3    0  502 -0.48905380561E+02  0.97395810995E+02 -0.43605751372E+02  0.11745898944E+03  0.41800000000E+01 0.  1.
        -11    1    1    2    0    0  0.25563078242E+02 -0.10255008135E+02 -0.15671843209E+03  0.15912040446E+03  0.00000000000E+00 0. -1.
         11    1    1    2    0    0  0.51859611205E+02 -0.47558988544E+02 -0.49299658974E+02  0.85917012521E+02  0.00000000000E+00 0.  1.
</event>
<event>
 7    1  0.6506388E-006  0.8276583E+02  0.7561462E-02  0.1321381E+00
          1   -1    0    0  501    0  0.00000000000E+00  0.00000000000E+00  0.26092963590E+03  0.26092963590E+03  0.00000000000E+00 0. -1.
         -1   -1    0    0    0  501 -0.00000000000E+00 -0.00000000000E+00 -0.59998763570E+02  0.59998763570E+02  0.00000000000E+00 0.  1.
         23    2    1    2    0    0 -0.30185723866E+02  0.16616391274E+02  0.44132207898E+02  0.13704888070E+03  0.12508981391E+03 0.  0.
          5    1    3    3  502    0  0.12662609995E+02  0.33630258099E+02  0.73713576409E+02  0.82112725559E+02  0.41800000000E+01 0. -1.
         -5    1    3    3    0  502 -0.42848333862E+02 -0.17013866826E+02 -0.29581368511E+02  0.54936155145E+02  0.41800000000E+01 0. -1.
        -11    1    1    2    0    0  0.43030513601E+02  0.17618150728E+02  0.39488873607E+02  0.61003241509E+02  0.00000000000E+00 0. -1.
         11    1    1    2    0    0 -0.12844789735E+02 -0.34234542001E+02  0.11730979083E+03  0.12287627726E+03  0.00000000000E+00 0.  1.
</event>
<event>
 7    1  0.6506388E-006  0.1917927E+03  0.7561462E-02  0.1156854E+00
          1   -1    0    0  501    0  0.00000000000E+00  0.00000000000E+00  0.35580293222E+03  0.35580293222E+03  0.00000000000E+00 0. -1.
         -1   -1    0    0    0  501 -0.00000000000E+00 -0.00000000000E+00 -0.16614954729E+03  0.16614954729E+03  0.00000000000E+00 0.  1.
         23    2    1    2    0    0 -0.40370356864E+02 -0.16409367775E+03 -0.48050356035E+02  0.21566859086E+03  0.12509038163E+03 0.  0.
          5    1    3    3  502    0  0.42699613032E+02 -0.34889768668E+02 -0.23242968076E+01  0.55348239958E+02  0.41800000000E+01 0.  1.
         -5    1    3    3    0  502 -0.83069969896E+02 -0.12920390909E+03 -0.45726059228E+02  0.16032035090E+03  0.41800000000E+01 0.  1.
        -11    1    1    2    0    0  0.47894422651E+02  0.10951343791E+03  0.21639153740E+03  0.24720915489E+03  0.00000000000E+00 0. -1.
         11    1    1    2    0    0 -0.75240657873E+01  0.54580239845E+02  0.21312203574E+02  0.59074733759E+02  0.00000000000E+00 0.  1.
</event>
<event>
 7    1  0.6506388E-006  0.9887129E+02  0.7561462E-02  0.1282688E+00
         -2   -1    0    0    0  501 -0.00000000000E+00  0.00000000000E+00  0.32741587741E+03  0.32741587741E+03  0.00000000000E+00 0.  1.
          2   -1    0    0  501    0  0.00000000000E+00 -0.00000000000E+00 -0.11482738486E+03  0.11482738486E+03  0.00000000000E+00 0. -1.
         23    2    1    2    0    0 -0.24479950444E+02 -0.63334397666E+02  0.27814713917E+03  0.31210873242E+03  0.12423975179E+03 0.  0.
          5    1    3    3  502    0 -0.63161717737E+02 -0.27684125377E+02  0.23179363276E+03  0.24187098622E+03  0.41800000000E+01 0. -1.
         -5    1    3    3    0  502  0.38681767294E+02 -0.35650272289E+02  0.46353506404E+02  0.70237746199E+02  0.41800000000E+01 0.  1.
        -11    1    1    2    0    0 -0.42889374932E+01  0.35817928370E+02 -0.80023399246E+02  0.87778490557E+02  0.00000000000E+00 0. -1.
         11    1    1    2    0    0  0.28768887937E+02  0.27516469296E+02  0.14464752636E+02  0.42356039292E+02  0.00000000000E+00 0.  1.
</event>
<event>
 7    1  0.6506388E-006  0.7002583E+02  0.7561462E-02  0.1360005E+00
          2   -1    0    0  501    0  0.00000000000E+00  0.00000000000E+00  0.69015220870E+03  0.69015220870E+03  0.00000000000E+00 0.  1.
         -2   -1    0    0    0  501 -0.00000000000E+00 -0.00000000000E+00 -0.20085554004E+02  0.20085554004E+02  0.00000000000E+00 0. -1.
         23    2    1    2    0    0 -0.24187229323E+02 -0.38376835761E+02  0.38293436186E+03  0.40539258607E+03  0.12508644917E+03 0.  0.
          5    1    3    3  502    0 -0.19009315949E+01 -0.14923684578E+02 -0.47635478589E+01  0.16324634468E+02  0.41800000000E+01 0. -1.
         -5    1    3    3    0  502 -0.22286297728E+02 -0.23453151183E+02  0.38769790972E+03  0.38906795160E+03  0.41800000000E+01 0. -1.
        -11    1    1    2    0    0  0.25530106203E+02 -0.20611419049E+02  0.17588199531E+03  0.17891644193E+03  0.00000000000E+00 0.  1.
         11    1    1    2    0    0 -0.13428768800E+01  0.58988254810E+02  0.11125029753E+03  0.12592873471E+03  0.00000000000E+00 0. -1.
</event>
<event>
 7    1  0.6506388E-006  0.1176705E+03  0.7561462E-02  0.1246990E+00
          2   -1    0    0  501    0  0.00000000000E+00  0.00000000000E+00  0.17679525668E+03  0.17679525668E+03  0.00000000000E+00 0. -1.
         -2   -1    0    0    0  501 -0.00000000000E+00 -0.00000000000E+00 -0.10953991396E+03  0.10953991396E+03  0.00000000000E+00 0.  1.
         23    2    1    2    0    0 -0.82669227819E+02  0.19765599453E+02  0.53818437331E+02  0.16052400198E+03  0.12508657348E+03 0.  0.
          5    1    3    3  502    0 -0.34461263525E+02  0.62581445958E+02  0.62898928704E+02  0.95277298944E+02  0.41800000000E+01 0. -1.
         -5    1    3    3    0  502 -0.48207964294E+02 -0.42815846505E+02 -0.90804913730E+01  0.65246703035E+02  0.41800000000E+01 0. -1.
        -11    1    1    2    0    0  0.64695577031E+02 -0.36776117235E+02 -0.26359237395E+02  0.78948146795E+02  0.00000000000E+00 0.  1.
         11    1    1    2    0    0  0.17973650788E+02  0.17010517783E+02  0.39796142786E+02  0.46863021867E+02  0.00000000000E+00 0. -1.
</event>
<event>
 7    1  0.6506388E-006  0.6309691E+02  0.7561462E-02  0.1385277E+00
         -1   -1    0    0    0  501 -0.00000000000E+00  0.00000000000E+00  0.26663400878E+03  0.26663400878E+03  0.00000000000E+00 0.  1.
          1   -1    0    0  501    0  0.00000000000E+00 -0.00000000000E+00 -0.42841564885E+02  0.42841564885E+02  0.00000000000E+00 0. -1.
         23    2    1    2    0    0 -0.18901790820E+01  0.84796570711E+01  0.13222312277E+03  0.18222539616E+03  0.12509062095E+03 0.  0.
          5    1    3    3  502    0  0.86825591643E+01 -0.26637322295E+02 -0.13870884937E+02  0.31540571041E+02  0.41800000000E+01 0.  1.
         -5    1    3    3    0  502 -0.10572738246E+02  0.35116979366E+02  0.14609400771E+03  0.15068482512E+03  0.41800000000E+01 0.  1.
        -11    1    1    2    0    0 -0.27404046053E+02  0.63373706378E+01  0.90100788748E+02  0.94389067904E+02  0.00000000000E+00 0.  1.
         11    1    1    2    0    0  0.29294225135E+02 -0.14817027709E+02  0.14685323704E+01  0.32861109593E+02  0.00000000000E+00 0. -1.
</event>
<event>
 7    1  0.6506388E-006  0.1413113E+03  0.7561462E-02  0.1211575E+00
          3   -1    0    0  501    0  0.00000000000E+00  0.00000000000E+00  0.15010833732E+03  0.15010833732E+03  0.00000000000E+00 0. -1.
         -3   -1    0    0    0  501 -0.00000000000E+00 -0.00000000000E+00 -0.16736050155E+03  0.16736050155E+03  0.00000000000E+00 0.  1.
         23    2    1    2    0    0 -0.63665803466E+02 -0.95016082162E+02 -0.16571935739E+02  0.17030314773E+03  0.12508853933E+03 0.  0.
          5    1    3    3  502    0 -0.87212761365E+02 -0.34419689205E+02 -0.38677909369E+02  0.10150977206E+03  0.41800000000E+01 0. -1.
         -5    1    3    3    0  502  0.23546957899E+02 -0.60596392957E+02  0.22105973630E+02  0.68793375668E+02  0.41800000000E+01 0. -1.
        -11    1    1    2    0    0  0.53688818100E+02  0.99207683707E+02  0.28241935264E+02  0.11628525531E+03  0.00000000000E+00 0. -1.
         11    1    1    2    0    0  0.99769853660E+01 -0.41916015450E+01 -0.28922163756E+02  0.30880435826E+02  0.00000000000E+00 0.  1.
</event>
<event>
 7    1  0.7600415E-006  0.1371904E+03  0.7561462E-02  0.1217160E+00
         -1   -1    0    0    0  501 -0.00000000000E+00  0.00000000000E+00  0.40730499444E+02  0.40730499444E+02  0.00000000000E+00 0.  1.
          1   -1    0    0  501    0  0.00000000000E+00 -0.00000000000E+00 -0.60560710027E+03  0.60560710027E+03  0.00000000000E+00 0. -1.
         23    2    1    2    0    0 -0.63479508599E+02  0.93112292978E+02 -0.28367554386E+03  0.32987674589E+03  0.12508919290E+03 0.  0.
          5    1    3    3  502    0 -0.11746188412E+02  0.74193335772E+02 -0.51383553013E+02  0.91106344101E+02  0.41800000000E+01 0.  1.
         -5    1    3    3    0  502 -0.51733320187E+02  0.18918957206E+02 -0.23229199084E+03  0.23877040179E+03  0.41800000000E+01 0.  1.
        -11    1    1    2    0    0  0.32002253916E+02  0.12001776636E+02 -0.50286980316E+02  0.60802691449E+02  0.00000000000E+00 0. -1.
         11    1    1    2    0    0  0.31477254683E+02 -0.10511406961E+03 -0.23091407665E+03  0.25565816238E+03  0.00000000000E+00 0.  1.
</event>
<event>
 7    1  0.6506388E-006  0.1150974E+03  0.7561462E-02  0.1251411E+00
          1   -1    0    0  501    0  0.00000000000E+00  0.00000000000E+00  0.17263769674E+03  0.17263769674E+03  0.00000000000E+00 0. -1.
         -1   -1    0    0    0  501 -0.00000000000E+00 -0.00000000000E+00 -0.11271397718E+03  0.11271397718E+03  0.00000000000E+00 0.  1.
         23    2    1    2    0    0 -0.10727829232E+02 -0.72800694791E+02 -0.15806183088E+02  0.14598652459E+03  0.12508877829E+03 0.  0.
          5    1    3    3  502    0  0.36810204395E+02 -0.46551566845E+02 -0.53289423530E+02  0.79870361108E+02  0.41800000000E+01 0. -1.
         -5    1    3    3    0  502 -0.47538033627E+02 -0.26249127946E+02  0.37483240443E+02  0.66116163478E+02  0.41800000000E+01 0. -1.
        -11    1    1    2    0    0  0.10126489244E+02 -0.20536602942E+02  0.88939621792E+01  0.24564209901E+02  0.00000000000E+00 0.  1.
         11    1    1    2    0    0  0.60133998823E+00  0.93337297733E+02  0.66835940463E+02  0.11480093944E+03  0.00000000000E+00 0. -1.
</event>
<event>
 7    1  0.6506388E-006  0.1068748E+03  0.7561462E-02  0.1266469E+00
          3   -1    0    0  501    0  0.00000000000E+00  0.00000000000E+00  0.75929734351E+02  0.75929734351E+02  0.00000000000E+00 0. -1.
         -3   -1    0    0    0  501 -0.00000000000E+00 -0.00000000000E+00 -0.33394582314E+03  0.33394582314E+03  0.00000000000E+00 0.  1.
         23    2    1    2    0    0 -0.45994186613E+02 -0.76179290957E+02 -0.24085102527E+03  0.28561319239E+03  0.12508768812E+03 0.  0.
          5    1    3    3  502    0  0.12693866204E+02 -0.15344990032E+02  0.86784250810E+01  0.22122170332E+02  0.41800000000E+01 0. -1.
         -5    1    3    3    0  502 -0.58688052817E+02 -0.60834300925E+02 -0.24952945035E+03  0.26349102206E+03  0.41800000000E+01 0. -1.
        -11    1    1    2    0    0  0.34227417868E+02  0.26785471478E+01 -0.33594468807E+02  0.48034144972E+02  0.00000000000E+00 0. -1.
         11    1    1    2    0    0  0.11766768745E+02  0.73500743809E+02  0.16429405282E+02  0.76228220136E+02  0.00000000000E+00 0.  1.
</event>
<event>
 7    1  0.6506388E-006  0.1566974E+03  0.7561462E-02  0.1192477E+00
          2   -1    0    0  501    0  0.00000000000E+00  0.00000000000E+00  0.37915557118E+03  0.37915557118E+03  0.00000000000E+00 0.  1.
         -2   -1    0    0    0  501 -0.00000000000E+00 -0.00000000000E+00 -0.84792710724E+02  0.84792710724E+02  0.00000000000E+00 0. -1.
         23    2    1    2    0    0  0.58378167705E+02  0.11171296407E+03  0.69112739092E+02  0.19055576370E+03  0.12508849495E+03 0.  0.
          5    1    3    3  502    0 -0.22375013065E+02  0.28249635839E+01  0.48126816685E+02  0.53313080132E+02  0.41800000000E+01 0. -1.
         -5    1    3    3    0  502  0.80753180769E+02  0.10888800048E+03  0.20985922407E+02  0.13724268357E+03  0.41800000000E+01 0. -1.
        -11    1    1    2    0    0 -0.43353574788E+02 -0.12732524312E+01  0.67772399111E+02  0.80462734853E+02  0.00000000000E+00 0.  1.
         11    1    1    2    0    0 -0.15024592917E+02 -0.11043971164E+03  0.15747772225E+03  0.19292978335E+03  0.00000000000E+00 0. -1.
</event>
<event>
 7    1  0.6506388E-006  0.1089489E+03  0.7561462E-02  0.1262529E+00
          2   -1    0    0  501    0  0.00000000000E+00  0.00000000000E+00  0.15772276321E+03  0.15772276321E+03  0.00000000000E+00 0. -1.
         -2   -1    0    0    0  501 -0.00000000000E+00 -0.00000000000E+00 -0.12875639540E+03  0.12875639540E+03  0.00000000000E+00 0.  1.
         23    2    1    2    0    0  0.38890328947E+02  0.39406278953E+02 -0.59378898773E+02  0.14695591305E+03  0.12249438459E+03 0.  0.
          5    1    3    3  502    0 -0.19139701843E+02 -0.34908553304E+02 -0.18689354525E+02  0.44178044920E+02  0.41800000000E+01 0. -1.
         -5    1    3    3    0  502  0.58030030791E+02  0.74314832257E+02 -0.40689544249E+02  0.10277786813E+03  0.41800000000E+01 0.  1.
        -11    1    1    2    0    0 -0.16947079472E+02  0.16362410454E+02  0.74333127904E+02  0.77976572652E+02  0.00000000000E+00 0.  1.
         11    1    1    2    0    0 -0.21943249475E+02 -0.55768689407E+02  0.14012138673E+02  0.61546672907E+02  0.00000000000E+00 0. -1.
</event>
<event>
 7    1  0.6506388E-006  0.1071018E+03  0.7561462E-02  0.1266033E+00
         -2   -1    0    0    0  501 -0.00000000000E+00  0.00000000000E+00  0.11660338357E+03  0.11660338357E+03  0.00000000000E+00 0.  1.
          2   -1    0    0  501    0  0.00000000000E+00 -0.00000000000E+00 -0.17318184867E+03  0.17318184867E+03  0.00000000000E+00 0. -1.
         23    2    1    2    0    0  0.86898310294E+02 -0.65365871891E+01 -0.23860295109E+01  0.15247067072E+03  0.12509024338E+03 0.  0.
          5    1    3    3  502    0  0.13126607277E+02  0.18981642550E+02 -0.53947332323E+02  0.58825144601E+02  0.41800000000E+01 0.  1.
         -5    1    3    3    0  502  0.73771703017E+02 -0.25518229739E+02  0.51561302812E+02  0.93645526122E+02  0.41800000000E+01 0.  1.
        -11    1    1    2    0    0 -0.58450123408E+02 -0.30457639284E+02 -0.14835700009E+00  0.65909837861E+02  0.00000000000E+00 0.  1.
         11    1    1    2    0    0 -0.28448186886E+02  0.36994226473E+02 -0.54044078594E+02  0.71404723657E+02  0.00000000000E+00 0. -1.
</event>
<event>
 6    1  0.6506388E-006  0.8550536E+02  0.7561462E-02  0.1314116E+00
         -2   -1    0    0    0  501 -0.00000000000E+00  0.00000000000E+00  0.10443647683E+04  0.10443647683E+04  0.00000000000E+00 0.  1.
          2   -1    0    0  501    0  0.00000000000E+00 -0.00000000000E+00 -0.13432074654E+02  0.13432074654E+02  0.00000000000E+00 0. -1.
          5    1    1    2  502    0 -0.27667571346E+02 -0.40090852610E+02  0.85654709407E+02  0.98625415643E+02  0.41800000000E+01 0. -1.
         -5    1    1    2    0  502  0.27737578864E+02  0.93534942804E+01  0.61155059387E+03  0.61226502627E+03  0.41800000000E+01 0.  1.
        -11    1    1    2    0    0  0.18610490717E+02 -0.26477818466E+02  0.83761024143E+02  0.89796071188E+02  0.00000000000E+00 0.  1.
         11    1    1    2    0    0 -0.18680498235E+02  0.57215176796E+02  0.24996636620E+03  0.25711032983E+03  0.00000000000E+00 0. -1.
</event>
<event>
 7    1  0.6506388E-006  0.1166093E+03  0.7561462E-02  0.1248798E+00
          1   -1    0    0  501    0  0.00000000000E+00  0.00000000000E+00  0.66571998179E+03  0.66571998179E+03  0.00000000000E+00 0. -1.
         -1   -1    0    0    0  501 -0.00000000000E+00 -0.00000000000E+00 -0.11831176879E+03  0.11831176879E+03  0.00000000000E+00 0.  1.
         23    2    1    2    0    0  0.93196413499E+01 -0.10609243541E+03 -0.54906594033E+02  0.16559178890E+03  0.11429543262E+03 0.  0.
          5    1    3    3  502    0  0.14399367677E+01 -0.36968735170E+02  0.35496221888E+02  0.51441374071E+02  0.41800000000E+01 0. -1.
         -5    1    3    3    0  502  0.78797045821E+01 -0.69123700240E+02 -0.90402815922E+02  0.11415041483E+03  0.41800000000E+01 0.  1.
        -11    1    1    2    0    0 -0.22534206909E+02  0.11017735163E+03  0.58752215866E+03  0.59818820300E+03  0.00000000000E+00 0. -1.
         11    1    1    2    0    0  0.13214565559E+02 -0.40849162205E+01  0.14792648372E+02  0.20251758672E+02  0.00000000000E+00 0.  1.
</event>
<event>
 7    1  0.6506388E-006  0.1023096E+03  0.7561462E-02  0.1275513E+00
         -4   -1    0    0    0  501 -0.00000000000E+00  0.00000000000E+00  0.22532821211E+03  0.22532821211E+03  0.00000000000E+00 0.  1.
          4   -1    0    0  501    0  0.00000000000E+00 -0.00000000000E+00 -0.57456584193E+02  0.57456584193E+02  0.00000000000E+00 0. -1.
         23    2    1    2    0    0 -0.18463423201E+02 -0.86041533908E+01  0.12711217919E+03  0.17949971205E+03  0.12509081132E+03 0.  0.
          5    1    3    3  502    0  0.53309469643E+02 -0.69727285829E+01  0.44033168519E+02  0.69619758886E+02  0.41800000000E+01 0.  1.
         -5    1    3    3    0  502 -0.71772892844E+02 -0.16314248080E+01  0.83079010668E+02  0.10987995317E+03  0.41800000000E+01 0.  1.
        -11    1    1    2    0    0 -0.27818318366E+01 -0.32442453553E+02 -0.10550280984E+02  0.34228055886E+02  0.00000000000E+00 0. -1.
         11    1    1    2    0    0  0.21245255037E+02  0.41046606944E+02  0.51309729709E+02  0.69057028361E+02  0.00000000000E+00 0.  1.
</event>
<event>
 7    1  0.6506388E-006  0.1112231E+03  0.7561462E-02  0.1258322E+00
         -2   -1    0    0    0  501 -0.00000000000E+00  0.00000000000E+00  0.27430352040E+03  0.27430352040E+03  0.00000000000E+00 0.  1.
          2   -1    0    0  501    0  0.00000000000E+00 -0.00000000000E+00 -0.74236499359E+02  0.74236499359E+02  0.00000000000E+00 0. -1.
         23    2    1    2    0    0 -0.65843161789E+02 -0.26237077761E+01  0.17856034822E+03  0.22775943175E+03  0.12509338511E+03 0.  0.
          5    1    3    3  502    0 -0.98622019108E+02 -0.16845061172E+00  0.91458155947E+02  0.13456744672E+03  0.41800000000E+01 0. -1.
         -5    1    3    3    0  502  0.32778857318E+02 -0.24552571644E+01  0.87102192271E+02  0.93191985027E+02  0.41800000000E+01 0. -1.
        -11    1    1    2    0    0  0.76596037903E+01 -0.25032445974E+02  0.45122564901E+02  0.52166452293E+02  0.00000000000E+00 0.  1.
         11    1    1    2    0    0  0.58183557999E+02  0.27656153750E+02 -0.23615892075E+02  0.68614135717E+02  0.00000000000E+00 0. -1.
</event>
<event>
 7    1  0.6506388E-006  0.2273502E+03  0.7561462E-02  0.1128519E+00
          2   -1    0    0  501    0  0.00000000000E+00  0.00000000000E+00  0.31829428785E+03  0.31829428785E+03  0.00000000000E+00 0.  1.
         -2   -1    0    0    0  501 -0.00000000000E+00 -0.00000000000E+00 -0.19317458830E+03  0.19317458830E+03  0.00000000000E+00 0. -1.
         23    2    1    2    0    0 -0.54561075681E+02  0.20489379143E+03 -0.62232227270E+01  0.24625859013E+03  0.12508472315E+03 0.  0.
          5    1    3    3  502    0 -0.40665769473E+02  0.20778355560E+03  0.23489913591E+02  0.21306562188E+03  0.41800000000E+01 0. -1.
         -5    1    3    3    0  502 -0.13895306208E+02 -0.28897641722E+01 -0.29713136318E+02  0.33192968253E+02  0.41800000000E+01 0. -1.
        -11    1    1    2    0    0 -0.87991907557E+01 -0.12888251652E+03  0.55815857191E+02  0.14072504658E+03  0.00000000000E+00 0. -1.
         11    1    1    2    0    0  0.63360266437E+02 -0.76011274914E+02  0.75527065084E+02  0.12448523943E+03  0.00000000000E+00 0.  1.
</event>
<event>
 6    1  0.6506388E-006  0.1466724E+03  0.7561462E-02  0.1204623E+00
          1   -1    0    0  501    0  0.00000000000E+00  0.00000000000E+00  0.36709183385E+03  0.36709183385E+03  0.00000000000E+00 0. -1.
         -1   -1    0    0    0  501 -0.00000000000E+00 -0.00000000000E+00 -0.80282100448E+02  0.80282100448E+02  0.00000000000E+00 0.  1.
          5    1    1    2  502    0 -0.63996538632E+02  0.41973054090E+02  0.10462457396E+02  0.77357802717E+02  0.41800000000E+01 0. -1.
         -5    1    1    2    0  502  0.71615285796E+02  0.54164817914E+02  0.40349736946E+02  0.98529946366E+02  0.41800000000E+01 0.  1.
        -11    1    1    2    0    0 -0.25271813077E+02  0.35943620338E+01  0.18383275089E+02  0.31456776339E+02  0.00000000000E+00 0. -1.
         11    1    1    2    0    0  0.17653065912E+02 -0.99732234038E+02  0.21761426397E+03  0.24002940888E+03  0.00000000000E+00 0.  1.
</event>
<event>
 7    1  0.6506388E-006  0.1186324E+03  0.7561462E-02  0.1245370E+00
         -1   -1    0    0    0  501 -0.00000000000E+00  0.00000000000E+00  0.80348627302E+02  0.80348627302E+02  0.00000000000E+00 0.  1.
          1   -1    0    0  501    0  0.00000000000E+00 -0.00000000000E+00 -0.23840203574E+03  0.23840203574E+03  0.00000000000E+00 0. -1.
         23    2    1    2    0    0 -0.80482121863E+02  0.28168906721E+02 -0.93027637257E+02  0.17768702512E+03  0.12509068054E+03 0.  0.
          5    1    3    3  502    0  0.13765681789E+02  0.53295738063E+01 -0.77964288038E+02  0.79459429656E+02  0.41800000000E+01 0.  1.
         -5    1    3    3    0  502 -0.94247803652E+02  0.22839332915E+02 -0.15063349220E+02  0.98227595465E+02  0.41800000000E+01 0.  1.
        -11    1    1    2    0    0 -0.48004845468E+01 -0.38637388802E+02 -0.25048964722E+02  0.46296253617E+02  0.00000000000E+00 0. -1.
         11    1    1    2    0    0  0.85282606409E+02  0.10468482081E+02 -0.39976806459E+02  0.94767384304E+02  0.00000000000E+00 0.  1.
</event>
<event>
 7    1  0.6506388E-006  0.1792996E+03  0.7561462E-02  0.1168483E+00
          1   -1    0    0  501    0  0.00000000000E+00  0.00000000000E+00  0.81393662352E+02  0.81393662352E+02  0.00000000000E+00 0. -1.
         -1   -1    0    0    0  501 -0.00000000000E+00 -0.00000000000E+00 -0.52848546088E+03  0.52848546088E+03  0.00000000000E+00 0.  1.
         23    2    1    2    0    0  0.10026100056E+03  0.12996911052E+03 -0.32872160865E+03  0.38813643212E+03  0.12509099095E+03 0.  0.
          5    1    3    3  502    0 -0.14980125119E+02  0.32244709565E+01 -0.10570533835E+03  0.10689196564E+03  0.41800000000E+01 0.  1.
         -5    1    3    3    0  502  0.11524112568E+03  0.12674463956E+03 -0.22301627030E+03  0.28124446648E+03  0.41800000000E+01 0.  1.
        -11    1    1    2    0    0 -0.39507200874E+02 -0.90942734848E+02 -0.22418865675E+02  0.10165631058E+03  0.00000000000E+00 0. -1.
         11    1    1    2    0    0 -0.60753799688E+02 -0.39026375672E+02 -0.95951324196E+02  0.12008638053E+03  0.00000000000E+00 0.  1.
</event>
<event>
 7    1  0.6506388E-006  0.9160351E+02  0.7561462E-02  0.1299014E+00
         -1   -1    0    0    0  501 -0.00000000000E+00  0.00000000000E+00  0.83915612999E+02  0.83915612999E+02  0.00000000000E+00 0.  1.
          1   -1    0    0  501    0  0.00000000000E+00 -0.00000000000E+00 -0.21581946999E+03  0.21581946999E+03  0.00000000000E+00 0. -1.
         23    2    1    2    0    0  0.14386258772E+02  0.68440587369E+02 -0.36124762126E+02  0.14779399497E+03  0.12508792136E+03 0.  0.
          5    1    3    3  502    0  0.42059511540E+01 -0.12057106191E+02  0.36453499901E+02  0.38850918778E+02  0.41800000000E+01 0.  1.
         -5    1    3    3    0  502  0.10180307618E+02  0.80497693560E+02 -0.72578262028E+02  0.10894307619E+03  0.41800000000E+01 0.  1.
        -11    1    1    2    0    0 -0.32466463023E+02 -0.23488217791E+02  0.47424707564E+01  0.40351686769E+02  0.00000000000E+00 0.  1.
         11    1    1    2    0    0  0.18080204250E+02 -0.44952369578E+02 -0.10052156562E+03  0.11158940125E+03  0.00000000000E+00 0. -1.
</event>
<event>
 7    1  0.6506388E-006  0.1271494E+03  0.7561462E-02  0.1231748E+00
          2   -1    0    0  501    0  0.00000000000E+00  0.00000000000E+00  0.20061595012E+03  0.20061595012E+03  0.00000000000E+00 0. -1.
         -2   -1    0    0    0  501 -0.00000000000E+00 -0.00000000000E+00 -0.87898225104E+02  0.87898225104E+02  0.00000000000E+00 0.  1.
         23    2    1    2    0    0 -0.35658661486E+02 -0.58380320426E+02  0.24106639341E+02  0.14459798261E+03  0.12509054546E+03 0.  0.
          5    1    3    3  502    0 -0.45542714282E+02  0.29096415277E+02  0.51466465147E+01  0.54449064056E+02  0.41800000000E+01 0.  1.
         -5    1    3    3    0  502  0.98840527967E+01 -0.87476735703E+02  0.18959992827E+02  0.90148918556E+02  0.41800000000E+01 0.  1.
        -11    1    1    2    0    0  0.19644937670E+02 -0.22292997984E+02  0.34174541888E+02  0.45285766510E+02  0.00000000000E+00 0.  1.
         11    1    1    2    0    0  0.16013723816E+02  0.80673318410E+02  0.54436543788E+02  0.98630426103E+02  0.00000000000E+00 0. -1.
</event>
<event>
 7    1  0.6506388E-006  0.1487673E+03  0.7561462E-02  0.1201996E+00
          3   -1    0    0  501    0  0.00000000000E+00  0.00000000000E+00  0.39870720550E+03  0.39870720550E+03  0.00000000000E+00 0. -1.
         -3   -1    0    0    0  501 -0.00000000000E+00 -0.00000000000E+00 -0.61995317566E+02  0.61995317566E+02  0.00000000000E+00 0.  1.
         23    2    1    2    0    0  0.78491429917E+02  0.81427712934E+02  0.17039914204E+03  0.23974035813E+03  0.12509274441E+03 0.  0.
          5    1    3    3  502    0  0.11289436891E+03  0.61993277982E+02  0.12790137890E+03  0.18156139505E+03  0.41800000000E+01 0. -1.
         -5    1    3    3    0  502 -0.34402938995E+02  0.19434434952E+02  0.42497763137E+02  0.58178963080E+02  0.41800000000E+01 0. -1.
        -11    1    1    2    0    0 -0.26380881439E+02 -0.71069613647E+02  0.44104515463E+02  0.87704328136E+02  0.00000000000E+00 0.  1.
         11    1    1    2    0    0 -0.52110548478E+02 -0.10358099287E+02  0.12220823043E+03  0.13325783680E+03  0.00000000000E+00 0. -1.
</event>
<event>
 7    1  0.6506388E-006  0.8304592E+02  0.7561462E-02  0.1320623E+00
         -3   -1    0    0    0  501 -0.00000000000E+00  0.00000000000E+00  0.14563359771E+03  0.14563359771E+03  0.00000000000E+00 0.  1.
          3   -1    0    0  501    0  0.00000000000E+00 -0.00000000000E+00 -0.13048449230E+03  0.13048449230E+03  0.00000000000E+00 0. -1.
         23    2    1    2    0    0  0.24254286566E+01 -0.11879901255E+02  0.99534422059E+02  0.15089054842E+03  0.11275567245E+03 0.  0.
          5    1    3    3  502    0  0.21983386950E+02  0.26153091438E+02  0.10219666055E+03  0.10783730023E+03  0.41800000000E+01 0. -1.
         -5    1    3    3    0  502 -0.19557958294E+02 -0.38032992693E+02 -0.26622384926E+01  0.43053248189E+02  0.41800000000E+01 0.  1.
        -11    1    1    2    0    0 -0.10248799876E+02  0.49360237244E+02 -0.65156095577E+02  0.82381962288E+02  0.00000000000E+00 0. -1.
         11    1    1    2    0    0  0.78233712192E+01 -0.37480335989E+02 -0.19229221072E+02  0.42845579306E+02  0.00000000000E+00 0.  1.
</event>
