<event>
 7    1  0.2723366E-009  0.1282365E+03  0.7561462E-02  0.1230096E+00
          1   -1    0    0  501    0  0.00000000000E+00  0.00000000000E+00  0.84699160858E+02  0.84699160858E+02  0.00000000000E+00 0. -1.
         -1   -1    0    0    0  501 -0.00000000000E+00 -0.00000000000E+00 -0.26994608430E+03  0.26994608430E+03  0.00000000000E+00 0.  1.
         25    2    1    2    0    0 -0.62570655363E+02 -0.80004221135E+02 -0.12970189432E+03  0.20684714108E+03  0.12508955220E+03 0.  0.
          5    1    3    3  502    0 -0.22612032158E+01  0.17515895568E+02 -0.79607250138E+02  0.81649900870E+02  0.41800000000E+01 0. -1.
         -5    1    3    3    0  502 -0.60309452147E+02 -0.97520116703E+02 -0.50094644180E+02  0.12519724021E+03  0.41800000000E+01 0. -1.
        -11    1    1    2    0    0  0.61305185072E+02  0.21348321597E+02  0.29063651616E+01  0.64980947286E+02  0.00000000000E+00 0. -1.
         11    1    1    2    0    0  0.12654702907E+01  0.58655899538E+02 -0.58451394290E+02  0.82817156798E+02  0.00000000000E+00 0.  1.
</event>
<event>
 7    1  0.2723366E-009  0.1740769E+03  0.7561462E-02  0.1173662E+00
          1   -1    0    0  501    0  0.00000000000E+00  0.00000000000E+00  0.61561213648E+03  0.61561213648E+03  0.00000000000E+00 0. -1.
         -1   -1    0    0    0  501 -0.00000000000E+00 -0.00000000000E+00 -0.79281811955E+02  0.79281811955E+02  0.00000000000E+00 0.  1.
         25    2    1    2    0    0 -0.85581801089E+02  0.12900099068E+03  0.46603030876E+03  0.50675168810E+03  0.12509006528E+03 0.  0.
          5    1    3    3  502    0 -0.10587468567E+03  0.61962383709E+02  0.35280402252E+03  0.37354643187E+03  0.41800000000E+01 0. -1.
         -5    1    3    3    0  502  0.20292884582E+02  0.67038606972E+02  0.11322628624E+03  0.13320525622E+03  0.41800000000E+01 0. -1.
        -11    1    1    2    0    0  0.33574034859E+02 -0.61043246548E+02 -0.10494196559E+02  0.70452976709E+02  0.00000000000E+00 0.  1.
         11    1    1    2    0    0  0.52007766230E+02 -0.67957744134E+02  0.80794212328E+02  0.11768928363E+03  0.00000000000E+00 0. -1.
</event>
<event>
 7    1  0.2723366E-009  0.1657833E+03  0.7561462E-02  0.1182318E+00
         -2   -1    0    0    0  501 -0.00000000000E+00  0.00000000000E+00  0.44617850779E+02  0.44617850779E+02  0.00000000000E+00 0.  1.
          2   -1    0    0  501    0  0.00000000000E+00 -0.00000000000E+00 -0.91631751225E+03  0.91631751225E+03  0.00000000000E+00 0. -1.
         25    2    1    2    0    0 -0.68862008038E+02 -0.13237672816E+03 -0.26423112411E+03  0.32821906833E+03  0.12507635890E+03 0.  0.
          5    1    3    3  502    0 -0.94880590069E+02 -0.84462103146E+02 -0.12341419733E+03  0.17715730226E+03  0.41800000000E+01 0.  1.
         -5    1    3    3    0  502  0.26018582031E+02 -0.47914625019E+02 -0.14081692678E+03  0.15106176608E+03  0.41800000000E+01 0.  1.
        -11    1    1    2    0    0  0.51345232862E+02  0.85360439214E+02 -0.53729545521E+03  0.54645141020E+03  0.00000000000E+00 0. -1.
         11    1    1    2    0    0  0.17516775176E+02  0.47016288951E+02 -0.70173082143E+02  0.86264884494E+02  0.00000000000E+00 0.  1.
</event>
<event>
 7    1  0.2848559E-009  0.1314982E+03  0.7561462E-02  0.1225249E+00
         -1   -1    0    0    0  501 -0.00000000000E+00  0.00000000000E+00  0.19604728357E+02  0.19604728357E+02  0.00000000000E+00 0.  1.
          1   -1    0    0  501    0  0.00000000000E+00 -0.00000000000E+00 -0.13642823964E+04  0.13642823964E+04  0.00000000000E+00 0. -1.
         25    2    1    2    0    0  0.72040207123E+02  0.86463227621E+02 -0.91524006248E+03  0.93057987560E+03  0.12509537050E+03 0.  0.
          5    1    3    3  502    0  0.54619721487E+02  0.12967148153E+02 -0.12949371401E+03  0.14120040819E+03  0.41800000000E+01 0. -1.
         -5    1    3    3    0  502  0.17420485635E+02  0.73496079469E+02 -0.78574634848E+03  0.78937946740E+03  0.41800000000E+01 0. -1.
        -11    1    1    2    0    0 -0.93859976722E+01  0.11453891972E+02 -0.95396506436E+01  0.17615150525E+02  0.00000000000E+00 0.  1.
         11    1    1    2    0    0 -0.62654209450E+02 -0.97917119593E+02 -0.41989795495E+03  0.43569209867E+03  0.00000000000E+00 0. -1.
</event>
<event>
 7    1  0.2723366E-009  0.1417680E+03  0.7561462E-02  0.1210970E+00
          2   -1    0    0  501    0  0.00000000000E+00  0.00000000000E+00  0.12359980173E+04  0.12359980173E+04  0.00000000000E+00 0. -1.
         -2   -1    0    0    0  501 -0.00000000000E+00 -0.00000000000E+00 -0.27695971443E+02  0.27695971443E+02  0.00000000000E+00 0.  1.
         25    2    1    2    0    0 -0.11669035530E+03  0.21056470227E+02  0.94136514575E+03  0.95701467969E+03  0.12509494616E+03 0.  0.
          5    1    3    3  502    0  0.27283371526E+01 -0.29683610396E+02  0.72428949765E+02  0.78434595133E+02  0.41800000000E+01 0. -1.
         -5    1    3    3    0  502 -0.11941869245E+03  0.50740080623E+02  0.86893619599E+03  0.87858008456E+03  0.41800000000E+01 0. -1.
        -11    1    1    2    0    0  0.70087610746E+02  0.49264504018E+01  0.58211724212E+02  0.91242248599E+02  0.00000000000E+00 0.  1.
         11    1    1    2    0    0  0.46602744551E+02 -0.25982920629E+02  0.20872517589E+03  0.21543706045E+03  0.00000000000E+00 0. -1.
</event>
<event>
 7    1  0.2723366E-009  0.7647616E+02  0.7561462E-02  0.1339360E+00
         -2   -1    0    0    0  501 -0.00000000000E+00  0.00000000000E+00  0.15187775742E+03  0.15187775742E+03  0.00000000000E+00 0.  1.
          2   -1    0    0  501    0  0.00000000000E+00 -0.00000000000E+00 -0.34314744866E+03  0.34314744866E+03  0.00000000000E+00 0. -1.
         25    2    1    2    0    0 -0.28857662231E+01 -0.18397915249E+02 -0.31524093932E+03  0.33966325227E+03  0.12508982446E+03 0.  0.
          5    1    3    3  502    0 -0.25190814614E+02  0.22995629803E+02 -0.18182492199E+02  0.38877391290E+02  0.41800000000E+01 0. -1.
         -5    1    3    3    0  502  0.22305048391E+02 -0.41393545053E+02 -0.29705844712E+03  0.30078586098E+03  0.41800000000E+01 0. -1.
        -11    1    1    2    0    0  0.22595690471E+02 -0.18728856607E+02  0.57716220417E+01  0.29910648918E+02  0.00000000000E+00 0. -1.
         11    1    1    2    0    0 -0.19709924248E+02  0.37126771857E+02  0.11819962604E+03  0.12545130489E+03  0.00000000000E+00 0.  1.
</event>
<event>
 7    1  0.2723366E-009  0.3477720E+03  0.7561462E-02  0.1063533E+00
          2   -1    0    0  501    0  0.00000000000E+00  0.00000000000E+00  0.38370469653E+03  0.38370469653E+03  0.00000000000E+00 0. -1.
         -2   -1    0    0    0  501 -0.00000000000E+00 -0.00000000000E+00 -0.31944141223E+03  0.31944141223E+03  0.00000000000E+00 0.  1.
         25    2    1    2    0    0 -0.32594398465E+03 -0.65548774252E+02  0.23264100431E+02  0.35598049914E+03  0.12507907285E+03 0.  0.
          5    1    3    3  502    0 -0.29804976542E+03 -0.95310336101E+02  0.30178809326E+02  0.31439776680E+03  0.41800000000E+01 0. -1.
         -5    1    3    3    0  502 -0.27894219230E+02  0.29761561849E+02 -0.69147088957E+01  0.41582732344E+02  0.41800000000E+01 0. -1.
        -11    1    1    2    0    0  0.14377557271E+03  0.68817373204E+02 -0.41748854286E+01  0.15945117068E+03  0.00000000000E+00 0.  1.
         11    1    1    2    0    0  0.18216841194E+03 -0.32685989516E+01  0.45174069306E+02  0.18771443894E+03  0.00000000000E+00 0. -1.
</event>
<event>
 7    1  0.2723366E-009  0.1308577E+03  0.7561462E-02  0.1226189E+00
          1   -1    0    0  501    0  0.00000000000E+00  0.00000000000E+00  0.23756923992E+03  0.23756923992E+03  0.00000000000E+00 0. -1.
         -1   -1    0    0    0  501 -0.00000000000E+00 -0.00000000000E+00 -0.78858246425E+02  0.78858246425E+02  0.00000000000E+00 0.  1.
         25    2    1    2    0    0  0.11896373602E+02  0.83188184702E+02  0.10396560003E+03  0.18308074796E+03  0.12509163243E+03 0.  0.
          5    1    3    3  502    0  0.64183737339E+02  0.26205598092E+02  0.69677725096E+02  0.98380604210E+02  0.41800000000E+01 0. -1.
         -5    1    3    3    0  502 -0.52287363737E+02  0.56982586610E+02  0.34287874937E+02  0.84700143749E+02  0.41800000000E+01 0. -1.
        -11    1    1    2    0    0 -0.44086744598E+02 -0.32518580207E+02  0.43275703982E+01  0.54952952364E+02  0.00000000000E+00 0.  1.
         11    1    1    2    0    0  0.32190370997E+02 -0.50669604495E+02  0.50417823065E+02  0.78393786024E+02  0.00000000000E+00 0. -1.
</event>
<event>
 7    1  0.2855811E-009  0.1190779E+03  0.7561462E-02  0.1244626E+00
         -1   -1    0    0    0  501 -0.00000000000E+00  0.00000000000E+00  0.34520418008E+03  0.34520418008E+03  0.00000000000E+00 0.  1.
          1   -1    0    0  501    0  0.00000000000E+00 -0.00000000000E+00 -0.58504693965E+02  0.58504693965E+02  0.00000000000E+00 0. -1.
         25    2    1    2    0    0 -0.11267358705E+02 -0.90885204834E+02  0.14821218670E+03  0.21447957554E+03  0.12509021627E+03 0.  0.
          5    1    3    3  502    0  0.30632955759E+02  0.68841636839E+01  0.84917104988E+02  0.90631985566E+02  0.41800000000E+01 0. -1.
         -5    1    3    3    0  502 -0.41900314465E+02 -0.97769368518E+02  0.63295081711E+02  0.12384758997E+03  0.41800000000E+01 0. -1.
        -11    1    1    2    0    0 -0.14492341645E+02  0.46560889907E+02  0.12790087326E+03  0.13688161972E+03  0.00000000000E+00 0.  1.
         11    1    1    2    0    0  0.25759700351E+02  0.44324314927E+02  0.10586426153E+02  0.52347678789E+02  0.00000000000E+00 0. -1.
</event>
<event>
 7    1  0.2723366E-009  0.2273887E+03  0.7561462E-02  0.1128491E+00
         -1   -1    0    0    0  501 -0.00000000000E+00  0.00000000000E+00  0.18090083010E+03  0.18090083010E+03  0.00000000000E+00 0.  1.
          1   -1    0    0  501    0  0.00000000000E+00 -0.00000000000E+00 -0.44833729234E+03  0.44833729234E+03  0.00000000000E+00 0. -1.
         25    2    1    2    0    0 -0.16556104053E+03  0.13287450333E+03 -0.30616012473E+03  0.39299878807E+03  0.12509170104E+03 0.  0.
          5    1    3    3  502    0 -0.83223433025E+02  0.26341808287E+02 -0.21009306471E+03  0.22754471848E+03  0.41800000000E+01 0.  1.
         -5    1    3    3    0  502 -0.82337607505E+02  0.10653269504E+03 -0.96067060028E+02  0.16545406959E+03  0.41800000000E+01 0.  1.
        -11    1    1    2    0    0  0.57644045394E+02 -0.10724964940E+03  0.13640828167E+02  0.12252100007E+03  0.00000000000E+00 0. -1.
         11    1    1    2    0    0  0.10791699514E+03 -0.25624853934E+02  0.25082834334E+02  0.11371833430E+03  0.00000000000E+00 0.  1.
</event>
<event>
 7    1  0.2723366E-009  0.1240411E+03  0.7561462E-02  0.1236576E+00
         -4   -1    0    0    0  501 -0.00000000000E+00  0.00000000000E+00  0.42606175097E+03  0.42606175097E+03  0.00000000000E+00 0.  1.
          4   -1    0    0  501    0  0.00000000000E+00 -0.00000000000E+00 -0.58778509514E+02  0.58778509514E+02  0.00000000000E+00 0. -1.
         25    2    1    2    0    0  0.70350589549E+02 -0.75768404528E+02  0.26491176119E+03  0.31066983489E+03  0.12508976186E+03 0.  0.
          5    1    3    3  502    0  0.91474801114E+00 -0.37726960603E+02  0.42368697645E+01  0.38204499547E+02  0.41800000000E+01 0. -1.
         -5    1    3    3    0  502  0.69435841538E+02 -0.38041443925E+02  0.26067489142E+03  0.27246533534E+03  0.41800000000E+01 0. -1.
        -11    1    1    2    0    0  0.18143963686E+02  0.12014611198E+02 -0.36484273528E+01  0.22065024872E+02  0.00000000000E+00 0.  1.
         11    1    1    2    0    0 -0.88494553235E+02  0.63753793329E+02  0.10601990762E+03  0.15210540072E+03  0.00000000000E+00 0. -1.
</event>
<event>
 7    1  0.2723366E-009  0.1315361E+03  0.7561462E-02  0.1225194E+00
          3   -1    0    0  501    0  0.00000000000E+00  0.00000000000E+00  0.12401346351E+04  0.12401346351E+04  0.00000000000E+00 0. -1.
         -3   -1    0    0    0  501 -0.00000000000E+00 -0.00000000000E+00 -0.37742925596E+02  0.37742925596E+02  0.00000000000E+00 0.  1.
         25    2    1    2    0    0  0.78104972066E+02 -0.41328675704E+02  0.11118934764E+04  0.11223921687E+04  0.12509449005E+03 0.  0.
          5    1    3    3  502    0  0.14602423758E+01  0.39790239472E+02  0.23042542144E+03  0.23387762337E+03  0.41800000000E+01 0. -1.
         -5    1    3    3    0  502  0.76644729690E+02 -0.81118915175E+02  0.88146805495E+03  0.88851454534E+03  0.41800000000E+01 0. -1.
        -11    1    1    2    0    0 -0.84164393681E+02  0.16456746848E+02  0.96594306329E+02  0.12917015792E+03  0.00000000000E+00 0. -1.
         11    1    1    2    0    0  0.60594216157E+01  0.24871928856E+02 -0.60960732200E+01  0.26315234068E+02  0.00000000000E+00 0.  1.
</event>
<event>
 7    1  0.2723366E-009  0.1229030E+03  0.7561462E-02  0.1238383E+00
          2   -1    0    0  501    0  0.00000000000E+00  0.00000000000E+00  0.22913296717E+03  0.22913296717E+03  0.00000000000E+00 0. -1.
         -2   -1    0    0    0  501 -0.00000000000E+00 -0.00000000000E+00 -0.12014465069E+03  0.12014465069E+03  0.00000000000E+00 0.  1.
         25    2    1    2    0    0 -0.46925180505E+02  0.57986766856E+02 -0.48195826105E+02  0.15341482416E+03  0.12509529536E+03 0.  0.
          5    1    3    3  502    0 -0.10609375714E+02  0.91046204081E+02 -0.49203232860E+02  0.10411724475E+03  0.41800000000E+01 0. -1.
         -5    1    3    3    0  502 -0.36315804791E+02 -0.33059437225E+02  0.10074067546E+01  0.49297579410E+02  0.41800000000E+01 0. -1.
        -11    1    1    2    0    0 -0.18582577082E+02 -0.21893250804E+01  0.25303859422E+01  0.18881423896E+02  0.00000000000E+00 0.  1.
         11    1    1    2    0    0  0.65507757587E+02 -0.55797441775E+02  0.15465375665E+03  0.17698136980E+03  0.00000000000E+00 0. -1.
</event>
<event>
 7    1  0.2723366E-009  0.1222324E+03  0.7561462E-02  0.1239459E+00
          1   -1    0    0  501    0  0.00000000000E+00  0.00000000000E+00  0.50189396495E+03  0.50189396495E+03  0.00000000000E+00 0. -1.
         -1   -1    0    0    0  501 -0.00000000000E+00 -0.00000000000E+00 -0.41339086623E+02  0.41339086623E+02  0.00000000000E+00 0.  1.
         25    2    1    2    0    0  0.77981606256E+02 -0.22675849728E+02  0.16080478258E+03  0.21932127076E+03  0.12509323177E+03 0.  0.
          5    1    3    3  502    0  0.56412881707E+02 -0.62145756573E+02  0.45673997253E+02  0.95645672707E+02  0.41800000000E+01 0.  1.
         -5    1    3    3    0  502  0.21568724549E+02  0.39469906846E+02  0.11513078533E+03  0.12367559806E+03  0.41800000000E+01 0.  1.
        -11    1    1    2    0    0 -0.53216760671E+02 -0.27056215972E+02  0.21032767777E+03  0.21863621492E+03  0.00000000000E+00 0. -1.
         11    1    1    2    0    0 -0.24764845586E+02  0.49732065700E+02  0.89422417979E+02  0.10527556589E+03  0.00000000000E+00 0.  1.
</event>
<event>
 7    1  0.2723366E-009  0.9233115E+02  0.7561462E-02  0.1297303E+00
          2   -1    0    0  501    0  0.00000000000E+00  0.00000000000E+00  0.58316759264E+02  0.58316759264E+02  0.00000000000E+00 0.  1.
         -2   -1    0    0    0  501 -0.00000000000E+00 -0.00000000000E+00 -0.26709410798E+03  0.26709410798E+03  0.00000000000E+00 0. -1.
         25    2    1    2    0    0 -0.59349913030E+02 -0.10169996577E+02 -0.13740532761E+03  0.19532894506E+03  0.12508929497E+03 0.  0.
          5    1    3    3  502    0 -0.81333138257E+02 -0.57538027521E+01 -0.32338356313E+02  0.87814732898E+02  0.41800000000E+01 0. -1.
         -5    1    3    3    0  502  0.21983225228E+02 -0.44161938246E+01 -0.10506697130E+03  0.10751421216E+03  0.41800000000E+01 0. -1.
        -11    1    1    2    0    0  0.46086227011E+02  0.30981055222E+02 -0.85270687431E+02  0.10175881405E+03  0.00000000000E+00 0. -1.
         11    1    1    2    0    0  0.13263686018E+02 -0.20811058645E+02  0.13898666323E+02  0.28323108132E+02  0.00000000000E+00 0.  1.
</event>
<event>
 7    1  0.2723366E-009  0.1587426E+03  0.7561462E-02  0.1190124E+00
          2   -1    0    0  501    0  0.00000000000E+00  0.00000000000E+00  0.96761314920E+03  0.96761314920E+03  0.00000000000E+00 0. -1.
         -2   -1    0    0    0  501 -0.00000000000E+00 -0.00000000000E+00 -0.42393847722E+02  0.42393847722E+02  0.00000000000E+00 0.  1.
         25    2    1    2    0    0 -0.11980894457E+03  0.19801710565E+02  0.18460831786E+03  0.25391747972E+03  0.12509022561E+03 0.  0.
          5    1    3    3  502    0  0.21780627170E+02 -0.13480316275E+02  0.46764658545E+02  0.53483832469E+02  0.41800000000E+01 0. -1.
         -5    1    3    3    0  502 -0.14158957174E+03  0.33282026839E+02  0.13784365931E+03  0.20043364725E+03  0.41800000000E+01 0. -1.
        -11    1    1    2    0    0  0.32746357349E+02  0.31109301391E+02  0.14106300823E+03  0.14811780731E+03  0.00000000000E+00 0. -1.
         11    1    1    2    0    0  0.87062587221E+02 -0.50911011956E+02  0.59954797540E+03  0.60797170990E+03  0.00000000000E+00 0.  1.
</event>
<event>
 7    1  0.2723366E-009  0.1031716E+03  0.7561462E-02  0.1273764E+00
          2   -1    0    0  501    0  0.00000000000E+00  0.00000000000E+00  0.47019155876E+03  0.47019155876E+03  0.00000000000E+00 0.  1.
         -2   -1    0    0    0  501 -0.00000000000E+00 -0.00000000000E+00 -0.29196492986E+02  0.29196492986E+02  0.00000000000E+00 0. -1.
         25    2    1    2    0    0  0.15278236177E+02 -0.17252780140E+02  0.33532447670E+03  0.35864234597E+03  0.12510293652E+03 0.  0.
          5    1    3    3  502    0 -0.34657307858E+02 -0.46141661153E+02  0.24221399047E+03  0.24902865591E+03  0.41800000000E+01 0.  1.
         -5    1    3    3    0  502  0.49935544036E+02  0.28888881013E+02  0.93110486227E+02  0.10961369007E+03  0.41800000000E+01 0.  1.
        -11    1    1    2    0    0  0.33020035455E+02  0.25404289584E+02  0.64371118043E+02  0.76676864234E+02  0.00000000000E+00 0. -1.
         11    1    1    2    0    0 -0.48298271632E+02 -0.81515094439E+01  0.41299471032E+02  0.64068841541E+02  0.00000000000E+00 0.  1.
</event>
<event>
 7    1  0.2723366E-009  0.2819677E+03  0.7561462E-02  0.1094619E+00
         -2   -1    0    0    0  501 -0.00000000000E+00  0.00000000000E+00  0.25954201951E+03  0.25954201951E+03  0.00000000000E+00 0.  1.
          2   -1    0    0  501    0  0.00000000000E+00 -0.00000000000E+00 -0.33218882036E+03  0.33218882036E+03  0.00000000000E+00 0. -1.
         25    2    1    2    0    0  0.22327562285E+03 -0.14520221008E+03  0.21629536707E+02  0.29504188813E+03  0.12508474457E+03 0.  0.
          5    1    3    3  502    0  0.20156474770E+03 -0.16559021463E+03  0.55839133757E+01  0.26095424730E+03  0.41800000000E+01 0. -1.
         -5    1    3    3    0  502  0.21710875149E+02  0.20388004552E+02  0.16045623331E+02  0.34087640831E+02  0.41800000000E+01 0. -1.
        -11    1    1    2    0    0 -0.58313954983E+02  0.71564438997E+02 -0.66827019267E+02  0.11396419077E+03  0.00000000000E+00 0.  1.
         11    1    1    2    0    0 -0.16496166786E+03  0.73637771085E+02 -0.27449318288E+02  0.18272476096E+03  0.00000000000E+00 0. -1.
</event>
<event>
 7    1  0.2723366E-009  0.7191372E+02  0.7561462E-02  0.1353704E+00
         -2   -1    0    0    0  501 -0.00000000000E+00  0.00000000000E+00  0.85586043931E+02  0.85586043931E+02  0.00000000000E+00 0.  1.
          2   -1    0    0  501    0  0.00000000000E+00 -0.00000000000E+00 -0.18397994297E+03  0.18397994297E+03  0.00000000000E+00 0. -1.
         25    2    1    2    0    0  0.72583174852E+01 -0.59879458685E+02 -0.77666900088E+02  0.15911326450E+03  0.12508657332E+03 0.  0.
          5    1    3    3  502    0  0.35314235178E+01 -0.44859524596E+02  0.27387362072E+02  0.52843049688E+02  0.41800000000E+01 0. -1.
         -5    1    3    3    0  502  0.37268939673E+01 -0.15019934089E+02 -0.10505426216E+03  0.10627021481E+03  0.41800000000E+01 0. -1.
        -11    1    1    2    0    0  0.18829073498E+02  0.52076652558E+02 -0.46986661268E+02  0.72624087516E+02  0.00000000000E+00 0. -1.
         11    1    1    2    0    0 -0.26087390983E+02  0.78028061271E+01  0.26259662319E+02  0.37828634880E+02  0.00000000000E+00 0.  1.
</event>
<event>
 7    1  0.2723366E-009  0.2249422E+03  0.7561462E-02  0.1130251E+00
         -2   -1    0    0    0  501 -0.00000000000E+00  0.00000000000E+00  0.62826486341E+02  0.62826486341E+02  0.00000000000E+00 0.  1.
          2   -1    0    0  501    0  0.00000000000E+00 -0.00000000000E+00 -0.12528333110E+04  0.12528333110E+04  0.00000000000E+00 0. -1.
         25    2    1    2    0    0 -0.20071414515E+03 -0.25039516714E+02 -0.98702437175E+03  0.10152725152E+04  0.12509206316E+03 0.  0.
          5    1    3    3  502    0 -0.94322110745E+02  0.50352748283E+02 -0.41712085631E+03  0.43062668403E+03  0.41800000000E+01 0.  1.
         -5    1    3    3    0  502 -0.10639203441E+03 -0.75392264997E+02 -0.56990351544E+03  0.58464583118E+03  0.41800000000E+01 0.  1.
        -11    1    1    2    0    0  0.59503791800E+02  0.38019156130E+02 -0.30030952900E+02  0.76733406046E+02  0.00000000000E+00 0. -1.
         11    1    1    2    0    0  0.14121035335E+03 -0.12979639417E+02 -0.17295150005E+03  0.22365387612E+03  0.00000000000E+00 0.  1.
</event>
<event>
 7    1  0.2723366E-009  0.1137109E+03  0.7561462E-02  0.1253848E+00
          1   -1    0    0  501    0  0.00000000000E+00  0.00000000000E+00  0.10208943902E+03  0.10208943902E+03  0.00000000000E+00 0.  1.
         -1   -1    0    0    0  501 -0.00000000000E+00 -0.00000000000E+00 -0.14584217310E+03  0.14584217310E+03  0.00000000000E+00 0. -1.
         25    2    1    2    0    0 -0.23495062497E+02  0.51101825613E+02 -0.22281985531E+02  0.13895503041E+03  0.12509436060E+03 0.  0.
          5    1    3    3  502    0 -0.46657942066E+02  0.82332572760E+02 -0.29445541075E+02  0.99197421258E+02  0.41800000000E+01 0.  1.
         -5    1    3    3    0  502  0.23162879569E+02 -0.31230747147E+02  0.71635555440E+01  0.39757609150E+02  0.41800000000E+01 0.  1.
        -11    1    1    2    0    0 -0.81916175322E+01  0.16781468855E+02  0.16562246752E+02  0.24960535094E+02  0.00000000000E+00 0.  1.
         11    1    1    2    0    0  0.31686680029E+02 -0.67883294467E+02 -0.38032995296E+02  0.84016046623E+02  0.00000000000E+00 0. -1.
</event>
<event>
 7    1  0.2723366E-009  0.1320991E+03  0.7561462E-02  0.1224374E+00
         -1   -1    0    0    0  501 -0.00000000000E+00  0.00000000000E+00  0.11983647865E+03  0.11983647865E+03  0.00000000000E+00 0.  1.
          1   -1    0    0  501    0  0.00000000000E+00 -0.00000000000E+00 -0.28570659902E+03  0.28570659902E+03  0.00000000000E+00 0. -1.
         25    2    1    2    0    0 -0.71417630832E+02  0.39948662761E+02 -0.21723751574E+03  0.26369948758E+03  0.12509559487E+03 0.  0.
          5    1    3    3  502    0  0.54831805011E+01  0.66046877627E+02 -0.11799252328E+03  0.13539558066E+03  0.41800000000E+01 0. -1.
         -5    1    3    3    0  502 -0.76900811333E+02 -0.26098214866E+02 -0.99244992456E+02  0.12830390692E+03  0.41800000000E+01 0. -1.
        -11    1    1    2    0    0  0.47708909789E+02 -0.65879667491E+02  0.65034863269E+02  0.10414319038E+03  0.00000000000E+00 0.  1.
         11    1    1    2    0    0  0.23708721042E+02  0.25931004731E+02 -0.13667467901E+02  0.37700399714E+02  0.00000000000E+00 0. -1.
</event>
<event>
 7    1  0.2723366E-009  0.1116791E+03  0.7561462E-02  0.1257492E+00
          1   -1    0    0  501    0  0.00000000000E+00  0.00000000000E+00  0.99775027209E+03  0.99775027209E+03  0.00000000000E+00 0. -1.
         -1   -1    0    0    0  501 -0.00000000000E+00 -0.00000000000E+00 -0.17688760796E+02  0.17688760796E+02  0.00000000000E+00 0.  1.
         25    2    1    2    0    0 -0.13604518761E+02  0.67412558980E+02  0.55204641441E+03  0.57020422415E+03  0.12509227609E+03 0.  0.
          5    1    3    3  502    0 -0.57734151371E+02  0.49123161506E+02  0.46189904638E+03  0.46809669800E+03  0.41800000000E+01 0.  1.
         -5    1    3    3    0  502  0.44129632610E+02  0.18289397474E+02  0.90147368031E+02  0.10210752615E+03  0.41800000000E+01 0.  1.
        -11    1    1    2    0    0  0.15491574762E+02  0.12281980979E+02  0.15592376336E+02  0.25178525477E+02  0.00000000000E+00 0.  1.
         11    1    1    2    0    0 -0.18870560015E+01 -0.79694539959E+02  0.41242272054E+03  0.42005628325E+03  0.00000000000E+00 0. -1.
</event>
<event>
 7    1  0.2723366E-009  0.9585350E+02  0.7561462E-02  0.1289265E+00
         -2   -1    0    0    0  501 -0.00000000000E+00  0.00000000000E+00  0.19627445282E+03  0.19627445282E+03  0.00000000000E+00 0.  1.
          2   -1    0    0  501    0  0.00000000000E+00 -0.00000000000E+00 -0.71941273950E+02  0.71941273950E+02  0.00000000000E+00 0. -1.
         25    2    1    2    0    0 -0.43495797668E+02  0.16863354053E+02  0.43644615792E+02  0.14046495508E+03  0.12509713823E+03 0.  0.
          5    1    3    3  502    0  0.18805302230E+02  0.25574532347E+02  0.66175219587E+02  0.73514135947E+02  0.41800000000E+01 0. -1.
         -5    1    3    3    0  502 -0.62301099898E+02 -0.87111782935E+01 -0.22530603795E+02  0.66950819137E+02  0.41800000000E+01 0. -1.
        -11    1    1    2    0    0  0.47862604356E+02 -0.46473206548E+02  0.41985569108E+02  0.78824969622E+02  0.00000000000E+00 0.  1.
         11    1    1    2    0    0 -0.43668066879E+01  0.29609852495E+02  0.38702993973E+02  0.48925802067E+02  0.00000000000E+00 0. -1.
</event>
<event>
 7    1  0.2723366E-009  0.1052258E+03  0.7561462E-02  0.1269675E+00
          2   -1    0    0  501    0  0.00000000000E+00  0.00000000000E+00  0.49775217473E+03  0.49775217473E+03  0.00000000000E+00 0. -1.
         -2   -1    0    0    0  501 -0.00000000000E+00 -0.00000000000E+00 -0.31519786080E+02  0.31519786080E+02  0.00000000000E+00 0.  1.
         25    2    1    2    0    0 -0.51942771947E+01 -0.25747382776E+02  0.14467735664E+03  0.19305150257E+03  0.12508971534E+03 0.  0.
          5    1    3    3  502    0 -0.36300038565E+02  0.40431363929E+02  0.58414514618E+02  0.79888146224E+02  0.41800000000E+01 0. -1.
         -5    1    3    3    0  502  0.31105761370E+02 -0.66178746705E+02  0.86262842019E+02  0.11316335634E+03  0.41800000000E+01 0. -1.
        -11    1    1    2    0    0 -0.17692189167E+02  0.47775413721E+02  0.27613148816E+03  0.28079192023E+03  0.00000000000E+00 0. -1.
         11    1    1    2    0    0  0.22886466362E+02 -0.22028030946E+02  0.45423543853E+02  0.55428538011E+02  0.00000000000E+00 0.  1.
</event>
<event>
 7    1  0.2723366E-009  0.1076212E+03  0.7561462E-02  0.1265040E+00
         -1   -1    0    0    0  501 -0.00000000000E+00  0.00000000000E+00  0.38540572832E+02  0.38540572832E+02  0.00000000000E+00 0.  1.
          1   -1    0    0  501    0  0.00000000000E+00 -0.00000000000E+00 -0.50664735605E+03  0.50664735605E+03  0.00000000000E+00 0. -1.
         25    2    1    2    0    0 -0.22513977196E+02  0.15874542549E+02 -0.42409178587E+03  0.44301154112E+03  0.12508598024E+03 0.  0.
          5    1    3    3  502    0 -0.33717997592E+02  0.65977032222E+02 -0.29061029936E+03  0.29993614426E+03  0.41800000000E+01 0.  1.
         -5    1    3    3    0  502  0.11204020396E+02 -0.50102489673E+02 -0.13348148652E+03  0.14307539686E+03  0.41800000000E+01 0.  1.
        -11    1    1    2    0    0  0.33957964980E+02  0.28103226980E+02 -0.33937720744E+02  0.55630060593E+02  0.00000000000E+00 0. -1.
         11    1    1    2    0    0 -0.11443987784E+02 -0.43977769529E+02 -0.10077276605E+02  0.46546327169E+02  0.00000000000E+00 0.  1.
</event>
<event>
 7    1  0.2723366E-009  0.2499559E+03  0.7561462E-02  0.1113333E+00
          2   -1    0    0  501    0  0.00000000000E+00  0.00000000000E+00  0.18357930114E+04  0.18357930114E+04  0.00000000000E+00 0. -1.
         -2   -1    0    0    0  501 -0.00000000000E+00 -0.00000000000E+00 -0.39351593788E+02  0.39351593788E+02  0.00000000000E+00 0.  1.
         25    2    1    2    0    0  0.20845097186E+03  0.96391580150E+02  0.12233116757E+04  0.12509523784E+04  0.12508897904E+03 0.  0.
          5    1    3    3  502    0  0.66691066016E+01  0.46678379501E+02  0.35319657400E+03  0.35635465534E+03  0.41800000000E+01 0.  1.
         -5    1    3    3    0  502  0.20178186526E+03  0.49713200649E+02  0.87011510171E+03  0.89459772305E+03  0.41800000000E+01 0.  1.
        -11    1    1    2    0    0 -0.17025692014E+03 -0.37201859667E+02  0.36513057001E+03  0.40458834681E+03  0.00000000000E+00 0.  1.
         11    1    1    2    0    0 -0.38194051722E+02 -0.59189720483E+02  0.20799917188E+03  0.21960387998E+03  0.00000000000E+00 0. -1.
</event>
<event>
 7    1  0.2723366E-009  0.9443899E+02  0.7561462E-02  0.1292445E+00
          1   -1    0    0  501    0  0.00000000000E+00  0.00000000000E+00  0.87228962577E+02  0.87228962577E+02  0.00000000000E+00 0. -1.
         -1   -1    0    0    0  501 -0.00000000000E+00 -0.00000000000E+00 -0.15770020208E+03  0.15770020208E+03  0.00000000000E+00 0.  1.
         25    2    1    2    0    0  0.25961873839E+02  0.35372987411E+02 -0.31257807618E+02  0.13619513829E+03  0.12508716171E+03 0.  0.
          5    1    3    3  502    0 -0.18569235655E+01 -0.46071770063E+02 -0.13393417677E+02  0.48196599454E+02  0.41800000000E+01 0.  1.
         -5    1    3    3    0  502  0.27818797404E+02  0.81444757474E+02 -0.17864389941E+02  0.87998538835E+02  0.41800000000E+01 0.  1.
        -11    1    1    2    0    0 -0.24802668944E+02 -0.41241107691E+01 -0.64044934477E+02  0.68803592265E+02  0.00000000000E+00 0.  1.
         11    1    1    2    0    0 -0.11592048950E+01 -0.31248876642E+02  0.24831502587E+02  0.39930434109E+02  0.00000000000E+00 0. -1.
</event>
<event>
 7    1  0.2723366E-009  0.1037160E+03  0.7561462E-02  0.1272670E+00
         -3   -1    0    0    0  501 -0.00000000000E+00  0.00000000000E+00  0.99443764530E+02  0.99443764530E+02  0.00000000000E+00 0.  1.
          3   -1    0    0  501    0  0.00000000000E+00 -0.00000000000E+00 -0.14820661085E+03  0.14820661085E+03  0.00000000000E+00 0. -1.
         25    2    1    2    0    0  0.36080185892E+02  0.98755197596E+01 -0.50183269412E+02  0.13986530816E+03  0.12507852811E+03 0.  0.
          5    1    3    3  502    0  0.54643819742E+02  0.47388542246E+02 -0.62875214805E+02  0.95929067591E+02  0.41800000000E+01 0. -1.
         -5    1    3    3    0  502 -0.18563633849E+02 -0.37513022486E+02  0.12691945392E+02  0.43936240572E+02  0.41800000000E+01 0. -1.
        -11    1    1    2    0    0 -0.45648117931E+02  0.28201851482E+02 -0.26268603725E+02  0.59742234971E+02  0.00000000000E+00 0. -1.
         11    1    1    2    0    0  0.95679320391E+01 -0.38077371241E+02  0.27689026817E+02  0.48042832246E+02  0.00000000000E+00 0.  1.
</event>
<event>
 7    1  0.2723366E-009  0.1116410E+03  0.7561462E-02  0.1257561E+00
          2   -1    0    0  501    0  0.00000000000E+00  0.00000000000E+00  0.37190776789E+02  0.37190776789E+02  0.00000000000E+00 0. -1.
         -2   -1    0    0    0  501 -0.00000000000E+00 -0.00000000000E+00 -0.37965906164E+03  0.37965906164E+03  0.00000000000E+00 0.  1.
         25    2    1    2    0    0  0.84503910772E+01  0.49267373994E+02 -0.19741937269E+03  0.23899936769E+03  0.12509039050E+03 0.  0.
          5    1    3    3  502    0 -0.17830444563E+02 -0.32570650377E+02 -0.11066441748E+03  0.11680264430E+03  0.41800000000E+01 0.  1.
         -5    1    3    3    0  502  0.26280835640E+02  0.81838024371E+02 -0.86754955208E+02  0.12219672339E+03  0.41800000000E+01 0.  1.
        -11    1    1    2    0    0 -0.41174304032E+02 -0.52788141770E+02 -0.11609437908E+03  0.13401423834E+03  0.00000000000E+00 0.  1.
         11    1    1    2    0    0  0.32723912955E+02  0.35207677761E+01 -0.28954533092E+02  0.43836232404E+02  0.00000000000E+00 0. -1.
</event>
<event>
 7    1  0.2723366E-009  0.1049715E+03  0.7561462E-02  0.1270176E+00
         -3   -1    0    0    0  501 -0.00000000000E+00  0.00000000000E+00  0.15394627358E+03  0.15394627358E+03  0.00000000000E+00 0.  1.
          3   -1    0    0  501    0  0.00000000000E+00 -0.00000000000E+00 -0.15478027458E+03  0.15478027458E+03  0.00000000000E+00 0. -1.
         25    2    1    2    0    0  0.41248024482E+02  0.48208803033E+02 -0.88488777246E+02  0.16584349636E+03  0.12509321873E+03 0.  0.
          5    1    3    3  502    0 -0.33455319584E+02  0.49622719633E+02 -0.62479399255E+02  0.86618822686E+02  0.41800000000E+01 0. -1.
         -5    1    3    3    0  502  0.74703344066E+02 -0.14139166001E+01 -0.26009377991E+02  0.79224673671E+02  0.41800000000E+01 0. -1.
        -11    1    1    2    0    0  0.12703673546E+01 -0.28019652524E+02 -0.13638254844E+02  0.31188407397E+02  0.00000000000E+00 0. -1.
         11    1    1    2    0    0 -0.42518391837E+02 -0.20189150510E+02  0.10129303108E+03  0.11169464441E+03  0.00000000000E+00 0.  1.
</event>
<event>
 7    1  0.2723366E-009  0.1754895E+03  0.7561462E-02  0.1172241E+00
         -1   -1    0    0    0  501 -0.00000000000E+00  0.00000000000E+00  0.14722363757E+03  0.14722363757E+03  0.00000000000E+00 0.  1.
          1   -1    0    0  501    0  0.00000000000E+00 -0.00000000000E+00 -0.31601821612E+03  0.31601821612E+03  0.00000000000E+00 0. -1.
         25    2    1    2    0    0  0.13816910207E+03 -0.65869779923E+02 -0.15129777987E+03  0.24893441810E+03  0.12509115735E+03 0.  0.
          5    1    3    3  502    0  0.15960232039E+03 -0.66517455441E+02 -0.11900336729E+03  0.20994462693E+03  0.41800000000E+01 0.  1.
         -5    1    3    3    0  502 -0.21433218320E+02  0.64767551831E+00 -0.32294412586E+02  0.38989791169E+02  0.41800000000E+01 0.  1.
        -11    1    1    2    0    0 -0.11575740495E+03  0.66970628297E+02 -0.74472896613E+02  0.15307205553E+03  0.00000000000E+00 0. -1.
         11    1    1    2    0    0 -0.22411697123E+02 -0.11008483743E+01  0.56976097941E+02  0.61235380064E+02  0.00000000000E+00 0.  1.
</event>
<event>
 7    1  0.2723366E-009  0.1016202E+03  0.7561462E-02  0.1276925E+00
         -4   -1    0    0    0  501 -0.00000000000E+00  0.00000000000E+00  0.46346980644E+02  0.46346980644E+02  0.00000000000E+00 0. -1.
          4   -1    0    0  501    0  0.00000000000E+00 -0.00000000000E+00 -0.26991656182E+03  0.26991656182E+03  0.00000000000E+00 0.  1.
         25    2    1    2    0    0  0.14810387317E+01 -0.21832182996E+02 -0.15462036732E+03  0.20008584081E+03  0.12509215807E+03 0.  0.
          5    1    3    3  502    0 -0.30763741320E+02  0.35224481792E+02 -0.21486783009E+02  0.51636480724E+02  0.41800000000E+01 0. -1.
         -5    1    3    3    0  502  0.32244780052E+02 -0.57056664788E+02 -0.13313358431E+03  0.14844936008E+03  0.41800000000E+01 0. -1.
        -11    1    1    2    0    0  0.40387029983E+02 -0.52878696375E+01 -0.45464773136E+02  0.61041947483E+02  0.00000000000E+00 0.  1.
         11    1    1    2    0    0 -0.41868068715E+02  0.27120052634E+02 -0.23484440724E+02  0.55135754179E+02  0.00000000000E+00 0. -1.
</event>
<event>
 7    1  0.2723366E-009  0.8183483E+02  0.7561462E-02  0.1323924E+00
         -1   -1    0    0    0  501 -0.00000000000E+00  0.00000000000E+00  0.86272963078E+02  0.86272963078E+02  0.00000000000E+00 0.  1.
          1   -1    0    0  501    0  0.00000000000E+00 -0.00000000000E+00 -0.17707923972E+03  0.17707923972E+03  0.00000000000E+00 0. -1.
         25    2    1    2    0    0 -0.81841477127E+01 -0.20057776504E+02 -0.11271463720E+03  0.16977056610E+03  0.12509260970E+03 0.  0.
          5    1    3    3  502    0 -0.34373796988E+01  0.46942377314E+02 -0.84463878268E+02  0.96783374084E+02  0.41800000000E+01 0. -1.
         -5    1    3    3    0  502 -0.47467680139E+01 -0.67000153818E+02 -0.28250758937E+02  0.72987192019E+02  0.41800000000E+01 0. -1.
        -11    1    1    2    0    0  0.25880593658E+02  0.17490654170E+02  0.50781603038E+02  0.59619621925E+02  0.00000000000E+00 0.  1.
         11    1    1    2    0    0 -0.17696445946E+02  0.25671223345E+01 -0.28873242472E+02  0.33962014767E+02  0.00000000000E+00 0. -1.
</event>
<event>
 7    1  0.2723366E-009  0.6744862E+02  0.7561462E-02  0.1368991E+00
         -4   -1    0    0    0  501 -0.00000000000E+00  0.00000000000E+00  0.36498857894E+02  0.36498857894E+02  0.00000000000E+00 0. -1.
          4   -1    0    0  501    0  0.00000000000E+00 -0.00000000000E+00 -0.41209738881E+03  0.41209738881E+03  0.00000000000E+00 0.  1.
         25    2    1    2    0    0  0.21578603017E+01  0.37357839737E+02 -0.29314503171E+03  0.32090799319E+03  0.12509063085E+03 0.  0.
          5    1    3    3  502    0 -0.20779391989E+02  0.19278211082E+02 -0.24900562184E+01  0.28759439040E+02  0.41800000000E+01 0.  1.
         -5    1    3    3    0  502  0.22937252290E+02  0.18079628655E+02 -0.29065497549E+03  0.29214855415E+03  0.41800000000E+01 0.  1.
        -11    1    1    2    0    0 -0.25641949870E+02 -0.45213907657E+02 -0.88098639278E+02  0.10228967339E+03  0.00000000000E+00 0. -1.
         11    1    1    2    0    0  0.23484089568E+02  0.78560679201E+01  0.56451400724E+01  0.25398580127E+02  0.00000000000E+00 0.  1.
</event>
<event>
 7    1  0.2723366E-009  0.1132485E+03  0.7561462E-02  0.1254670E+00
          2   -1    0    0  501    0  0.00000000000E+00  0.00000000000E+00  0.51387148884E+03  0.51387148884E+03  0.00000000000E+00 0.  1.
         -2   -1    0    0    0  501 -0.00000000000E+00 -0.00000000000E+00 -0.38112705255E+02  0.38112705255E+02  0.00000000000E+00 0. -1.
         25    2    1    2    0    0  0.80020172489E+02 -0.12567139770E+02  0.32913408561E+03  0.36130005735E+03  0.12508926463E+03 0.  0.
          5    1    3    3  502    0 -0.29772095757E+02  0.12529983878E+02  0.44341694818E+02  0.55018510350E+02  0.41800000000E+01 0. -1.
         -5    1    3    3    0  502  0.10979226825E+03 -0.25097123648E+02  0.28479239079E+03  0.30628154700E+03  0.41800000000E+01 0. -1.
        -11    1    1    2    0    0 -0.51761579592E+02  0.52041610465E+01  0.12615782571E+02  0.53530387481E+02  0.00000000000E+00 0. -1.
         11    1    1    2    0    0 -0.28258592897E+02  0.73629787239E+01  0.13400891541E+03  0.13715374926E+03  0.00000000000E+00 0.  1.
</event>
<event>
 7    1  0.2723366E-009  0.9637079E+02  0.7561462E-02  0.1288118E+00
         -2   -1    0    0    0  501 -0.00000000000E+00  0.00000000000E+00  0.99570087085E+02  0.99570087085E+02  0.00000000000E+00 0.  1.
          2   -1    0    0  501    0  0.00000000000E+00 -0.00000000000E+00 -0.16282971018E+03  0.16282971018E+03  0.00000000000E+00 0. -1.
         25    2    1    2    0    0 -0.28436690574E+02  0.53457181998E+02 -0.42526817089E+01  0.13903923727E+03  0.12509000168E+03 0.  0.
          5    1    3    3  502    0 -0.36970646094E+02 -0.23651250853E+02  0.30826109813E+02  0.53795276612E+02  0.41800000000E+01 0.  1.
         -5    1    3    3    0  502  0.85339555204E+01  0.77108432851E+02 -0.35078791522E+02  0.85243960655E+02  0.41800000000E+01 0.  1.
        -11    1    1    2    0    0  0.16580386885E+02 -0.38779977529E+00  0.20915769121E+02  0.26693239141E+02  0.00000000000E+00 0.  1.
         11    1    1    2    0    0  0.11856303689E+02 -0.53069382222E+02 -0.79922710505E+02  0.96667320854E+02  0.00000000000E+00 0. -1.
</event>
<event>
 7    1  0.2723366E-009  0.1211269E+03  0.7561462E-02  0.1241249E+00
          1   -1    0    0  501    0  0.00000000000E+00  0.00000000000E+00  0.64563721703E+03  0.64563721703E+03  0.00000000000E+00 0. -1.
         -1   -1    0    0    0  501 -0.00000000000E+00 -0.00000000000E+00 -0.37574357116E+02  0.37574357116E+02  0.00000000000E+00 0.  1.
         25    2    1    2    0    0  0.16935081333E+02  0.89472848202E+02  0.17988062697E+03  0.23727166110E+03  0.12509441897E+03 0.  0.
          5    1    3    3  502    0  0.51960919974E+02  0.49340914730E+02  0.29361031068E+02  0.77550020092E+02  0.41800000000E+01 0. -1.
         -5    1    3    3    0  502 -0.35025838642E+02  0.40131933471E+02  0.15051959590E+03  0.15972164101E+03  0.41800000000E+01 0. -1.
        -11    1    1    2    0    0 -0.42582203671E+02 -0.29451604950E+02  0.26825727364E+03  0.27320799030E+03  0.00000000000E+00 0. -1.
         11    1    1    2    0    0  0.25647122338E+02 -0.60021243252E+02  0.15992495931E+03  0.17273192275E+03  0.00000000000E+00 0.  1.
</event>
<event>
 7    1  0.2723366E-009  0.6212975E+02  0.7561462E-02  0.1389105E+00
         -2   -1    0    0    0  501 -0.00000000000E+00  0.00000000000E+00  0.42305308841E+03  0.42305308841E+03  0.00000000000E+00 0.  1.
          2   -1    0    0  501    0  0.00000000000E+00 -0.00000000000E+00 -0.30677510099E+02  0.30677510099E+02  0.00000000000E+00 0. -1.
         25    2    1    2    0    0  0.12581387258E+02  0.20913612046E+01  0.16098922403E+03  0.20426817623E+03  0.12508114354E+03 0.  0.
          5    1    3    3  502    0  0.17800168457E+02 -0.94012571728E+01 -0.16450497518E+02  0.26330987488E+02  0.41800000000E+01 0. -1.
         -5    1    3    3    0  502 -0.52187811984E+01  0.11492618377E+02  0.17743972155E+03  0.17793718874E+03  0.41800000000E+01 0. -1.
        -11    1    1    2    0    0 -0.49255764067E+02 -0.15055430360E+02  0.16106394126E+03  0.16909875650E+03  0.00000000000E+00 0. -1.
         11    1    1    2    0    0  0.36674376809E+02  0.12964069155E+02  0.70322413021E+02  0.80363665773E+02  0.00000000000E+00 0.  1.
</event>
<event>
 7    1  0.3600371E-009  0.1343947E+03  0.7561462E-02  0.1221077E+00
         -2   -1    0    0    0  501 -0.00000000000E+00  0.00000000000E+00  0.18296292037E+02  0.18296292037E+02  0.00000000000E+00 0. -1.
          2   -1    0    0  501    0  0.00000000000E+00 -0.00000000000E+00 -0.15745694369E+04  0.15745694369E+04  0.00000000000E+00 0.  1.
         25    2    1    2    0    0 -0.92186062466E+02  0.41468070720E+02 -0.12139490411E+04  0.12245558032E+04  0.12508704879E+03 0.  0.
          5    1    3    3  502    0 -0.25805787723E+02  0.79688884689E+02 -0.66776693709E+03  0.67301293575E+03  0.41800000000E+01 0. -1.
         -5    1    3    3    0  502 -0.66380274743E+02 -0.38220813969E+02 -0.54618210399E+03  0.55154286743E+03  0.41800000000E+01 0. -1.
        -11    1    1    2    0    0  0.30028880922E+02 -0.34384310965E+02 -0.26473234587E+03  0.26863959031E+03  0.00000000000E+00 0.  1.
         11    1    1    2    0    0  0.62157181544E+02 -0.70837597550E+01 -0.77591757875E+02  0.99670335406E+02  0.00000000000E+00 0. -1.
</event>
<event>
 7    1  0.2723366E-009  0.5977475E+02  0.7561462E-02  0.1398779E+00
          1   -1    0    0  501    0  0.00000000000E+00  0.00000000000E+00  0.82533246121E+03  0.82533246121E+03  0.00000000000E+00 0. -1.
         -1   -1    0    0    0  501 -0.00000000000E+00 -0.00000000000E+00 -0.14922754920E+02  0.14922754920E+02  0.00000000000E+00 0.  1.
         25    2    1    2    0    0  0.33318198660E+02  0.29927732268E+02  0.48081460725E+03  0.49883516845E+03  0.12509223482E+03 0.  0.
          5    1    3    3  502    0  0.14075110182E+02 -0.15823605096E+00 -0.18797587790E+01  0.14803366454E+02  0.41800000000E+01 0. -1.
         -5    1    3    3    0  502  0.19243088477E+02  0.30085968319E+02  0.48269436603E+03  0.48403180200E+03  0.41800000000E+01 0. -1.
        -11    1    1    2    0    0  0.13267664551E+02  0.48109900881E+00  0.90130211975E+01  0.16046710878E+02  0.00000000000E+00 0.  1.
         11    1    1    2    0    0 -0.46585863210E+02 -0.30408831277E+02  0.32058207784E+03  0.32537333681E+03  0.00000000000E+00 0. -1.
</event>
<event>
 7    1  0.2723366E-009  0.7546756E+02  0.7561462E-02  0.1342429E+00
         -1   -1    0    0    0  501 -0.00000000000E+00  0.00000000000E+00  0.57007829400E+02  0.57007829400E+02  0.00000000000E+00 0.  1.
          1   -1    0    0  501    0  0.00000000000E+00 -0.00000000000E+00 -0.23305086840E+03  0.23305086840E+03  0.00000000000E+00 0. -1.
         25    2    1    2    0    0  0.36418074277E+02 -0.14426776926E+02 -0.88262278604E+02  0.15802631274E+03  0.12509067778E+03 0.  0.
          5    1    3    3  502    0  0.16720551652E+02  0.30346268173E+02  0.19235481822E+02  0.39849077788E+02  0.41800000000E+01 0.  1.
         -5    1    3    3    0  502  0.19697522625E+02 -0.44773045100E+02 -0.10749776043E+03  0.11817723496E+03  0.41800000000E+01 0.  1.
        -11    1    1    2    0    0 -0.33708280187E+02  0.33591392098E+02 -0.59675560340E+01  0.47960832992E+02  0.00000000000E+00 0.  1.
         11    1    1    2    0    0 -0.27097940903E+01 -0.19164615172E+02 -0.81813204360E+02  0.84071552063E+02  0.00000000000E+00 0. -1.
</event>
<event>
 7    1  0.2723366E-009  0.1133214E+03  0.7561462E-02  0.1254540E+00
         -1   -1    0    0    0  501 -0.00000000000E+00  0.00000000000E+00  0.29508737557E+02  0.29508737557E+02  0.00000000000E+00 0.  1.
          1   -1    0    0  501    0  0.00000000000E+00 -0.00000000000E+00 -0.80698091198E+03  0.80698091198E+03  0.00000000000E+00 0. -1.
         25    2    1    2    0    0  0.42418055338E+02 -0.46564883096E+02 -0.66179045181E+03  0.67644607892E+03  0.12508043740E+03 0.  0.
          5    1    3    3  502    0 -0.31939227987E+02 -0.50827009130E+02 -0.20664442919E+03  0.21522753462E+03  0.41800000000E+01 0.  1.
         -5    1    3    3    0  502  0.74357283325E+02  0.42621260345E+01 -0.45514602261E+03  0.46121854430E+03  0.41800000000E+01 0.  1.
        -11    1    1    2    0    0 -0.36103038347E+02  0.63915768681E+02 -0.43045891223E+02  0.85097612276E+02  0.00000000000E+00 0.  1.
         11    1    1    2    0    0 -0.63150169917E+01 -0.17350885585E+02 -0.72635831391E+02  0.74945958343E+02  0.00000000000E+00 0. -1.
</event>
<event>
 7    1  0.2723366E-009  0.4350317E+03  0.7561462E-02  0.1032282E+00
         -1   -1    0    0    0  501 -0.00000000000E+00  0.00000000000E+00  0.14520303387E+03  0.14520303387E+03  0.00000000000E+00 0.  1.
          1   -1    0    0  501    0  0.00000000000E+00 -0.00000000000E+00 -0.14798891221E+04  0.14798891221E+04  0.00000000000E+00 0. -1.
         25    2    1    2    0    0 -0.53869783725E+00 -0.42951575839E+03 -0.90969571935E+03  0.10137429721E+04  0.12507771510E+03 0.  0.
          5    1    3    3  502    0  0.55180608896E+01 -0.19554788601E+02 -0.63456470529E+01  0.21692818852E+02  0.41800000000E+01 0.  1.
         -5    1    3    3    0  502 -0.60567587269E+01 -0.40996096979E+03 -0.90335007230E+03  0.99205015327E+03  0.41800000000E+01 0.  1.
        -11    1    1    2    0    0  0.41547331857E+02  0.11824298750E+03 -0.11354608347E+03  0.16911622615E+03  0.00000000000E+00 0.  1.
         11    1    1    2    0    0 -0.41008634020E+02  0.31127277089E+03 -0.31144428538E+03  0.44223295768E+03  0.00000000000E+00 0. -1.
</event>
<event>
 7    1  0.2723366E-009  0.1095084E+03  0.7561462E-02  0.1261483E+00
         -3   -1    0    0    0  501 -0.00000000000E+00  0.00000000000E+00  0.24350490401E+03  0.24350490401E+03  0.00000000000E+00 0.  1.
          3   -1    0    0  501    0  0.00000000000E+00 -0.00000000000E+00 -0.83085117043E+02  0.83085117043E+02  0.00000000000E+00 0. -1.
         25    2    1    2    0    0  0.51446094940E+02 -0.52266698604E+02  0.15211662618E+03  0.21015602913E+03  0.12509028799E+03 0.  0.
          5    1    3    3  502    0  0.80040575604E+02 -0.65552293991E+02  0.78415673903E+02  0.12988490022E+03  0.41800000000E+01 0.  1.
         -5    1    3    3    0  502 -0.28594480663E+02  0.13285595387E+02  0.73700952281E+02  0.80271128909E+02  0.41800000000E+01 0.  1.
        -11    1    1    2    0    0 -0.33912383577E+02  0.63289486490E+01  0.43825775528E+02  0.55774581590E+02  0.00000000000E+00 0.  1.
         11    1    1    2    0    0 -0.17533711363E+02  0.45937749955E+02 -0.35522614741E+02  0.60659410343E+02  0.00000000000E+00 0. -1.
</event>
<event>
 7    1  0.2723366E-009  0.1065539E+03  0.7561462E-02  0.1267088E+00
         -1   -1    0    0    0  501 -0.00000000000E+00  0.00000000000E+00  0.29685477754E+02  0.29685477754E+02  0.00000000000E+00 0.  1.
          1   -1    0    0  501    0  0.00000000000E+00 -0.00000000000E+00 -0.58284709489E+03  0.58284709489E+03  0.00000000000E+00 0. -1.
         25    2    1    2    0    0 -0.40006969750E+02  0.35586942810E+02 -0.44211562218E+03  0.46258130541E+03  0.12509297583E+03 0.  0.
          5    1    3    3  502    0  0.35137239725E+02  0.20154458901E+02 -0.58062493248E+02  0.70919343985E+02  0.41800000000E+01 0. -1.
         -5    1    3    3    0  502 -0.75144209475E+02  0.15432483908E+02 -0.38405312894E+03  0.39166196142E+03  0.41800000000E+01 0. -1.
        -11    1    1    2    0    0  0.40892568071E+02 -0.59188680166E+02 -0.59893704794E+02  0.93609603445E+02  0.00000000000E+00 0. -1.
         11    1    1    2    0    0 -0.88559832101E+00  0.23601737356E+02 -0.51152290152E+02  0.56341663788E+02  0.00000000000E+00 0.  1.
</event>
<event>
 7    1  0.2723366E-009  0.1897762E+03  0.7561462E-02  0.1158663E+00
          1   -1    0    0  501    0  0.00000000000E+00  0.00000000000E+00  0.35308575061E+03  0.35308575061E+03  0.00000000000E+00 0.  1.
         -1   -1    0    0    0  501 -0.00000000000E+00 -0.00000000000E+00 -0.19277237613E+03  0.19277237613E+03  0.00000000000E+00 0. -1.
         25    2    1    2    0    0  0.17217607603E+03  0.18151872645E+02 -0.84103893042E+02  0.22955653728E+03  0.12509455362E+03 0.  0.
          5    1    3    3  502    0  0.17951178528E+03 -0.44326274984E+01 -0.47611693454E+02  0.18581839251E+03  0.41800000000E+01 0. -1.
         -5    1    3    3    0  502 -0.73357092539E+01  0.22584500144E+02 -0.36492199588E+02  0.43738144768E+02  0.41800000000E+01 0. -1.
        -11    1    1    2    0    0 -0.28528748176E+02  0.84126420999E+01  0.12240574097E+03  0.12596756504E+03  0.00000000000E+00 0.  1.
         11    1    1    2    0    0 -0.14364732785E+03 -0.26564514745E+02  0.12201152655E+03  0.19033402442E+03  0.00000000000E+00 0. -1.
</event>
<event>
 7    1  0.2723366E-009  0.1019307E+03  0.7561462E-02  0.1276288E+00
         -1   -1    0    0    0  501 -0.00000000000E+00  0.00000000000E+00  0.40720504624E+02  0.40720504624E+02  0.00000000000E+00 0.  1.
          1   -1    0    0  501    0  0.00000000000E+00 -0.00000000000E+00 -0.42896214895E+03  0.42896214895E+03  0.00000000000E+00 0. -1.
         25    2    1    2    0    0  0.68348002655E+02 -0.15202893327E+02 -0.18150193233E+03  0.23128619144E+03  0.12509106075E+03 0.  0.
          5    1    3    3  502    0  0.53780635791E+02 -0.36043125000E+02 -0.20213543899E+02  0.67952361275E+02  0.41800000000E+01 0.  1.
         -5    1    3    3    0  502  0.14567366864E+02  0.20840231673E+02 -0.16128838843E+03  0.16333383017E+03  0.41800000000E+01 0.  1.
        -11    1    1    2    0    0 -0.88348834723E+02  0.42648736202E+00 -0.12581440390E+03  0.15373666680E+03  0.00000000000E+00 0.  1.
         11    1    1    2    0    0  0.20000832068E+02  0.14776405965E+02 -0.80925308091E+02  0.84659795336E+02  0.00000000000E+00 0. -1.
</event>
<event>
 7    1  0.2723366E-009  0.1061262E+03  0.7561462E-02  0.1267916E+00
         -1   -1    0    0    0  501 -0.00000000000E+00  0.00000000000E+00  0.10902032968E+03  0.10902032968E+03  0.00000000000E+00 0.  1.
          1   -1    0    0  501    0  0.00000000000E+00 -0.00000000000E+00 -0.16435004519E+03  0.16435004519E+03  0.00000000000E+00 0. -1.
         25    2    1    2    0    0  0.70018008360E+01  0.24681829305E+02  0.46644106611E+02  0.13594563863E+03  0.12508927239E+03 0.  0.
          5    1    3    3  502    0  0.48580164491E+02  0.52509504113E+02  0.70449778152E+01  0.72002670204E+02  0.41800000000E+01 0. -1.
         -5    1    3    3    0  502 -0.41578363655E+02 -0.27827674808E+02  0.39599128796E+02  0.63942968424E+02  0.41800000000E+01 0. -1.
        -11    1    1    2    0    0  0.38670490948E+02 -0.41947604763E+00 -0.30765149033E+02  0.49417377767E+02  0.00000000000E+00 0.  1.
         11    1    1    2    0    0 -0.45672291784E+02 -0.24262353257E+02 -0.71208673090E+02  0.88007358474E+02  0.00000000000E+00 0. -1.
</event>
<event>
 7    1  0.2723366E-009  0.1501091E+03  0.7561462E-02  0.1200339E+00
         -2   -1    0    0    0  501 -0.00000000000E+00  0.00000000000E+00  0.23530775295E+02  0.23530775295E+02  0.00000000000E+00 0.  1.
          2   -1    0    0  501    0  0.00000000000E+00 -0.00000000000E+00 -0.22154394093E+04  0.22154394093E+04  0.00000000000E+00 0. -1.
         25    2    1    2    0    0 -0.84560747634E+02  0.72594241828E+02 -0.19544611623E+04  0.19616284891E+04  0.12508976854E+03 0.  0.
          5    1    3    3  502    0 -0.90311044003E+02  0.42132670023E+01 -0.79592269670E+03  0.80105196324E+03  0.41800000000E+01 0.  1.
         -5    1    3    3    0  502  0.57502963693E+01  0.68380974826E+02 -0.11585384656E+04  0.11605765258E+04  0.41800000000E+01 0.  1.
        -11    1    1    2    0    0  0.91297737024E+02 -0.27473422932E+02 -0.18267232043E+03  0.20605640588E+03  0.00000000000E+00 0.  1.
         11    1    1    2    0    0 -0.67369893901E+01 -0.45120818896E+02 -0.54775151308E+02  0.71285289680E+02  0.00000000000E+00 0. -1.
</event>
<event>
 7    1  0.2723366E-009  0.2138980E+03  0.7561462E-02  0.1138516E+00
          1   -1    0    0  501    0  0.00000000000E+00  0.00000000000E+00  0.86003201819E+03  0.86003201819E+03  0.00000000000E+00 0. -1.
         -1   -1    0    0    0  501 -0.00000000000E+00 -0.00000000000E+00 -0.74410111694E+02  0.74410111694E+02  0.00000000000E+00 0.  1.
         25    2    1    2    0    0 -0.64109337730E+02  0.17874674353E+03  0.17080642233E+03  0.28439833898E+03  0.12508867172E+03 0.  0.
          5    1    3    3  502    0 -0.10011299266E+03  0.11566165001E+03  0.13113425466E+03  0.20152889055E+03  0.41800000000E+01 0.  1.
         -5    1    3    3    0  502  0.36003654935E+02  0.63085093526E+02  0.39672167676E+02  0.82869448423E+02  0.41800000000E+01 0.  1.
        -11    1    1    2    0    0  0.37748396447E+02 -0.23332315896E+02  0.22913694856E+03  0.23339468631E+03  0.00000000000E+00 0. -1.
         11    1    1    2    0    0  0.26360941283E+02 -0.15541442764E+03  0.38567853560E+03  0.41664910460E+03  0.00000000000E+00 0.  1.
</event>
<event>
 7    1  0.2723366E-009  0.1711593E+03  0.7561462E-02  0.1176644E+00
          2   -1    0    0  501    0  0.00000000000E+00  0.00000000000E+00  0.43625994294E+03  0.43625994294E+03  0.00000000000E+00 0. -1.
         -2   -1    0    0    0  501 -0.00000000000E+00 -0.00000000000E+00 -0.89871885628E+02  0.89871885628E+02  0.00000000000E+00 0.  1.
         25    2    1    2    0    0  0.12234379530E+03 -0.85625087808E+02  0.87372455651E+02  0.21349796036E+03  0.12509105948E+03 0.  0.
          5    1    3    3  502    0  0.52202719124E+02 -0.86125113222E+02  0.10013449909E+03  0.14208113639E+03  0.41800000000E+01 0. -1.
         -5    1    3    3    0  502  0.70141076175E+02  0.50002541427E+00 -0.12762043438E+02  0.71416823964E+02  0.41800000000E+01 0. -1.
        -11    1    1    2    0    0 -0.15002430021E+02  0.58700461183E+02  0.62152142698E+02  0.86796923285E+02  0.00000000000E+00 0.  1.
         11    1    1    2    0    0 -0.10734136528E+03  0.26924626624E+02  0.19686345897E+03  0.22583694493E+03  0.00000000000E+00 0. -1.
</event>
<event>
 7    1  0.2723366E-009  0.1375052E+03  0.7561462E-02  0.1216726E+00
          2   -1    0    0  501    0  0.00000000000E+00  0.00000000000E+00  0.13839213316E+04  0.13839213316E+04  0.00000000000E+00 0. -1.
         -2   -1    0    0    0  501 -0.00000000000E+00 -0.00000000000E+00 -0.21471438203E+02  0.21471438203E+02  0.00000000000E+00 0.  1.
         25    2    1    2    0    0  0.19031012283E+02 -0.70282805729E+01  0.61007664489E+03  0.62309941975E+03  0.12509115915E+03 0.  0.
          5    1    3    3  502    0 -0.13075773453E+02  0.27130612833E+02  0.36110615361E+02  0.47206937475E+02  0.41800000000E+01 0.  1.
         -5    1    3    3    0  502  0.32106785736E+02 -0.34158893405E+02  0.57396602953E+03  0.57589248228E+03  0.41800000000E+01 0.  1.
        -11    1    1    2    0    0  0.62259949244E+02  0.70754528399E+02  0.51299238751E+03  0.52157808065E+03  0.00000000000E+00 0. -1.
         11    1    1    2    0    0 -0.81290961527E+02 -0.63726247826E+02  0.23938086099E+03  0.26071526939E+03  0.00000000000E+00 0.  1.
</event>
<event>
 7    1  0.2723366E-009  0.1537177E+03  0.7561462E-02  0.1195978E+00
         -1   -1    0    0    0  501 -0.00000000000E+00  0.00000000000E+00  0.56631281520E+02  0.56631281520E+02  0.00000000000E+00 0.  1.
          1   -1    0    0  501    0  0.00000000000E+00 -0.00000000000E+00 -0.46858931602E+03  0.46858931602E+03  0.00000000000E+00 0. -1.
         25    2    1    2    0    0  0.97863747394E+02  0.67658908308E+02 -0.18236562992E+03  0.25111682037E+03  0.12508954220E+03 0.  0.
          5    1    3    3  502    0  0.93061729323E+01  0.68631865476E+02 -0.13205852177E+03  0.14917728844E+03  0.41800000000E+01 0. -1.
         -5    1    3    3    0  502  0.88557574461E+02 -0.97295716780E+00 -0.50307108151E+02  0.10193953193E+03  0.41800000000E+01 0. -1.
        -11    1    1    2    0    0 -0.52531027136E+02  0.15418442613E+02 -0.75308283548E+02  0.93105181142E+02  0.00000000000E+00 0. -1.
         11    1    1    2    0    0 -0.45332720257E+02 -0.83077350921E+02 -0.15428412103E+03  0.18099859603E+03  0.00000000000E+00 0.  1.
</event>
<event>
 7    1  0.2723366E-009  0.7657156E+02  0.7561462E-02  0.1339072E+00
         -1   -1    0    0    0  501 -0.00000000000E+00  0.00000000000E+00  0.28577163155E+03  0.28577163155E+03  0.00000000000E+00 0.  1.
          1   -1    0    0  501    0  0.00000000000E+00 -0.00000000000E+00 -0.54421219115E+02  0.54421219115E+02  0.00000000000E+00 0. -1.
         25    2    1    2    0    0 -0.24143806435E+02  0.48145012799E+02  0.16636256139E+03  0.21499722051E+03  0.12508572000E+03 0.  0.
          5    1    3    3  502    0 -0.39315926691E+02  0.45173095836E+02  0.18258521592E+03  0.19220089529E+03  0.41800000000E+01 0.  1.
         -5    1    3    3    0  502  0.15172120257E+02  0.29719169629E+01 -0.16222654530E+02  0.22796325219E+02  0.41800000000E+01 0.  1.
        -11    1    1    2    0    0 -0.76574482607E+01  0.89272446029E+01 -0.16805117323E+02  0.20512049588E+02  0.00000000000E+00 0. -1.
         11    1    1    2    0    0  0.31801254695E+02 -0.57072257402E+02  0.81792968367E+02  0.10468358056E+03  0.00000000000E+00 0.  1.
</event>
<event>
 7    1  0.2723366E-009  0.1442277E+03  0.7561462E-02  0.1207751E+00
         -2   -1    0    0    0  501 -0.00000000000E+00  0.00000000000E+00  0.29712144049E+02  0.29712144049E+02  0.00000000000E+00 0.  1.
          2   -1    0    0  501    0  0.00000000000E+00 -0.00000000000E+00 -0.72169411772E+03  0.72169411772E+03  0.00000000000E+00 0. -1.
         25    2    1    2    0    0  0.81398692598E+02 -0.54887864992E+02 -0.34809242135E+03  0.38269868214E+03  0.12510604553E+03 0.  0.
          5    1    3    3  502    0  0.67915474701E+02 -0.94794795379E+02 -0.25349449587E+03  0.27906181532E+03  0.41800000000E+01 0. -1.
         -5    1    3    3    0  502  0.13483217897E+02  0.39906930387E+02 -0.94597925477E+02  0.10363686681E+03  0.41800000000E+01 0. -1.
        -11    1    1    2    0    0 -0.38067664016E+02 -0.19936418763E+02 -0.77234496247E+02  0.88384247733E+02  0.00000000000E+00 0.  1.
         11    1    1    2    0    0 -0.43331028581E+02  0.74824283755E+02 -0.26665505608E+03  0.28032333190E+03  0.00000000000E+00 0. -1.
</event>
<event>
 7    1  0.2723366E-009  0.3085060E+03  0.7561462E-02  0.1081064E+00
          2   -1    0    0  501    0  0.00000000000E+00  0.00000000000E+00  0.12937999266E+04  0.12937999266E+04  0.00000000000E+00 0. -1.
         -2   -1    0    0    0  501 -0.00000000000E+00 -0.00000000000E+00 -0.15335044239E+03  0.15335044239E+03  0.00000000000E+00 0.  1.
         25    2    1    2    0    0  0.11894545601E+03  0.28267096016E+03  0.10692863915E+04  0.11194070502E+04  0.12509142173E+03 0.  0.
          5    1    3    3  502    0  0.78206170588E+02  0.22501260339E+03  0.96083672837E+03  0.98993513313E+03  0.41800000000E+01 0. -1.
         -5    1    3    3    0  502  0.40739285427E+02  0.57658356768E+02  0.10844966315E+03  0.12947191710E+03  0.41800000000E+01 0. -1.
        -11    1    1    2    0    0 -0.26459510578E+02 -0.97888268706E+02 -0.17480106616E+02  0.10289690461E+03  0.00000000000E+00 0.  1.
         11    1    1    2    0    0 -0.92485945437E+02 -0.18478269146E+03  0.88643199284E+02  0.22484641412E+03  0.00000000000E+00 0. -1.
</event>
<event>
 7    1  0.2723366E-009  0.9990691E+02  0.7561462E-02  0.1280492E+00
         -1   -1    0    0    0  501 -0.00000000000E+00  0.00000000000E+00  0.11075183260E+03  0.11075183260E+03  0.00000000000E+00 0.  1.
          1   -1    0    0  501    0  0.00000000000E+00 -0.00000000000E+00 -0.21812317987E+03  0.21812317987E+03  0.00000000000E+00 0. -1.
         25    2    1    2    0    0  0.84749070683E+02  0.51240813387E+02 -0.43793485360E+01  0.15960885393E+03  0.12509109329E+03 0.  0.
          5    1    3    3  502    0  0.79851461983E+02  0.44835834027E+02  0.50036984795E+02  0.10443984030E+03  0.41800000000E+01 0. -1.
         -5    1    3    3    0  502  0.48976087004E+01  0.64049793591E+01 -0.54416333331E+02  0.55169013629E+02  0.41800000000E+01 0. -1.
        -11    1    1    2    0    0 -0.47429471187E+02 -0.27433758918E+02 -0.11145769965E+03  0.12419736179E+03  0.00000000000E+00 0. -1.
         11    1    1    2    0    0 -0.37319599496E+02 -0.23807054469E+02  0.84657009055E+01  0.45068796754E+02  0.00000000000E+00 0.  1.
</event>
<event>
 7    1  0.2723366E-009  0.1683244E+03  0.7561462E-02  0.1179607E+00
          2   -1    0    0  501    0  0.00000000000E+00  0.00000000000E+00  0.70167222688E+03  0.70167222688E+03  0.00000000000E+00 0. -1.
         -2   -1    0    0    0  501 -0.00000000000E+00 -0.00000000000E+00 -0.46148750116E+02  0.46148750116E+02  0.00000000000E+00 0.  1.
         25    2    1    2    0    0 -0.50141251816E+02 -0.13166057724E+03  0.39793240884E+03  0.44027972111E+03  0.12508948029E+03 0.  0.
          5    1    3    3  502    0  0.32202962661E+02 -0.12006375096E+02  0.34510078621E+02  0.48883553201E+02  0.41800000000E+01 0. -1.
         -5    1    3    3    0  502 -0.82344214476E+02 -0.11965420215E+03  0.36342233022E+03  0.39139616791E+03  0.41800000000E+01 0. -1.
        -11    1    1    2    0    0  0.65159506852E+02  0.81441261598E+02  0.21861722549E+03  0.24222289674E+03  0.00000000000E+00 0. -1.
         11    1    1    2    0    0 -0.15018255036E+02  0.50219315644E+02  0.38973842433E+02  0.65318359151E+02  0.00000000000E+00 0.  1.
</event>
<event>
 7    1  0.2723366E-009  0.9933076E+02  0.7561462E-02  0.1281710E+00
         -3   -1    0    0    0  501 -0.00000000000E+00  0.00000000000E+00  0.57689865953E+03  0.57689865953E+03  0.00000000000E+00 0.  1.
          3   -1    0    0  501    0  0.00000000000E+00 -0.00000000000E+00 -0.27677710960E+02  0.27677710960E+02  0.00000000000E+00 0. -1.
         25    2    1    2    0    0  0.30710880281E+02  0.33530544123E+02  0.41081322878E+03  0.43183685574E+03  0.12509238779E+03 0.  0.
          5    1    3    3  502    0  0.50785878967E+02 -0.34060237368E+02  0.21966929247E+03  0.22806002659E+03  0.41800000000E+01 0.  1.
         -5    1    3    3    0  502 -0.20074998685E+02  0.67590781491E+02  0.19114393630E+03  0.20377682915E+03  0.41800000000E+01 0.  1.
        -11    1    1    2    0    0  0.13485170773E+02 -0.85867023355E+01 -0.79344239302E+01  0.17847587257E+02  0.00000000000E+00 0. -1.
         11    1    1    2    0    0 -0.44196051054E+02 -0.24943841788E+02  0.14634214372E+03  0.15489192749E+03  0.00000000000E+00 0.  1.
</event>
<event>
 7    1  0.2723366E-009  0.8419504E+02  0.7561462E-02  0.1317551E+00
          1   -1    0    0  501    0  0.00000000000E+00  0.00000000000E+00  0.20898414807E+02  0.20898414807E+02  0.00000000000E+00 0. -1.
         -1   -1    0    0    0  501 -0.00000000000E+00 -0.00000000000E+00 -0.60839990772E+03  0.60839990772E+03  0.00000000000E+00 0.  1.
         25    2    1    2    0    0 -0.20666625461E+02  0.31196591437E+01 -0.28412393247E+03  0.31114358324E+03  0.12508828367E+03 0.  0.
          5    1    3    3  502    0  0.67591829547E+01 -0.36909916017E+02 -0.20310333976E+02  0.42872024921E+02  0.41800000000E+01 0. -1.
         -5    1    3    3    0  502 -0.27425808416E+02  0.40029575161E+02 -0.26381359849E+03  0.26827155832E+03  0.41800000000E+01 0. -1.
        -11    1    1    2    0    0  0.49192447100E+02 -0.14398398325E+02 -0.26013893959E+03  0.26514048845E+03  0.00000000000E+00 0.  1.
         11    1    1    2    0    0 -0.28525821639E+02  0.11278739182E+02 -0.43238620855E+02  0.53014250831E+02  0.00000000000E+00 0. -1.
</event>
<event>
 7    1  0.2723366E-009  0.8642011E+02  0.7561462E-02  0.1311760E+00
         -3   -1    0    0    0  501 -0.00000000000E+00  0.00000000000E+00  0.46392878891E+02  0.46392878891E+02  0.00000000000E+00 0.  1.
          3   -1    0    0  501    0  0.00000000000E+00 -0.00000000000E+00 -0.28383255286E+03  0.28383255286E+03  0.00000000000E+00 0. -1.
         25    2    1    2    0    0  0.85922302344E+01  0.30197416371E+01 -0.18662025402E+03  0.22485024384E+03  0.12509023816E+03 0.  0.
          5    1    3    3  502    0  0.41653059030E+02 -0.22042477417E+02 -0.17146127383E+02  0.50322064956E+02  0.41800000000E+01 0.  1.
         -5    1    3    3    0  502 -0.33060828796E+02  0.25062219054E+02 -0.16947412664E+03  0.17452817888E+03  0.41800000000E+01 0.  1.
        -11    1    1    2    0    0  0.29001798304E+02  0.23911191919E+02 -0.12860966528E+01  0.37609884984E+02  0.00000000000E+00 0.  1.
         11    1    1    2    0    0 -0.37594028539E+02 -0.26930933556E+02 -0.49533323290E+02  0.67765302922E+02  0.00000000000E+00 0. -1.
</event>
<event>
 7    1  0.2723366E-009  0.2217518E+03  0.7561462E-02  0.1132584E+00
         -2   -1    0    0    0  501 -0.00000000000E+00  0.00000000000E+00  0.59850860348E+02  0.59850860348E+02  0.00000000000E+00 0.  1.
          2   -1    0    0  501    0  0.00000000000E+00 -0.00000000000E+00 -0.86314853551E+03  0.86314853551E+03  0.00000000000E+00 0. -1.
         25    2    1    2    0    0  0.17310427926E+03  0.96484053459E+02 -0.44882207800E+03  0.50632392534E+03  0.12509354742E+03 0.  0.
          5    1    3    3  502    0 -0.12009814909E+02  0.37360153014E+02 -0.89044357876E+02  0.97398083949E+02  0.41800000000E+01 0. -1.
         -5    1    3    3    0  502  0.18511409416E+03  0.59123900445E+02 -0.35977772012E+03  0.40892584139E+03  0.41800000000E+01 0. -1.
        -11    1    1    2    0    0 -0.13908987677E+03 -0.41742756823E+02 -0.18385462064E+03  0.23428822654E+03  0.00000000000E+00 0.  1.
         11    1    1    2    0    0 -0.34014402488E+02 -0.54741296636E+02 -0.17062097653E+03  0.18238724398E+03  0.00000000000E+00 0. -1.
</event>
<event>
 7    1  0.2723366E-009  0.1652004E+03  0.7561462E-02  0.1182948E+00
          2   -1    0    0  501    0  0.00000000000E+00  0.00000000000E+00  0.61375244747E+03  0.61375244747E+03  0.00000000000E+00 0. -1.
         -2   -1    0    0    0  501 -0.00000000000E+00 -0.00000000000E+00 -0.50001303263E+02  0.50001303263E+02  0.00000000000E+00 0.  1.
         25    2    1    2    0    0 -0.47138932687E+02 -0.13036211673E+03  0.32880323426E+03  0.37811974779E+03  0.12508643556E+03 0.  0.
          5    1    3    3  502    0  0.22652367616E+02 -0.37585405878E+01  0.13111490894E+03  0.13317600434E+03  0.41800000000E+01 0. -1.
         -5    1    3    3    0  502 -0.69791300304E+02 -0.12660357614E+03  0.19768832532E+03  0.24494374345E+03  0.41800000000E+01 0. -1.
        -11    1    1    2    0    0  0.98235517128E+01  0.12423158549E+03  0.17945640570E+03  0.21848247195E+03  0.00000000000E+00 0.  1.
         11    1    1    2    0    0  0.37315380975E+02  0.61305312458E+01  0.55491504245E+02  0.67151530988E+02  0.00000000000E+00 0. -1.
</event>
<event>
 7    1  0.2723366E-009  0.1212343E+03  0.7561462E-02  0.1241075E+00
          1   -1    0    0  501    0  0.00000000000E+00  0.00000000000E+00  0.79773488762E+03  0.79773488762E+03  0.00000000000E+00 0. -1.
         -1   -1    0    0    0  501 -0.00000000000E+00 -0.00000000000E+00 -0.26484132784E+02  0.26484132784E+02  0.00000000000E+00 0.  1.
         25    2    1    2    0    0 -0.24722202267E+02  0.78743961545E+02  0.24954323808E+03  0.29108556593E+03  0.12508868955E+03 0.  0.
          5    1    3    3  502    0  0.27548475095E+02 -0.11389468642E+02  0.13411981789E+02  0.32954394723E+02  0.41800000000E+01 0.  1.
         -5    1    3    3    0  502 -0.52270677362E+02  0.90133430187E+02  0.23613125629E+03  0.25813117120E+03  0.41800000000E+01 0.  1.
        -11    1    1    2    0    0 -0.24629205586E+02 -0.28376860345E+02  0.13929068158E+03  0.14426967091E+03  0.00000000000E+00 0.  1.
         11    1    1    2    0    0  0.49351407853E+02 -0.50367101200E+02  0.38241683517E+03  0.38886378356E+03  0.00000000000E+00 0. -1.
</event>
<event>
 7    1  0.2723366E-009  0.1758350E+03  0.7561462E-02  0.1171896E+00
         -1   -1    0    0    0  501 -0.00000000000E+00  0.00000000000E+00  0.12673606113E+03  0.12673606113E+03  0.00000000000E+00 0.  1.
          1   -1    0    0  501    0  0.00000000000E+00 -0.00000000000E+00 -0.28256082517E+03  0.28256082517E+03  0.00000000000E+00 0. -1.
         25    2    1    2    0    0 -0.13454472531E+03  0.31723651628E+02 -0.15673091424E+03  0.24356477322E+03  0.12510214264E+03 0.  0.
          5    1    3    3  502    0 -0.11871573737E+03  0.74655569907E+02 -0.11324702329E+03  0.18030319216E+03  0.41800000000E+01 0.  1.
         -5    1    3    3    0  502 -0.15828987939E+02 -0.42931918279E+02 -0.43483890947E+02  0.63261581060E+02  0.41800000000E+01 0.  1.
        -11    1    1    2    0    0  0.18125563059E+02 -0.44744584394E+02 -0.43289484599E+01  0.48470131664E+02  0.00000000000E+00 0. -1.
         11    1    1    2    0    0  0.11641916225E+03  0.13020932766E+02  0.52350986623E+01  0.11726198142E+03  0.00000000000E+00 0.  1.
</event>
<event>
 7    1  0.2723366E-009  0.1210271E+03  0.7561462E-02  0.1241412E+00
          2   -1    0    0  501    0  0.00000000000E+00  0.00000000000E+00  0.61137831947E+02  0.61137831947E+02  0.00000000000E+00 0. -1.
         -2   -1    0    0    0  501 -0.00000000000E+00 -0.00000000000E+00 -0.34259147383E+03  0.34259147383E+03  0.00000000000E+00 0.  1.
         25    2    1    2    0    0  0.27136471234E+02 -0.93238381513E+02 -0.14474448940E+03  0.21454376437E+03  0.12509306839E+03 0.  0.
          5    1    3    3  502    0 -0.21075538315E+02 -0.31674847568E+02  0.11338621075E+02  0.39918805238E+02  0.41800000000E+01 0. -1.
         -5    1    3    3    0  502  0.48212009549E+02 -0.61563533945E+02 -0.15608311047E+03  0.17462495913E+03  0.41800000000E+01 0. -1.
        -11    1    1    2    0    0  0.25340860778E+02  0.10358258004E+02 -0.55311864644E+02  0.61715922615E+02  0.00000000000E+00 0.  1.
         11    1    1    2    0    0 -0.52477332012E+02  0.82880123509E+02 -0.81397287845E+02  0.12746961880E+03  0.00000000000E+00 0. -1.
</event>
<event>
 7    1  0.2723366E-009  0.1176126E+03  0.7561462E-02  0.1247088E+00
          2   -1    0    0  501    0  0.00000000000E+00  0.00000000000E+00  0.19167599512E+03  0.19167599512E+03  0.00000000000E+00 0. -1.
         -2   -1    0    0    0  501 -0.00000000000E+00 -0.00000000000E+00 -0.88364725111E+02  0.88364725111E+02  0.00000000000E+00 0.  1.
         25    2    1    2    0    0 -0.60780371711E+02 -0.17087615626E+02  0.24313302203E+02  0.14221838296E+03  0.12509473049E+03 0.  0.
          5    1    3    3  502    0 -0.30229242481E+02 -0.67106839699E+02  0.36417592639E+02  0.82224378921E+02  0.41800000000E+01 0. -1.
         -5    1    3    3    0  502 -0.30551129230E+02  0.50019224073E+02 -0.12104290436E+02  0.59994004042E+02  0.41800000000E+01 0. -1.
        -11    1    1    2    0    0  0.78836179281E+02  0.25456367973E+02  0.35776422251E+02  0.90239249903E+02  0.00000000000E+00 0.  1.
         11    1    1    2    0    0 -0.18055807571E+02 -0.83687523463E+01  0.43221545554E+02  0.47583087363E+02  0.00000000000E+00 0. -1.
</event>
<event>
 7    1  0.2723366E-009  0.1277647E+03  0.7561462E-02  0.1230811E+00
          2   -1    0    0  501    0  0.00000000000E+00  0.00000000000E+00  0.94534958498E+02  0.94534958498E+02  0.00000000000E+00 0. -1.
         -2   -1    0    0    0  501 -0.00000000000E+00 -0.00000000000E+00 -0.23869216055E+03  0.23869216055E+03  0.00000000000E+00 0.  1.
         25    2    1    2    0    0 -0.85091728502E+02 -0.46446738189E+02 -0.12245842716E+03  0.20010412961E+03  0.12509074529E+03 0.  0.
          5    1    3    3  502    0 -0.87193582380E+02 -0.63164816959E+02 -0.13917050829E+03  0.17600686829E+03  0.41800000000E+01 0.  1.
         -5    1    3    3    0  502  0.21018538777E+01  0.16718078771E+02  0.16712081125E+02  0.24097261318E+02  0.41800000000E+01 0.  1.
        -11    1    1    2    0    0 -0.15019831945E+02 -0.74015245983E+01  0.24177562820E+01  0.16918140071E+02  0.00000000000E+00 0.  1.
         11    1    1    2    0    0  0.10011156045E+03  0.53848262787E+02 -0.24116531174E+02  0.11620484937E+03  0.00000000000E+00 0. -1.
</event>
<event>
 7    1  0.2723366E-009  0.2272630E+03  0.7561462E-02  0.1128581E+00
         -1   -1    0    0    0  501 -0.00000000000E+00  0.00000000000E+00  0.15336499002E+03  0.15336499002E+03  0.00000000000E+00 0.  1.
          1   -1    0    0  501    0  0.00000000000E+00 -0.00000000000E+00 -0.44071251312E+03  0.44071251312E+03  0.00000000000E+00 0. -1.
         25    2    1    2    0    0  0.12584977798E+03  0.17817121359E+03 -0.25194005771E+03  0.35595445257E+03  0.12508649671E+03 0.  0.
          5    1    3    3  502    0  0.69306648216E+02  0.48134920236E+02 -0.24616232435E+02  0.87998939382E+02  0.41800000000E+01 0. -1.
         -5    1    3    3    0  502  0.56543129767E+02  0.13003629335E+03 -0.22732382527E+03  0.26795551319E+03  0.41800000000E+01 0. -1.
        -11    1    1    2    0    0 -0.11457097320E+03 -0.10913936564E+03  0.31252279744E+01  0.15826457621E+03  0.00000000000E+00 0.  1.
         11    1    1    2    0    0 -0.11278804778E+02 -0.69031847949E+02 -0.38532693372E+02  0.79858474359E+02  0.00000000000E+00 0. -1.
</event>
<event>
 7    1  0.6548457E-009  0.2726806E+03  0.7561462E-02  0.1099755E+00
         -1   -1    0    0    0  501 -0.00000000000E+00  0.00000000000E+00  0.79667876270E+02  0.79667876270E+02  0.00000000000E+00 0.  1.
          1   -1    0    0  501    0  0.00000000000E+00 -0.00000000000E+00 -0.10201595346E+04  0.10201595346E+04  0.00000000000E+00 0. -1.
         25    2    1    2    0    0 -0.51965501085E+02 -0.24445624951E+03 -0.64046236836E+03  0.69878195885E+03  0.12507961266E+03 0.  0.
          5    1    3    3  502    0 -0.36787363409E+02 -0.26286077373E+01 -0.87500069515E+02  0.95047115950E+02  0.41800000000E+01 0.  1.
         -5    1    3    3    0  502 -0.15178137676E+02 -0.24182764177E+03 -0.55296229884E+03  0.60373484290E+03  0.41800000000E+01 0.  1.
        -11    1    1    2    0    0 -0.23399516378E+02  0.10299528571E+03 -0.12712501484E+03  0.16527654293E+03  0.00000000000E+00 0.  1.
         11    1    1    2    0    0  0.75365017463E+02  0.14146096380E+03 -0.17290427513E+03  0.23576890909E+03  0.00000000000E+00 0. -1.
</event>
<event>
 7    1  0.2723366E-009  0.1030629E+03  0.7561462E-02  0.1273984E+00
          2   -1    0    0  501    0  0.00000000000E+00  0.00000000000E+00  0.35113876364E+02  0.35113876364E+02  0.00000000000E+00 0. -1.
         -2   -1    0    0    0  501 -0.00000000000E+00 -0.00000000000E+00 -0.41291908059E+03  0.41291908059E+03  0.00000000000E+00 0.  1.
         25    2    1    2    0    0  0.53450767308E+01  0.34524792471E+02 -0.27497672811E+03  0.30410891154E+03  0.12509795336E+03 0.  0.
          5    1    3    3  502    0 -0.35319239340E+02  0.65001999369E+02 -0.12074396002E+03  0.14166610346E+03  0.41800000000E+01 0.  1.
         -5    1    3    3    0  502  0.40664316070E+02 -0.30477206899E+02 -0.15423276809E+03  0.16244280808E+03  0.41800000000E+01 0.  1.
        -11    1    1    2    0    0  0.18505498845E+02 -0.49522148451E+02 -0.20149383594E+02  0.56576446813E+02  0.00000000000E+00 0. -1.
         11    1    1    2    0    0 -0.23850575576E+02  0.14997355980E+02 -0.82679092522E+02  0.87347598605E+02  0.00000000000E+00 0.  1.
</event>
<event>
 7    1  0.2723366E-009  0.1422020E+03  0.7561462E-02  0.1210396E+00
         -2   -1    0    0    0  501 -0.00000000000E+00  0.00000000000E+00  0.33670130768E+03  0.33670130768E+03  0.00000000000E+00 0.  1.
          2   -1    0    0  501    0  0.00000000000E+00 -0.00000000000E+00 -0.73167585440E+02  0.73167585440E+02  0.00000000000E+00 0. -1.
         25    2    1    2    0    0  0.10087833984E+03  0.52164245955E+02  0.15140775727E+03  0.22686469541E+03  0.12508290474E+03 0.  0.
          5    1    3    3  502    0  0.49218595667E+02 -0.28977412386E+02  0.10584934675E+03  0.12034831613E+03  0.41800000000E+01 0. -1.
         -5    1    3    3    0  502  0.51659744173E+02  0.81141658341E+02  0.45558410514E+02  0.10651637928E+03  0.41800000000E+01 0. -1.
        -11    1    1    2    0    0 -0.57488324140E+02 -0.63851119389E+02  0.10781422350E+03  0.13786145091E+03  0.00000000000E+00 0.  1.
         11    1    1    2    0    0 -0.43390015700E+02  0.11686873435E+02  0.43117414716E+01  0.45142746789E+02  0.00000000000E+00 0. -1.
</event>
<event>
 7    1  0.2723366E-009  0.1574217E+03  0.7561462E-02  0.1191639E+00
         -2   -1    0    0    0  501 -0.00000000000E+00  0.00000000000E+00  0.57603827602E+02  0.57603827602E+02  0.00000000000E+00 0. -1.
          2   -1    0    0  501    0  0.00000000000E+00 -0.00000000000E+00 -0.45917450826E+03  0.45917450826E+03  0.00000000000E+00 0.  1.
         25    2    1    2    0    0  0.81719640979E+02  0.87457610095E+02 -0.19017566608E+03  0.25717983682E+03  0.12509097176E+03 0.  0.
          5    1    3    3  502    0  0.45511395084E+02 -0.21092708019E+02 -0.98045939683E+02  0.11021192359E+03  0.41800000000E+01 0. -1.
         -5    1    3    3    0  502  0.36208245895E+02  0.10855031811E+03 -0.92129726393E+02  0.14696791323E+03  0.41800000000E+01 0. -1.
        -11    1    1    2    0    0 -0.32255944124E+02 -0.94670593039E+02 -0.12905599603E+03  0.16327405559E+03  0.00000000000E+00 0.  1.
         11    1    1    2    0    0 -0.49463696855E+02  0.72129829438E+01 -0.82339018552E+02  0.96324443448E+02  0.00000000000E+00 0. -1.
</event>
<event>
 7    1  0.2723366E-009  0.1334896E+03  0.7561462E-02  0.1222368E+00
         -2   -1    0    0    0  501 -0.00000000000E+00  0.00000000000E+00  0.20820557292E+02  0.20820557292E+02  0.00000000000E+00 0. -1.
          2   -1    0    0  501    0  0.00000000000E+00 -0.00000000000E+00 -0.92896400719E+03  0.92896400719E+03  0.00000000000E+00 0.  1.
         25    2    1    2    0    0 -0.47490918979E+02  0.62396944267E+02 -0.37440805429E+03  0.40246473597E+03  0.12509079319E+03 0.  0.
          5    1    3    3  502    0 -0.54648085756E+02 -0.24040980780E+02 -0.13076027702E+03  0.14380578737E+03  0.41800000000E+01 0. -1.
         -5    1    3    3    0  502  0.71571667775E+01  0.86437925047E+02 -0.24364777727E+03  0.25865894860E+03  0.41800000000E+01 0. -1.
        -11    1    1    2    0    0  0.58965216402E+02 -0.21903179361E+01 -0.22881730233E+03  0.23630288209E+03  0.00000000000E+00 0.  1.
         11    1    1    2    0    0 -0.11474297424E+02 -0.60206626331E+02 -0.30491809327E+03  0.31101694642E+03  0.00000000000E+00 0. -1.
</event>
<event>
 7    1  0.2723366E-009  0.7669497E+02  0.7561462E-02  0.1338701E+00
         -3   -1    0    0    0  501 -0.00000000000E+00  0.00000000000E+00  0.23450212693E+02  0.23450212693E+02  0.00000000000E+00 0.  1.
          3   -1    0    0  501    0  0.00000000000E+00 -0.00000000000E+00 -0.57406004705E+03  0.57406004705E+03  0.00000000000E+00 0. -1.
         25    2    1    2    0    0 -0.36822641556E+02 -0.13477429088E+02 -0.33996293421E+03  0.36436089604E+03  0.12508604198E+03 0.  0.
          5    1    3    3  502    0 -0.46541587727E+02 -0.25110264710E+02 -0.34404876093E+03  0.34811444537E+03  0.41800000000E+01 0. -1.
         -5    1    3    3    0  502  0.97189461711E+01  0.11632835622E+02  0.40858267144E+01  0.16246450666E+02  0.41800000000E+01 0. -1.
        -11    1    1    2    0    0  0.58005152044E+02  0.21648855830E+02 -0.19735936206E+03  0.20684290758E+03  0.00000000000E+00 0.  1.
         11    1    1    2    0    0 -0.21182510488E+02 -0.81714267421E+01 -0.13287538083E+02  0.26306456125E+02  0.00000000000E+00 0. -1.
</event>
<event>
 7    1  0.2723366E-009  0.1081792E+03  0.7561462E-02  0.1263979E+00
         -1   -1    0    0    0  501 -0.00000000000E+00  0.00000000000E+00  0.31610803879E+03  0.31610803879E+03  0.00000000000E+00 0.  1.
          1   -1    0    0  501    0  0.00000000000E+00 -0.00000000000E+00 -0.71248038876E+02  0.71248038876E+02  0.00000000000E+00 0. -1.
         25    2    1    2    0    0 -0.89071512863E+02  0.53848689961E+02  0.12989677839E+03  0.20821783368E+03  0.12509227558E+03 0.  0.
          5    1    3    3  502    0 -0.13661885873E+02  0.94591874294E+01  0.11866588560E+03  0.11989657276E+03  0.41800000000E+01 0.  1.
         -5    1    3    3    0  502 -0.75409626990E+02  0.44389502532E+02  0.11230892790E+02  0.88321260921E+02  0.41800000000E+01 0.  1.
        -11    1    1    2    0    0  0.85621479428E+02 -0.35068135745E+02  0.12657752876E+03  0.15678865607E+03  0.00000000000E+00 0.  1.
         11    1    1    2    0    0  0.34500334346E+01 -0.18780554216E+02 -0.11614307245E+02  0.22349587919E+02  0.00000000000E+00 0. -1.
</event>
<event>
 7    1  0.2723366E-009  0.1851637E+03  0.7561462E-02  0.1162897E+00
         -2   -1    0    0    0  501 -0.00000000000E+00  0.00000000000E+00  0.21610718530E+03  0.21610718530E+03  0.00000000000E+00 0.  1.
          2   -1    0    0  501    0  0.00000000000E+00 -0.00000000000E+00 -0.19133160282E+03  0.19133160282E+03  0.00000000000E+00 0. -1.
         25    2    1    2    0    0 -0.15476058892E+03  0.72227773546E+02 -0.50280923361E+01  0.21175545404E+03  0.12508956572E+03 0.  0.
          5    1    3    3  502    0 -0.26642405299E+02 -0.10070018923E+02  0.43252592280E+02  0.51956541265E+02  0.41800000000E+01 0.  1.
         -5    1    3    3    0  502 -0.12811818362E+03  0.82297792469E+02 -0.48280684616E+02  0.15979891278E+03  0.41800000000E+01 0.  1.
        -11    1    1    2    0    0 -0.75256373824E+01 -0.15612022757E+02 -0.89271681836E+01  0.19495250815E+02  0.00000000000E+00 0. -1.
         11    1    1    2    0    0  0.16228622630E+03 -0.56615750789E+02  0.38730842996E+02  0.17618808326E+03  0.00000000000E+00 0.  1.
</event>
<event>
 7    1  0.2723366E-009  0.9309867E+02  0.7561462E-02  0.1295517E+00
          2   -1    0    0  501    0  0.00000000000E+00  0.00000000000E+00  0.24123299709E+03  0.24123299709E+03  0.00000000000E+00 0.  1.
         -2   -1    0    0    0  501 -0.00000000000E+00 -0.00000000000E+00 -0.79068761562E+02  0.79068761562E+02  0.00000000000E+00 0. -1.
         25    2    1    2    0    0  0.45177781092E+02 -0.34963275747E+02  0.16304039700E+03  0.21329197108E+03  0.12509129194E+03 0.  0.
          5    1    3    3  502    0  0.34771784187E+02 -0.49792349938E+02  0.13184154265E+02  0.62286831767E+02  0.41800000000E+01 0.  1.
         -5    1    3    3    0  502  0.10405996905E+02  0.14829074191E+02  0.14985624273E+03  0.15100513931E+03  0.41800000000E+01 0.  1.
        -11    1    1    2    0    0  0.14057077547E+02  0.44558253855E+02 -0.41963361580E+01  0.46911071752E+02  0.00000000000E+00 0. -1.
         11    1    1    2    0    0 -0.59234858639E+02 -0.95949781084E+01  0.33201746857E+01  0.60098715817E+02  0.00000000000E+00 0.  1.
</event>
<event>
 7    1  0.2723366E-009  0.1386209E+03  0.7561462E-02  0.1215197E+00
          1   -1    0    0  501    0  0.00000000000E+00  0.00000000000E+00  0.29861510799E+02  0.29861510799E+02  0.00000000000E+00 0. -1.
         -1   -1    0    0    0  501 -0.00000000000E+00 -0.00000000000E+00 -0.86633101837E+03  0.86633101837E+03  0.00000000000E+00 0.  1.
         25    2    1    2    0    0 -0.80507612483E+02  0.31830788850E+02 -0.67011464415E+03  0.68716503898E+03  0.12508988651E+03 0.  0.
          5    1    3    3  502    0  0.13863934560E+02  0.52201614174E+02 -0.19902121281E+03  0.20626229116E+03  0.41800000000E+01 0.  1.
         -5    1    3    3    0  502 -0.94371547043E+02 -0.20370825324E+02 -0.47109343134E+03  0.48090274783E+03  0.41800000000E+01 0.  1.
        -11    1    1    2    0    0  0.13711640214E+02 -0.54265182415E+02 -0.78384639510E+02  0.96316513699E+02  0.00000000000E+00 0.  1.
         11    1    1    2    0    0  0.66795972269E+02  0.22434393565E+02 -0.87970223906E+02  0.11271097648E+03  0.00000000000E+00 0. -1.
</event>
<event>
 7    1  0.2723366E-009  0.1668554E+03  0.7561462E-02  0.1181167E+00
         -1   -1    0    0    0  501 -0.00000000000E+00  0.00000000000E+00  0.20846286455E+03  0.20846286455E+03  0.00000000000E+00 0.  1.
          1   -1    0    0  501    0  0.00000000000E+00 -0.00000000000E+00 -0.21793467748E+03  0.21793467748E+03  0.00000000000E+00 0. -1.
         25    2    1    2    0    0 -0.16060092491E+02  0.15801356145E+03 -0.10065934610E+03  0.22584550899E+03  0.12509067831E+03 0.  0.
          5    1    3    3  502    0 -0.14869443275E+02  0.77124497327E+00 -0.61948822156E+02  0.63850012753E+02  0.41800000000E+01 0.  1.
         -5    1    3    3    0  502 -0.11906492160E+01  0.15724231647E+03 -0.38710523948E+02  0.16199549623E+03  0.41800000000E+01 0.  1.
        -11    1    1    2    0    0  0.60638796538E+01 -0.14156936729E+03  0.10542340997E+03  0.17661469859E+03  0.00000000000E+00 0.  1.
         11    1    1    2    0    0  0.99962128372E+01 -0.16444194161E+02 -0.14235876791E+02  0.23937334453E+02  0.00000000000E+00 0. -1.
</event>
<event>
 7    1  0.2723366E-009  0.3117092E+03  0.7561462E-02  0.1079529E+00
         -1   -1    0    0    0  501 -0.00000000000E+00  0.00000000000E+00  0.32605163856E+03  0.32605163856E+03  0.00000000000E+00 0.  1.
          1   -1    0    0  501    0  0.00000000000E+00 -0.00000000000E+00 -0.32358593553E+03  0.32358593553E+03  0.00000000000E+00 0. -1.
         25    2    1    2    0    0  0.10751501790E+03  0.28457608019E+03  0.32664440219E+02  0.33053892241E+03  0.12508392816E+03 0.  0.
          5    1    3    3  502    0  0.65553470042E+02  0.25512807720E+03 -0.10110801469E+02  0.26364235987E+03  0.41800000000E+01 0.  1.
         -5    1    3    3    0  502  0.41961547861E+02  0.29448002989E+02  0.42775241689E+02  0.66896562546E+02  0.41800000000E+01 0.  1.
        -11    1    1    2    0    0 -0.10055611213E+03 -0.20177481717E+03 -0.55621656950E+02  0.23220331016E+03  0.00000000000E+00 0. -1.
         11    1    1    2    0    0 -0.69589057693E+01 -0.82801263022E+02  0.25422919766E+02  0.86895341515E+02  0.00000000000E+00 0.  1.
</event>
<event>
 7    1  0.2723366E-009  0.9534996E+02  0.7561462E-02  0.1290390E+00
         -1   -1    0    0    0  501 -0.00000000000E+00  0.00000000000E+00  0.70391613819E+02  0.70391613819E+02  0.00000000000E+00 0.  1.
          1   -1    0    0  501    0  0.00000000000E+00 -0.00000000000E+00 -0.20896577303E+03  0.20896577303E+03  0.00000000000E+00 0. -1.
         25    2    1    2    0    0 -0.20515094779E+02 -0.30369400286E+02 -0.29399842293E+02  0.13362335668E+03  0.12509069164E+03 0.  0.
          5    1    3    3  502    0 -0.70977445709E+02 -0.42135737092E+01 -0.43160200971E+01  0.71355815686E+02  0.41800000000E+01 0.  1.
         -5    1    3    3    0  502  0.50462350930E+02 -0.26155826576E+02 -0.25083822196E+02  0.62267540992E+02  0.41800000000E+01 0.  1.
        -11    1    1    2    0    0  0.37529929541E+02  0.22256076983E+02 -0.11734097401E+03  0.12519078542E+03  0.00000000000E+00 0. -1.
         11    1    1    2    0    0 -0.17014834762E+02  0.81133233024E+01  0.81666570835E+01  0.20543244751E+02  0.00000000000E+00 0.  1.
</event>
<event>
 7    1  0.2723366E-009  0.1181834E+03  0.7561462E-02  0.1246124E+00
          2   -1    0    0  501    0  0.00000000000E+00  0.00000000000E+00  0.35011166771E+03  0.35011166771E+03  0.00000000000E+00 0. -1.
         -2   -1    0    0    0  501 -0.00000000000E+00 -0.00000000000E+00 -0.62350206353E+02  0.62350206353E+02  0.00000000000E+00 0.  1.
         25    2    1    2    0    0 -0.67882773588E+02 -0.49137281317E+02  0.79848910794E+02  0.17043029577E+03  0.12509234107E+03 0.  0.
          5    1    3    3  502    0 -0.28024719382E+02  0.18603000085E+02  0.85045416524E+02  0.91551361434E+02  0.41800000000E+01 0. -1.
         -5    1    3    3    0  502 -0.39858054206E+02 -0.67740281402E+02 -0.51965057306E+01  0.78878934332E+02  0.41800000000E+01 0. -1.
        -11    1    1    2    0    0  0.24751803280E+02  0.71155272278E+02  0.12092762288E+03  0.14247531194E+03  0.00000000000E+00 0.  1.
         11    1    1    2    0    0  0.43130970308E+02 -0.22017990961E+02  0.86984927685E+02  0.99556266352E+02  0.00000000000E+00 0. -1.
</event>
<event>
 7    1  0.2723366E-009  0.1008117E+03  0.7561462E-02  0.1278598E+00
         -1   -1    0    0    0  501 -0.00000000000E+00  0.00000000000E+00  0.12214511213E+03  0.12214511213E+03  0.00000000000E+00 0.  1.
          1   -1    0    0  501    0  0.00000000000E+00 -0.00000000000E+00 -0.12622569411E+03  0.12622569411E+03  0.00000000000E+00 0. -1.
         25    2    1    2    0    0  0.53366157794E+02 -0.21116916169E+02  0.15772366581E+02  0.13852553230E+03  0.12508670834E+03 0.  0.
          5    1    3    3  502    0  0.55895403422E+01  0.45740687020E+02 -0.17913666605E+02  0.49616784071E+02  0.41800000000E+01 0. -1.
         -5    1    3    3    0  502  0.47776617452E+02 -0.66857603188E+02  0.33686033186E+02  0.88908748226E+02  0.41800000000E+01 0. -1.
        -11    1    1    2    0    0 -0.47873548787E+02  0.34232767161E+02 -0.49540085827E+02  0.76928402588E+02  0.00000000000E+00 0. -1.
         11    1    1    2    0    0 -0.54926090075E+01 -0.13115850993E+02  0.29687137268E+02  0.32916871360E+02  0.00000000000E+00 0.  1.
</event>
<event>
 7    1  0.2723366E-009  0.1087424E+03  0.7561462E-02  0.1262917E+00
         -2   -1    0    0    0  501 -0.00000000000E+00  0.00000000000E+00  0.30761998296E+02  0.30761998296E+02  0.00000000000E+00 0. -1.
          2   -1    0    0  501    0  0.00000000000E+00 -0.00000000000E+00 -0.52620153073E+03  0.52620153073E+03  0.00000000000E+00 0.  1.
         25    2    1    2    0    0 -0.59729470431E+02  0.95950626711E+00 -0.32326518547E+03  0.35173415122E+03  0.12509197698E+03 0.  0.
          5    1    3    3  502    0 -0.45901438789E+02  0.46625097294E+02 -0.27871446880E+03  0.28632161864E+03  0.41800000000E+01 0. -1.
         -5    1    3    3    0  502 -0.13828031642E+02 -0.45665591027E+02 -0.44550716674E+02  0.65412532584E+02  0.41800000000E+01 0. -1.
        -11    1    1    2    0    0 -0.15077037075E+02  0.21193762248E+02 -0.81812714417E+02  0.85847614093E+02  0.00000000000E+00 0.  1.
         11    1    1    2    0    0  0.74806507505E+02 -0.22153268516E+02 -0.90361632543E+02  0.11938176371E+03  0.00000000000E+00 0. -1.
</event>
<event>
 7    1  0.2723366E-009  0.1035719E+03  0.7561462E-02  0.1272959E+00
         -3   -1    0    0    0  501 -0.00000000000E+00  0.00000000000E+00  0.12240670775E+03  0.12240670775E+03  0.00000000000E+00 0. -1.
          3   -1    0    0  501    0  0.00000000000E+00 -0.00000000000E+00 -0.15318912014E+03  0.15318912014E+03  0.00000000000E+00 0.  1.
         25    2    1    2    0    0 -0.13349201808E+01 -0.77905968436E+02  0.10604470188E+02  0.14775448132E+03  0.12509120686E+03 0.  0.
          5    1    3    3  502    0  0.23918104285E+02 -0.24629310249E+02  0.60972187398E+02  0.70098207339E+02  0.41800000000E+01 0.  1.
         -5    1    3    3    0  502 -0.25253024465E+02 -0.53276658186E+02 -0.50367717211E+02  0.77656273985E+02  0.41800000000E+01 0.  1.
        -11    1    1    2    0    0 -0.39048508165E+02  0.53608573807E+02 -0.18889895197E+01  0.66349328987E+02  0.00000000000E+00 0. -1.
         11    1    1    2    0    0  0.40383428346E+02  0.24297394628E+02 -0.39497893056E+02  0.61492017584E+02  0.00000000000E+00 0.  1.
</event>
<event>
 7    1  0.2723366E-009  0.3226980E+03  0.7561462E-02  0.1074414E+00
          2   -1    0    0  501    0  0.00000000000E+00  0.00000000000E+00  0.65196487396E+03  0.65196487396E+03  0.00000000000E+00 0. -1.
         -2   -1    0    0    0  501 -0.00000000000E+00 -0.00000000000E+00 -0.22089955094E+03  0.22089955094E+03  0.00000000000E+00 0.  1.
         25    2    1    2    0    0  0.31506029549E+02  0.31434593805E+03  0.10216083058E+02  0.33993822061E+03  0.12509047450E+03 0.  0.
          5    1    3    3  502    0  0.44088092847E+02  0.21508857554E+03  0.60642015542E+02  0.22781962538E+03  0.41800000000E+01 0. -1.
         -5    1    3    3    0  502 -0.12582063298E+02  0.99257362511E+02 -0.50425932484E+02  0.11211859523E+03  0.41800000000E+01 0. -1.
        -11    1    1    2    0    0  0.19600509669E+02 -0.19293064826E+03  0.27353736926E+03  0.33530449952E+03  0.00000000000E+00 0. -1.
         11    1    1    2    0    0 -0.51106539218E+02 -0.12141528979E+03  0.14731187070E+03  0.19762170477E+03  0.00000000000E+00 0.  1.
</event>
<event>
 7    1  0.2723366E-009  0.1173600E+03  0.7561462E-02  0.1247517E+00
          1   -1    0    0  501    0  0.00000000000E+00  0.00000000000E+00  0.35253930413E+02  0.35253930413E+02  0.00000000000E+00 0.  1.
         -1   -1    0    0    0  501 -0.00000000000E+00 -0.00000000000E+00 -0.45738123695E+03  0.45738123695E+03  0.00000000000E+00 0. -1.
         25    2    1    2    0    0 -0.41442636149E+02 -0.33822288746E+02 -0.30743655475E+03  0.33619547135E+03  0.12509484583E+03 0.  0.
          5    1    3    3  502    0  0.29693630667E+02  0.24235601633E+02 -0.13973293446E+03  0.14495461863E+03  0.41800000000E+01 0.  1.
         -5    1    3    3    0  502 -0.71136266816E+02 -0.58057890380E+02 -0.16770362029E+03  0.19124085272E+03  0.41800000000E+01 0.  1.
        -11    1    1    2    0    0  0.32617678497E+02  0.64525856302E+02 -0.93116467369E+02  0.11789052370E+03  0.00000000000E+00 0.  1.
         11    1    1    2    0    0  0.88249576514E+01 -0.30703567556E+02 -0.21574284419E+02  0.38549172318E+02  0.00000000000E+00 0. -1.
</event>
<event>
 7    1  0.2723366E-009  0.2100878E+03  0.7561462E-02  0.1141496E+00
          3   -1    0    0  501    0  0.00000000000E+00  0.00000000000E+00  0.17001941674E+03  0.17001941674E+03  0.00000000000E+00 0. -1.
         -3   -1    0    0    0  501 -0.00000000000E+00 -0.00000000000E+00 -0.34625977993E+03  0.34625977993E+03  0.00000000000E+00 0.  1.
         25    2    1    2    0    0  0.18918250954E+03 -0.22718277588E+02 -0.20057774965E+03  0.30362012245E+03  0.12509037952E+03 0.  0.
          5    1    3    3  502    0  0.14865791265E+03 -0.70502629443E+02 -0.13546868825E+03  0.21316433484E+03  0.41800000000E+01 0.  1.
         -5    1    3    3    0  502  0.40524596895E+02  0.47784351855E+02 -0.65109061401E+02  0.90455787610E+02  0.41800000000E+01 0.  1.
        -11    1    1    2    0    0 -0.77299523293E+02 -0.52381949759E+01  0.52946875441E+02  0.93840431621E+02  0.00000000000E+00 0. -1.
         11    1    1    2    0    0 -0.11188298625E+03  0.27956472563E+02 -0.28609488978E+02  0.11881864260E+03  0.00000000000E+00 0.  1.
</event>
<event>
 7    1  0.2723366E-009  0.1009830E+03  0.7561462E-02  0.1278242E+00
         -3   -1    0    0    0  501 -0.00000000000E+00  0.00000000000E+00  0.10241959189E+03  0.10241959189E+03  0.00000000000E+00 0.  1.
          3   -1    0    0  501    0  0.00000000000E+00 -0.00000000000E+00 -0.19958526094E+03  0.19958526094E+03  0.00000000000E+00 0. -1.
         25    2    1    2    0    0  0.75292379592E+02  0.49223027803E+02 -0.11653470894E+03  0.19317639313E+03  0.12507970093E+03 0.  0.
          5    1    3    3  502    0  0.23794810220E+02 -0.68185260433E+01  0.23085550293E+02  0.34104256672E+02  0.41800000000E+01 0. -1.
         -5    1    3    3    0  502  0.51497569372E+02  0.56041553846E+02 -0.13962025923E+03  0.15907213645E+03  0.41800000000E+01 0. -1.
        -11    1    1    2    0    0 -0.58144490473E+02 -0.11597290003E+02  0.29548295301E+02  0.66244853861E+02  0.00000000000E+00 0.  1.
         11    1    1    2    0    0 -0.17147889119E+02 -0.37625737799E+02 -0.10179255418E+02  0.42583605848E+02  0.00000000000E+00 0. -1.
</event>
<event>
 7    1  0.2723366E-009  0.9765656E+02  0.7561462E-02  0.1285302E+00
          4   -1    0    0  501    0  0.00000000000E+00  0.00000000000E+00  0.20573444027E+03  0.20573444027E+03  0.00000000000E+00 0.  1.
         -4   -1    0    0    0  501 -0.00000000000E+00 -0.00000000000E+00 -0.69612085843E+02  0.69612085843E+02  0.00000000000E+00 0. -1.
         25    2    1    2    0    0 -0.33853774922E+01 -0.37354835963E+02  0.76077298499E+02  0.15113588092E+03  0.12508978616E+03 0.  0.
          5    1    3    3  502    0 -0.60803550925E+02 -0.34504851387E+02  0.57373966225E+02  0.90536738260E+02  0.41800000000E+01 0.  1.
         -5    1    3    3    0  502  0.57418173433E+02 -0.28499845754E+01  0.18703332274E+02  0.60599142656E+02  0.41800000000E+01 0.  1.
        -11    1    1    2    0    0  0.12695784782E+02 -0.11964689233E+02  0.70768691968E+02  0.72887203970E+02  0.00000000000E+00 0.  1.
         11    1    1    2    0    0 -0.93104072903E+01  0.49319525196E+02 -0.10723636041E+02  0.51323441227E+02  0.00000000000E+00 0. -1.
</event>
<event>
 7    1  0.2723366E-009  0.1345632E+03  0.7561462E-02  0.1220838E+00
         -1   -1    0    0    0  501 -0.00000000000E+00  0.00000000000E+00  0.98562466759E+02  0.98562466759E+02  0.00000000000E+00 0.  1.
          1   -1    0    0  501    0  0.00000000000E+00 -0.00000000000E+00 -0.26332618789E+03  0.26332618789E+03  0.00000000000E+00 0. -1.
         25    2    1    2    0    0 -0.10929320581E+03  0.24576505393E+02 -0.13341194292E+03  0.21446646210E+03  0.12509239544E+03 0.  0.
          5    1    3    3  502    0 -0.52690263077E+02 -0.40679066974E+02 -0.15911023480E+02  0.68568822224E+02  0.41800000000E+01 0.  1.
         -5    1    3    3    0  502 -0.56602942732E+02  0.65255572368E+02 -0.11750091944E+03  0.14589763987E+03  0.41800000000E+01 0.  1.
        -11    1    1    2    0    0  0.21079735017E+02 -0.17589478091E+02  0.29291658818E+02  0.40146559556E+02  0.00000000000E+00 0.  1.
         11    1    1    2    0    0  0.88213470793E+02 -0.69870273019E+01 -0.60643437030E+02  0.10727563300E+03  0.00000000000E+00 0. -1.
</event>
<event>
 7    1  0.2723366E-009  0.1554147E+03  0.7561462E-02  0.1193973E+00
          2   -1    0    0  501    0  0.00000000000E+00  0.00000000000E+00  0.20625885668E+03  0.20625885668E+03  0.00000000000E+00 0. -1.
         -2   -1    0    0    0  501 -0.00000000000E+00 -0.00000000000E+00 -0.14105331020E+03  0.14105331020E+03  0.00000000000E+00 0.  1.
         25    2    1    2    0    0  0.12865231051E+03 -0.65329259478E+01  0.98017426185E+01  0.17982616338E+03  0.12508908329E+03 0.  0.
          5    1    3    3  502    0  0.12291815943E+03 -0.50579524190E+02  0.18821778567E+02  0.13430894957E+03  0.41800000000E+01 0. -1.
         -5    1    3    3    0  502  0.57341510803E+01  0.44046598243E+02 -0.90200359486E+01  0.45517213819E+02  0.41800000000E+01 0. -1.
        -11    1    1    2    0    0 -0.10607613539E+03 -0.80074383143E+01  0.51356466570E+00  0.10637917708E+03  0.00000000000E+00 0.  1.
         11    1    1    2    0    0 -0.22576175122E+02  0.14540364262E+02  0.54890239191E+02  0.61106826415E+02  0.00000000000E+00 0. -1.
</event>
<event>
 7    1  0.2723366E-009  0.1906322E+03  0.7561462E-02  0.1157892E+00
          1   -1    0    0  501    0  0.00000000000E+00  0.00000000000E+00  0.19773203380E+03  0.19773203380E+03  0.00000000000E+00 0. -1.
         -1   -1    0    0    0  501 -0.00000000000E+00 -0.00000000000E+00 -0.20521789417E+03  0.20521789417E+03  0.00000000000E+00 0.  1.
         25    2    1    2    0    0 -0.12869067105E+03 -0.10828209311E+03  0.11971933169E+02  0.20995198388E+03  0.12510079076E+03 0.  0.
          5    1    3    3  502    0 -0.52785870051E+02 -0.11059357252E+03  0.39879503150E+02  0.12893848739E+03  0.41800000000E+01 0.  1.
         -5    1    3    3    0  502 -0.75904800998E+02  0.23114794072E+01 -0.27907569981E+02  0.81013496491E+02  0.41800000000E+01 0.  1.
        -11    1    1    2    0    0  0.16586391709E+02 -0.10207933522E+02 -0.22621015516E+02  0.29849968839E+02  0.00000000000E+00 0.  1.
         11    1    1    2    0    0  0.11210427934E+03  0.11849002663E+03  0.31632219790E+01  0.16314797526E+03  0.00000000000E+00 0. -1.
</event>
<event>
 7    1  0.2723366E-009  0.9841218E+02  0.7561462E-02  0.1283671E+00
          1   -1    0    0  501    0  0.00000000000E+00  0.00000000000E+00  0.18799174583E+03  0.18799174583E+03  0.00000000000E+00 0. -1.
         -1   -1    0    0    0  501 -0.00000000000E+00 -0.00000000000E+00 -0.64827270477E+02  0.64827270477E+02  0.00000000000E+00 0.  1.
         25    2    1    2    0    0 -0.12395444268E+02  0.70272838160E+01  0.48236534721E+02  0.13482154607E+03  0.12508819388E+03 0.  0.
          5    1    3    3  502    0 -0.59797244472E+02  0.33879337034E+02  0.13765283940E+02  0.70217343771E+02  0.41800000000E+01 0. -1.
         -5    1    3    3    0  502  0.47401800205E+02 -0.26852053218E+02  0.34471250781E+02  0.64604202302E+02  0.41800000000E+01 0. -1.
        -11    1    1    2    0    0  0.73211927448E+01  0.32583502035E+02  0.34668926683E+00  0.33397674492E+02  0.00000000000E+00 0.  1.
         11    1    1    2    0    0  0.50742515227E+01 -0.39610785851E+02  0.74581251362E+02  0.84599795738E+02  0.00000000000E+00 0. -1.
</event>
<event>
 7    1  0.2723366E-009  0.8832449E+02  0.7561462E-02  0.1306961E+00
         -1   -1    0    0    0  501 -0.00000000000E+00  0.00000000000E+00  0.49706156926E+02  0.49706156926E+02  0.00000000000E+00 0.  1.
          1   -1    0    0  501    0  0.00000000000E+00 -0.00000000000E+00 -0.30454827393E+03  0.30454827393E+03  0.00000000000E+00 0. -1.
         25    2    1    2    0    0  0.15244631969E+01  0.24954724728E+01 -0.22775748947E+03  0.25986451993E+03  0.12509014087E+03 0.  0.
          5    1    3    3  502    0 -0.78505540066E+01 -0.43098501159E+02 -0.20151811609E+03  0.20626714598E+03  0.41800000000E+01 0.  1.
         -5    1    3    3    0  502  0.93750172035E+01  0.45593973632E+02 -0.26239373378E+02  0.53597373951E+02  0.41800000000E+01 0.  1.
        -11    1    1    2    0    0  0.34163918666E+02 -0.26208680008E+02 -0.28296694037E+02  0.51524471271E+02  0.00000000000E+00 0. -1.
         11    1    1    2    0    0 -0.35688381863E+02  0.23713207535E+02  0.12120664952E+01  0.42865439654E+02  0.00000000000E+00 0.  1.
</event>
<event>
 7    1  0.2723366E-009  0.1607585E+03  0.7561462E-02  0.1187843E+00
         -2   -1    0    0    0  501 -0.00000000000E+00  0.00000000000E+00  0.96757931069E+02  0.96757931069E+02  0.00000000000E+00 0.  1.
          2   -1    0    0  501    0  0.00000000000E+00 -0.00000000000E+00 -0.35243838214E+03  0.35243838214E+03  0.00000000000E+00 0. -1.
         25    2    1    2    0    0  0.64599442169E+02  0.12943279592E+03 -0.63617244471E+02  0.20154496142E+03  0.12508909261E+03 0.  0.
          5    1    3    3  502    0 -0.23214351169E+02  0.43779808586E+02 -0.61098782745E+02  0.78778876566E+02  0.41800000000E+01 0. -1.
         -5    1    3    3    0  502  0.87813793339E+02  0.85652987337E+02 -0.25184617260E+01  0.12276608485E+03  0.41800000000E+01 0. -1.
        -11    1    1    2    0    0 -0.58225344666E+02 -0.78604399468E+02 -0.87630931320E+02  0.13133172694E+03  0.00000000000E+00 0.  1.
         11    1    1    2    0    0 -0.63740975036E+01 -0.50828396455E+02 -0.10443227528E+03  0.11631962485E+03  0.00000000000E+00 0. -1.
</event>
<event>
 7    1  0.2723366E-009  0.8234245E+02  0.7561462E-02  0.1322532E+00
         -1   -1    0    0    0  501 -0.00000000000E+00  0.00000000000E+00  0.89963613172E+02  0.89963613172E+02  0.00000000000E+00 0.  1.
          1   -1    0    0  501    0  0.00000000000E+00 -0.00000000000E+00 -0.21733684055E+03  0.21733684055E+03  0.00000000000E+00 0. -1.
         25    2    1    2    0    0  0.64338348193E+02 -0.44853631743E+02 -0.11491746851E+03  0.18709492803E+03  0.12508883322E+03 0.  0.
          5    1    3    3  502    0  0.94819756301E+01 -0.26065718708E+02 -0.12498562204E+03  0.12809452631E+03  0.41800000000E+01 0. -1.
         -5    1    3    3    0  502  0.54856372563E+02 -0.18787913035E+02  0.10068153532E+02  0.59000401715E+02  0.41800000000E+01 0. -1.
        -11    1    1    2    0    0 -0.51259094605E+02  0.37325059009E+02  0.33585527437E+02  0.71754041440E+02  0.00000000000E+00 0.  1.
         11    1    1    2    0    0 -0.13079253589E+02  0.75285727348E+01 -0.46041286303E+02  0.48451484252E+02  0.00000000000E+00 0. -1.
</event>
<event>
 7    1  0.2723366E-009  0.1258182E+03  0.7561462E-02  0.1233796E+00
          2   -1    0    0  501    0  0.00000000000E+00  0.00000000000E+00  0.11192577958E+03  0.11192577958E+03  0.00000000000E+00 0. -1.
         -2   -1    0    0    0  501 -0.00000000000E+00 -0.00000000000E+00 -0.21000303777E+03  0.21000303777E+03  0.00000000000E+00 0.  1.
         25    2    1    2    0    0 -0.10835774571E+03 -0.96156825190E+01 -0.64327385473E+02  0.17782100430E+03  0.12509370345E+03 0.  0.
          5    1    3    3  502    0  0.28847451636E+01 -0.47481754502E+01  0.30637281399E+02  0.31416275022E+02  0.41800000000E+01 0.  1.
         -5    1    3    3    0  502 -0.11124249088E+03 -0.48675070689E+01 -0.94964666872E+02  0.14640472928E+03  0.41800000000E+01 0.  1.
        -11    1    1    2    0    0  0.37194462455E+01 -0.23275194297E+02  0.10537216641E+02  0.25818634442E+02  0.00000000000E+00 0. -1.
         11    1    1    2    0    0  0.10463829947E+03  0.32890876816E+02 -0.44287089357E+02  0.11828917861E+03  0.00000000000E+00 0.  1.
</event>
<event>
 7    1  0.2723366E-009  0.1135344E+03  0.7561462E-02  0.1254161E+00
         -1   -1    0    0    0  501 -0.00000000000E+00  0.00000000000E+00  0.64328278183E+02  0.64328278183E+02  0.00000000000E+00 0.  1.
          1   -1    0    0  501    0  0.00000000000E+00 -0.00000000000E+00 -0.22222574207E+03  0.22222574207E+03  0.00000000000E+00 0. -1.
         25    2    1    2    0    0 -0.45851656964E+02 -0.17784516460E+02 -0.86686931710E+02  0.15994140334E+03  0.12509182587E+03 0.  0.
          5    1    3    3  502    0 -0.38895065022E+02 -0.67229822935E+02 -0.75916989331E+02  0.10869009543E+03  0.41800000000E+01 0.  1.
         -5    1    3    3    0  502 -0.69565919422E+01  0.49445306475E+02 -0.10769942379E+02  0.51251307912E+02  0.41800000000E+01 0.  1.
        -11    1    1    2    0    0  0.61443219191E+02  0.39055906220E+02 -0.32400850256E+02  0.79689698785E+02  0.00000000000E+00 0.  1.
         11    1    1    2    0    0 -0.15591562226E+02 -0.21271389760E+02 -0.38809681923E+02  0.46922918131E+02  0.00000000000E+00 0. -1.
</event>
<event>
 7    1  0.2723366E-009  0.1409783E+03  0.7561462E-02  0.1212019E+00
          2   -1    0    0  501    0  0.00000000000E+00  0.00000000000E+00  0.81947951488E+03  0.81947951488E+03  0.00000000000E+00 0. -1.
         -2   -1    0    0    0  501 -0.00000000000E+00 -0.00000000000E+00 -0.30244113112E+02  0.30244113112E+02  0.00000000000E+00 0.  1.
         25    2    1    2    0    0  0.11306814813E+03 -0.11294404561E+02  0.40259622528E+03  0.43662955575E+03  0.12509867565E+03 0.  0.
          5    1    3    3  502    0 -0.84246055002E+01 -0.12119426370E+02 -0.75273875838E+00  0.15358824467E+02  0.41800000000E+01 0.  1.
         -5    1    3    3    0  502  0.12149275363E+03  0.82502180905E+00  0.40334896404E+03  0.42127073128E+03  0.41800000000E+01 0.  1.
        -11    1    1    2    0    0 -0.32675906475E+02  0.46870583682E+02  0.16758885926E+03  0.17706098448E+03  0.00000000000E+00 0. -1.
         11    1    1    2    0    0 -0.80392241653E+02 -0.35576179121E+02  0.21905031724E+03  0.23603308777E+03  0.00000000000E+00 0.  1.
</event>
<event>
 7    1  0.2723366E-009  0.1809795E+03  0.7561462E-02  0.1166858E+00
         -2   -1    0    0    0  501 -0.00000000000E+00  0.00000000000E+00  0.35334443168E+03  0.35334443168E+03  0.00000000000E+00 0. -1.
          2   -1    0    0  501    0  0.00000000000E+00 -0.00000000000E+00 -0.24294555857E+03  0.24294555857E+03  0.00000000000E+00 0.  1.
         25    2    1    2    0    0 -0.11663352993E+03 -0.10797327676E+03  0.27817393969E+03  0.34393481968E+03  0.12509520640E+03 0.  0.
          5    1    3    3  502    0 -0.90461424653E+01 -0.65417035719E+02  0.35578895634E+02  0.75130230070E+02  0.41800000000E+01 0. -1.
         -5    1    3    3    0  502 -0.10758738746E+03 -0.42556241041E+02  0.24259504406E+03  0.26880458961E+03  0.41800000000E+01 0. -1.
        -11    1    1    2    0    0  0.13032921196E+03  0.98384819612E+02 -0.12263071682E+03  0.20421451693E+03  0.00000000000E+00 0. -1.
         11    1    1    2    0    0 -0.13695682032E+02  0.95884571487E+01 -0.45144349769E+02  0.48140653640E+02  0.00000000000E+00 0.  1.
</event>
<event>
 7    1  0.2723366E-009  0.8469233E+02  0.7561462E-02  0.1316239E+00
          1   -1    0    0  501    0  0.00000000000E+00  0.00000000000E+00  0.45032099902E+02  0.45032099902E+02  0.00000000000E+00 0. -1.
         -1   -1    0    0    0  501 -0.00000000000E+00 -0.00000000000E+00 -0.36322855637E+03  0.36322855637E+03  0.00000000000E+00 0.  1.
         25    2    1    2    0    0 -0.55268894831E+02 -0.10364949642E+02 -0.17942626692E+03  0.22583800698E+03  0.12508771811E+03 0.  0.
          5    1    3    3  502    0 -0.53809502604E+02  0.35561303189E+02 -0.33516985765E+02  0.72807483062E+02  0.41800000000E+01 0. -1.
         -5    1    3    3    0  502 -0.14593922265E+01 -0.45926252831E+02 -0.14590928115E+03  0.15303052392E+03  0.41800000000E+01 0. -1.
        -11    1    1    2    0    0  0.28591043912E+02 -0.30455137420E+01 -0.14831424472E+03  0.15107560403E+03  0.00000000000E+00 0.  1.
         11    1    1    2    0    0  0.26677850919E+02  0.13410463384E+02  0.95440551653E+01  0.31347045265E+02  0.00000000000E+00 0. -1.
</event>
<event>
 7    1  0.3657442E-009  0.1655180E+03  0.7561462E-02  0.1182604E+00
          2   -1    0    0  501    0  0.00000000000E+00  0.00000000000E+00  0.90551906567E+03  0.90551906567E+03  0.00000000000E+00 0. -1.
         -2   -1    0    0    0  501 -0.00000000000E+00 -0.00000000000E+00 -0.42281687789E+02  0.42281687789E+02  0.00000000000E+00 0.  1.
         25    2    1    2    0    0 -0.83351187184E+02  0.11631849421E+03  0.63807766339E+03  0.66578391693E+03  0.12509079515E+03 0.  0.
          5    1    3    3  502    0  0.11131673929E+02  0.34661544378E+02  0.37825213635E+02  0.52664561232E+02  0.41800000000E+01 0. -1.
         -5    1    3    3    0  502 -0.94482861113E+02  0.81656949827E+02  0.60025244975E+03  0.61311935570E+03  0.41800000000E+01 0. -1.
        -11    1    1    2    0    0 -0.17378902631E+02 -0.38210495493E+02  0.64078524301E+02  0.76603691158E+02  0.00000000000E+00 0. -1.
         11    1    1    2    0    0  0.10073008981E+03 -0.78107998712E+02  0.16108119019E+03  0.20541314537E+03  0.00000000000E+00 0.  1.
</event>
<event>
 7    1  0.2723366E-009  0.1543739E+03  0.7561462E-02  0.1195199E+00
          2   -1    0    0  501    0  0.00000000000E+00  0.00000000000E+00  0.13594744780E+04  0.13594744780E+04  0.00000000000E+00 0. -1.
         -2   -1    0    0    0  501 -0.00000000000E+00 -0.00000000000E+00 -0.27300226444E+02  0.27300226444E+02  0.00000000000E+00 0.  1.
         25    2    1    2    0    0 -0.11637566630E+03 -0.66581155489E+02  0.10023731277E+04  0.10190074798E+04  0.12509200882E+03 0.  0.
          5    1    3    3  502    0  0.84532353431E+01 -0.66643949202E+01  0.42835461497E+03  0.42851023315E+03  0.41800000000E+01 0.  1.
         -5    1    3    3    0  502 -0.12482890164E+03 -0.59916760569E+02  0.57401851276E+03  0.59049724662E+03  0.41800000000E+01 0.  1.
        -11    1    1    2    0    0  0.90095387669E+02  0.33041031470E+01  0.14579625459E+03  0.17141949664E+03  0.00000000000E+00 0. -1.
         11    1    1    2    0    0  0.26280278629E+02  0.63277052342E+02  0.18400486920E+03  0.19634772799E+03  0.00000000000E+00 0.  1.
</event>
<event>
 7    1  0.2723366E-009  0.2050817E+03  0.7561462E-02  0.1145521E+00
          2   -1    0    0  501    0  0.00000000000E+00  0.00000000000E+00  0.10796364682E+04  0.10796364682E+04  0.00000000000E+00 0. -1.
         -2   -1    0    0    0  501 -0.00000000000E+00 -0.00000000000E+00 -0.42809312467E+02  0.42809312467E+02  0.00000000000E+00 0.  1.
         25    2    1    2    0    0 -0.18277832428E+03  0.27935182561E+02  0.60473655763E+03  0.64462662836E+03  0.12509554591E+03 0.  0.
          5    1    3    3  502    0 -0.91331381494E+02  0.75887703789E+02  0.29160384065E+03  0.31488194155E+03  0.41800000000E+01 0.  1.
         -5    1    3    3    0  502 -0.91446942788E+02 -0.47952521227E+02  0.31313271698E+03  0.32974468681E+03  0.41800000000E+01 0.  1.
        -11    1    1    2    0    0  0.26469017843E+02 -0.16686840377E+02  0.16671152874E+03  0.16962250252E+03  0.00000000000E+00 0.  1.
         11    1    1    2    0    0  0.15630930644E+03 -0.11248342184E+02  0.26537906936E+03  0.30819664978E+03  0.00000000000E+00 0. -1.
</event>
<event>
 7    1  0.2723366E-009  0.1290815E+03  0.7561462E-02  0.1228825E+00
          1   -1    0    0  501    0  0.00000000000E+00  0.00000000000E+00  0.62049354742E+03  0.62049354742E+03  0.00000000000E+00 0. -1.
         -1   -1    0    0    0  501 -0.00000000000E+00 -0.00000000000E+00 -0.35560970815E+02  0.35560970815E+02  0.00000000000E+00 0.  1.
         25    2    1    2    0    0  0.90582480869E+02 -0.53872380700E+00  0.41902846333E+03  0.44658405370E+03  0.12508792057E+03 0.  0.
          5    1    3    3  502    0 -0.10872713586E+02 -0.30058307855E+02  0.32203817145E+02  0.45566171778E+02  0.41800000000E+01 0.  1.
         -5    1    3    3    0  502  0.10145519446E+03  0.29519584048E+02  0.38682464618E+03  0.40101788192E+03  0.41800000000E+01 0.  1.
        -11    1    1    2    0    0 -0.48135061257E+02  0.39725897029E+02  0.50009991753E+02  0.79975810668E+02  0.00000000000E+00 0.  1.
         11    1    1    2    0    0 -0.42447419612E+02 -0.39187173222E+02  0.11589412153E+03  0.12949465387E+03  0.00000000000E+00 0. -1.
</event>
<event>
 7    1  0.2723366E-009  0.2936497E+03  0.7561462E-02  0.1088459E+00
         -2   -1    0    0    0  501 -0.00000000000E+00  0.00000000000E+00  0.68799660535E+02  0.68799660535E+02  0.00000000000E+00 0.  1.
          2   -1    0    0  501    0  0.00000000000E+00 -0.00000000000E+00 -0.13784932679E+04  0.13784932679E+04  0.00000000000E+00 0. -1.
         25    2    1    2    0    0 -0.24487743320E+03 -0.14726301768E+03 -0.74129259605E+03  0.80424758849E+03  0.12509243368E+03 0.  0.
          5    1    3    3  502    0 -0.84526504547E+02 -0.35800304569E+02 -0.40544818887E+03  0.41573079996E+03  0.41800000000E+01 0.  1.
         -5    1    3    3    0  502 -0.16035092866E+03 -0.11146271311E+03 -0.33584440718E+03  0.38851678853E+03  0.41800000000E+01 0.  1.
        -11    1    1    2    0    0  0.18033440673E+03  0.15131679052E+03 -0.42806208682E+03  0.48852269089E+03  0.00000000000E+00 0.  1.
         11    1    1    2    0    0  0.64543026475E+02 -0.40537728434E+01 -0.14033892446E+03  0.15452264902E+03  0.00000000000E+00 0. -1.
</event>
<event>
 7    1  0.2723366E-009  0.8319916E+02  0.7561462E-02  0.1320210E+00
         -1   -1    0    0    0  501 -0.00000000000E+00  0.00000000000E+00  0.11436976551E+03  0.11436976551E+03  0.00000000000E+00 0.  1.
          1   -1    0    0  501    0  0.00000000000E+00 -0.00000000000E+00 -0.13410111668E+03  0.13410111668E+03  0.00000000000E+00 0. -1.
         25    2    1    2    0    0 -0.38865313540E+02  0.30474892234E+02  0.24031821587E+02  0.13661461500E+03  0.12508714135E+03 0.  0.
          5    1    3    3  502    0 -0.66856981582E+02  0.48897302993E+02  0.47421587693E+02  0.95535760873E+02  0.41800000000E+01 0. -1.
         -5    1    3    3    0  502  0.27991668042E+02 -0.18422410760E+02 -0.23389766107E+02  0.41078854128E+02  0.41800000000E+01 0. -1.
        -11    1    1    2    0    0  0.27035381335E+02 -0.17875518796E+02 -0.71881938512E+02  0.78850866200E+02  0.00000000000E+00 0. -1.
         11    1    1    2    0    0  0.11829932205E+02 -0.12599373438E+02  0.28118765757E+02  0.33005400993E+02  0.00000000000E+00 0.  1.
</event>
<event>
 7    1  0.2723366E-009  0.1637491E+03  0.7561462E-02  0.1184528E+00
         -2   -1    0    0    0  501 -0.00000000000E+00  0.00000000000E+00  0.67967332149E+02  0.67967332149E+02  0.00000000000E+00 0. -1.
          2   -1    0    0  501    0  0.00000000000E+00 -0.00000000000E+00 -0.58617098128E+03  0.58617098128E+03  0.00000000000E+00 0.  1.
         25    2    1    2    0    0 -0.48683610332E+02 -0.14689146356E+03 -0.37668594985E+03  0.42600768265E+03  0.12507215873E+03 0.  0.
          5    1    3    3  502    0  0.11843286847E+01 -0.94403052470E+02 -0.90757670630E+02  0.13102582237E+03  0.41800000000E+01 0. -1.
         -5    1    3    3    0  502 -0.49867939017E+02 -0.52488411086E+02 -0.28592827922E+03  0.29498186028E+03  0.41800000000E+01 0. -1.
        -11    1    1    2    0    0 -0.72678571297E+01  0.30196847761E+02  0.62732208976E+01  0.31686348202E+02  0.00000000000E+00 0. -1.
         11    1    1    2    0    0  0.55951467462E+02  0.11669461579E+03 -0.14779092018E+03  0.19644428257E+03  0.00000000000E+00 0.  1.
</event>
<event>
 7    1  0.2723366E-009  0.1362026E+03  0.7561462E-02  0.1218532E+00
         -2   -1    0    0    0  501 -0.00000000000E+00  0.00000000000E+00  0.27479718114E+02  0.27479718114E+02  0.00000000000E+00 0. -1.
          2   -1    0    0  501    0  0.00000000000E+00 -0.00000000000E+00 -0.10232695103E+04  0.10232695103E+04  0.00000000000E+00 0.  1.
         25    2    1    2    0    0 -0.24178446202E+02  0.10298329591E+03 -0.76798725112E+03  0.78526537021E+03  0.12508847774E+03 0.  0.
          5    1    3    3  502    0  0.51075225014E+02  0.41395674042E+02 -0.34380082593E+03  0.35005536812E+03  0.41800000000E+01 0.  1.
         -5    1    3    3    0  502 -0.75253671216E+02  0.61587621868E+02 -0.42418642519E+03  0.43521000208E+03  0.41800000000E+01 0.  1.
        -11    1    1    2    0    0  0.36490785351E+01 -0.71609171057E+02 -0.59853039575E+02  0.93400082976E+02  0.00000000000E+00 0. -1.
         11    1    1    2    0    0  0.20529367667E+02 -0.31374124853E+02 -0.16794950148E+03  0.17208377522E+03  0.00000000000E+00 0.  1.
</event>
<event>
 7    1  0.2723366E-009  0.9673711E+02  0.7561462E-02  0.1287311E+00
          2   -1    0    0  501    0  0.00000000000E+00  0.00000000000E+00  0.67093647493E+02  0.67093647493E+02  0.00000000000E+00 0. -1.
         -2   -1    0    0    0  501 -0.00000000000E+00 -0.00000000000E+00 -0.31587675335E+03  0.31587675335E+03  0.00000000000E+00 0.  1.
         25    2    1    2    0    0 -0.56464230543E+02  0.43065066751E+02 -0.49109971306E+02  0.15199603928E+03  0.12509275507E+03 0.  0.
          5    1    3    3  502    0 -0.70428681438E+01  0.63433972103E+02 -0.69664983026E+02  0.94573532600E+02  0.41800000000E+01 0. -1.
         -5    1    3    3    0  502 -0.49421362399E+02 -0.20368905352E+02  0.20555011720E+02  0.57422506680E+02  0.41800000000E+01 0. -1.
        -11    1    1    2    0    0  0.19199481078E+02 -0.31478751231E+02 -0.18600689236E+03  0.18962620035E+03  0.00000000000E+00 0.  1.
         11    1    1    2    0    0  0.37264749464E+02 -0.11586315520E+02 -0.13666242186E+02  0.41348161210E+02  0.00000000000E+00 0. -1.
</event>
<event>
 7    1  0.2723366E-009  0.2277061E+03  0.7561462E-02  0.1128265E+00
         -2   -1    0    0    0  501 -0.00000000000E+00  0.00000000000E+00  0.15053695887E+03  0.15053695887E+03  0.00000000000E+00 0. -1.
          2   -1    0    0  501    0  0.00000000000E+00 -0.00000000000E+00 -0.62206873606E+03  0.62206873606E+03  0.00000000000E+00 0.  1.
         25    2    1    2    0    0 -0.13938352150E+03  0.14396278022E+03  0.16743984325E+02  0.23681073881E+03  0.12508363943E+03 0.  0.
          5    1    3    3  502    0 -0.26245588582E+02 -0.21721968097E+02 -0.60340611294E+01  0.34850496578E+02  0.41800000000E+01 0.  1.
         -5    1    3    3    0  502 -0.11313793292E+03  0.16568474831E+03  0.22778045454E+02  0.20196024223E+03  0.41800000000E+01 0.  1.
        -11    1    1    2    0    0  0.48635979205E+02 -0.11548006776E+03 -0.28825533165E+03  0.31431232993E+03  0.00000000000E+00 0.  1.
         11    1    1    2    0    0  0.90747542294E+02 -0.28482712451E+02 -0.20002042986E+03  0.22148262619E+03  0.00000000000E+00 0. -1.
</event>
<event>
 7    1  0.2723366E-009  0.1293032E+03  0.7561462E-02  0.1228493E+00
          1   -1    0    0  501    0  0.00000000000E+00  0.00000000000E+00  0.13482270594E+04  0.13482270594E+04  0.00000000000E+00 0. -1.
         -1   -1    0    0    0  501 -0.00000000000E+00 -0.00000000000E+00 -0.15271583372E+02  0.15271583372E+02  0.00000000000E+00 0.  1.
         25    2    1    2    0    0 -0.61708078332E+02  0.45831876963E+02  0.98655098839E+03  0.99741607548E+03  0.12509007576E+03 0.  0.
          5    1    3    3  502    0  0.35755147959E+02 -0.27114414756E+01  0.31815742662E+03  0.32019900536E+03  0.41800000000E+01 0. -1.
         -5    1    3    3    0  502 -0.97463226291E+02  0.48543318439E+02  0.66839356177E+03  0.67721707012E+03  0.41800000000E+01 0. -1.
        -11    1    1    2    0    0  0.82501502841E+02 -0.41297032239E+02  0.23119394974E+03  0.24892284998E+03  0.00000000000E+00 0.  1.
         11    1    1    2    0    0 -0.20793424510E+02 -0.45348447245E+01  0.11521053786E+03  0.11715971729E+03  0.00000000000E+00 0. -1.
</event>
<event>
 7    1  0.2723366E-009  0.9005748E+02  0.7561462E-02  0.1302713E+00
          2   -1    0    0  501    0  0.00000000000E+00  0.00000000000E+00  0.65123356110E+03  0.65123356110E+03  0.00000000000E+00 0. -1.
         -2   -1    0    0    0  501 -0.00000000000E+00 -0.00000000000E+00 -0.34161472136E+02  0.34161472136E+02  0.00000000000E+00 0.  1.
         25    2    1    2    0    0  0.23903135764E+02 -0.38958169537E+02  0.54495993598E+03  0.56099764966E+03  0.12509169525E+03 0.  0.
          5    1    3    3  502    0  0.45910104875E+02 -0.27100062449E+02  0.85543966279E+02  0.10088306935E+03  0.41800000000E+01 0. -1.
         -5    1    3    3    0  502 -0.22006969110E+02 -0.11858107089E+02  0.45941596970E+03  0.46011458031E+03  0.41800000000E+01 0. -1.
        -11    1    1    2    0    0 -0.27966685077E+02 -0.24816658877E+02  0.24409747966E+02  0.44652411220E+02  0.00000000000E+00 0.  1.
         11    1    1    2    0    0  0.40635493122E+01  0.63774828415E+02  0.47702405011E+02  0.79744972356E+02  0.00000000000E+00 0. -1.
</event>
<event>
 7    1  0.2723366E-009  0.6638286E+02  0.7561462E-02  0.1372844E+00
          1   -1    0    0  501    0  0.00000000000E+00  0.00000000000E+00  0.54904717172E+03  0.54904717172E+03  0.00000000000E+00 0. -1.
         -1   -1    0    0    0  501 -0.00000000000E+00 -0.00000000000E+00 -0.25505979397E+02  0.25505979397E+02  0.00000000000E+00 0.  1.
         25    2    1    2    0    0 -0.29409939961E+02  0.21842485446E+02  0.38069106987E+03  0.40238666552E+03  0.12508916489E+03 0.  0.
          5    1    3    3  502    0 -0.39945519586E+02  0.14925115370E+02  0.32087302928E+02  0.53530094461E+02  0.41800000000E+01 0.  1.
         -5    1    3    3    0  502  0.10535579625E+02  0.69173700756E+01  0.34860376694E+03  0.34885657106E+03  0.41800000000E+01 0.  1.
        -11    1    1    2    0    0  0.59261861549E-01  0.23025034856E+02  0.40596970729E+01  0.23380266945E+02  0.00000000000E+00 0.  1.
         11    1    1    2    0    0  0.29350678099E+02 -0.44867520302E+02  0.13879042538E+03  0.14878621865E+03  0.00000000000E+00 0. -1.
</event>
<event>
 7    1  0.2723366E-009  0.1462882E+03  0.7561462E-02  0.1205110E+00
          2   -1    0    0  501    0  0.00000000000E+00  0.00000000000E+00  0.42901210603E+03  0.42901210603E+03  0.00000000000E+00 0. -1.
         -2   -1    0    0    0  501 -0.00000000000E+00 -0.00000000000E+00 -0.62854386127E+02  0.62854386127E+02  0.00000000000E+00 0.  1.
         25    2    1    2    0    0 -0.46511480627E+02 -0.11289537939E+03  0.20624623813E+03  0.27036067078E+03  0.12509475227E+03 0.  0.
          5    1    3    3  502    0 -0.50162493357E+02 -0.11456484198E+02  0.13965337048E+03  0.14888943232E+03  0.41800000000E+01 0.  1.
         -5    1    3    3    0  502  0.36510127297E+01 -0.10143889519E+03  0.66592867642E+02  0.12147123846E+03  0.41800000000E+01 0.  1.
        -11    1    1    2    0    0 -0.13310220006E+02  0.53241632249E+02  0.11115311739E+03  0.12396309478E+03  0.00000000000E+00 0. -1.
         11    1    1    2    0    0  0.59821700633E+02  0.59653747140E+02  0.48758364386E+02  0.97542726598E+02  0.00000000000E+00 0.  1.
</event>
<event>
 7    1  0.2723366E-009  0.1582465E+03  0.7561462E-02  0.1190691E+00
         -1   -1    0    0    0  501 -0.00000000000E+00  0.00000000000E+00  0.39714650514E+02  0.39714650514E+02  0.00000000000E+00 0.  1.
          1   -1    0    0  501    0  0.00000000000E+00 -0.00000000000E+00 -0.85001487879E+03  0.85001487879E+03  0.00000000000E+00 0. -1.
         25    2    1    2    0    0  0.95551212859E+02  0.72667572755E+02 -0.63756103036E+03  0.66071267764E+03  0.12508622848E+03 0.  0.
          5    1    3    3  502    0  0.10202821117E+03  0.58602509792E+01 -0.44946535908E+03  0.46095626672E+03  0.41800000000E+01 0.  1.
         -5    1    3    3    0  502 -0.64769983146E+01  0.66807321776E+02 -0.18809567128E+03  0.19975641092E+03  0.41800000000E+01 0.  1.
        -11    1    1    2    0    0 -0.44734426488E+02 -0.83750647373E+02 -0.13369722551E+03  0.16398258431E+03  0.00000000000E+00 0.  1.
         11    1    1    2    0    0 -0.50816786371E+02  0.11083074618E+02 -0.39041972405E+02  0.65034267347E+02  0.00000000000E+00 0. -1.
</event>
<event>
 7    1  0.2723366E-009  0.1266818E+03  0.7561462E-02  0.1232464E+00
          1   -1    0    0  501    0  0.00000000000E+00  0.00000000000E+00  0.80587758847E+03  0.80587758847E+03  0.00000000000E+00 0. -1.
         -1   -1    0    0    0  501 -0.00000000000E+00 -0.00000000000E+00 -0.37431302802E+02  0.37431302802E+02  0.00000000000E+00 0.  1.
         25    2    1    2    0    0 -0.78419591799E+02 -0.20370514054E+02  0.66921874224E+03  0.68561408424E+03  0.12509339444E+03 0.  0.
          5    1    3    3  502    0 -0.10120206867E+03 -0.44609363668E+02  0.42808240366E+03  0.44215819652E+03  0.41800000000E+01 0.  1.
         -5    1    3    3    0  502  0.22782476873E+02  0.24238849614E+02  0.24113633858E+03  0.24345588772E+03  0.41800000000E+01 0.  1.
        -11    1    1    2    0    0  0.17980824542E+02  0.41425092669E+02  0.73956357515E+01  0.45760723137E+02  0.00000000000E+00 0.  1.
         11    1    1    2    0    0  0.60438767257E+02 -0.21054578615E+02  0.91831907679E+02  0.11193408389E+03  0.00000000000E+00 0. -1.
</event>
<event>
 7    1  0.2723366E-009  0.1160150E+03  0.7561462E-02  0.1249820E+00
         -1   -1    0    0    0  501 -0.00000000000E+00  0.00000000000E+00  0.22817990354E+02  0.22817990354E+02  0.00000000000E+00 0.  1.
          1   -1    0    0  501    0  0.00000000000E+00 -0.00000000000E+00 -0.79937264951E+03  0.79937264951E+03  0.00000000000E+00 0. -1.
         25    2    1    2    0    0  0.22265410923E+02 -0.51268984708E+02 -0.59793436447E+03  0.61343022903E+03  0.12508750678E+03 0.  0.
          5    1    3    3  502    0  0.51244594043E+02  0.19175867254E+02 -0.34178678137E+03  0.34616383206E+03  0.41800000000E+01 0. -1.
         -5    1    3    3    0  502 -0.28979183121E+02 -0.70444851962E+02 -0.25614758310E+03  0.26726639697E+03  0.41800000000E+01 0. -1.
        -11    1    1    2    0    0 -0.54438091075E+02  0.35928591890E+02 -0.14813406430E+03  0.16185818015E+03  0.00000000000E+00 0.  1.
         11    1    1    2    0    0  0.32172680153E+02  0.15340392817E+02 -0.30486230373E+02  0.46902230676E+02  0.00000000000E+00 0. -1.
</event>
<event>
 7    1  0.2723366E-009  0.1019633E+03  0.7561462E-02  0.1276221E+00
          1   -1    0    0  501    0  0.00000000000E+00  0.00000000000E+00  0.22015193360E+03  0.22015193360E+03  0.00000000000E+00 0. -1.
         -1   -1    0    0    0  501 -0.00000000000E+00 -0.00000000000E+00 -0.11434785006E+03  0.11434785006E+03  0.00000000000E+00 0.  1.
         25    2    1    2    0    0 -0.50731826950E+02  0.14147766030E+02  0.15952800533E+03  0.20945481253E+03  0.12509299125E+03 0.  0.
          5    1    3    3  502    0  0.28378263913E+02  0.23308962859E+02  0.10888004155E+03  0.11498247458E+03  0.41800000000E+01 0. -1.
         -5    1    3    3    0  502 -0.79110090863E+02 -0.91611968289E+01  0.50647963774E+02  0.94472337952E+02  0.41800000000E+01 0. -1.
        -11    1    1    2    0    0 -0.17472566005E+02  0.40641113752E+00  0.17941480747E+02  0.25047005094E+02  0.00000000000E+00 0. -1.
         11    1    1    2    0    0  0.68204392954E+02 -0.14554177168E+02 -0.71665402531E+02  0.99997966036E+02  0.00000000000E+00 0.  1.
</event>
<event>
 7    1  0.2723366E-009  0.9226827E+02  0.7561462E-02  0.1297450E+00
         -1   -1    0    0    0  501 -0.00000000000E+00  0.00000000000E+00  0.17490761308E+03  0.17490761308E+03  0.00000000000E+00 0.  1.
          1   -1    0    0  501    0  0.00000000000E+00 -0.00000000000E+00 -0.84107088268E+02  0.84107088268E+02  0.00000000000E+00 0. -1.
         25    2    1    2    0    0  0.39190492895E+01  0.24423069731E+02  0.10067869638E+03  0.16245918907E+03  0.12507974626E+03 0.  0.
          5    1    3    3  502    0  0.31931511742E+00 -0.33973797695E+02 -0.11299498828E+02  0.36048189493E+02  0.41800000000E+01 0.  1.
         -5    1    3    3    0  502  0.35997341720E+01  0.58396867427E+02  0.11197819521E+03  0.12641099957E+03  0.41800000000E+01 0.  1.
        -11    1    1    2    0    0  0.41593783021E+02 -0.19282485925E+02  0.95045773064E+01  0.46820871833E+02  0.00000000000E+00 0. -1.
         11    1    1    2    0    0 -0.45512832310E+02 -0.51405838067E+01 -0.19382748872E+02  0.49734640449E+02  0.00000000000E+00 0.  1.
</event>
<event>
 7    1  0.2723366E-009  0.1367320E+03  0.7561462E-02  0.1217795E+00
          1   -1    0    0  501    0  0.00000000000E+00  0.00000000000E+00  0.74753345860E+02  0.74753345860E+02  0.00000000000E+00 0. -1.
         -1   -1    0    0    0  501 -0.00000000000E+00 -0.00000000000E+00 -0.31939094414E+03  0.31939094414E+03  0.00000000000E+00 0.  1.
         25    2    1    2    0    0  0.69295371028E+02 -0.77909366994E+02 -0.17368724814E+03  0.23808681491E+03  0.12508538427E+03 0.  0.
          5    1    3    3  502    0  0.52864418022E+02 -0.11160635293E+03 -0.14614365403E+03  0.19137937381E+03  0.41800000000E+01 0.  1.
         -5    1    3    3    0  502  0.16430953006E+02  0.33696985935E+02 -0.27543594109E+02  0.46707441101E+02  0.41800000000E+01 0.  1.
        -11    1    1    2    0    0 -0.24332257369E+02  0.58205982843E+02 -0.84197870147E+02  0.10521062933E+03  0.00000000000E+00 0.  1.
         11    1    1    2    0    0 -0.44963113658E+02  0.19703384151E+02  0.13247520007E+02  0.50846845755E+02  0.00000000000E+00 0. -1.
</event>
<event>
 7    1  0.2723366E-009  0.9174975E+02  0.7561462E-02  0.1298669E+00
          1   -1    0    0  501    0  0.00000000000E+00  0.00000000000E+00  0.18174807541E+03  0.18174807541E+03  0.00000000000E+00 0. -1.
         -1   -1    0    0    0  501 -0.00000000000E+00 -0.00000000000E+00 -0.99805649021E+02  0.99805649021E+02  0.00000000000E+00 0.  1.
         25    2    1    2    0    0 -0.16044766988E+02 -0.42982859757E+02 -0.21936497380E+02  0.13503641221E+03  0.12509461190E+03 0.  0.
          5    1    3    3  502    0  0.28752148637E+02 -0.88234004727E+01 -0.59774722128E+02  0.67044971867E+02  0.41800000000E+01 0.  1.
         -5    1    3    3    0  502 -0.44796915625E+02 -0.34159459284E+02  0.37838224748E+02  0.67991440345E+02  0.41800000000E+01 0.  1.
        -11    1    1    2    0    0 -0.62896517270E+01 -0.24639589716E+02  0.53646520133E+02  0.59368495203E+02  0.00000000000E+00 0. -1.
         11    1    1    2    0    0  0.22334418715E+02  0.67622449473E+02  0.50232403635E+02  0.87148817015E+02  0.00000000000E+00 0.  1.
</event>
<event>
 7    1  0.2723366E-009  0.1082234E+03  0.7561462E-02  0.1263896E+00
          3   -1    0    0  501    0  0.00000000000E+00  0.00000000000E+00  0.29598261094E+03  0.29598261094E+03  0.00000000000E+00 0.  1.
         -3   -1    0    0    0  501 -0.00000000000E+00 -0.00000000000E+00 -0.55809964860E+02  0.55809964860E+02  0.00000000000E+00 0. -1.
         25    2    1    2    0    0 -0.68175623080E+02  0.52087094304E+01  0.14390144476E+03  0.20255892963E+03  0.12508975951E+03 0.  0.
          5    1    3    3  502    0 -0.51558298500E+02 -0.46573165922E+02  0.29068128148E+02  0.75430407676E+02  0.41800000000E+01 0.  1.
         -5    1    3    3    0  502 -0.16617324580E+02  0.51781875353E+02  0.11483331661E+03  0.12712852196E+03  0.41800000000E+01 0.  1.
        -11    1    1    2    0    0 -0.35487499390E+01  0.16881136892E+02  0.66155804578E+02  0.68367805934E+02  0.00000000000E+00 0. -1.
         11    1    1    2    0    0  0.71724373019E+02 -0.22089846322E+02  0.30115396743E+02  0.80865840232E+02  0.00000000000E+00 0.  1.
</event>
<event>
 7    1  0.2723366E-009  0.1084884E+03  0.7561462E-02  0.1263395E+00
         -3   -1    0    0    0  501 -0.00000000000E+00  0.00000000000E+00  0.86617092675E+02  0.86617092675E+02  0.00000000000E+00 0.  1.
          3   -1    0    0  501    0  0.00000000000E+00 -0.00000000000E+00 -0.18503710590E+03  0.18503710590E+03  0.00000000000E+00 0. -1.
         25    2    1    2    0    0 -0.39822650164E+02  0.37080024551E+02 -0.92983677006E+02  0.16508764950E+03  0.12508875306E+03 0.  0.
          5    1    3    3  502    0 -0.79853959116E+02  0.44949784471E+02 -0.45661836538E+02  0.10246762233E+03  0.41800000000E+01 0.  1.
         -5    1    3    3    0  502  0.40031308952E+02 -0.78697599194E+01 -0.47321840468E+02  0.62620027171E+02  0.41800000000E+01 0.  1.
        -11    1    1    2    0    0  0.30062578489E+02  0.13332109627E+02 -0.34418352937E+02  0.47603852695E+02  0.00000000000E+00 0.  1.
         11    1    1    2    0    0  0.97600716752E+01 -0.50412134179E+02  0.28982016714E+02  0.58962696380E+02  0.00000000000E+00 0. -1.
</event>
<event>
 7    1  0.2723366E-009  0.1962666E+03  0.7561462E-02  0.1152928E+00
         -3   -1    0    0    0  501 -0.00000000000E+00  0.00000000000E+00  0.11340513535E+03  0.11340513535E+03  0.00000000000E+00 0.  1.
          3   -1    0    0  501    0  0.00000000000E+00 -0.00000000000E+00 -0.38265352967E+03  0.38265352967E+03  0.00000000000E+00 0. -1.
         25    2    1    2    0    0  0.30485523421E+02  0.17358845542E+03 -0.11592058973E+03  0.24524579486E+03  0.12508236399E+03 0.  0.
          5    1    3    3  502    0  0.78244456982E+02  0.12696783368E+03 -0.77630729531E+02  0.16818747993E+03  0.41800000000E+01 0. -1.
         -5    1    3    3    0  502 -0.47758933561E+02  0.46620621741E+02 -0.38289860200E+02  0.77058314934E+02  0.41800000000E+01 0. -1.
        -11    1    1    2    0    0 -0.29633522331E+02 -0.15229803034E+03 -0.16502281409E+03  0.22650687597E+03  0.00000000000E+00 0.  1.
         11    1    1    2    0    0 -0.85200109041E+00 -0.21290425082E+02  0.11695009498E+02  0.24305994182E+02  0.00000000000E+00 0. -1.
</event>
<event>
 7    1  0.2723366E-009  0.1109011E+03  0.7561462E-02  0.1258910E+00
          1   -1    0    0  501    0  0.00000000000E+00  0.00000000000E+00  0.12987660725E+03  0.12987660725E+03  0.00000000000E+00 0. -1.
         -1   -1    0    0    0  501 -0.00000000000E+00 -0.00000000000E+00 -0.16344562779E+03  0.16344562779E+03  0.00000000000E+00 0.  1.
         25    2    1    2    0    0  0.11382006359E+02  0.64381063110E+02  0.56572479382E+02  0.15206554996E+03  0.12509602194E+03 0.  0.
          5    1    3    3  502    0  0.63970025820E+02  0.56885112749E+02  0.21786154394E+02  0.88431833517E+02  0.41800000000E+01 0.  1.
         -5    1    3    3    0  502 -0.52588019461E+02  0.74959503613E+01  0.34786324988E+02  0.63633716447E+02  0.41800000000E+01 0.  1.
        -11    1    1    2    0    0 -0.35624130891E+01 -0.71885813547E+02 -0.10222744923E+03  0.12502284732E+03  0.00000000000E+00 0. -1.
         11    1    1    2    0    0 -0.78195932695E+01  0.75047504368E+01  0.12085949297E+02  0.16233837760E+02  0.00000000000E+00 0.  1.
</event>
<event>
 7    1  0.2723366E-009  0.1216063E+03  0.7561462E-02  0.1240471E+00
          2   -1    0    0  501    0  0.00000000000E+00  0.00000000000E+00  0.72408935831E+03  0.72408935831E+03  0.00000000000E+00 0.  1.
         -2   -1    0    0    0  501 -0.00000000000E+00 -0.00000000000E+00 -0.31136078844E+02  0.31136078844E+02  0.00000000000E+00 0. -1.
         25    2    1    2    0    0 -0.75020025923E+02  0.26657396354E+02  0.20816777787E+03  0.25557671189E+03  0.12508801241E+03 0.  0.
          5    1    3    3  502    0  0.25218104070E+02 -0.16621649448E+02  0.88142800401E+02  0.93267666776E+02  0.41800000000E+01 0.  1.
         -5    1    3    3    0  502 -0.10023812999E+03  0.43279045803E+02  0.12002497747E+03  0.16230904512E+03  0.41800000000E+01 0.  1.
        -11    1    1    2    0    0  0.16784005322E+02  0.21930327865E+02  0.41026737147E+02  0.49455386722E+02  0.00000000000E+00 0. -1.
         11    1    1    2    0    0  0.58236020602E+02 -0.48587724219E+02  0.44375876444E+03  0.45019333854E+03  0.00000000000E+00 0.  1.
</event>
<event>
 7    1  0.2723366E-009  0.1558093E+03  0.7561462E-02  0.1193511E+00
         -1   -1    0    0    0  501 -0.00000000000E+00  0.00000000000E+00  0.17654369606E+03  0.17654369606E+03  0.00000000000E+00 0.  1.
          1   -1    0    0  501    0  0.00000000000E+00 -0.00000000000E+00 -0.17320781936E+03  0.17320781936E+03  0.00000000000E+00 0. -1.
         25    2    1    2    0    0 -0.10060692914E+03 -0.83504026763E+02 -0.35849072700E+02  0.18446342330E+03  0.12508765665E+03 0.  0.
          5    1    3    3  502    0 -0.77433740485E+01 -0.71432861359E+02 -0.52724300209E+02  0.89218483265E+02  0.41800000000E+01 0. -1.
         -5    1    3    3    0  502 -0.92863555095E+02 -0.12071165404E+02  0.16875227508E+02  0.95244940036E+02  0.41800000000E+01 0. -1.
        -11    1    1    2    0    0  0.71162200864E+02  0.16981982812E+02  0.54146610275E+02  0.91018140918E+02  0.00000000000E+00 0.  1.
         11    1    1    2    0    0  0.29444728279E+02  0.66522043951E+02 -0.14961660875E+02  0.74269951199E+02  0.00000000000E+00 0. -1.
</event>
<event>
 7    1  0.2723366E-009  0.1053910E+03  0.7561462E-02  0.1269351E+00
         -2   -1    0    0    0  501 -0.00000000000E+00  0.00000000000E+00  0.18209995314E+03  0.18209995314E+03  0.00000000000E+00 0.  1.
          2   -1    0    0  501    0  0.00000000000E+00 -0.00000000000E+00 -0.88885033155E+02  0.88885033155E+02  0.00000000000E+00 0. -1.
         25    2    1    2    0    0  0.20447481731E+02  0.53095716532E+02  0.18590226734E+02  0.13867258904E+03  0.12508891157E+03 0.  0.
          5    1    3    3  502    0 -0.34146562082E+01  0.71901056152E+02  0.55278426997E+02  0.90854821799E+02  0.41800000000E+01 0.  1.
         -5    1    3    3    0  502  0.23862137940E+02 -0.18805339620E+02 -0.36688200263E+02  0.47817767240E+02  0.41800000000E+01 0.  1.
        -11    1    1    2    0    0 -0.36331397224E+02  0.14093853368E+02  0.36749421926E+02  0.53564233766E+02  0.00000000000E+00 0.  1.
         11    1    1    2    0    0  0.15883915492E+02 -0.67189569900E+02  0.37875271321E+02  0.78748163486E+02  0.00000000000E+00 0. -1.
</event>
<event>
 7    1  0.2723366E-009  0.9152635E+02  0.7561462E-02  0.1299197E+00
         -1   -1    0    0    0  501 -0.00000000000E+00  0.00000000000E+00  0.69506224566E+02  0.69506224566E+02  0.00000000000E+00 0.  1.
          1   -1    0    0  501    0  0.00000000000E+00 -0.00000000000E+00 -0.23074857533E+03  0.23074857533E+03  0.00000000000E+00 0. -1.
         25    2    1    2    0    0  0.48715119409E+02 -0.85623417187E+01 -0.15245587044E+03  0.20331354806E+03  0.12508848803E+03 0.  0.
          5    1    3    3  502    0  0.75656326562E+02 -0.19241991025E+02 -0.41399453382E+02  0.88461975491E+02  0.41800000000E+01 0.  1.
         -5    1    3    3    0  502 -0.26941207152E+02  0.10679649306E+02 -0.11105641706E+03  0.11485157257E+03  0.41800000000E+01 0.  1.
        -11    1    1    2    0    0 -0.61820898531E+02  0.90535049207E+01  0.19756459470E+02  0.65529437181E+02  0.00000000000E+00 0.  1.
         11    1    1    2    0    0  0.13105779121E+02 -0.49116320208E+00 -0.28542939793E+02  0.31411814651E+02  0.00000000000E+00 0. -1.
</event>
<event>
 7    1  0.2723366E-009  0.9419047E+02  0.7561462E-02  0.1293010E+00
          3   -1    0    0  501    0  0.00000000000E+00  0.00000000000E+00  0.64299170832E+02  0.64299170832E+02  0.00000000000E+00 0. -1.
         -3   -1    0    0    0  501 -0.00000000000E+00 -0.00000000000E+00 -0.22906393339E+03  0.22906393339E+03  0.00000000000E+00 0.  1.
         25    2    1    2    0    0  0.28737153424E+02  0.38450578353E+02 -0.12115412681E+03  0.18063596506E+03  0.12508700359E+03 0.  0.
          5    1    3    3  502    0 -0.37915873956E+02  0.49366887924E+02 -0.79939667260E+02  0.10140279051E+03  0.41800000000E+01 0.  1.
         -5    1    3    3    0  502  0.66653027380E+02 -0.10916309571E+02 -0.41214459548E+02  0.79233174551E+02  0.41800000000E+01 0.  1.
        -11    1    1    2    0    0 -0.36024204115E+02 -0.28212838664E+02 -0.69925353912E+02  0.83565918096E+02  0.00000000000E+00 0.  1.
         11    1    1    2    0    0  0.72870506910E+01 -0.10237739688E+02  0.26314718166E+02  0.29161221062E+02  0.00000000000E+00 0. -1.
</event>
<event>
 7    1  0.2723366E-009  0.1137794E+03  0.7561462E-02  0.1253727E+00
          2   -1    0    0  501    0  0.00000000000E+00  0.00000000000E+00  0.58533689261E+03  0.58533689261E+03  0.00000000000E+00 0. -1.
         -2   -1    0    0    0  501 -0.00000000000E+00 -0.00000000000E+00 -0.45247231558E+02  0.45247231558E+02  0.00000000000E+00 0.  1.
         25    2    1    2    0    0 -0.69619476797E+01 -0.99175393525E+02  0.42842013266E+03  0.45724611161E+03  0.12508384832E+03 0.  0.
          5    1    3    3  502    0  0.13228218652E+02 -0.79960414704E+02  0.10552202597E+03  0.13312033674E+03  0.41800000000E+01 0.  1.
         -5    1    3    3    0  502 -0.20190166331E+02 -0.19214978821E+02  0.32289810670E+03  0.32412577487E+03  0.41800000000E+01 0.  1.
        -11    1    1    2    0    0  0.35585969103E+02  0.51145944342E+02  0.19057961152E+02  0.65157307364E+02  0.00000000000E+00 0.  1.
         11    1    1    2    0    0 -0.28624021423E+02  0.48029449183E+02  0.92611567237E+02  0.10818070520E+03  0.00000000000E+00 0. -1.
</event>
<event>
 7    1  0.2723366E-009  0.2959039E+03  0.7561462E-02  0.1087306E+00
          1   -1    0    0  501    0  0.00000000000E+00  0.00000000000E+00  0.16582772484E+04  0.16582772484E+04  0.00000000000E+00 0. -1.
         -1   -1    0    0    0  501 -0.00000000000E+00 -0.00000000000E+00 -0.70748633406E+02  0.70748633406E+02  0.00000000000E+00 0.  1.
         25    2    1    2    0    0 -0.15176080980E+03 -0.24743778015E+03  0.11748747931E+04  0.12166492974E+04  0.12509170557E+03 0.  0.
          5    1    3    3  502    0 -0.55937684362E+02 -0.89296654319E+02  0.21926462703E+03  0.24330508846E+03  0.41800000000E+01 0.  1.
         -5    1    3    3    0  502 -0.95823125442E+02 -0.15814112583E+03  0.95561016610E+03  0.97334420890E+03  0.41800000000E+01 0.  1.
        -11    1    1    2    0    0  0.31374058646E+01  0.69444739617E+02  0.70152148111E+02  0.98761019945E+02  0.00000000000E+00 0. -1.
         11    1    1    2    0    0  0.14862340394E+03  0.17799304053E+03  0.34250167379E+03  0.41361556454E+03  0.00000000000E+00 0.  1.
</event>
<event>
 7    1  0.2723366E-009  0.1052443E+03  0.7561462E-02  0.1269639E+00
          2   -1    0    0  501    0  0.00000000000E+00  0.00000000000E+00  0.73465832299E+03  0.73465832299E+03  0.00000000000E+00 0.  1.
         -2   -1    0    0    0  501 -0.00000000000E+00 -0.00000000000E+00 -0.22835664618E+02  0.22835664618E+02  0.00000000000E+00 0. -1.
         25    2    1    2    0    0 -0.67674727633E+02  0.31251088482E+02  0.35991729157E+03  0.38825746374E+03  0.12508757767E+03 0.  0.
          5    1    3    3  502    0 -0.11449623028E+02 -0.20885284053E+02  0.44471788341E+01  0.24587369868E+02  0.41800000000E+01 0. -1.
         -5    1    3    3    0  502 -0.56225104605E+02  0.52136372535E+02  0.35547011274E+03  0.36367009387E+03  0.41800000000E+01 0. -1.
        -11    1    1    2    0    0  0.32991668546E+02  0.26387418166E+02  0.10121709205E+03  0.10967974177E+03  0.00000000000E+00 0.  1.
         11    1    1    2    0    0  0.34683059087E+02 -0.57638506648E+02  0.25068827475E+03  0.25955678210E+03  0.00000000000E+00 0. -1.
</event>
<event>
 7    1  0.2723366E-009  0.1018888E+03  0.7561462E-02  0.1276374E+00
         -2   -1    0    0    0  501 -0.00000000000E+00  0.00000000000E+00  0.28821299005E+03  0.28821299005E+03  0.00000000000E+00 0.  1.
          2   -1    0    0  501    0  0.00000000000E+00 -0.00000000000E+00 -0.46978237342E+02  0.46978237342E+02  0.00000000000E+00 0. -1.
         25    2    1    2    0    0 -0.17392904018E+02  0.38557553806E+02  0.15917263373E+03  0.20681287894E+03  0.12508573662E+03 0.  0.
          5    1    3    3  502    0  0.38049500556E+02  0.59407675248E+02  0.68462613882E+02  0.98395316303E+02  0.41800000000E+01 0. -1.
         -5    1    3    3    0  502 -0.55442404574E+02 -0.20850121442E+02  0.90710019844E+02  0.10841756264E+03  0.41800000000E+01 0. -1.
        -11    1    1    2    0    0  0.39727782499E+02 -0.18999210544E+02  0.87722570344E+02  0.98155570659E+02  0.00000000000E+00 0.  1.
         11    1    1    2    0    0 -0.22334878481E+02 -0.19558343263E+02 -0.56604513572E+01  0.30222777793E+02  0.00000000000E+00 0. -1.
</event>
<event>
 7    1  0.4790634E-009  0.1105941E+03  0.7561462E-02  0.1259474E+00
          1   -1    0    0  501    0  0.00000000000E+00  0.00000000000E+00  0.74237756834E+03  0.74237756834E+03  0.00000000000E+00 0. -1.
         -1   -1    0    0    0  501 -0.00000000000E+00 -0.00000000000E+00 -0.24796787023E+02  0.24796787023E+02  0.00000000000E+00 0.  1.
         25    2    1    2    0    0 -0.71253044639E+02 -0.44342077832E+01  0.50452672153E+03  0.52468198035E+03  0.12508920497E+03 0.  0.
          5    1    3    3  502    0  0.28175700176E+02 -0.56141314649E+01  0.24521400832E+03  0.24692665070E+03  0.41800000000E+01 0.  1.
         -5    1    3    3    0  502 -0.99428744816E+02  0.11799236817E+01  0.25931271321E+03  0.27775532965E+03  0.41800000000E+01 0.  1.
        -11    1    1    2    0    0  0.46400590652E+01  0.23013893927E+02  0.60527076676E+01  0.24244684612E+02  0.00000000000E+00 0.  1.
         11    1    1    2    0    0  0.66612985574E+02 -0.18579686144E+02  0.20700135212E+03  0.21824769040E+03  0.00000000000E+00 0. -1.
</event>
<event>
 7    1  0.2723366E-009  0.1064440E+03  0.7561462E-02  0.1267300E+00
         -1   -1    0    0    0  501 -0.00000000000E+00  0.00000000000E+00  0.35628881156E+03  0.35628881156E+03  0.00000000000E+00 0.  1.
          1   -1    0    0  501    0  0.00000000000E+00 -0.00000000000E+00 -0.48895043579E+02  0.48895043579E+02  0.00000000000E+00 0. -1.
         25    2    1    2    0    0 -0.24551033728E+02 -0.62652754870E+02  0.12615565317E+03  0.18997575170E+03  0.12508963369E+03 0.  0.
          5    1    3    3  502    0  0.28099598497E+02  0.16970372601E+02  0.74133012586E+02  0.81183476995E+02  0.41800000000E+01 0. -1.
         -5    1    3    3    0  502 -0.52650632225E+02 -0.79623127471E+02  0.52022640588E+02  0.10879227471E+03  0.41800000000E+01 0. -1.
        -11    1    1    2    0    0 -0.10179768390E+02  0.43318740241E+02  0.16725087214E+03  0.17306933631E+03  0.00000000000E+00 0.  1.
         11    1    1    2    0    0  0.34730802118E+02  0.19334014629E+02  0.13987242669E+02  0.42138767126E+02  0.00000000000E+00 0. -1.
</event>
<event>
 7    1  0.2723366E-009  0.9753621E+02  0.7561462E-02  0.1285564E+00
         -1   -1    0    0    0  501 -0.00000000000E+00  0.00000000000E+00  0.25919655066E+03  0.25919655066E+03  0.00000000000E+00 0.  1.
          1   -1    0    0  501    0  0.00000000000E+00 -0.00000000000E+00 -0.10952292695E+03  0.10952292695E+03  0.00000000000E+00 0. -1.
         25    2    1    2    0    0  0.40602938265E+02  0.41945989635E+02  0.20420035844E+03  0.24648093185E+03  0.12508796400E+03 0.  0.
          5    1    3    3  502    0  0.40812704593E+02 -0.28781963935E+02  0.14735497028E+03  0.15564394614E+03  0.41800000000E+01 0. -1.
         -5    1    3    3    0  502 -0.20976632770E+00  0.70727953569E+02  0.56845388155E+02  0.90836985708E+02  0.41800000000E+01 0. -1.
        -11    1    1    2    0    0 -0.63787886765E+01  0.10022276449E+02 -0.58684057825E+02  0.59874482153E+02  0.00000000000E+00 0. -1.
         11    1    1    2    0    0 -0.34224149589E+02 -0.51968266084E+02  0.41573230969E+01  0.62364063612E+02  0.00000000000E+00 0.  1.
</event>
<event>
 7    1  0.2723366E-009  0.1225559E+03  0.7561462E-02  0.1238939E+00
         -2   -1    0    0    0  501 -0.00000000000E+00  0.00000000000E+00  0.60042550599E+02  0.60042550599E+02  0.00000000000E+00 0.  1.
          2   -1    0    0  501    0  0.00000000000E+00 -0.00000000000E+00 -0.25957323296E+03  0.25957323296E+03  0.00000000000E+00 0. -1.
         25    2    1    2    0    0  0.54043304904E+02 -0.10408536291E+02 -0.11287480590E+03  0.17726289487E+03  0.12510953463E+03 0.  0.
          5    1    3    3  502    0  0.85825106428E+02  0.19867978096E+02 -0.95159412233E+02  0.12974386916E+03  0.41800000000E+01 0. -1.
         -5    1    3    3    0  502 -0.31781801524E+02 -0.30276514388E+02 -0.17715393670E+02  0.47519025710E+02  0.41800000000E+01 0. -1.
        -11    1    1    2    0    0  0.28831998410E+02  0.79707879080E+01 -0.25837753223E+02  0.39527295427E+02  0.00000000000E+00 0. -1.
         11    1    1    2    0    0 -0.82875303314E+02  0.24377483833E+01 -0.60818123237E+02  0.10282559327E+03  0.00000000000E+00 0.  1.
</event>
<event>
 7    1  0.2723366E-009  0.3833618E+03  0.7561462E-02  0.1049698E+00
         -1   -1    0    0    0  501 -0.00000000000E+00  0.00000000000E+00  0.12134313801E+04  0.12134313801E+04  0.00000000000E+00 0.  1.
          1   -1    0    0  501    0  0.00000000000E+00 -0.00000000000E+00 -0.13146236588E+03  0.13146236588E+03  0.00000000000E+00 0. -1.
         25    2    1    2    0    0  0.37085797732E+03  0.52930957880E+02  0.69118339039E+03  0.79606500722E+03  0.12509073074E+03 0.  0.
          5    1    3    3  502    0  0.17121372437E+03 -0.14994599507E+02  0.21519661383E+03  0.27543789215E+03  0.41800000000E+01 0. -1.
         -5    1    3    3    0  502  0.19964425295E+03  0.67925557387E+02  0.47598677656E+03  0.52062711506E+03  0.41800000000E+01 0. -1.
        -11    1    1    2    0    0 -0.19128385086E+03  0.15033757930E+02  0.21933184095E+03  0.29141376414E+03  0.00000000000E+00 0. -1.
         11    1    1    2    0    0 -0.17957412646E+03 -0.67964715810E+02  0.17145378287E+03  0.25741497460E+03  0.00000000000E+00 0.  1.
</event>
<event>
 7    1  0.2723366E-009  0.1713373E+03  0.7561462E-02  0.1176460E+00
         -1   -1    0    0    0  501 -0.00000000000E+00  0.00000000000E+00  0.61805251022E+02  0.61805251022E+02  0.00000000000E+00 0.  1.
          1   -1    0    0  501    0  0.00000000000E+00 -0.00000000000E+00 -0.58368413442E+03  0.58368413442E+03  0.00000000000E+00 0. -1.
         25    2    1    2    0    0 -0.96021573204E+02 -0.11741771253E+03 -0.22035763275E+03  0.29531704192E+03  0.12509039611E+03 0.  0.
          5    1    3    3  502    0 -0.41723514984E+02  0.19186373143E+01 -0.38245513491E+01  0.42150118206E+02  0.41800000000E+01 0. -1.
         -5    1    3    3    0  502 -0.54298058220E+02 -0.11933634984E+03 -0.21653308140E+03  0.25316692371E+03  0.41800000000E+01 0. -1.
        -11    1    1    2    0    0  0.80311761957E+02  0.12762273248E+03 -0.29314066440E+03  0.32964979915E+03  0.00000000000E+00 0. -1.
         11    1    1    2    0    0  0.15709811248E+02 -0.10205019954E+02 -0.83805862460E+01  0.20522544373E+02  0.00000000000E+00 0.  1.
</event>
<event>
 7    1  0.2723366E-009  0.2967621E+03  0.7561462E-02  0.1086871E+00
          2   -1    0    0  501    0  0.00000000000E+00  0.00000000000E+00  0.17284784469E+04  0.17284784469E+04  0.00000000000E+00 0. -1.
         -2   -1    0    0    0  501 -0.00000000000E+00 -0.00000000000E+00 -0.53875128293E+02  0.53875128293E+02  0.00000000000E+00 0.  1.
         25    2    1    2    0    0  0.28419180895E+03 -0.10616664052E+02  0.90886000733E+03  0.96049564015E+03  0.12509062309E+03 0.  0.
          5    1    3    3  502    0  0.67803569112E+02 -0.44533025003E+02  0.36991334257E+03  0.37872663982E+03  0.41800000000E+01 0. -1.
         -5    1    3    3    0  502  0.21638823984E+03  0.33916360951E+02  0.53894666476E+03  0.58176900032E+03  0.41800000000E+01 0. -1.
        -11    1    1    2    0    0 -0.25357840366E+03 -0.13968385545E+02  0.70673801049E+03  0.75098318095E+03  0.00000000000E+00 0.  1.
         11    1    1    2    0    0 -0.30613405284E+02  0.24585049597E+02  0.59005300755E+02  0.70874754066E+02  0.00000000000E+00 0. -1.
</event>
<event>
 7    1  0.2723366E-009  0.1196481E+03  0.7561462E-02  0.1243679E+00
         -1   -1    0    0    0  501 -0.00000000000E+00  0.00000000000E+00  0.72833468065E+02  0.72833468065E+02  0.00000000000E+00 0.  1.
          1   -1    0    0  501    0  0.00000000000E+00 -0.00000000000E+00 -0.20352757758E+03  0.20352757758E+03  0.00000000000E+00 0. -1.
         25    2    1    2    0    0  0.51771722763E+02 -0.10426880597E+02 -0.65297079214E+02  0.15066590241E+03  0.12508986561E+03 0.  0.
          5    1    3    3  502    0 -0.33212306406E+02  0.22917481443E+02 -0.37240373600E+02  0.55068921166E+02  0.41800000000E+01 0. -1.
         -5    1    3    3    0  502  0.84984029169E+02 -0.33344362040E+02 -0.28056705614E+02  0.95596981247E+02  0.41800000000E+01 0. -1.
        -11    1    1    2    0    0 -0.41053336245E+02 -0.39084447655E+02 -0.34190678363E+02  0.66196472355E+02  0.00000000000E+00 0. -1.
         11    1    1    2    0    0 -0.10718386517E+02  0.49511328252E+02 -0.31206351938E+02  0.59498670877E+02  0.00000000000E+00 0.  1.
</event>
<event>
 7    1  0.5425497E-009  0.1143020E+03  0.7561462E-02  0.1252804E+00
          2   -1    0    0  501    0  0.00000000000E+00  0.00000000000E+00  0.12800822431E+04  0.12800822431E+04  0.00000000000E+00 0. -1.
         -2   -1    0    0    0  501 -0.00000000000E+00 -0.00000000000E+00 -0.13249129340E+02  0.13249129340E+02  0.00000000000E+00 0.  1.
         25    2    1    2    0    0 -0.46779765632E+02  0.27704363126E+02  0.93738694809E+03  0.94725704833E+03  0.12508296023E+03 0.  0.
          5    1    3    3  502    0 -0.77474269645E+02  0.54980961297E+02  0.64618959316E+03  0.65314901153E+03  0.41800000000E+01 0.  1.
         -5    1    3    3    0  502  0.30694504013E+02 -0.27276598172E+02  0.29119735494E+03  0.29410803679E+03  0.41800000000E+01 0.  1.
        -11    1    1    2    0    0  0.12342404299E+00  0.23191081779E+02  0.25860636950E+02  0.34736350572E+02  0.00000000000E+00 0.  1.
         11    1    1    2    0    0  0.46656341589E+02 -0.50895444905E+02  0.30358552868E+03  0.31133797351E+03  0.00000000000E+00 0. -1.
</event>
<event>
 7    1  0.3888190E-009  0.1603189E+03  0.7561462E-02  0.1188337E+00
          1   -1    0    0  501    0  0.00000000000E+00  0.00000000000E+00  0.78172480023E+03  0.78172480023E+03  0.00000000000E+00 0. -1.
         -1   -1    0    0    0  501 -0.00000000000E+00 -0.00000000000E+00 -0.42569416160E+02  0.42569416160E+02  0.00000000000E+00 0.  1.
         25    2    1    2    0    0 -0.13989410450E+03 -0.24884255673E+01  0.48811184656E+03  0.52294870818E+03  0.12508246839E+03 0.  0.
          5    1    3    3  502    0 -0.20369816569E+02  0.45352848158E+02  0.21880805285E+03  0.22442425594E+03  0.41800000000E+01 0. -1.
         -5    1    3    3    0  502 -0.11952428793E+03 -0.47841273726E+02  0.26930379371E+03  0.29852445224E+03  0.41800000000E+01 0. -1.
        -11    1    1    2    0    0  0.63699859630E+02  0.13015149617E+02  0.39079647987E+02  0.75857004444E+02  0.00000000000E+00 0.  1.
         11    1    1    2    0    0  0.76194244866E+02 -0.10526724050E+02  0.21196388952E+03  0.22548850376E+03  0.00000000000E+00 0. -1.
</event>
<event>
 7    1  0.2723366E-009  0.1535332E+03  0.7561462E-02  0.1196197E+00
          2   -1    0    0  501    0  0.00000000000E+00  0.00000000000E+00  0.16578635866E+03  0.16578635866E+03  0.00000000000E+00 0. -1.
         -2   -1    0    0    0  501 -0.00000000000E+00 -0.00000000000E+00 -0.19554142237E+03  0.19554142237E+03  0.00000000000E+00 0.  1.
         25    2    1    2    0    0  0.19092941231E+02 -0.12641282349E+03  0.50477597533E+02  0.18584829089E+03  0.12508739754E+03 0.  0.
          5    1    3    3  502    0 -0.23212086810E+02 -0.13281656387E+03  0.29815974749E+02  0.13815029990E+03  0.41800000000E+01 0. -1.
         -5    1    3    3    0  502  0.42305028042E+02  0.64037403726E+01  0.20661622785E+02  0.47697990990E+02  0.41800000000E+01 0. -1.
        -11    1    1    2    0    0  0.35809208114E+01  0.25659493083E+02 -0.66410797945E+02  0.71285529127E+02  0.00000000000E+00 0.  1.
         11    1    1    2    0    0 -0.22673862043E+02  0.10075333041E+03 -0.13821863297E+02  0.10419396102E+03  0.00000000000E+00 0. -1.
</event>
<event>
 7    1  0.2723366E-009  0.1057160E+03  0.7561462E-02  0.1268715E+00
          2   -1    0    0  501    0  0.00000000000E+00  0.00000000000E+00  0.53423999483E+03  0.53423999483E+03  0.00000000000E+00 0. -1.
         -2   -1    0    0    0  501 -0.00000000000E+00 -0.00000000000E+00 -0.27776675425E+02  0.27776675425E+02  0.00000000000E+00 0.  1.
         25    2    1    2    0    0  0.11306201896E+02 -0.47612445820E+02  0.35370944833E+03  0.37835613946E+03  0.12509284245E+03 0.  0.
          5    1    3    3  502    0  0.33822347808E+02 -0.83457832581E+02  0.26633402134E+03  0.28117689157E+03  0.41800000000E+01 0. -1.
         -5    1    3    3    0  502 -0.22516145913E+02  0.35845386761E+02  0.87375426988E+02  0.97179247888E+02  0.41800000000E+01 0. -1.
        -11    1    1    2    0    0 -0.24976018822E+02 -0.40545384409E+01  0.40256481960E+01  0.25621214678E+02  0.00000000000E+00 0.  1.
         11    1    1    2    0    0  0.13669816927E+02  0.51666984261E+02  0.14872822288E+03  0.15803931611E+03  0.00000000000E+00 0. -1.
</event>
<event>
 7    1  0.2723366E-009  0.8956061E+02  0.7561462E-02  0.1303919E+00
          2   -1    0    0  501    0  0.00000000000E+00  0.00000000000E+00  0.36323512164E+03  0.36323512164E+03  0.00000000000E+00 0. -1.
         -2   -1    0    0    0  501 -0.00000000000E+00 -0.00000000000E+00 -0.35917847396E+02  0.35917847396E+02  0.00000000000E+00 0.  1.
         25    2    1    2    0    0  0.18655145102E+02 -0.10834747681E+02  0.23649711578E+03  0.26841032071E+03  0.12509119991E+03 0.  0.
          5    1    3    3  502    0 -0.32215960431E+02  0.29680491330E+02  0.33774269123E+02  0.55470472568E+02  0.41800000000E+01 0. -1.
         -5    1    3    3    0  502  0.50871105532E+02 -0.40515239011E+02  0.20272284666E+03  0.21293984814E+03  0.41800000000E+01 0. -1.
        -11    1    1    2    0    0  0.17149380483E+02 -0.17341251824E+02 -0.47687390398E+01  0.24850777408E+02  0.00000000000E+00 0.  1.
         11    1    1    2    0    0 -0.35804525585E+02  0.28175999504E+02  0.95588897508E+02  0.10589187092E+03  0.00000000000E+00 0. -1.
</event>
<event>
 7    1  0.2723366E-009  0.1641325E+03  0.7561462E-02  0.1184109E+00
          2   -1    0    0  501    0  0.00000000000E+00  0.00000000000E+00  0.33895195323E+03  0.33895195323E+03  0.00000000000E+00 0. -1.
         -2   -1    0    0    0  501 -0.00000000000E+00 -0.00000000000E+00 -0.12226814760E+03  0.12226814760E+03  0.00000000000E+00 0.  1.
         25    2    1    2    0    0 -0.95154747644E+02  0.12689387761E+03  0.37391783206E+02  0.20543190107E+03  0.12509052063E+03 0.  0.
          5    1    3    3  502    0 -0.14051887768E+02  0.30061609200E+02 -0.43882336213E+02  0.55175064377E+02  0.41800000000E+01 0.  1.
         -5    1    3    3    0  502 -0.81102859876E+02  0.96832268409E+02  0.81274119419E+02  0.15025683669E+03  0.41800000000E+01 0.  1.
        -11    1    1    2    0    0  0.79370217980E+02 -0.59429458224E+02  0.15165658711E+03  0.18119385315E+03  0.00000000000E+00 0. -1.
         11    1    1    2    0    0  0.15784529664E+02 -0.67464419384E+02  0.27635435318E+02  0.74594346601E+02  0.00000000000E+00 0.  1.
</event>
<event>
 7    1  0.2723366E-009  0.1395079E+03  0.7561462E-02  0.1213993E+00
          1   -1    0    0  501    0  0.00000000000E+00  0.00000000000E+00  0.89267070623E+03  0.89267070623E+03  0.00000000000E+00 0. -1.
         -1   -1    0    0    0  501 -0.00000000000E+00 -0.00000000000E+00 -0.24342945331E+02  0.24342945331E+02  0.00000000000E+00 0.  1.
         25    2    1    2    0    0  0.99130977353E+02  0.20125669660E+02  0.48103174267E+03  0.50721863449E+03  0.12508881832E+03 0.  0.
          5    1    3    3  502    0  0.91521919568E+02  0.66011757644E+02  0.31001652425E+03  0.32994170942E+03  0.41800000000E+01 0.  1.
         -5    1    3    3    0  502  0.76090577852E+01 -0.45886087984E+02  0.17101521842E+03  0.17727692507E+03  0.41800000000E+01 0.  1.
        -11    1    1    2    0    0 -0.32385615248E+02  0.23183816170E+02  0.23104082734E+03  0.23444867520E+03  0.00000000000E+00 0. -1.
         11    1    1    2    0    0 -0.66745362105E+02 -0.43309485830E+02  0.15625519089E+03  0.17534634187E+03  0.00000000000E+00 0.  1.
</event>
<event>
 7    1  0.2723366E-009  0.2134629E+03  0.7561462E-02  0.1138853E+00
          2   -1    0    0  501    0  0.00000000000E+00  0.00000000000E+00  0.77130689811E+03  0.77130689811E+03  0.00000000000E+00 0. -1.
         -2   -1    0    0    0  501 -0.00000000000E+00 -0.00000000000E+00 -0.75001811741E+02  0.75001811741E+02  0.00000000000E+00 0.  1.
         25    2    1    2    0    0  0.17531200033E+03 -0.82839589887E+02  0.19946869067E+03  0.30501083323E+03  0.12508858747E+03 0.  0.
          5    1    3    3  502    0  0.39235267418E+02 -0.76166807202E+02  0.38328546750E+02  0.93953917559E+02  0.41800000000E+01 0.  1.
         -5    1    3    3    0  502  0.13607673291E+03 -0.66727826849E+01  0.16114014392E+03  0.21105691567E+03  0.41800000000E+01 0.  1.
        -11    1    1    2    0    0 -0.11603701719E+03  0.87577956774E+02  0.41793787365E+03  0.44250034362E+03  0.00000000000E+00 0.  1.
         11    1    1    2    0    0 -0.59274983133E+02 -0.47383668871E+01  0.78898522043E+02  0.98797532999E+02  0.00000000000E+00 0. -1.
</event>
<event>
 7    1  0.2723366E-009  0.1127582E+03  0.7561462E-02  0.1255546E+00
          2   -1    0    0  501    0  0.00000000000E+00  0.00000000000E+00  0.15883787141E+03  0.15883787141E+03  0.00000000000E+00 0. -1.
         -2   -1    0    0    0  501 -0.00000000000E+00 -0.00000000000E+00 -0.81303612405E+02  0.81303612405E+02  0.00000000000E+00 0.  1.
         25    2    1    2    0    0  0.29503869392E+02  0.12715485079E+02  0.52793036614E+02  0.13952265207E+03  0.12508918361E+03 0.  0.
          5    1    3    3  502    0  0.40117546250E+02  0.64527040584E+02  0.31276977542E+02  0.82273192522E+02  0.41800000000E+01 0. -1.
         -5    1    3    3    0  502 -0.10613676858E+02 -0.51811555505E+02  0.21516059071E+02  0.57249459545E+02  0.41800000000E+01 0. -1.
        -11    1    1    2    0    0  0.13754747971E+02 -0.41956396134E+02  0.19075833512E+02  0.48098021711E+02  0.00000000000E+00 0. -1.
         11    1    1    2    0    0 -0.43258617362E+02  0.29240911055E+02  0.56653888749E+01  0.52520810033E+02  0.00000000000E+00 0.  1.
</event>
<event>
 7    1  0.2723366E-009  0.1517716E+03  0.7561462E-02  0.1198313E+00
         -2   -1    0    0    0  501 -0.00000000000E+00  0.00000000000E+00  0.33682368110E+02  0.33682368110E+02  0.00000000000E+00 0. -1.
          2   -1    0    0  501    0  0.00000000000E+00 -0.00000000000E+00 -0.79427323770E+03  0.79427323770E+03  0.00000000000E+00 0.  1.
         25    2    1    2    0    0 -0.45463059355E+02  0.10970887425E+03 -0.35116923862E+03  0.39124273197E+03  0.12509242308E+03 0.  0.
          5    1    3    3  502    0  0.40470755128E+01  0.10385163373E+03 -0.30824762897E+03  0.32532385989E+03  0.41800000000E+01 0. -1.
         -5    1    3    3    0  502 -0.49510134868E+02  0.58572405210E+01 -0.42921609646E+02  0.65918872076E+02  0.41800000000E+01 0. -1.
        -11    1    1    2    0    0  0.43282249871E+02 -0.36704376855E+01 -0.15738587235E+03  0.16327013837E+03  0.00000000000E+00 0.  1.
         11    1    1    2    0    0  0.21808094838E+01 -0.10603843657E+03 -0.25203575862E+03  0.27344273547E+03  0.00000000000E+00 0. -1.
</event>
<event>
 7    1  0.2723366E-009  0.1136438E+03  0.7561462E-02  0.1253967E+00
          1   -1    0    0  501    0  0.00000000000E+00  0.00000000000E+00  0.88960287329E+03  0.88960287329E+03  0.00000000000E+00 0. -1.
         -1   -1    0    0    0  501 -0.00000000000E+00 -0.00000000000E+00 -0.25859258440E+02  0.25859258440E+02  0.00000000000E+00 0.  1.
         25    2    1    2    0    0  0.31247150151E+02  0.58269655285E+02  0.71002059562E+03  0.72398078773E+03  0.12508875923E+03 0.  0.
          5    1    3    3  502    0  0.55511709252E+02  0.67755528224E+02  0.28604337415E+03  0.29918329794E+03  0.41800000000E+01 0.  1.
         -5    1    3    3    0  502 -0.24264559101E+02 -0.94858729391E+01  0.42397722147E+03  0.42479748979E+03  0.41800000000E+01 0.  1.
        -11    1    1    2    0    0  0.32692609467E+02 -0.24836550700E+02  0.44192377945E+02  0.60321034746E+02  0.00000000000E+00 0. -1.
         11    1    1    2    0    0 -0.63939759618E+02 -0.33433104585E+02  0.10953064129E+03  0.13116030926E+03  0.00000000000E+00 0.  1.
</event>
<event>
 7    1  0.2723366E-009  0.1685789E+03  0.7561462E-02  0.1179338E+00
          2   -1    0    0  501    0  0.00000000000E+00  0.00000000000E+00  0.56427088444E+03  0.56427088444E+03  0.00000000000E+00 0.  1.
         -2   -1    0    0    0  501 -0.00000000000E+00 -0.00000000000E+00 -0.59761543642E+02  0.59761543642E+02  0.00000000000E+00 0. -1.
         25    2    1    2    0    0 -0.12128054228E+03  0.80725672580E+02  0.22252022857E+03  0.29391962264E+03  0.12509151971E+03 0.  0.
          5    1    3    3  502    0 -0.17016826426E+02  0.84405162435E+02  0.83106908922E+02  0.11974153222E+03  0.41800000000E+01 0.  1.
         -5    1    3    3    0  502 -0.10426371585E+03 -0.36794898551E+01  0.13941331965E+03  0.17417809042E+03  0.41800000000E+01 0.  1.
        -11    1    1    2    0    0  0.66476203891E+02 -0.34781267246E+02  0.22936193327E+03  0.24132077960E+03  0.00000000000E+00 0.  1.
         11    1    1    2    0    0  0.54804338385E+02 -0.45944405334E+02  0.52627178963E+02  0.88792025841E+02  0.00000000000E+00 0. -1.
</event>
<event>
 7    1  0.2723366E-009  0.9928141E+02  0.7561462E-02  0.1281814E+00
         -1   -1    0    0    0  501 -0.00000000000E+00  0.00000000000E+00  0.34783573915E+02  0.34783573915E+02  0.00000000000E+00 0.  1.
          1   -1    0    0  501    0  0.00000000000E+00 -0.00000000000E+00 -0.57451989732E+03  0.57451989732E+03  0.00000000000E+00 0. -1.
         25    2    1    2    0    0  0.17723868665E+02  0.17017761783E+02 -0.10757475212E+03  0.16680505595E+03  0.12509140523E+03 0.  0.
          5    1    3    3  502    0 -0.11367602591E+02  0.56308824335E+02 -0.10237279098E+03  0.11746304448E+03  0.41800000000E+01 0. -1.
         -5    1    3    3    0  502  0.29091471256E+02 -0.39291062552E+02 -0.52019611386E+01  0.49342011471E+02  0.41800000000E+01 0. -1.
        -11    1    1    2    0    0 -0.13223901615E+02 -0.53515430643E+02 -0.31211327909E+03  0.31694395700E+03  0.00000000000E+00 0.  1.
         11    1    1    2    0    0 -0.44999670503E+01  0.36497668860E+02 -0.12004829220E+03  0.12555445829E+03  0.00000000000E+00 0. -1.
</event>
<event>
 7    1  0.2723366E-009  0.9024998E+02  0.7561462E-02  0.1302247E+00
          2   -1    0    0  501    0  0.00000000000E+00  0.00000000000E+00  0.22879674176E+03  0.22879674176E+03  0.00000000000E+00 0. -1.
         -2   -1    0    0    0  501 -0.00000000000E+00 -0.00000000000E+00 -0.62085297009E+02  0.62085297009E+02  0.00000000000E+00 0.  1.
         25    2    1    2    0    0 -0.33489941788E+02 -0.12377115575E+02  0.11112310909E+03  0.17108921748E+03  0.12509358806E+03 0.  0.
          5    1    3    3  502    0  0.18868705262E+02 -0.28212633368E+02 -0.12044433294E+02  0.36256330388E+02  0.41800000000E+01 0.  1.
         -5    1    3    3    0  502 -0.52358647050E+02  0.15835517793E+02  0.12316754239E+03  0.13483288710E+03  0.41800000000E+01 0.  1.
        -11    1    1    2    0    0 -0.18123629600E+02  0.31548084031E+02 -0.63359044730E+01  0.36930898194E+02  0.00000000000E+00 0. -1.
         11    1    1    2    0    0  0.51613571388E+02 -0.19170968456E+02  0.61924240133E+02  0.82861923095E+02  0.00000000000E+00 0.  1.
</event>
<event>
 7    1  0.3582856E-009  0.1623870E+03  0.7561462E-02  0.1186028E+00
          1   -1    0    0  501    0  0.00000000000E+00  0.00000000000E+00  0.91501402308E+03  0.91501402308E+03  0.00000000000E+00 0.  1.
         -1   -1    0    0    0  501 -0.00000000000E+00 -0.00000000000E+00 -0.38523132474E+02  0.38523132474E+02  0.00000000000E+00 0. -1.
         25    2    1    2    0    0 -0.99767065749E+02  0.10153133607E+03  0.32056794669E+03  0.37239009793E+03  0.12509395261E+03 0.  0.
          5    1    3    3  502    0 -0.10555136712E+03  0.77583158013E+02  0.32170174381E+03  0.34737547680E+03  0.41800000000E+01 0. -1.
         -5    1    3    3    0  502  0.57843013658E+01  0.23948178057E+02 -0.11337971249E+01  0.25014621133E+02  0.41800000000E+01 0. -1.
        -11    1    1    2    0    0  0.10957325734E+02 -0.75336324427E+02  0.27606177047E+03  0.28636641891E+03  0.00000000000E+00 0.  1.
         11    1    1    2    0    0  0.88809740015E+02 -0.26195011643E+02  0.27986117345E+03  0.29478063871E+03  0.00000000000E+00 0. -1.
</event>
<event>
 7    1  0.2723366E-009  0.9554221E+02  0.7561462E-02  0.1289960E+00
         -1   -1    0    0    0  501 -0.00000000000E+00  0.00000000000E+00  0.36856263458E+02  0.36856263458E+02  0.00000000000E+00 0.  1.
          1   -1    0    0  501    0  0.00000000000E+00 -0.00000000000E+00 -0.43169911315E+03  0.43169911315E+03  0.00000000000E+00 0. -1.
         25    2    1    2    0    0 -0.51457038408E+02 -0.25404795426E+02 -0.28581563052E+03  0.31722371320E+03  0.12508828537E+03 0.  0.
          5    1    3    3  502    0 -0.22451255444E+02  0.32721409208E+02 -0.22375437130E+03  0.22728449258E+03  0.41800000000E+01 0. -1.
         -5    1    3    3    0  502 -0.29005782964E+02 -0.58126204633E+02 -0.62061259214E+02  0.89939220620E+02  0.41800000000E+01 0. -1.
        -11    1    1    2    0    0  0.65823254992E+02  0.27922458086E+02 -0.42400922132E+02  0.83127629347E+02  0.00000000000E+00 0.  1.
         11    1    1    2    0    0 -0.14366216584E+02 -0.25176626602E+01 -0.66626297047E+02  0.68204034062E+02  0.00000000000E+00 0. -1.
</event>
<event>
 7    1  0.2723366E-009  0.9781791E+02  0.7561462E-02  0.1284953E+00
         -1   -1    0    0    0  501 -0.00000000000E+00  0.00000000000E+00  0.24060483635E+02  0.24060483635E+02  0.00000000000E+00 0.  1.
          1   -1    0    0  501    0  0.00000000000E+00 -0.00000000000E+00 -0.70256675455E+03  0.70256675455E+03  0.00000000000E+00 0. -1.
         25    2    1    2    0    0 -0.68372791916E+01  0.70988437149E+02 -0.36835533175E+03  0.39549842169E+03  0.12508894648E+03 0.  0.
          5    1    3    3  502    0  0.14905130237E+02  0.23788085666E+02 -0.54908266987E+01  0.28907741262E+02  0.41800000000E+01 0. -1.
         -5    1    3    3    0  502 -0.21742409429E+02  0.47200351483E+02 -0.36286450505E+03  0.36659068042E+03  0.41800000000E+01 0. -1.
        -11    1    1    2    0    0 -0.22919545407E+02 -0.80641868752E+02 -0.24282220689E+03  0.25688721400E+03  0.00000000000E+00 0. -1.
         11    1    1    2    0    0  0.29756824598E+02  0.96534316025E+01 -0.67328732274E+02  0.74241602498E+02  0.00000000000E+00 0.  1.
</event>
<event>
 7    1  0.2723366E-009  0.1603866E+03  0.7561462E-02  0.1188261E+00
         -2   -1    0    0    0  501 -0.00000000000E+00  0.00000000000E+00  0.27165281696E+02  0.27165281696E+02  0.00000000000E+00 0.  1.
          2   -1    0    0  501    0  0.00000000000E+00 -0.00000000000E+00 -0.11367408414E+04  0.11367408414E+04  0.00000000000E+00 0. -1.
         25    2    1    2    0    0  0.10409156109E+03 -0.90818307536E+02 -0.58935296870E+03  0.61811563614E+03  0.12508796850E+03 0.  0.
          5    1    3    3  502    0  0.16480651145E+02 -0.75025691419E+02 -0.13749340350E+03  0.15755118102E+03  0.41800000000E+01 0. -1.
         -5    1    3    3    0  502  0.87610909946E+02 -0.15792616117E+02 -0.45185956519E+03  0.46056445512E+03  0.41800000000E+01 0. -1.
        -11    1    1    2    0    0 -0.11934165047E+02  0.54298441870E+02 -0.28764708355E+03  0.29297028818E+03  0.00000000000E+00 0. -1.
         11    1    1    2    0    0 -0.92157396045E+02  0.36519865666E+02 -0.23257550747E+03  0.25282019878E+03  0.00000000000E+00 0.  1.
</event>
<event>
 7    1  0.2723366E-009  0.2232095E+03  0.7561462E-02  0.1131513E+00
         -1   -1    0    0    0  501 -0.00000000000E+00  0.00000000000E+00  0.82555333807E+02  0.82555333807E+02  0.00000000000E+00 0.  1.
          1   -1    0    0  501    0  0.00000000000E+00 -0.00000000000E+00 -0.11843462846E+04  0.11843462846E+04  0.00000000000E+00 0. -1.
         25    2    1    2    0    0 -0.14882801563E+02  0.21751995511E+03 -0.16516326264E+03  0.30077037667E+03  0.12508991768E+03 0.  0.
          5    1    3    3  502    0 -0.24999506395E+01  0.66885739274E+02  0.11710786893E+02  0.68077652729E+02  0.41800000000E+01 0. -1.
         -5    1    3    3    0  502 -0.12382850924E+02  0.15063421584E+03 -0.17687404953E+03  0.23269272394E+03  0.41800000000E+01 0. -1.
        -11    1    1    2    0    0  0.41792920862E+02 -0.12496452462E+03 -0.66446885297E+03  0.67740802860E+03  0.00000000000E+00 0. -1.
         11    1    1    2    0    0 -0.26910119298E+02 -0.92555430492E+02 -0.27215883516E+03  0.28872321312E+03  0.00000000000E+00 0.  1.
</event>
<event>
 7    1  0.2723366E-009  0.1867107E+03  0.7561462E-02  0.1161462E+00
         -2   -1    0    0    0  501 -0.00000000000E+00  0.00000000000E+00  0.34881882800E+03  0.34881882800E+03  0.00000000000E+00 0.  1.
          2   -1    0    0  501    0  0.00000000000E+00 -0.00000000000E+00 -0.12105629999E+03  0.12105629999E+03  0.00000000000E+00 0. -1.
         25    2    1    2    0    0 -0.14228682092E+03  0.96882181236E+02  0.14373000998E+03  0.25678314207E+03  0.12509024676E+03 0.  0.
          5    1    3    3  502    0 -0.15620183962E+03  0.71528072233E+02  0.14856246800E+03  0.22716416776E+03  0.41800000000E+01 0.  1.
         -5    1    3    3    0  502  0.13915018696E+02  0.25354109002E+02 -0.48324580230E+01  0.29618974309E+02  0.41800000000E+01 0.  1.
        -11    1    1    2    0    0  0.75922731490E+02 -0.56810651929E+02 -0.51012712634E+01  0.94961751763E+02  0.00000000000E+00 0. -1.
         11    1    1    2    0    0  0.66364089430E+02 -0.40071529307E+02  0.89133789294E+02  0.11813023415E+03  0.00000000000E+00 0.  1.
</event>
<event>
 7    1  0.2723366E-009  0.8886347E+02  0.7561462E-02  0.1305628E+00
         -1   -1    0    0    0  501 -0.00000000000E+00  0.00000000000E+00  0.51670598193E+02  0.51670598193E+02  0.00000000000E+00 0.  1.
          1   -1    0    0  501    0  0.00000000000E+00 -0.00000000000E+00 -0.25299172789E+03  0.25299172789E+03  0.00000000000E+00 0. -1.
         25    2    1    2    0    0 -0.98040552073E+01  0.31694038142E+02 -0.13190642927E+03  0.18479198501E+03  0.12509252612E+03 0.  0.
          5    1    3    3  502    0  0.47619965057E+02  0.49423348459E+02 -0.77649246216E+02  0.10371695273E+03  0.41800000000E+01 0.  1.
         -5    1    3    3    0  502 -0.57424020264E+02 -0.17729310318E+02 -0.54257183052E+02  0.81075032287E+02  0.41800000000E+01 0.  1.
        -11    1    1    2    0    0 -0.73502818766E+01 -0.30670818691E+02  0.14142014608E+02  0.34564755750E+02  0.00000000000E+00 0.  1.
         11    1    1    2    0    0  0.17154337084E+02 -0.10232194506E+01 -0.83556715042E+02  0.85305585324E+02  0.00000000000E+00 0. -1.
</event>
<event>
 7    1  0.2723366E-009  0.2727613E+03  0.7561462E-02  0.1099710E+00
         -2   -1    0    0    0  501 -0.00000000000E+00  0.00000000000E+00  0.85918634380E+03  0.85918634380E+03  0.00000000000E+00 0.  1.
          2   -1    0    0  501    0  0.00000000000E+00 -0.00000000000E+00 -0.97686425098E+02  0.97686425098E+02  0.00000000000E+00 0. -1.
         25    2    1    2    0    0  0.10985462605E+03  0.24297307509E+03  0.40416400763E+03  0.50010108403E+03  0.12509434480E+03 0.  0.
          5    1    3    3  502    0  0.36157652218E+02  0.17161097827E+03  0.32903054534E+03  0.37287568416E+03  0.41800000000E+01 0.  1.
         -5    1    3    3    0  502  0.73696973831E+02  0.71362096823E+02  0.75133462293E+02  0.12722539987E+03  0.41800000000E+01 0.  1.
        -11    1    1    2    0    0 -0.93570996643E+02 -0.18661137054E+03  0.33349830470E+03  0.39344688875E+03  0.00000000000E+00 0. -1.
         11    1    1    2    0    0 -0.16283629405E+02 -0.56361704549E+02  0.23837606370E+02  0.63324796120E+02  0.00000000000E+00 0.  1.
</event>
<event>
 7    1  0.2723366E-009  0.8737529E+02  0.7561462E-02  0.1309335E+00
          1   -1    0    0  501    0  0.00000000000E+00  0.00000000000E+00  0.11712198416E+03  0.11712198416E+03  0.00000000000E+00 0. -1.
         -1   -1    0    0    0  501 -0.00000000000E+00 -0.00000000000E+00 -0.94647685382E+02  0.94647685382E+02  0.00000000000E+00 0.  1.
         25    2    1    2    0    0 -0.31380200258E+01  0.12475550445E+02  0.15903093923E+02  0.12675168411E+03  0.12509034535E+03 0.  0.
          5    1    3    3  502    0 -0.35810907969E+02  0.36080080315E+02  0.51740302779E+02  0.72654832301E+02  0.41800000000E+01 0. -1.
         -5    1    3    3    0  502  0.32672887944E+02 -0.23604529870E+02 -0.35837208855E+02  0.54096851808E+02  0.41800000000E+01 0. -1.
        -11    1    1    2    0    0  0.42211423333E+02 -0.25347606885E-01 -0.47423893951E+01  0.42476995650E+02  0.00000000000E+00 0.  1.
         11    1    1    2    0    0 -0.39073403307E+02 -0.12450202838E+02  0.11313594249E+02  0.42540989781E+02  0.00000000000E+00 0. -1.
</event>
<event>
 7    1  0.2723366E-009  0.1197046E+03  0.7561462E-02  0.1243585E+00
         -2   -1    0    0    0  501 -0.00000000000E+00  0.00000000000E+00  0.95449618699E+02  0.95449618699E+02  0.00000000000E+00 0.  1.
          2   -1    0    0  501    0  0.00000000000E+00 -0.00000000000E+00 -0.18702812564E+03  0.18702812564E+03  0.00000000000E+00 0. -1.
         25    2    1    2    0    0  0.19427100126E+02 -0.52180211046E+02 -0.97408310594E+02  0.16803379455E+03  0.12508713161E+03 0.  0.
          5    1    3    3  502    0  0.59182930777E+02 -0.60433686434E+02 -0.31199275252E+02  0.90253625565E+02  0.41800000000E+01 0. -1.
         -5    1    3    3    0  502 -0.39755830650E+02  0.82534753874E+01 -0.66209035342E+02  0.77780168986E+02  0.41800000000E+01 0. -1.
        -11    1    1    2    0    0 -0.48599708692E+02 -0.58507020954E+01 -0.21909487871E+01  0.48999618943E+02  0.00000000000E+00 0.  1.
         11    1    1    2    0    0  0.29172608565E+02  0.58030913142E+02  0.80207524373E+01  0.65444330849E+02  0.00000000000E+00 0. -1.
</event>
<event>
 7    1  0.2723366E-009  0.1319337E+03  0.7561462E-02  0.1224614E+00
         -1   -1    0    0    0  501 -0.00000000000E+00  0.00000000000E+00  0.72194586679E+03  0.72194586679E+03  0.00000000000E+00 0.  1.
          1   -1    0    0  501    0  0.00000000000E+00 -0.00000000000E+00 -0.28786981323E+02  0.28786981323E+02  0.00000000000E+00 0. -1.
         25    2    1    2    0    0 -0.61377696894E+02  0.57439276860E+02  0.47239721485E+03  0.49585586781E+03  0.12508965122E+03 0.  0.
          5    1    3    3  502    0  0.27564186241E+01  0.80528391941E+02  0.21800435994E+03  0.23245600252E+03  0.41800000000E+01 0. -1.
         -5    1    3    3    0  502 -0.64134115518E+02 -0.23089115081E+02  0.25439285491E+03  0.26339986529E+03  0.41800000000E+01 0. -1.
        -11    1    1    2    0    0  0.31501383745E+02 -0.74217806802E+02  0.95351907068E+02  0.12487035759E+03  0.00000000000E+00 0.  1.
         11    1    1    2    0    0  0.29876313149E+02  0.16778529942E+02  0.12540976355E+03  0.13000662271E+03  0.00000000000E+00 0. -1.
</event>
<event>
 7    1  0.2723366E-009  0.1038071E+03  0.7561462E-02  0.1272488E+00
          2   -1    0    0  501    0  0.00000000000E+00  0.00000000000E+00  0.34900636166E+03  0.34900636166E+03  0.00000000000E+00 0. -1.
         -2   -1    0    0    0  501 -0.00000000000E+00 -0.00000000000E+00 -0.50436046029E+02  0.50436046029E+02  0.00000000000E+00 0.  1.
         25    2    1    2    0    0 -0.53250186607E+02 -0.37301257139E+02  0.22153822786E+03  0.26258377274E+03  0.12507631727E+03 0.  0.
          5    1    3    3  502    0 -0.80691511367E+02  0.31609746031E+01  0.84185529278E+02  0.11672954856E+03  0.41800000000E+01 0.  1.
         -5    1    3    3    0  502  0.27441324760E+02 -0.40462231742E+02  0.13735269858E+03  0.14585422418E+03  0.41800000000E+01 0.  1.
        -11    1    1    2    0    0  0.41030812722E+02  0.28493050917E+01  0.89286711760E+02  0.98304440535E+02  0.00000000000E+00 0. -1.
         11    1    1    2    0    0  0.12219373886E+02  0.34451952047E+02 -0.12254623990E+02  0.38554194417E+02  0.00000000000E+00 0.  1.
</event>
<event>
 7    1  0.2723366E-009  0.1442015E+03  0.7561462E-02  0.1207785E+00
         -1   -1    0    0    0  501 -0.00000000000E+00  0.00000000000E+00  0.17089018264E+03  0.17089018264E+03  0.00000000000E+00 0.  1.
          1   -1    0    0  501    0  0.00000000000E+00 -0.00000000000E+00 -0.22705245904E+03  0.22705245904E+03  0.00000000000E+00 0. -1.
         25    2    1    2    0    0 -0.11970404903E+03 -0.39952533745E+02 -0.13612153483E+03  0.22383468789E+03  0.12509049105E+03 0.  0.
          5    1    3    3  502    0 -0.10200772434E+03 -0.57366769111E+02 -0.38888552593E+02  0.12339495106E+03  0.41800000000E+01 0. -1.
         -5    1    3    3    0  502 -0.17696324693E+02  0.17414235367E+02 -0.97232982234E+02  0.10043973683E+03  0.41800000000E+01 0. -1.
        -11    1    1    2    0    0  0.10787324585E+03  0.59556546211E+02  0.86194887740E+02  0.15037678691E+03  0.00000000000E+00 0.  1.
         11    1    1    2    0    0  0.11830803179E+02 -0.19604012467E+02 -0.62356293230E+01  0.23731166885E+02  0.00000000000E+00 0. -1.
</event>
<event>
 7    1  0.2723366E-009  0.1468262E+03  0.7561462E-02  0.1204428E+00
          1   -1    0    0  501    0  0.00000000000E+00  0.00000000000E+00  0.41195076028E+03  0.41195076028E+03  0.00000000000E+00 0. -1.
         -1   -1    0    0    0  501 -0.00000000000E+00 -0.00000000000E+00 -0.54044998432E+02  0.54044998432E+02  0.00000000000E+00 0.  1.
         25    2    1    2    0    0  0.80500298774E+02 -0.62585537932E+02  0.19828478660E+03  0.25565634988E+03  0.12508423152E+03 0.  0.
          5    1    3    3  502    0  0.17778694082E+02 -0.87365527237E+02  0.82200427935E+02  0.12133919427E+03  0.41800000000E+01 0.  1.
         -5    1    3    3    0  502  0.62721604692E+02  0.24779989305E+02  0.11608435866E+03  0.13431715561E+03  0.41800000000E+01 0.  1.
        -11    1    1    2    0    0 -0.39976663027E+02 -0.20101949802E+02  0.47623327670E+02  0.65346792660E+02  0.00000000000E+00 0. -1.
         11    1    1    2    0    0 -0.40523635746E+02  0.82687487734E+02  0.11199764758E+03  0.14499261617E+03  0.00000000000E+00 0.  1.
</event>
<event>
 7    1  0.2723366E-009  0.1038901E+03  0.7561462E-02  0.1272322E+00
          1   -1    0    0  501    0  0.00000000000E+00  0.00000000000E+00  0.51322843872E+02  0.51322843872E+02  0.00000000000E+00 0. -1.
         -1   -1    0    0    0  501 -0.00000000000E+00 -0.00000000000E+00 -0.38105137429E+03  0.38105137429E+03  0.00000000000E+00 0.  1.
         25    2    1    2    0    0 -0.20529664009E+02 -0.33470455271E+02 -0.28543592887E+03  0.31410714004E+03  0.12509151632E+03 0.  0.
          5    1    3    3  502    0  0.36671143308E+02 -0.35806115514E+02 -0.22481876097E+03  0.23062479993E+03  0.41800000000E+01 0.  1.
         -5    1    3    3    0  502 -0.57200807317E+02  0.23356602422E+01 -0.60617167906E+02  0.83482340117E+02  0.41800000000E+01 0.  1.
        -11    1    1    2    0    0  0.31728738586E+02  0.61263238640E+02 -0.54458274549E+01  0.69206605881E+02  0.00000000000E+00 0. -1.
         11    1    1    2    0    0 -0.11199074578E+02 -0.27792783368E+02 -0.38846774097E+02  0.49060472241E+02  0.00000000000E+00 0.  1.
</event>
<event>
 7    1  0.2723366E-009  0.1214519E+03  0.7561462E-02  0.1240721E+00
         -2   -1    0    0    0  501 -0.00000000000E+00  0.00000000000E+00  0.70733082048E+02  0.70733082048E+02  0.00000000000E+00 0.  1.
          2   -1    0    0  501    0  0.00000000000E+00 -0.00000000000E+00 -0.30269046495E+03  0.30269046495E+03  0.00000000000E+00 0. -1.
         25    2    1    2    0    0 -0.65853553456E+01 -0.89947072623E+02 -0.17516769068E+03  0.23337829524E+03  0.12509143076E+03 0.  0.
          5    1    3    3  502    0  0.21572526695E+02  0.25585926125E+02 -0.26109990869E+02  0.42652286537E+02  0.41800000000E+01 0. -1.
         -5    1    3    3    0  502 -0.28157882041E+02 -0.11553299875E+03 -0.14905769981E+03  0.19072600870E+03  0.41800000000E+01 0. -1.
        -11    1    1    2    0    0  0.42634667329E+01  0.55186203639E+02  0.17451258080E+02  0.58036545635E+02  0.00000000000E+00 0.  1.
         11    1    1    2    0    0  0.23218886127E+01  0.34760868984E+02 -0.74240950303E+02  0.82008706130E+02  0.00000000000E+00 0. -1.
</event>
<event>
 7    1  0.2723366E-009  0.8600794E+02  0.7561462E-02  0.1312818E+00
          1   -1    0    0  501    0  0.00000000000E+00  0.00000000000E+00  0.10660010220E+03  0.10660010220E+03  0.00000000000E+00 0. -1.
         -1   -1    0    0    0  501 -0.00000000000E+00 -0.00000000000E+00 -0.11865238354E+03  0.11865238354E+03  0.00000000000E+00 0.  1.
         25    2    1    2    0    0 -0.54207777663E+01 -0.46292447838E+00  0.24797310087E+02  0.12764071152E+03  0.12509054928E+03 0.  0.
          5    1    3    3  502    0  0.15545410483E+02  0.59129125120E+02  0.58728802568E+01  0.61561971598E+02  0.41800000000E+01 0. -1.
         -5    1    3    3    0  502 -0.20966188249E+02 -0.59592049598E+02  0.18924429830E+02  0.66078739920E+02  0.41800000000E+01 0. -1.
        -11    1    1    2    0    0 -0.13992400336E+02  0.16932376123E+02  0.23466600392E+02  0.32143023539E+02  0.00000000000E+00 0. -1.
         11    1    1    2    0    0  0.19413178102E+02 -0.16469451644E+02 -0.60316191815E+02  0.65468750687E+02  0.00000000000E+00 0.  1.
</event>
<event>
 7    1  0.2723366E-009  0.9345690E+02  0.7561462E-02  0.1294690E+00
         -1   -1    0    0    0  501 -0.00000000000E+00  0.00000000000E+00  0.66609837325E+02  0.66609837325E+02  0.00000000000E+00 0.  1.
          1   -1    0    0  501    0  0.00000000000E+00 -0.00000000000E+00 -0.23285508786E+03  0.23285508786E+03  0.00000000000E+00 0. -1.
         25    2    1    2    0    0  0.10811274829E+02 -0.58677531511E+02 -0.76922601156E+02  0.15850977410E+03  0.12509326740E+03 0.  0.
          5    1    3    3  502    0  0.30782536207E+02 -0.39927801313E+02 -0.10654583542E+03  0.11794609488E+03  0.41800000000E+01 0. -1.
         -5    1    3    3    0  502 -0.19971261378E+02 -0.18749730198E+02  0.29623234263E+02  0.40563679218E+02  0.41800000000E+01 0. -1.
        -11    1    1    2    0    0  0.39106653981E+02  0.38172850431E+02 -0.51166844890E+02  0.74863495187E+02  0.00000000000E+00 0. -1.
         11    1    1    2    0    0 -0.49917928810E+02  0.20504681080E+02 -0.38155804484E+02  0.66091655893E+02  0.00000000000E+00 0.  1.
</event>
<event>
 7    1  0.2723366E-009  0.1953780E+03  0.7561462E-02  0.1153698E+00
          1   -1    0    0  501    0  0.00000000000E+00  0.00000000000E+00  0.16999193680E+03  0.16999193680E+03  0.00000000000E+00 0. -1.
         -1   -1    0    0    0  501 -0.00000000000E+00 -0.00000000000E+00 -0.27094739383E+03  0.27094739383E+03  0.00000000000E+00 0.  1.
         25    2    1    2    0    0  0.87842021389E+02 -0.15271880228E+03 -0.10691819946E+03  0.24107770981E+03  0.12509079703E+03 0.  0.
          5    1    3    3  502    0  0.24231144480E+02  0.10178396103E+01 -0.64924065174E+02  0.69431916285E+02  0.41800000000E+01 0. -1.
         -5    1    3    3    0  502  0.63610876909E+02 -0.15373664189E+03 -0.41994134285E+02  0.17164579353E+03  0.41800000000E+01 0. -1.
        -11    1    1    2    0    0 -0.92822850692E+02  0.68527655134E+02  0.11044345679E+01  0.11538345161E+03  0.00000000000E+00 0.  1.
         11    1    1    2    0    0  0.49808293031E+01  0.84191147150E+02  0.48583078624E+01  0.84478169217E+02  0.00000000000E+00 0. -1.
</event>
<event>
 7    1  0.2723366E-009  0.1267599E+03  0.7561462E-02  0.1232344E+00
          1   -1    0    0  501    0  0.00000000000E+00  0.00000000000E+00  0.62220008106E+03  0.62220008106E+03  0.00000000000E+00 0. -1.
         -1   -1    0    0    0  501 -0.00000000000E+00 -0.00000000000E+00 -0.28338085780E+02  0.28338085780E+02  0.00000000000E+00 0.  1.
         25    2    1    2    0    0  0.78555102717E+02 -0.26184870153E+01  0.39416555143E+03  0.42094699874E+03  0.12510848561E+03 0.  0.
          5    1    3    3  502    0  0.58627945726E+02  0.57207268073E+02  0.18327165268E+03  0.20078814362E+03  0.41800000000E+01 0. -1.
         -5    1    3    3    0  502  0.19927156991E+02 -0.59825755089E+02  0.21089389875E+03  0.22015885512E+03  0.41800000000E+01 0. -1.
        -11    1    1    2    0    0 -0.11990630529E+02 -0.31355739736E+02  0.96527666083E+02  0.10219857120E+03  0.00000000000E+00 0. -1.
         11    1    1    2    0    0 -0.66564472189E+02  0.33974226751E+02  0.10316877776E+03  0.12739259690E+03  0.00000000000E+00 0.  1.
</event>
<event>
 7    1  0.2723366E-009  0.1176810E+03  0.7561462E-02  0.1246972E+00
         -1   -1    0    0    0  501 -0.00000000000E+00  0.00000000000E+00  0.12900290259E+03  0.12900290259E+03  0.00000000000E+00 0.  1.
          1   -1    0    0  501    0  0.00000000000E+00 -0.00000000000E+00 -0.13187114578E+03  0.13187114578E+03  0.00000000000E+00 0. -1.
         25    2    1    2    0    0 -0.13205769795E+02 -0.66980034030E+02  0.24294974915E+02  0.14456001931E+03  0.12508651431E+03 0.  0.
          5    1    3    3  502    0 -0.52177889225E+02 -0.69740376077E+02 -0.15578016713E+02  0.88579902823E+02  0.41800000000E+01 0.  1.
         -5    1    3    3    0  502  0.38972119429E+02  0.27603420469E+01  0.39872991628E+02  0.55980116491E+02  0.41800000000E+01 0.  1.
        -11    1    1    2    0    0  0.33504006663E+02 -0.51864825495E+01 -0.23512434865E+02  0.41258364691E+02  0.00000000000E+00 0. -1.
         11    1    1    2    0    0 -0.20298236867E+02  0.72166516580E+02 -0.36507832308E+01  0.75055664366E+02  0.00000000000E+00 0.  1.
</event>
<event>
 7    1  0.2723366E-009  0.1220798E+03  0.7561462E-02  0.1239705E+00
          4   -1    0    0  501    0  0.00000000000E+00  0.00000000000E+00  0.34982542606E+02  0.34982542606E+02  0.00000000000E+00 0. -1.
         -4   -1    0    0    0  501 -0.00000000000E+00 -0.00000000000E+00 -0.82680808283E+03  0.82680808283E+03  0.00000000000E+00 0.  1.
         25    2    1    2    0    0 -0.72386428102E+02 -0.80377351370E+02 -0.22595536659E+03  0.28000593617E+03  0.12508870059E+03 0.  0.
          5    1    3    3  502    0 -0.41100201220E+02 -0.71653073665E+02 -0.23235673057E+03  0.24663842391E+03  0.41800000000E+01 0.  1.
         -5    1    3    3    0  502 -0.31286226882E+02 -0.87242777044E+01  0.64013639820E+01  0.33367512265E+02  0.41800000000E+01 0.  1.
        -11    1    1    2    0    0  0.15944071136E+02  0.69392917922E+02 -0.39854092027E+03  0.40485115239E+03  0.00000000000E+00 0.  1.
         11    1    1    2    0    0  0.56442356966E+02  0.10984433448E+02 -0.16732925336E+03  0.17693353687E+03  0.00000000000E+00 0. -1.
</event>
<event>
 7    1  0.2723366E-009  0.7919244E+02  0.7561462E-02  0.1331359E+00
          1   -1    0    0  501    0  0.00000000000E+00  0.00000000000E+00  0.78140666830E+03  0.78140666830E+03  0.00000000000E+00 0. -1.
         -1   -1    0    0    0  501 -0.00000000000E+00 -0.00000000000E+00 -0.18781430067E+02  0.18781430067E+02  0.00000000000E+00 0.  1.
         25    2    1    2    0    0  0.37901479894E+02  0.30448140605E+02  0.49859698326E+03  0.51634324429E+03  0.12509109788E+03 0.  0.
          5    1    3    3  502    0  0.17238645535E+02  0.55319794494E+02  0.46812605811E+03  0.47171700123E+03  0.41800000000E+01 0.  1.
         -5    1    3    3    0  502  0.20662834359E+02 -0.24871653889E+02  0.30470925142E+02  0.44626243064E+02  0.41800000000E+01 0.  1.
        -11    1    1    2    0    0 -0.57066790276E+01  0.12657953881E+02 -0.50672332717E+00  0.13894126476E+02  0.00000000000E+00 0.  1.
         11    1    1    2    0    0 -0.32194800866E+02 -0.43106094487E+02  0.26453497831E+03  0.26995072760E+03  0.00000000000E+00 0. -1.
</event>
<event>
 7    1  0.2723366E-009  0.2008746E+03  0.7561462E-02  0.1149003E+00
          2   -1    0    0  501    0  0.00000000000E+00  0.00000000000E+00  0.19151514364E+04  0.19151514364E+04  0.00000000000E+00 0. -1.
         -2   -1    0    0    0  501 -0.00000000000E+00 -0.00000000000E+00 -0.25775653050E+02  0.25775653050E+02  0.00000000000E+00 0.  1.
         25    2    1    2    0    0  0.10684537602E+03  0.16123726279E+03  0.11378962343E+04  0.11609775827E+04  0.12509084006E+03 0.  0.
          5    1    3    3  502    0  0.50691193991E+02  0.76986562670E+02  0.86441045845E+03  0.86932125308E+03  0.41800000000E+01 0.  1.
         -5    1    3    3    0  502  0.56154182026E+02  0.84250700124E+02  0.27348577588E+03  0.29165632967E+03  0.41800000000E+01 0.  1.
        -11    1    1    2    0    0 -0.94232340072E+02 -0.73511606845E+02  0.46186063917E+03  0.47707330702E+03  0.00000000000E+00 0.  1.
         11    1    1    2    0    0 -0.12613035945E+02 -0.87725655948E+02  0.28961890986E+03  0.30287619969E+03  0.00000000000E+00 0. -1.
</event>
<event>
 7    1  0.2723366E-009  0.1027941E+03  0.7561462E-02  0.1274528E+00
          2   -1    0    0  501    0  0.00000000000E+00  0.00000000000E+00  0.85450184958E+02  0.85450184958E+02  0.00000000000E+00 0. -1.
         -2   -1    0    0    0  501 -0.00000000000E+00 -0.00000000000E+00 -0.14718633558E+03  0.14718633558E+03  0.00000000000E+00 0.  1.
         25    2    1    2    0    0  0.35297372820E+02  0.13592125748E+02 -0.73069359751E+02  0.14972405512E+03  0.12509001134E+03 0.  0.
          5    1    3    3  502    0  0.62305656031E+02  0.48765967874E+02 -0.68876661665E+02  0.10498371930E+03  0.41800000000E+01 0.  1.
         -5    1    3    3    0  502 -0.27008283211E+02 -0.35173842127E+02 -0.41926980856E+01  0.44740335819E+02  0.41800000000E+01 0.  1.
        -11    1    1    2    0    0 -0.55189813462E+02 -0.23022236844E+02  0.50139420990E+01  0.60008986949E+02  0.00000000000E+00 0. -1.
         11    1    1    2    0    0  0.19892440642E+02  0.94301110966E+01  0.63192670324E+01  0.22903478465E+02  0.00000000000E+00 0.  1.
</event>
<event>
 7    1  0.2723366E-009  0.3166577E+03  0.7561462E-02  0.1077198E+00
         -1   -1    0    0    0  501 -0.00000000000E+00  0.00000000000E+00  0.12263719917E+03  0.12263719917E+03  0.00000000000E+00 0.  1.
          1   -1    0    0  501    0  0.00000000000E+00 -0.00000000000E+00 -0.86218422976E+03  0.86218422976E+03  0.00000000000E+00 0. -1.
         25    2    1    2    0    0 -0.93765452640E+02 -0.29127640884E+03 -0.44615607933E+03  0.55528136309E+03  0.12509291994E+03 0.  0.
          5    1    3    3  502    0  0.13108001443E+02 -0.15134370732E+01 -0.15668352725E+01  0.13929736766E+02  0.41800000000E+01 0.  1.
         -5    1    3    3    0  502 -0.10687345408E+03 -0.28976297177E+03 -0.44458924406E+03  0.54135162633E+03  0.41800000000E+01 0.  1.
        -11    1    1    2    0    0  0.23938228112E+02  0.16120508910E+03 -0.12358288610E+03  0.20453080270E+03  0.00000000000E+00 0.  1.
         11    1    1    2    0    0  0.69827224528E+02  0.13007131974E+03 -0.16980806516E+03  0.22500926314E+03  0.00000000000E+00 0. -1.
</event>
<event>
 7    1  0.2723366E-009  0.1133169E+03  0.7561462E-02  0.1254548E+00
          1   -1    0    0  501    0  0.00000000000E+00  0.00000000000E+00  0.10197500663E+03  0.10197500663E+03  0.00000000000E+00 0. -1.
         -1   -1    0    0    0  501 -0.00000000000E+00 -0.00000000000E+00 -0.20829110219E+03  0.20829110219E+03  0.00000000000E+00 0.  1.
         25    2    1    2    0    0 -0.61454329955E+02  0.68459054733E+02 -0.37660724905E+02  0.15977682977E+03  0.12508808210E+03 0.  0.
          5    1    3    3  502    0 -0.41255367490E+02 -0.18396983977E+02  0.23959972122E+02  0.51303089871E+02  0.41800000000E+01 0.  1.
         -5    1    3    3    0  502 -0.20198962465E+02  0.86856038709E+02 -0.61620697026E+02  0.10847373990E+03  0.41800000000E+01 0.  1.
        -11    1    1    2    0    0  0.23248866029E+02 -0.25498506083E+02 -0.84146979768E+02  0.90947225291E+02  0.00000000000E+00 0.  1.
         11    1    1    2    0    0  0.38205463927E+02 -0.42960548649E+02  0.15491609115E+02  0.59542053769E+02  0.00000000000E+00 0. -1.
</event>
<event>
 7    1  0.2723366E-009  0.9445492E+02  0.7561462E-02  0.1292408E+00
         -2   -1    0    0    0  501 -0.00000000000E+00  0.00000000000E+00  0.49694452955E+03  0.49694452955E+03  0.00000000000E+00 0.  1.
          2   -1    0    0  501    0  0.00000000000E+00 -0.00000000000E+00 -0.25212281504E+02  0.25212281504E+02  0.00000000000E+00 0. -1.
         25    2    1    2    0    0 -0.15656956871E+02  0.20974736768E+02  0.23190115137E+03  0.26478287842E+03  0.12508696501E+03 0.  0.
          5    1    3    3  502    0 -0.11318587391E+01  0.66064310513E+02  0.19068693383E+03  0.20185329663E+03  0.41800000000E+01 0.  1.
         -5    1    3    3    0  502 -0.14525098132E+02 -0.45089573744E+02  0.41214217539E+02  0.62929581784E+02  0.41800000000E+01 0.  1.
        -11    1    1    2    0    0  0.26613230523E+02 -0.42988000420E+02  0.22014235184E+03  0.22587360911E+03  0.00000000000E+00 0.  1.
         11    1    1    2    0    0 -0.10956273652E+02  0.22013263651E+02  0.19688744832E+02  0.31500323521E+02  0.00000000000E+00 0. -1.
</event>
<event>
 7    1  0.2723366E-009  0.8680454E+02  0.7561462E-02  0.1310780E+00
         -2   -1    0    0    0  501 -0.00000000000E+00  0.00000000000E+00  0.40487972530E+02  0.40487972530E+02  0.00000000000E+00 0.  1.
          2   -1    0    0  501    0  0.00000000000E+00 -0.00000000000E+00 -0.32382608426E+03  0.32382608426E+03  0.00000000000E+00 0. -1.
         25    2    1    2    0    0  0.20289008971E+02 -0.11589982783E+02 -0.11187190162E+03  0.16943490079E+03  0.12508753595E+03 0.  0.
          5    1    3    3  502    0  0.28387056017E+02 -0.41122638297E+02 -0.12588163534E+03  0.13550112489E+03  0.41800000000E+01 0. -1.
         -5    1    3    3    0  502 -0.80980470462E+01  0.29532655515E+02  0.14009733729E+02  0.33933775901E+02  0.41800000000E+01 0. -1.
        -11    1    1    2    0    0  0.27029780998E+02 -0.21733612922E+02 -0.67512493208E+02  0.75900564758E+02  0.00000000000E+00 0.  1.
         11    1    1    2    0    0 -0.47318789969E+02  0.33323595704E+02 -0.10395371691E+03  0.11897859124E+03  0.00000000000E+00 0. -1.
</event>
<event>
 7    1  0.2723366E-009  0.2569134E+03  0.7561462E-02  0.1109012E+00
         -1   -1    0    0    0  501 -0.00000000000E+00  0.00000000000E+00  0.32384537753E+03  0.32384537753E+03  0.00000000000E+00 0.  1.
          1   -1    0    0  501    0  0.00000000000E+00 -0.00000000000E+00 -0.21505141988E+03  0.21505141988E+03  0.00000000000E+00 0. -1.
         25    2    1    2    0    0 -0.64957770330E+02  0.22637197647E+03  0.10341730312E+03  0.28601636454E+03  0.12508572478E+03 0.  0.
          5    1    3    3  502    0 -0.99718512827E+02  0.13618917664E+03  0.53259642584E+02  0.17704613964E+03  0.41800000000E+01 0.  1.
         -5    1    3    3    0  502  0.34760742497E+02  0.90182799835E+02  0.50157660536E+02  0.10897022490E+03  0.41800000000E+01 0.  1.
        -11    1    1    2    0    0 -0.17952921483E+02 -0.55203822645E+02 -0.19121374516E+02  0.61117889262E+02  0.00000000000E+00 0. -1.
         11    1    1    2    0    0  0.82910691813E+02 -0.17116815383E+03  0.24498029043E+02  0.19176254360E+03  0.00000000000E+00 0.  1.
</event>
<event>
 7    1  0.2723366E-009  0.1075376E+03  0.7561462E-02  0.1265199E+00
          1   -1    0    0  501    0  0.00000000000E+00  0.00000000000E+00  0.15560873904E+03  0.15560873904E+03  0.00000000000E+00 0. -1.
         -1   -1    0    0    0  501 -0.00000000000E+00 -0.00000000000E+00 -0.10715676561E+03  0.10715676561E+03  0.00000000000E+00 0.  1.
         25    2    1    2    0    0 -0.71219635636E+02 -0.23197826490E+02  0.10445159823E+02  0.14618223145E+03  0.12509903187E+03 0.  0.
          5    1    3    3  502    0  0.30823785102E+02 -0.13076099782E+02  0.25713418102E+02  0.42423370729E+02  0.41800000000E+01 0. -1.
         -5    1    3    3    0  502 -0.10204342074E+03 -0.10121726709E+02 -0.15268258280E+02  0.10375886072E+03  0.41800000000E+01 0. -1.
        -11    1    1    2    0    0  0.22749455864E+02 -0.40382847294E+01 -0.23990595820E+02  0.33307569312E+02  0.00000000000E+00 0.  1.
         11    1    1    2    0    0  0.48470179771E+02  0.27236111220E+02  0.61997409426E+02  0.83275703881E+02  0.00000000000E+00 0. -1.
</event>
<event>
 7    1  0.2723366E-009  0.1111577E+03  0.7561462E-02  0.1258441E+00
          1   -1    0    0  501    0  0.00000000000E+00  0.00000000000E+00  0.36189371795E+02  0.36189371795E+02  0.00000000000E+00 0. -1.
         -1   -1    0    0    0  501 -0.00000000000E+00 -0.00000000000E+00 -0.40083654878E+03  0.40083654878E+03  0.00000000000E+00 0.  1.
         25    2    1    2    0    0 -0.10526887666E+02 -0.47149880094E+02 -0.24419839956E+03  0.27859311835E+03  0.12508933083E+03 0.  0.
          5    1    3    3  502    0  0.49680973275E+02 -0.53401786401E+02 -0.14351173909E+03  0.16103739178E+03  0.41800000000E+01 0.  1.
         -5    1    3    3    0  502 -0.60207860940E+02  0.62519063070E+01 -0.10068666047E+03  0.11755572657E+03  0.41800000000E+01 0.  1.
        -11    1    1    2    0    0  0.36275395287E+02  0.16634973063E+01 -0.12342363306E+02  0.38353688981E+02  0.00000000000E+00 0. -1.
         11    1    1    2    0    0 -0.25748507621E+02  0.45486382788E+02 -0.10810641411E+03  0.12007911324E+03  0.00000000000E+00 0.  1.
</event>
<event>
 7    1  0.2723366E-009  0.8554314E+02  0.7561462E-02  0.1314018E+00
         -2   -1    0    0    0  501 -0.00000000000E+00  0.00000000000E+00  0.27823129753E+02  0.27823129753E+02  0.00000000000E+00 0. -1.
          2   -1    0    0  501    0  0.00000000000E+00 -0.00000000000E+00 -0.56181594799E+03  0.56181594799E+03  0.00000000000E+00 0.  1.
         25    2    1    2    0    0  0.14777956558E+02  0.30850525674E+02 -0.41279156866E+03  0.43268306579E+03  0.12509042062E+03 0.  0.
          5    1    3    3  502    0 -0.23618041144E+01 -0.20459326585E+02 -0.34596757391E+03  0.34660524629E+03  0.41800000000E+01 0.  1.
         -5    1    3    3    0  502  0.17139760672E+02  0.51309852259E+02 -0.66823994756E+02  0.86077819500E+02  0.41800000000E+01 0.  1.
        -11    1    1    2    0    0 -0.51853023146E+02 -0.27212690293E+02 -0.94307011042E+02  0.11100936381E+03  0.00000000000E+00 0.  1.
         11    1    1    2    0    0  0.37075066588E+02 -0.36378353809E+01 -0.26894238534E+02  0.45946648138E+02  0.00000000000E+00 0. -1.
</event>
<event>
 7    1  0.2723366E-009  0.8955336E+02  0.7561462E-02  0.1303937E+00
          1   -1    0    0  501    0  0.00000000000E+00  0.00000000000E+00  0.16680563164E+02  0.16680563164E+02  0.00000000000E+00 0.  1.
         -1   -1    0    0    0  501 -0.00000000000E+00 -0.00000000000E+00 -0.75945570715E+03  0.75945570715E+03  0.00000000000E+00 0. -1.
         25    2    1    2    0    0 -0.12558197083E+02 -0.17390336778E+02 -0.46438454815E+03  0.48141460173E+03  0.12508748166E+03 0.  0.
          5    1    3    3  502    0 -0.42239447786E+02 -0.40639265110E+02 -0.10744291750E+03  0.12246294843E+03  0.41800000000E+01 0. -1.
         -5    1    3    3    0  502  0.29681250702E+02  0.23248928332E+02 -0.35694163066E+03  0.35895165330E+03  0.41800000000E+01 0. -1.
        -11    1    1    2    0    0 -0.32196375923E+02  0.19435732988E+02 -0.53400404869E+02  0.65314298431E+02  0.00000000000E+00 0.  1.
         11    1    1    2    0    0  0.44754573006E+02 -0.20453962101E+01 -0.22499019097E+03  0.22940737016E+03  0.00000000000E+00 0. -1.
</event>
<event>
 7    1  0.2723366E-009  0.1521355E+03  0.7561462E-02  0.1197873E+00
         -2   -1    0    0    0  501 -0.00000000000E+00  0.00000000000E+00  0.45464031363E+02  0.45464031363E+02  0.00000000000E+00 0.  1.
          2   -1    0    0  501    0  0.00000000000E+00 -0.00000000000E+00 -0.63687561941E+03  0.63687561941E+03  0.00000000000E+00 0. -1.
         25    2    1    2    0    0 -0.34347334352E+02  0.10561476386E+03 -0.17648972766E+03  0.24316708781E+03  0.12508953153E+03 0.  0.
          5    1    3    3  502    0 -0.77810723430E+01  0.12642644125E+03 -0.16326375714E+03  0.20668022868E+03  0.41800000000E+01 0.  1.
         -5    1    3    3    0  502 -0.26566262009E+02 -0.20811677381E+02 -0.13225970519E+02  0.36486859124E+02  0.41800000000E+01 0.  1.
        -11    1    1    2    0    0  0.65486839630E+02 -0.78605366423E+02 -0.30985531384E+03  0.32630912539E+03  0.00000000000E+00 0.  1.
         11    1    1    2    0    0 -0.31139505278E+02 -0.27009397442E+02 -0.10506654655E+03  0.11286343758E+03  0.00000000000E+00 0. -1.
</event>
<event>
 7    1  0.2723366E-009  0.1245798E+03  0.7561462E-02  0.1235727E+00
         -1   -1    0    0    0  501 -0.00000000000E+00  0.00000000000E+00  0.13906693809E+03  0.13906693809E+03  0.00000000000E+00 0.  1.
          1   -1    0    0  501    0  0.00000000000E+00 -0.00000000000E+00 -0.11698337879E+03  0.11698337879E+03  0.00000000000E+00 0. -1.
         25    2    1    2    0    0  0.40419456713E+02 -0.51945245741E+02 -0.27070606259E+01  0.14137888190E+03  0.12509444046E+03 0.  0.
          5    1    3    3  502    0  0.79587185241E+02 -0.10583498584E+02  0.14569388287E+02  0.81705997160E+02  0.41800000000E+01 0.  1.
         -5    1    3    3    0  502 -0.39167728527E+02 -0.41361747157E+02 -0.17276448912E+02  0.59672884737E+02  0.41800000000E+01 0.  1.
        -11    1    1    2    0    0  0.26494942666E+02  0.32564427718E+02  0.13495834981E+02  0.44097182464E+02  0.00000000000E+00 0.  1.
         11    1    1    2    0    0 -0.66914399379E+02  0.19380818022E+02  0.11294784952E+02  0.70574252519E+02  0.00000000000E+00 0. -1.
</event>
<event>
 7    1  0.2723366E-009  0.1465800E+03  0.7561462E-02  0.1204740E+00
         -1   -1    0    0    0  501 -0.00000000000E+00  0.00000000000E+00  0.10310793636E+03  0.10310793636E+03  0.00000000000E+00 0.  1.
          1   -1    0    0  501    0  0.00000000000E+00 -0.00000000000E+00 -0.32541958532E+03  0.32541958532E+03  0.00000000000E+00 0. -1.
         25    2    1    2    0    0  0.63015740169E+02  0.11762155047E+03 -0.18839186703E+03  0.26257616986E+03  0.12509571045E+03 0.  0.
          5    1    3    3  502    0  0.70486112143E+02  0.79031615843E+02 -0.19553414333E+03  0.22240809768E+03  0.41800000000E+01 0.  1.
         -5    1    3    3    0  502 -0.74703719735E+01  0.38589934626E+02  0.71422762978E+01  0.40168072179E+02  0.41800000000E+01 0.  1.
        -11    1    1    2    0    0 -0.63079539169E+01 -0.78513342289E+02 -0.52432037216E+02  0.94621634559E+02  0.00000000000E+00 0. -1.
         11    1    1    2    0    0 -0.56707786252E+02 -0.39108208180E+02  0.18512255294E+02  0.71329717262E+02  0.00000000000E+00 0.  1.
</event>
<event>
 7    1  0.2723366E-009  0.1936607E+03  0.7561462E-02  0.1155200E+00
          2   -1    0    0  501    0  0.00000000000E+00  0.00000000000E+00  0.20043348904E+03  0.20043348904E+03  0.00000000000E+00 0. -1.
         -2   -1    0    0    0  501 -0.00000000000E+00 -0.00000000000E+00 -0.20344433890E+03  0.20344433890E+03  0.00000000000E+00 0.  1.
         25    2    1    2    0    0 -0.18638481295E+02 -0.17107913717E+03 -0.33101124560E+02  0.21531006433E+03  0.12508906906E+03 0.  0.
          5    1    3    3  502    0  0.52938379011E+02 -0.56983889535E+02 -0.15395858927E+02  0.79398617816E+02  0.41800000000E+01 0. -1.
         -5    1    3    3    0  502 -0.71576860307E+02 -0.11409524763E+03 -0.17705265634E+02  0.13591144652E+03  0.41800000000E+01 0. -1.
        -11    1    1    2    0    0  0.26023631079E+02  0.15211733787E+03  0.47832556558E+02  0.16157000749E+03  0.00000000000E+00 0. -1.
         11    1    1    2    0    0 -0.73851497836E+01  0.18961799299E+02 -0.17742281860E+02  0.26997756121E+02  0.00000000000E+00 0.  1.
</event>
<event>
 7    1  0.2723366E-009  0.1091098E+03  0.7561462E-02  0.1262227E+00
          2   -1    0    0  501    0  0.00000000000E+00  0.00000000000E+00  0.58228667836E+03  0.58228667836E+03  0.00000000000E+00 0. -1.
         -2   -1    0    0    0  501 -0.00000000000E+00 -0.00000000000E+00 -0.40287989592E+02  0.40287989592E+02  0.00000000000E+00 0.  1.
         25    2    1    2    0    0 -0.71672183991E+02  0.69021444136E+02  0.36704517974E+03  0.40033850349E+03  0.12509153327E+03 0.  0.
          5    1    3    3  502    0 -0.49516010512E+00  0.12683293110E+02  0.25820500645E+03  0.25855059247E+03  0.41800000000E+01 0. -1.
         -5    1    3    3    0  502 -0.71177023886E+02  0.56338151025E+02  0.10884017328E+03  0.14178791102E+03  0.41800000000E+01 0. -1.
        -11    1    1    2    0    0  0.77362487347E+02 -0.45427461730E+02  0.17642071304E+03  0.19792139024E+03  0.00000000000E+00 0. -1.
         11    1    1    2    0    0 -0.56903033552E+01 -0.23593982406E+02 -0.14672040036E+01  0.24314774225E+02  0.00000000000E+00 0.  1.
</event>
<event>
 7    1  0.2723366E-009  0.1108604E+03  0.7561462E-02  0.1258985E+00
         -2   -1    0    0    0  501 -0.00000000000E+00  0.00000000000E+00  0.16256868802E+03  0.16256868802E+03  0.00000000000E+00 0.  1.
          2   -1    0    0  501    0  0.00000000000E+00 -0.00000000000E+00 -0.15370714495E+03  0.15370714495E+03  0.00000000000E+00 0. -1.
         25    2    1    2    0    0  0.13088722799E+02  0.66380325100E+02 -0.87888559822E+02  0.16718385735E+03  0.12509348899E+03 0.  0.
          5    1    3    3  502    0 -0.34147613033E+02 -0.87041915474E+00  0.13181263906E+02  0.36851529460E+02  0.41800000000E+01 0. -1.
         -5    1    3    3    0  502  0.47236335832E+02  0.67250744255E+02 -0.10106982373E+03  0.13033232789E+03  0.41800000000E+01 0. -1.
        -11    1    1    2    0    0  0.13181008421E+02 -0.75931073031E+02  0.42363385721E+02  0.87942727297E+02  0.00000000000E+00 0. -1.
         11    1    1    2    0    0 -0.26269731220E+02  0.95507479310E+01  0.54386717174E+02  0.61149248314E+02  0.00000000000E+00 0.  1.
</event>
<event>
 7    1  0.2723366E-009  0.1425944E+03  0.7561462E-02  0.1209880E+00
         -2   -1    0    0    0  501 -0.00000000000E+00  0.00000000000E+00  0.24774005134E+03  0.24774005134E+03  0.00000000000E+00 0.  1.
          2   -1    0    0  501    0  0.00000000000E+00 -0.00000000000E+00 -0.10625753841E+03  0.10625753841E+03  0.00000000000E+00 0. -1.
         25    2    1    2    0    0  0.11308616067E+03 -0.34342438013E+02  0.10106364673E+03  0.19956922000E+03  0.12508449183E+03 0.  0.
          5    1    3    3  502    0  0.45083680577E+02  0.40760245051E+02  0.71148864115E+01  0.61335388151E+02  0.41800000000E+01 0. -1.
         -5    1    3    3    0  502  0.68002480094E+02 -0.75102683064E+02  0.93948760320E+02  0.13823383185E+03  0.41800000000E+01 0. -1.
        -11    1    1    2    0    0 -0.22907023146E+02 -0.65842762077E+01  0.49542140932E+02  0.54977341976E+02  0.00000000000E+00 0.  1.
         11    1    1    2    0    0 -0.90179137525E+02  0.40926714220E+02 -0.91232747353E+01  0.99451027765E+02  0.00000000000E+00 0. -1.
</event>
<event>
 7    1  0.2723366E-009  0.9306623E+02  0.7561462E-02  0.1295592E+00
         -2   -1    0    0    0  501 -0.00000000000E+00  0.00000000000E+00  0.15860489898E+02  0.15860489898E+02  0.00000000000E+00 0.  1.
          2   -1    0    0  501    0  0.00000000000E+00 -0.00000000000E+00 -0.86219867681E+03  0.86219867681E+03  0.00000000000E+00 0. -1.
         25    2    1    2    0    0  0.35714926088E+02 -0.94553494096E+01 -0.38615495910E+03  0.40758972793E+03  0.12509506104E+03 0.  0.
          5    1    3    3  502    0 -0.73135859743E+01 -0.37332197400E+02 -0.32486131213E+02  0.50199627725E+02  0.41800000000E+01 0. -1.
         -5    1    3    3    0  502  0.43028512062E+02  0.27876847990E+02 -0.35366882789E+03  0.35739010020E+03  0.41800000000E+01 0. -1.
        -11    1    1    2    0    0  0.10465336274E+02 -0.32429598810E+02 -0.12635790551E+03  0.13087216063E+03  0.00000000000E+00 0. -1.
         11    1    1    2    0    0 -0.46180262362E+02  0.41884948219E+02 -0.33382532230E+03  0.33959727815E+03  0.00000000000E+00 0.  1.
</event>
<event>
 7    1  0.2723366E-009  0.1024567E+03  0.7561462E-02  0.1275213E+00
         -1   -1    0    0    0  501 -0.00000000000E+00  0.00000000000E+00  0.11295125239E+03  0.11295125239E+03  0.00000000000E+00 0.  1.
          1   -1    0    0  501    0  0.00000000000E+00 -0.00000000000E+00 -0.12468359736E+03  0.12468359736E+03  0.00000000000E+00 0. -1.
         25    2    1    2    0    0  0.39419482823E+02 -0.13053385232E+02  0.16616244498E+02  0.13283923975E+03  0.12508348230E+03 0.  0.
          5    1    3    3  502    0  0.46857817568E+02 -0.62518347273E+02 -0.45283072367E+01  0.78372040801E+02  0.41800000000E+01 0.  1.
         -5    1    3    3    0  502 -0.74383347445E+01  0.49464962041E+02  0.21144551735E+02  0.54467198951E+02  0.41800000000E+01 0.  1.
        -11    1    1    2    0    0 -0.31662178474E+01 -0.24251987277E+02  0.21635621560E+02  0.32654003470E+02  0.00000000000E+00 0.  1.
         11    1    1    2    0    0 -0.36253264976E+02  0.37305372509E+02 -0.49984211033E+02  0.72141606525E+02  0.00000000000E+00 0. -1.
</event>
<event>
 7    1  0.2723366E-009  0.1367656E+03  0.7561462E-02  0.1217749E+00
         -2   -1    0    0    0  501 -0.00000000000E+00  0.00000000000E+00  0.69628500971E+02  0.69628500971E+02  0.00000000000E+00 0.  1.
          2   -1    0    0  501    0  0.00000000000E+00 -0.00000000000E+00 -0.60293018621E+03  0.60293018621E+03  0.00000000000E+00 0. -1.
         25    2    1    2    0    0  0.10802570805E+03 -0.29273116721E+02 -0.49580505760E+03  0.52344716801E+03  0.12509122106E+03 0.  0.
          5    1    3    3  502    0  0.64717286725E+01 -0.33280685430E+02 -0.26470406413E+02  0.43216225082E+02  0.41800000000E+01 0. -1.
         -5    1    3    3    0  502  0.10155397937E+03  0.40075687090E+01 -0.46933465119E+03  0.48023094292E+03  0.41800000000E+01 0. -1.
        -11    1    1    2    0    0 -0.10192671826E+03 -0.57620268424E+01 -0.71123291703E+01  0.10233690476E+03  0.00000000000E+00 0.  1.
         11    1    1    2    0    0 -0.60989897855E+01  0.35035143564E+02 -0.30384298470E+02  0.46774614423E+02  0.00000000000E+00 0. -1.
</event>
<event>
 7    1  0.2723366E-009  0.1615866E+03  0.7561462E-02  0.1186917E+00
         -2   -1    0    0    0  501 -0.00000000000E+00  0.00000000000E+00  0.40189071892E+02  0.40189071892E+02  0.00000000000E+00 0.  1.
          2   -1    0    0  501    0  0.00000000000E+00 -0.00000000000E+00 -0.91609007955E+03  0.91609007955E+03  0.00000000000E+00 0. -1.
         25    2    1    2    0    0 -0.38951639967E+01  0.15731606629E+03 -0.46910638571E+03  0.51036402238E+03  0.12508843755E+03 0.  0.
          5    1    3    3  502    0 -0.89487781941E+00  0.11167802358E+03 -0.44435091590E+03  0.45818990671E+03  0.41800000000E+01 0.  1.
         -5    1    3    3    0  502 -0.30002861772E+01  0.45638042711E+02 -0.24755469816E+02  0.52174115666E+02  0.41800000000E+01 0.  1.
        -11    1    1    2    0    0 -0.18548896324E+02 -0.12359269272E+03 -0.37227423398E+03  0.39269239938E+03  0.00000000000E+00 0. -1.
         11    1    1    2    0    0  0.22444060321E+02 -0.33723373576E+02 -0.34520387965E+02  0.53222729677E+02  0.00000000000E+00 0.  1.
</event>
<event>
 7    1  0.2723366E-009  0.8784782E+02  0.7561462E-02  0.1308149E+00
          2   -1    0    0  501    0  0.00000000000E+00  0.00000000000E+00  0.57663562000E+03  0.57663562000E+03  0.00000000000E+00 0. -1.
         -2   -1    0    0    0  501 -0.00000000000E+00 -0.00000000000E+00 -0.37286894412E+02  0.37286894412E+02  0.00000000000E+00 0.  1.
         25    2    1    2    0    0  0.11395056565E+02 -0.19552756412E+02  0.49185852750E+03  0.50802075058E+03  0.12509242320E+03 0.  0.
          5    1    3    3  502    0 -0.34664517158E+02 -0.57347784069E+02  0.24420351542E+03  0.25326513070E+03  0.41800000000E+01 0. -1.
         -5    1    3    3    0  502  0.46059573723E+02  0.37795027656E+02  0.24765501209E+03  0.25475561988E+03  0.41800000000E+01 0. -1.
        -11    1    1    2    0    0 -0.19773340752E+02  0.29692386381E+02 -0.17400572138E+02  0.39691343190E+02  0.00000000000E+00 0.  1.
         11    1    1    2    0    0  0.83782841874E+01 -0.10139629968E+02  0.64890770218E+02  0.66210420640E+02  0.00000000000E+00 0. -1.
</event>
<event>
 7    1  0.2723366E-009  0.1175262E+03  0.7561462E-02  0.1247235E+00
         -2   -1    0    0    0  501 -0.00000000000E+00  0.00000000000E+00  0.50865015241E+03  0.50865015241E+03  0.00000000000E+00 0.  1.
          2   -1    0    0  501    0  0.00000000000E+00 -0.00000000000E+00 -0.38435012785E+02  0.38435012785E+02  0.00000000000E+00 0. -1.
         25    2    1    2    0    0 -0.97359552551E+01 -0.66766705245E+02  0.36856134338E+03  0.39501622088E+03  0.12509104354E+03 0.  0.
          5    1    3    3  502    0 -0.41022577747E+02 -0.87252860741E+02  0.31575760145E+03  0.33017608766E+03  0.41800000000E+01 0. -1.
         -5    1    3    3    0  502  0.31286622492E+02  0.20486155496E+02  0.52803741932E+02  0.64840133220E+02  0.41800000000E+01 0. -1.
        -11    1    1    2    0    0 -0.72239852825E+01 -0.15404113887E+02  0.51685616259E+02  0.54413928512E+02  0.00000000000E+00 0.  1.
         11    1    1    2    0    0  0.16959940538E+02  0.82170819132E+02  0.49968179985E+02  0.97655015800E+02  0.00000000000E+00 0. -1.
</event>
<event>
 7    1  0.2723366E-009  0.8716879E+02  0.7561462E-02  0.1309856E+00
         -3   -1    0    0    0  501 -0.00000000000E+00  0.00000000000E+00  0.52896661693E+02  0.52896661693E+02  0.00000000000E+00 0.  1.
          3   -1    0    0  501    0  0.00000000000E+00 -0.00000000000E+00 -0.33518565670E+03  0.33518565670E+03  0.00000000000E+00 0. -1.
         25    2    1    2    0    0  0.62714388568E+02  0.34022954011E+02 -0.19543367727E+03  0.24275994690E+03  0.12508962257E+03 0.  0.
          5    1    3    3  502    0  0.14089947350E+02  0.12510140969E+02  0.15771412585E+02  0.24924688530E+02  0.41800000000E+01 0. -1.
         -5    1    3    3    0  502  0.48624441218E+02  0.21512813042E+02 -0.21120508985E+03  0.21783525837E+03  0.41800000000E+01 0. -1.
        -11    1    1    2    0    0 -0.55989960188E+02 -0.55717637413E+02 -0.30696413384E+02  0.84744324620E+02  0.00000000000E+00 0.  1.
         11    1    1    2    0    0 -0.67244283805E+01  0.21694683402E+02 -0.56158904360E+02  0.60578046880E+02  0.00000000000E+00 0. -1.
</event>
<event>
 7    1  0.2723366E-009  0.1390780E+03  0.7561462E-02  0.1214575E+00
          2   -1    0    0  501    0  0.00000000000E+00  0.00000000000E+00  0.25754639185E+03  0.25754639185E+03  0.00000000000E+00 0. -1.
         -2   -1    0    0    0  501 -0.00000000000E+00 -0.00000000000E+00 -0.11036307870E+03  0.11036307870E+03  0.00000000000E+00 0.  1.
         25    2    1    2    0    0 -0.86282753944E+02 -0.20876329881E+02 -0.24039355402E+02  0.15526457202E+03  0.12509461195E+03 0.  0.
          5    1    3    3  502    0 -0.98362168885E+02  0.27350604252E+02 -0.65249968077E+01  0.10238759595E+03  0.41800000000E+01 0.  1.
         -5    1    3    3    0  502  0.12079414940E+02 -0.48226934134E+02 -0.17514358594E+02  0.52876976069E+02  0.41800000000E+01 0.  1.
        -11    1    1    2    0    0  0.10168855192E+03  0.19850960435E+01  0.13688930388E+03  0.17053792456E+03  0.00000000000E+00 0.  1.
         11    1    1    2    0    0 -0.15405797971E+02  0.18891233838E+02  0.34333364675E+02  0.42106973971E+02  0.00000000000E+00 0. -1.
</event>
<event>
 7    1  0.2723366E-009  0.1142051E+03  0.7561462E-02  0.1252975E+00
         -2   -1    0    0    0  501 -0.00000000000E+00  0.00000000000E+00  0.14980534611E+02  0.14980534611E+02  0.00000000000E+00 0.  1.
          2   -1    0    0  501    0  0.00000000000E+00 -0.00000000000E+00 -0.17941388618E+04  0.17941388618E+04  0.00000000000E+00 0. -1.
         25    2    1    2    0    0  0.56776194225E+02 -0.39348398547E+02 -0.15414698365E+04  0.15480785666E+04  0.12508460615E+03 0.  0.
          5    1    3    3  502    0 -0.30132782872E+02  0.16497245323E+01 -0.77479767397E+03  0.77539642389E+03  0.41800000000E+01 0.  1.
         -5    1    3    3    0  502  0.86908977097E+02 -0.40998123079E+02 -0.76667216258E+03  0.77268214271E+03  0.41800000000E+01 0.  1.
        -11    1    1    2    0    0  0.17637527720E+02  0.11774617934E+00 -0.15572040457E+02  0.23528380569E+02  0.00000000000E+00 0.  1.
         11    1    1    2    0    0 -0.74413721945E+02  0.39230652368E+02 -0.22211645014E+03  0.23751244919E+03  0.00000000000E+00 0. -1.
</event>
<event>
 7    1  0.2723366E-009  0.1010396E+03  0.7561462E-02  0.1278125E+00
         -2   -1    0    0    0  501 -0.00000000000E+00  0.00000000000E+00  0.11847014417E+02  0.11847014417E+02  0.00000000000E+00 0. -1.
          2   -1    0    0  501    0  0.00000000000E+00 -0.00000000000E+00 -0.14012657933E+04  0.14012657933E+04  0.00000000000E+00 0.  1.
         25    2    1    2    0    0  0.53086663615E+02  0.36182397544E+02 -0.11712371839E+04  0.11796483404E+04  0.12508519533E+03 0.  0.
          5    1    3    3  502    0  0.45851130589E+02  0.75129901433E+02 -0.99837508038E+03  0.10022560061E+04  0.41800000000E+01 0. -1.
         -5    1    3    3    0  502  0.72355330256E+01 -0.38947503890E+02 -0.17286210356E+03  0.17739233424E+03  0.41800000000E+01 0. -1.
        -11    1    1    2    0    0 -0.38361523060E+02 -0.43237451494E+02 -0.20335126189E+03  0.21140676285E+03  0.00000000000E+00 0.  1.
         11    1    1    2    0    0 -0.14725140555E+02  0.70550539503E+01 -0.14830333048E+02  0.22057704525E+02  0.00000000000E+00 0. -1.
</event>
<event>
 7    1  0.2723366E-009  0.5912951E+02  0.7561462E-02  0.1401522E+00
          1   -1    0    0  501    0  0.00000000000E+00  0.00000000000E+00  0.38628952456E+03  0.38628952456E+03  0.00000000000E+00 0. -1.
         -1   -1    0    0    0  501 -0.00000000000E+00 -0.00000000000E+00 -0.34347442447E+02  0.34347442447E+02  0.00000000000E+00 0.  1.
         25    2    1    2    0    0 -0.38211884522E+02 -0.82133918185E+01  0.18627178539E+03  0.22775414620E+03  0.12508862919E+03 0.  0.
          5    1    3    3  502    0 -0.22045590244E+02 -0.16981826163E+02  0.20153590992E+03  0.20349099699E+03  0.41800000000E+01 0. -1.
         -5    1    3    3    0  502 -0.16166294278E+02  0.87684343447E+01 -0.15264124531E+02  0.24263149203E+02  0.41800000000E+01 0. -1.
        -11    1    1    2    0    0 -0.16112428631E+02 -0.10658673886E+01 -0.21083108594E+01  0.16284698473E+02  0.00000000000E+00 0.  1.
         11    1    1    2    0    0  0.54324313153E+02  0.92792592072E+01  0.16777860758E+03  0.17659812233E+03  0.00000000000E+00 0. -1.
</event>
<event>
 7    1  0.2723366E-009  0.1113534E+03  0.7561462E-02  0.1258084E+00
         -2   -1    0    0    0  501 -0.00000000000E+00  0.00000000000E+00  0.61013096847E+02  0.61013096847E+02  0.00000000000E+00 0.  1.
          2   -1    0    0  501    0  0.00000000000E+00 -0.00000000000E+00 -0.27393753724E+03  0.27393753724E+03  0.00000000000E+00 0. -1.
         25    2    1    2    0    0 -0.59277323305E+02  0.39558299269E+02 -0.12799405688E+03  0.19263768052E+03  0.12509251480E+03 0.  0.
          5    1    3    3  502    0  0.16911031771E+02  0.25578834221E+02 -0.10825652994E+03  0.11259311005E+03  0.41800000000E+01 0. -1.
         -5    1    3    3    0  502 -0.76188355076E+02  0.13979465048E+02 -0.19737526945E+02  0.80044570472E+02  0.41800000000E+01 0. -1.
        -11    1    1    2    0    0  0.50519817006E+02 -0.67837520466E+02 -0.62303469320E+02  0.10505190804E+03  0.00000000000E+00 0. -1.
         11    1    1    2    0    0  0.87575062989E+01  0.28279221197E+02 -0.22626914188E+02  0.37261045527E+02  0.00000000000E+00 0.  1.
</event>
<event>
 7    1  0.2723366E-009  0.9965981E+02  0.7561462E-02  0.1281013E+00
          2   -1    0    0  501    0  0.00000000000E+00  0.00000000000E+00  0.26375719127E+03  0.26375719127E+03  0.00000000000E+00 0. -1.
         -2   -1    0    0    0  501 -0.00000000000E+00 -0.00000000000E+00 -0.48945813052E+02  0.48945813052E+02  0.00000000000E+00 0.  1.
         25    2    1    2    0    0  0.22886862778E+02  0.26513615892E+02  0.13341013352E+03  0.18620651239E+03  0.12509125154E+03 0.  0.
          5    1    3    3  502    0  0.57743414118E+02 -0.21417924257E+02  0.34208796425E+02  0.70574382791E+02  0.41800000000E+01 0.  1.
         -5    1    3    3    0  502 -0.34856551341E+02  0.47931540148E+02  0.99201337100E+02  0.11563212960E+03  0.41800000000E+01 0.  1.
        -11    1    1    2    0    0  0.22503534872E+02  0.48309184024E+01  0.64990646439E+02  0.68945855415E+02  0.00000000000E+00 0.  1.
         11    1    1    2    0    0 -0.45390397650E+02 -0.31344534294E+02  0.16410598256E+02  0.57550636521E+02  0.00000000000E+00 0. -1.
</event>
<event>
 7    1  0.2723366E-009  0.7013091E+02  0.7561462E-02  0.1359648E+00
         -2   -1    0    0    0  501 -0.00000000000E+00  0.00000000000E+00  0.66940084383E+02  0.66940084383E+02  0.00000000000E+00 0.  1.
          2   -1    0    0  501    0  0.00000000000E+00 -0.00000000000E+00 -0.20905933520E+03  0.20905933520E+03  0.00000000000E+00 0. -1.
         25    2    1    2    0    0 -0.19843874806E+02  0.39031353689E+02 -0.10770295984E+03  0.17077316212E+03  0.12508524855E+03 0.  0.
          5    1    3    3  502    0 -0.15864399043E+02 -0.10290524915E+02  0.23520841753E+02  0.30467629655E+02  0.41800000000E+01 0.  1.
         -5    1    3    3    0  502 -0.39794757623E+01  0.49321878604E+02 -0.13122380159E+03  0.14030553247E+03  0.41800000000E+01 0.  1.
        -11    1    1    2    0    0  0.19061168103E+02 -0.53475954031E+02 -0.55673119045E+02  0.79514162092E+02  0.00000000000E+00 0. -1.
         11    1    1    2    0    0  0.78270670243E+00  0.14444600342E+02  0.21256828067E+02  0.25712095369E+02  0.00000000000E+00 0.  1.
</event>
<event>
 7    1  0.2723366E-009  0.8488310E+02  0.7561462E-02  0.1315739E+00
          2   -1    0    0  501    0  0.00000000000E+00  0.00000000000E+00  0.11048334080E+04  0.11048334080E+04  0.00000000000E+00 0. -1.
         -2   -1    0    0    0  501 -0.00000000000E+00 -0.00000000000E+00 -0.15098497029E+02  0.15098497029E+02  0.00000000000E+00 0.  1.
         25    2    1    2    0    0  0.89220241800E+00 -0.51219504153E+00  0.84300120091E+03  0.85223278556E+03  0.12509451497E+03 0.  0.
          5    1    3    3  502    0  0.40896781601E+02 -0.14598686479E+02  0.11517860824E+03  0.12316351971E+03  0.41800000000E+01 0. -1.
         -5    1    3    3    0  502 -0.40004579183E+02  0.14086491438E+02  0.72782259267E+03  0.72906926584E+03  0.41800000000E+01 0. -1.
        -11    1    1    2    0    0 -0.32252708744E+02  0.27318515368E+02  0.20387445664E+03  0.20820982824E+03  0.00000000000E+00 0. -1.
         11    1    1    2    0    0  0.31360506326E+02 -0.26806320326E+02  0.42859253375E+02  0.59489291191E+02  0.00000000000E+00 0.  1.
</event>
<event>
 7    1  0.2723366E-009  0.1107419E+03  0.7561462E-02  0.1259202E+00
         -2   -1    0    0    0  501 -0.00000000000E+00  0.00000000000E+00  0.14825586332E+03  0.14825586332E+03  0.00000000000E+00 0.  1.
          2   -1    0    0  501    0  0.00000000000E+00 -0.00000000000E+00 -0.87039206278E+02  0.87039206278E+02  0.00000000000E+00 0. -1.
         25    2    1    2    0    0 -0.19038158148E+02  0.25951867974E+02  0.21251783744E+02  0.13090503380E+03  0.12509411915E+03 0.  0.
          5    1    3    3  502    0 -0.70080718993E+02  0.31609150456E+02  0.19142348143E+02  0.79336923684E+02  0.41800000000E+01 0.  1.
         -5    1    3    3    0  502  0.51042560846E+02 -0.56572824818E+01  0.21094356017E+01  0.51568110120E+02  0.41800000000E+01 0.  1.
        -11    1    1    2    0    0  0.53098977759E+02 -0.25493778398E+02  0.11534332541E+02  0.60020621483E+02  0.00000000000E+00 0.  1.
         11    1    1    2    0    0 -0.34060819611E+02 -0.45808957594E+00  0.28430540758E+02  0.44369414312E+02  0.00000000000E+00 0. -1.
</event>
<event>
 7    1  0.2723366E-009  0.7462746E+02  0.7561462E-02  0.1345029E+00
         -1   -1    0    0    0  501 -0.00000000000E+00  0.00000000000E+00  0.16421237068E+03  0.16421237068E+03  0.00000000000E+00 0.  1.
          1   -1    0    0  501    0  0.00000000000E+00 -0.00000000000E+00 -0.72644582758E+02  0.72644582758E+02  0.00000000000E+00 0. -1.
         25    2    1    2    0    0 -0.93958793144E+01 -0.20306901617E+02  0.56231661619E+02  0.13896134484E+03  0.12509037849E+03 0.  0.
          5    1    3    3  502    0  0.32541427424E+02 -0.27703958408E+02  0.79425431880E+02  0.90290228927E+02  0.41800000000E+01 0.  1.
         -5    1    3    3    0  502 -0.41937306739E+02  0.73970567906E+01 -0.23193770261E+02  0.48671115917E+02  0.41800000000E+01 0.  1.
        -11    1    1    2    0    0  0.26540451826E+02 -0.10278924027E+02  0.51842547549E+02  0.59141369604E+02  0.00000000000E+00 0.  1.
         11    1    1    2    0    0 -0.17144572511E+02  0.30585825645E+02 -0.16506421250E+02  0.38754238987E+02  0.00000000000E+00 0. -1.
</event>
<event>
 7    1  0.2723366E-009  0.1031928E+03  0.7561462E-02  0.1273722E+00
          1   -1    0    0  501    0  0.00000000000E+00  0.00000000000E+00  0.77145758650E+03  0.77145758650E+03  0.00000000000E+00 0. -1.
         -1   -1    0    0    0  501 -0.00000000000E+00 -0.00000000000E+00 -0.18839904412E+02  0.18839904412E+02  0.00000000000E+00 0.  1.
         25    2    1    2    0    0 -0.18473806554E+02 -0.48885634286E+02  0.38921993545E+03  0.41215473282E+03  0.12509308081E+03 0.  0.
          5    1    3    3  502    0 -0.57303664813E+02  0.13572793384E+02  0.13212722733E+03  0.14471699044E+03  0.41800000000E+01 0. -1.
         -5    1    3    3    0  502  0.38829858259E+02 -0.62458427670E+02  0.25709270812E+03  0.26743774238E+03  0.41800000000E+01 0. -1.
        -11    1    1    2    0    0  0.21549082345E+02  0.59158865464E+02  0.36187518541E+03  0.36731156274E+03  0.00000000000E+00 0. -1.
         11    1    1    2    0    0 -0.30752757911E+01 -0.10273231178E+02  0.15225612370E+01  0.10831195352E+02  0.00000000000E+00 0.  1.
</event>
<event>
 7    1  0.2723366E-009  0.1846804E+03  0.7561462E-02  0.1163349E+00
         -1   -1    0    0    0  501 -0.00000000000E+00  0.00000000000E+00  0.13116943155E+04  0.13116943155E+04  0.00000000000E+00 0.  1.
          1   -1    0    0  501    0  0.00000000000E+00 -0.00000000000E+00 -0.46704325977E+02  0.46704325977E+02  0.00000000000E+00 0. -1.
         25    2    1    2    0    0  0.16526875064E+03 -0.55677686359E+02  0.10279947178E+04  0.10501596134E+04  0.12509320106E+03 0.  0.
          5    1    3    3  502    0  0.85861008996E+02 -0.33423944245E+02  0.22850244833E+03  0.24641451704E+03  0.41800000000E+01 0.  1.
         -5    1    3    3    0  502  0.79407741649E+02 -0.22253742113E+02  0.79949226950E+03  0.80374509632E+03  0.41800000000E+01 0.  1.
        -11    1    1    2    0    0 -0.92259215988E+02  0.75151569538E+02  0.16830503886E+03  0.20612158413E+03  0.00000000000E+00 0.  1.
         11    1    1    2    0    0 -0.73009534657E+02 -0.19473883179E+02  0.68690232794E+02  0.10211744395E+03  0.00000000000E+00 0. -1.
</event>
<event>
 7    1  0.2723366E-009  0.2440527E+03  0.7561462E-02  0.1117122E+00
         -1   -1    0    0    0  501 -0.00000000000E+00  0.00000000000E+00  0.34799085028E+03  0.34799085028E+03  0.00000000000E+00 0.  1.
          1   -1    0    0  501    0  0.00000000000E+00 -0.00000000000E+00 -0.24379684427E+03  0.24379684427E+03  0.00000000000E+00 0. -1.
         25    2    1    2    0    0  0.23547115678E+03 -0.21428675428E+02  0.19079464786E+03  0.32856680141E+03  0.12509073319E+03 0.  0.
          5    1    3    3  502    0  0.13223056938E+02 -0.97665781041E+01 -0.17030282100E+02  0.24036185035E+02  0.41800000000E+01 0.  1.
         -5    1    3    3    0  502  0.22224809984E+03 -0.11662097324E+02  0.20782492995E+03  0.30453061637E+03  0.41800000000E+01 0.  1.
        -11    1    1    2    0    0 -0.11935672257E+03  0.49300083535E+02 -0.43466623509E+02  0.13625664321E+03  0.00000000000E+00 0. -1.
         11    1    1    2    0    0 -0.11611443421E+03 -0.27871408107E+02 -0.43134018337E+02  0.12696424993E+03  0.00000000000E+00 0.  1.
</event>
<event>
 7    1  0.2723366E-009  0.1020490E+03  0.7561462E-02  0.1276045E+00
          4   -1    0    0  501    0  0.00000000000E+00  0.00000000000E+00  0.48524640871E+02  0.48524640871E+02  0.00000000000E+00 0. -1.
         -4   -1    0    0    0  501 -0.00000000000E+00 -0.00000000000E+00 -0.42452114450E+03  0.42452114450E+03  0.00000000000E+00 0.  1.
         25    2    1    2    0    0  0.70088492872E+02  0.55846224538E+02 -0.24594069890E+03  0.29011352660E+03  0.12509129991E+03 0.  0.
          5    1    3    3  502    0  0.66588565210E+02  0.15226075793E+02 -0.23892541708E+03  0.24853309182E+03  0.41800000000E+01 0.  1.
         -5    1    3    3    0  502  0.34999276624E+01  0.40620148745E+02 -0.70152818177E+01  0.41580434782E+02  0.41800000000E+01 0.  1.
        -11    1    1    2    0    0 -0.59732775772E+02 -0.58893804387E+02 -0.14317766409E+03  0.16594073698E+03  0.00000000000E+00 0.  1.
         11    1    1    2    0    0 -0.10355717100E+02  0.30475798488E+01  0.13121859359E+02  0.16991521787E+02  0.00000000000E+00 0. -1.
</event>
<event>
 7    1  0.2723366E-009  0.9985744E+02  0.7561462E-02  0.1280596E+00
          3   -1    0    0  501    0  0.00000000000E+00  0.00000000000E+00  0.31921812114E+03  0.31921812114E+03  0.00000000000E+00 0. -1.
         -3   -1    0    0    0  501 -0.00000000000E+00 -0.00000000000E+00 -0.42505193902E+02  0.42505193902E+02  0.00000000000E+00 0.  1.
         25    2    1    2    0    0 -0.17855812522E+02  0.34338911146E+02  0.12898609697E+03  0.18380104530E+03  0.12508964858E+03 0.  0.
          5    1    3    3  502    0 -0.16293800830E+01 -0.45601159720E+02  0.27164545240E+02  0.53268241621E+02  0.41800000000E+01 0.  1.
         -5    1    3    3    0  502 -0.16226432439E+02  0.79940070865E+02  0.10182155173E+03  0.13053280368E+03  0.41800000000E+01 0.  1.
        -11    1    1    2    0    0  0.14992994597E+01 -0.49732570392E+02  0.14727938925E+03  0.15545673017E+03  0.00000000000E+00 0. -1.
         11    1    1    2    0    0  0.16356513062E+02  0.15393659247E+02  0.44744100892E+00  0.22465539566E+02  0.00000000000E+00 0.  1.
</event>
<event>
 7    1  0.2723366E-009  0.1348395E+03  0.7561462E-02  0.1220446E+00
         -2   -1    0    0    0  501 -0.00000000000E+00  0.00000000000E+00  0.66669775392E+02  0.66669775392E+02  0.00000000000E+00 0.  1.
          2   -1    0    0  501    0  0.00000000000E+00 -0.00000000000E+00 -0.28410701424E+03  0.28410701424E+03  0.00000000000E+00 0. -1.
         25    2    1    2    0    0  0.56128203132E+02 -0.62426541565E+02 -0.12147711198E+03  0.19353082348E+03  0.12510013038E+03 0.  0.
          5    1    3    3  502    0  0.84372008137E+02 -0.78492373768E+02 -0.78526802131E+02  0.13951207672E+03  0.41800000000E+01 0.  1.
         -5    1    3    3    0  502 -0.28243805005E+02  0.16065832202E+02 -0.42950309851E+02  0.54018746762E+02  0.41800000000E+01 0.  1.
        -11    1    1    2    0    0 -0.31673995063E+02 -0.18761490083E+02 -0.45681521323E+02  0.58668874745E+02  0.00000000000E+00 0. -1.
         11    1    1    2    0    0 -0.24454208069E+02  0.81188031648E+02 -0.50278605542E+02  0.98577091408E+02  0.00000000000E+00 0.  1.
</event>
<event>
 7    1  0.2723366E-009  0.1053163E+03  0.7561462E-02  0.1269498E+00
         -2   -1    0    0    0  501 -0.00000000000E+00  0.00000000000E+00  0.12610183666E+02  0.12610183666E+02  0.00000000000E+00 0.  1.
          2   -1    0    0  501    0  0.00000000000E+00 -0.00000000000E+00 -0.11149181616E+04  0.11149181616E+04  0.00000000000E+00 0. -1.
         25    2    1    2    0    0 -0.11197085767E+02  0.48437572152E+01 -0.86887206279E+03  0.87791501807E+03  0.12508909121E+03 0.  0.
          5    1    3    3  502    0  0.25421549721E+02 -0.50541999388E+02 -0.31566448834E+03  0.32072151548E+03  0.41800000000E+01 0.  1.
         -5    1    3    3    0  502 -0.36618635488E+02  0.55385756603E+02 -0.55320757445E+03  0.55719350259E+03  0.41800000000E+01 0.  1.
        -11    1    1    2    0    0  0.36186523571E+02  0.28248921738E+02 -0.14143265587E+03  0.14869654406E+03  0.00000000000E+00 0. -1.
         11    1    1    2    0    0 -0.24989437804E+02 -0.33092678953E+02 -0.92003259240E+02  0.10091678311E+03  0.00000000000E+00 0.  1.
</event>
<event>
 7    1  0.2723366E-009  0.1008201E+03  0.7561462E-02  0.1278581E+00
         -3   -1    0    0    0  501 -0.00000000000E+00  0.00000000000E+00  0.35313715046E+03  0.35313715046E+03  0.00000000000E+00 0.  1.
          3   -1    0    0  501    0  0.00000000000E+00 -0.00000000000E+00 -0.40834347082E+02  0.40834347082E+02  0.00000000000E+00 0. -1.
         25    2    1    2    0    0 -0.18954657435E+02  0.54677956339E+02  0.21276186843E+03  0.25350346911E+03  0.12508972079E+03 0.  0.
          5    1    3    3  502    0 -0.21123993317E+02 -0.34198220376E+02  0.11197585905E+03  0.11904539798E+03  0.41800000000E+01 0. -1.
         -5    1    3    3    0  502  0.21693358825E+01  0.88876176715E+02  0.10078600938E+03  0.13445807113E+03  0.41800000000E+01 0. -1.
        -11    1    1    2    0    0 -0.90726106773E+01 -0.39144934534E+02  0.48162270603E+01  0.40470164409E+02  0.00000000000E+00 0. -1.
         11    1    1    2    0    0  0.28027268112E+02 -0.15533021805E+02  0.94724707892E+02  0.99997864024E+02  0.00000000000E+00 0.  1.
</event>
<event>
 7    1  0.2723366E-009  0.9365952E+02  0.7561462E-02  0.1294224E+00
          1   -1    0    0  501    0  0.00000000000E+00  0.00000000000E+00  0.85607459768E+03  0.85607459768E+03  0.00000000000E+00 0. -1.
         -1   -1    0    0    0  501 -0.00000000000E+00 -0.00000000000E+00 -0.19164567025E+02  0.19164567025E+02  0.00000000000E+00 0.  1.
         25    2    1    2    0    0 -0.51365381772E+02  0.42555786778E+02  0.40370217980E+03  0.42786947475E+03  0.12508972785E+03 0.  0.
          5    1    3    3  502    0 -0.37318464557E+02  0.47470303852E+02  0.40748484666E+03  0.41195566534E+03  0.41800000000E+01 0. -1.
         -5    1    3    3    0  502 -0.14046917215E+02 -0.49145170736E+01 -0.37826668629E+01  0.15913809409E+02  0.41800000000E+01 0. -1.
        -11    1    1    2    0    0 -0.19159874047E+02  0.11614828965E+02  0.73996848559E+02  0.77314543406E+02  0.00000000000E+00 0.  1.
         11    1    1    2    0    0  0.70525255819E+02 -0.54170615743E+02  0.35921100229E+03  0.37005514655E+03  0.00000000000E+00 0. -1.
</event>
<event>
 7    1  0.2723366E-009  0.7955783E+02  0.7561462E-02  0.1330311E+00
         -2   -1    0    0    0  501 -0.00000000000E+00  0.00000000000E+00  0.53296613736E+03  0.53296613736E+03  0.00000000000E+00 0.  1.
          2   -1    0    0  501    0  0.00000000000E+00 -0.00000000000E+00 -0.21898026790E+02  0.21898026790E+02  0.00000000000E+00 0. -1.
         25    2    1    2    0    0  0.79274899465E+01  0.36788001914E+02  0.33071530135E+03  0.35557975916E+03  0.12509257531E+03 0.  0.
          5    1    3    3  502    0  0.24378029489E+02 -0.20108717902E+02  0.16672671082E+02  0.35973590569E+02  0.41800000000E+01 0.  1.
         -5    1    3    3    0  502 -0.16450539542E+02  0.56896719816E+02  0.31404263026E+03  0.31960616859E+03  0.41800000000E+01 0.  1.
        -11    1    1    2    0    0 -0.30275833317E+02 -0.33702204015E+02  0.16707133314E+03  0.17310486705E+03  0.00000000000E+00 0.  1.
         11    1    1    2    0    0  0.22348343370E+02 -0.30857978989E+01  0.13281476086E+02  0.26179537946E+02  0.00000000000E+00 0. -1.
</event>
<event>
 7    1  0.2723366E-009  0.1109000E+03  0.7561462E-02  0.1258912E+00
         -2   -1    0    0    0  501 -0.00000000000E+00  0.00000000000E+00  0.26104067859E+02  0.26104067859E+02  0.00000000000E+00 0.  1.
          2   -1    0    0  501    0  0.00000000000E+00 -0.00000000000E+00 -0.55934402671E+03  0.55934402671E+03  0.00000000000E+00 0. -1.
         25    2    1    2    0    0 -0.27355032506E+02 -0.27501064677E+02 -0.40716671334E+03  0.42771038384E+03  0.12508730403E+03 0.  0.
          5    1    3    3  502    0 -0.76326756675E+02 -0.10623362281E+02 -0.20735363518E+03  0.22125015713E+03  0.41800000000E+01 0.  1.
         -5    1    3    3    0  502  0.48971724169E+02 -0.16877702397E+02 -0.19981307816E+03  0.20646022670E+03  0.41800000000E+01 0.  1.
        -11    1    1    2    0    0 -0.88544527684E+01 -0.26331225341E+02 -0.54264207159E+02  0.60961782621E+02  0.00000000000E+00 0. -1.
         11    1    1    2    0    0  0.36209485274E+02  0.53832290018E+02 -0.71809038355E+02  0.96775928112E+02  0.00000000000E+00 0.  1.
</event>
<event>
 7    1  0.2723366E-009  0.1327532E+03  0.7561462E-02  0.1223427E+00
          1   -1    0    0  501    0  0.00000000000E+00  0.00000000000E+00  0.27852795431E+03  0.27852795431E+03  0.00000000000E+00 0. -1.
         -1   -1    0    0    0  501 -0.00000000000E+00 -0.00000000000E+00 -0.10073892032E+03  0.10073892032E+03  0.00000000000E+00 0.  1.
         25    2    1    2    0    0 -0.53199179426E+02  0.11063769856E+03  0.13787554566E+03  0.22299693849E+03  0.12508843053E+03 0.  0.
          5    1    3    3  502    0  0.24602598323E+01  0.22831547539E+02 -0.22112762241E+02  0.32152435295E+02  0.41800000000E+01 0.  1.
         -5    1    3    3    0  502 -0.55659439259E+02  0.87806151022E+02  0.15998830790E+03  0.19084450320E+03  0.41800000000E+01 0.  1.
        -11    1    1    2    0    0  0.38349706922E+02 -0.14748085647E+02 -0.16216541476E+02  0.44172188860E+02  0.00000000000E+00 0.  1.
         11    1    1    2    0    0  0.14849472505E+02 -0.95889612913E+02  0.56130029808E+02  0.11209774728E+03  0.00000000000E+00 0. -1.
</event>
<event>
 7    1  0.2723366E-009  0.1078044E+03  0.7561462E-02  0.1264691E+00
          2   -1    0    0  501    0  0.00000000000E+00  0.00000000000E+00  0.14708815956E+04  0.14708815956E+04  0.00000000000E+00 0. -1.
         -2   -1    0    0    0  501 -0.00000000000E+00 -0.00000000000E+00 -0.94972860906E+01  0.94972860906E+01  0.00000000000E+00 0.  1.
         25    2    1    2    0    0  0.15118049981E+02 -0.94754012204E+01  0.10365745911E+04  0.10442472778E+04  0.12508859144E+03 0.  0.
          5    1    3    3  502    0  0.33958539705E+02  0.50061798714E+02  0.39499188307E+03  0.39961910140E+03  0.41800000000E+01 0. -1.
         -5    1    3    3    0  502 -0.18840489725E+02 -0.59537199934E+02  0.64158270800E+03  0.64462817642E+03  0.41800000000E+01 0. -1.
        -11    1    1    2    0    0 -0.43591036157E+01 -0.40769133295E+02  0.11502149168E+03  0.12211088224E+03  0.00000000000E+00 0.  1.
         11    1    1    2    0    0 -0.10758946365E+02  0.50244534516E+02  0.30978822679E+03  0.31402072166E+03  0.00000000000E+00 0. -1.
</event>
<event>
 7    1  0.2723366E-009  0.1086743E+03  0.7561462E-02  0.1263045E+00
          2   -1    0    0  501    0  0.00000000000E+00  0.00000000000E+00  0.43515942841E+03  0.43515942841E+03  0.00000000000E+00 0. -1.
         -2   -1    0    0    0  501 -0.00000000000E+00 -0.00000000000E+00 -0.35045814653E+02  0.35045814653E+02  0.00000000000E+00 0.  1.
         25    2    1    2    0    0  0.25767652889E+02 -0.12502434199E+02  0.31762207790E+03  0.34256448117E+03  0.12508539719E+03 0.  0.
          5    1    3    3  502    0 -0.81684128648E+01  0.51711423849E+02  0.17104659171E+03  0.17892792756E+03  0.41800000000E+01 0. -1.
         -5    1    3    3    0  502  0.33936065754E+02 -0.64213858049E+02  0.14657548619E+03  0.16363655361E+03  0.41800000000E+01 0. -1.
        -11    1    1    2    0    0 -0.25635075895E+02 -0.35659361158E+02  0.18756784357E+02  0.47755252211E+02  0.00000000000E+00 0.  1.
         11    1    1    2    0    0 -0.13257699451E+00  0.48161795357E+02  0.63734751492E+02  0.79885509677E+02  0.00000000000E+00 0. -1.
</event>
<event>
 7    1  0.2723366E-009  0.1093445E+03  0.7561462E-02  0.1261789E+00
         -2   -1    0    0    0  501 -0.00000000000E+00  0.00000000000E+00  0.35506896707E+02  0.35506896707E+02  0.00000000000E+00 0.  1.
          2   -1    0    0  501    0  0.00000000000E+00 -0.00000000000E+00 -0.41467597888E+03  0.41467597888E+03  0.00000000000E+00 0. -1.
         25    2    1    2    0    0  0.30337616638E+02 -0.16045408482E+02 -0.28690032167E+03  0.31486286206E+03  0.12509596802E+03 0.  0.
          5    1    3    3  502    0  0.49575751956E+02 -0.62116593588E+02 -0.17261465655E+03  0.19007766423E+03  0.41800000000E+01 0.  1.
         -5    1    3    3    0  502 -0.19238135318E+02  0.46071185106E+02 -0.11428566512E+03  0.12478519784E+03  0.41800000000E+01 0.  1.
        -11    1    1    2    0    0  0.51892579496E+01 -0.30224931387E+02 -0.61100771159E+01  0.31269920335E+02  0.00000000000E+00 0. -1.
         11    1    1    2    0    0 -0.35526874587E+02  0.46270339869E+02 -0.86158683385E+02  0.10405009319E+03  0.00000000000E+00 0.  1.
</event>
<event>
 7    1  0.2723366E-009  0.1245487E+03  0.7561462E-02  0.1235776E+00
         -1   -1    0    0    0  501 -0.00000000000E+00  0.00000000000E+00  0.31516269056E+03  0.31516269056E+03  0.00000000000E+00 0.  1.
          1   -1    0    0  501    0  0.00000000000E+00 -0.00000000000E+00 -0.10573134844E+03  0.10573134844E+03  0.00000000000E+00 0. -1.
         25    2    1    2    0    0  0.74090973586E+02 -0.98821260735E+02  0.20195482178E+03  0.26774280191E+03  0.12508134951E+03 0.  0.
          5    1    3    3  502    0  0.15494399784E+02 -0.16981020979E+02 -0.15532461391E+02  0.28056394191E+02  0.41800000000E+01 0. -1.
         -5    1    3    3    0  502  0.58596573802E+02 -0.81840239756E+02  0.21748728317E+03  0.23968640772E+03  0.41800000000E+01 0. -1.
        -11    1    1    2    0    0 -0.37972638547E+02  0.66224168361E+02 -0.39124895810E+02  0.85780645984E+02  0.00000000000E+00 0. -1.
         11    1    1    2    0    0 -0.36118335039E+02  0.32597092374E+02  0.46601416148E+02  0.67370591093E+02  0.00000000000E+00 0.  1.
</event>
<event>
 7    1  0.2723366E-009  0.1931455E+03  0.7561462E-02  0.1155655E+00
          2   -1    0    0  501    0  0.00000000000E+00  0.00000000000E+00  0.15691495213E+04  0.15691495213E+04  0.00000000000E+00 0. -1.
         -2   -1    0    0    0  501 -0.00000000000E+00 -0.00000000000E+00 -0.28894788096E+02  0.28894788096E+02  0.00000000000E+00 0.  1.
         25    2    1    2    0    0 -0.18253128259E+03 -0.38404508847E+01  0.74127487202E+03  0.77360654567E+03  0.12508490485E+03 0.  0.
          5    1    3    3  502    0 -0.92485979414E+02  0.79110068289E+01  0.15805169741E+03  0.18334135341E+03  0.41800000000E+01 0. -1.
         -5    1    3    3    0  502 -0.90045303173E+02 -0.11751457714E+02  0.58322317461E+03  0.59026519225E+03  0.41800000000E+01 0. -1.
        -11    1    1    2    0    0  0.14375114498E+03 -0.34608471420E+02  0.61498560177E+03  0.63251041759E+03  0.00000000000E+00 0. -1.
         11    1    1    2    0    0  0.38780137609E+02  0.38448922305E+02  0.18399425943E+03  0.19192734615E+03  0.00000000000E+00 0.  1.
</event>
<event>
 7    1  0.2723366E-009  0.1011452E+03  0.7561462E-02  0.1277906E+00
          1   -1    0    0  501    0  0.00000000000E+00  0.00000000000E+00  0.50146442979E+03  0.50146442979E+03  0.00000000000E+00 0. -1.
         -1   -1    0    0    0  501 -0.00000000000E+00 -0.00000000000E+00 -0.28119883270E+02  0.28119883270E+02  0.00000000000E+00 0.  1.
         25    2    1    2    0    0 -0.25144662222E+02  0.21268812871E+02  0.18150284823E+03  0.22288074206E+03  0.12509166569E+03 0.  0.
          5    1    3    3  502    0 -0.46964828382E+02 -0.30394454469E+02  0.14591877886E+03  0.15633067642E+03  0.41800000000E+01 0. -1.
         -5    1    3    3    0  502  0.21820166160E+02  0.51663267340E+02  0.35584069379E+02  0.66550065643E+02  0.41800000000E+01 0. -1.
        -11    1    1    2    0    0 -0.30885767208E+02 -0.12137495336E+02  0.66490313262E+02  0.74311581646E+02  0.00000000000E+00 0.  1.
         11    1    1    2    0    0  0.56030429430E+02 -0.91313175351E+01  0.22535138502E+03  0.23239198935E+03  0.00000000000E+00 0. -1.
</event>
<event>
 7    1  0.2723366E-009  0.8541868E+02  0.7561462E-02  0.1314341E+00
          1   -1    0    0  501    0  0.00000000000E+00  0.00000000000E+00  0.49369194594E+02  0.49369194594E+02  0.00000000000E+00 0. -1.
         -1   -1    0    0    0  501 -0.00000000000E+00 -0.00000000000E+00 -0.31151384032E+03  0.31151384032E+03  0.00000000000E+00 0.  1.
         25    2    1    2    0    0  0.15895053559E+02  0.35688675008E+02 -0.21020308916E+03  0.24771170748E+03  0.12509763018E+03 0.  0.
          5    1    3    3  502    0 -0.24132011664E+02 -0.19393947501E+01  0.54218599643E+01  0.25159177340E+02  0.41800000000E+01 0. -1.
         -5    1    3    3    0  502  0.40027065223E+02  0.37628069758E+02 -0.21562494913E+03  0.22255253014E+03  0.41800000000E+01 0. -1.
        -11    1    1    2    0    0  0.32955247363E+01 -0.60061987902E+02 -0.99592411856E+01  0.60971217464E+02  0.00000000000E+00 0.  1.
         11    1    1    2    0    0 -0.19190578295E+02  0.24373312893E+02 -0.41982315377E+02  0.52200109972E+02  0.00000000000E+00 0. -1.
</event>
<event>
 7    1  0.2723366E-009  0.1308097E+03  0.7561462E-02  0.1226259E+00
         -1   -1    0    0    0  501 -0.00000000000E+00  0.00000000000E+00  0.34512104054E+02  0.34512104054E+02  0.00000000000E+00 0.  1.
          1   -1    0    0  501    0  0.00000000000E+00 -0.00000000000E+00 -0.52894784005E+03  0.52894784005E+03  0.00000000000E+00 0. -1.
         25    2    1    2    0    0  0.26799859573E+02  0.76088816371E+02 -0.22704963205E+03  0.27148961293E+03  0.12508930437E+03 0.  0.
          5    1    3    3  502    0 -0.38540406859E+02 -0.67094150662E+01 -0.36555019737E+02  0.53704013624E+02  0.41800000000E+01 0.  1.
         -5    1    3    3    0  502  0.65340266432E+02  0.82798231437E+02 -0.19049461231E+03  0.21778559931E+03  0.41800000000E+01 0.  1.
        -11    1    1    2    0    0  0.12987384257E+02 -0.75826924747E+02 -0.16248378693E+03  0.17977590406E+03  0.00000000000E+00 0.  1.
         11    1    1    2    0    0 -0.39787243830E+02 -0.26189162447E+00 -0.10490231702E+03  0.11219442712E+03  0.00000000000E+00 0. -1.
</event>
<event>
 7    1  0.2723366E-009  0.1201750E+03  0.7561462E-02  0.1242809E+00
          2   -1    0    0  501    0  0.00000000000E+00  0.00000000000E+00  0.77733537130E+02  0.77733537130E+02  0.00000000000E+00 0. -1.
         -2   -1    0    0    0  501 -0.00000000000E+00 -0.00000000000E+00 -0.22535623021E+03  0.22535623021E+03  0.00000000000E+00 0.  1.
         25    2    1    2    0    0  0.22219257598E+02 -0.71718441325E+02 -0.10297737652E+03  0.17857563836E+03  0.12509072030E+03 0.  0.
          5    1    3    3  502    0  0.56479392097E+02 -0.87916002608E+02 -0.90957704468E+02  0.13859986165E+03  0.41800000000E+01 0. -1.
         -5    1    3    3    0  502 -0.34260134498E+02  0.16197561283E+02 -0.12019672053E+02  0.39975776711E+02  0.41800000000E+01 0. -1.
        -11    1    1    2    0    0 -0.43948089751E+02  0.41657923323E+02 -0.59185694676E+02  0.84674456731E+02  0.00000000000E+00 0.  1.
         11    1    1    2    0    0  0.21728832153E+02  0.30060518002E+02  0.14540378118E+02  0.39839672252E+02  0.00000000000E+00 0. -1.
</event>
<event>
 7    1  0.2723366E-009  0.1521384E+03  0.7561462E-02  0.1197870E+00
          1   -1    0    0  501    0  0.00000000000E+00  0.00000000000E+00  0.14949040049E+03  0.14949040049E+03  0.00000000000E+00 0. -1.
         -1   -1    0    0    0  501 -0.00000000000E+00 -0.00000000000E+00 -0.16781184497E+03  0.16781184497E+03  0.00000000000E+00 0.  1.
         25    2    1    2    0    0 -0.98641615556E+02  0.49210636381E+02  0.23953480127E+02  0.16844088755E+03  0.12508680320E+03 0.  0.
          5    1    3    3  502    0 -0.11215347241E+03  0.76150795804E+02  0.13632616007E+02  0.13631091554E+03  0.41800000000E+01 0.  1.
         -5    1    3    3    0  502  0.13511856853E+02 -0.26940159424E+02  0.10320864120E+02  0.32129972014E+02  0.41800000000E+01 0.  1.
        -11    1    1    2    0    0  0.38728614849E+02 -0.65536548827E+02 -0.46758263204E+01  0.76268002413E+02  0.00000000000E+00 0. -1.
         11    1    1    2    0    0  0.59913000706E+02  0.16325912447E+02 -0.37599098285E+02  0.72593355499E+02  0.00000000000E+00 0.  1.
</event>
<event>
 7    1  0.2723366E-009  0.1095339E+03  0.7561462E-02  0.1261435E+00
          2   -1    0    0  501    0  0.00000000000E+00  0.00000000000E+00  0.45407358229E+03  0.45407358229E+03  0.00000000000E+00 0. -1.
         -2   -1    0    0    0  501 -0.00000000000E+00 -0.00000000000E+00 -0.31723516736E+02  0.31723516736E+02  0.00000000000E+00 0.  1.
         25    2    1    2    0    0  0.44975978834E+02 -0.22754354755E+02  0.25958770285E+03  0.29253053409E+03  0.12509092122E+03 0.  0.
          5    1    3    3  502    0  0.20610356884E+01  0.43185017666E+02  0.39293261736E+02  0.58571549721E+02  0.41800000000E+01 0.  1.
         -5    1    3    3    0  502  0.42914943146E+02 -0.65939372421E+02  0.22029444111E+03  0.23395898437E+03  0.41800000000E+01 0.  1.
        -11    1    1    2    0    0 -0.46517259810E+02  0.50729857251E+02  0.78161790098E+02  0.10414720019E+03  0.00000000000E+00 0.  1.
         11    1    1    2    0    0  0.15412809759E+01 -0.27975502496E+02  0.84600572610E+02  0.89119364746E+02  0.00000000000E+00 0. -1.
</event>
<event>
 7    1  0.2723366E-009  0.8604246E+02  0.7561462E-02  0.1312729E+00
         -1   -1    0    0    0  501 -0.00000000000E+00  0.00000000000E+00  0.20533146138E+02  0.20533146138E+02  0.00000000000E+00 0.  1.
          1   -1    0    0  501    0  0.00000000000E+00 -0.00000000000E+00 -0.61879660261E+03  0.61879660261E+03  0.00000000000E+00 0. -1.
         25    2    1    2    0    0 -0.28585192274E+02 -0.20797322221E+02 -0.33496960365E+03  0.35931314024E+03  0.12510657677E+03 0.  0.
          5    1    3    3  502    0  0.87026439274E+01 -0.35336620731E+02 -0.30956514478E+03  0.31172498142E+03  0.41800000000E+01 0. -1.
         -5    1    3    3    0  502 -0.37287836202E+02  0.14539298510E+02 -0.25404458868E+02  0.47588158823E+02  0.41800000000E+01 0. -1.
        -11    1    1    2    0    0 -0.32052493509E+02  0.10350688690E+02 -0.86932953256E+02  0.93230024447E+02  0.00000000000E+00 0. -1.
         11    1    1    2    0    0  0.60637685783E+02  0.10446633531E+02 -0.17636089956E+03  0.18678658406E+03  0.00000000000E+00 0.  1.
</event>
<event>
 7    1  0.2723366E-009  0.1122453E+03  0.7561462E-02  0.1256468E+00
          1   -1    0    0  501    0  0.00000000000E+00  0.00000000000E+00  0.36947747511E+03  0.36947747511E+03  0.00000000000E+00 0. -1.
         -1   -1    0    0    0  501 -0.00000000000E+00 -0.00000000000E+00 -0.40235156059E+02  0.40235156059E+02  0.00000000000E+00 0.  1.
         25    2    1    2    0    0  0.49279615057E+02  0.25940267457E+02  0.20116006324E+03  0.24333518075E+03  0.12508101858E+03 0.  0.
          5    1    3    3  502    0  0.52291715657E+02  0.70484192644E+02  0.10277411045E+03  0.13521255532E+03  0.41800000000E+01 0.  1.
         -5    1    3    3    0  502 -0.30121006006E+01 -0.44543925187E+02  0.98385952794E+02  0.10812262542E+03  0.41800000000E+01 0.  1.
        -11    1    1    2    0    0 -0.64465344917E+02 -0.35743495445E+02  0.57410805538E+02  0.93431144457E+02  0.00000000000E+00 0.  1.
         11    1    1    2    0    0  0.15185729861E+02  0.98032279889E+01  0.70671450272E+02  0.72946305965E+02  0.00000000000E+00 0. -1.
</event>
<event>
 7    1  0.2723366E-009  0.9765092E+02  0.7561462E-02  0.1285315E+00
         -2   -1    0    0    0  501 -0.00000000000E+00  0.00000000000E+00  0.31933742567E+02  0.31933742567E+02  0.00000000000E+00 0.  1.
          2   -1    0    0  501    0  0.00000000000E+00 -0.00000000000E+00 -0.49689855275E+03  0.49689855275E+03  0.00000000000E+00 0. -1.
         25    2    1    2    0    0 -0.50757693460E+02  0.28381650476E+02 -0.32087945482E+03  0.34927813110E+03  0.12509886813E+03 0.  0.
          5    1    3    3  502    0  0.19039336903E+02 -0.13759712970E+02 -0.68697813021E+01  0.24829263901E+02  0.41800000000E+01 0.  1.
         -5    1    3    3    0  502 -0.69797030364E+02  0.42141363446E+02 -0.31400967352E+03  0.32444886720E+03  0.41800000000E+01 0.  1.
        -11    1    1    2    0    0 -0.29646117504E+01  0.18356732270E+02 -0.85044073265E+02  0.87053161574E+02  0.00000000000E+00 0. -1.
         11    1    1    2    0    0  0.53722305211E+02 -0.46738382747E+02 -0.59041282093E+02  0.92501002644E+02  0.00000000000E+00 0.  1.
</event>
<event>
 7    1  0.2723366E-009  0.6330187E+02  0.7561462E-02  0.1384475E+00
         -2   -1    0    0    0  501 -0.00000000000E+00  0.00000000000E+00  0.78712839645E+02  0.78712839645E+02  0.00000000000E+00 0.  1.
          2   -1    0    0  501    0  0.00000000000E+00 -0.00000000000E+00 -0.17130302917E+03  0.17130302917E+03  0.00000000000E+00 0. -1.
         25    2    1    2    0    0 -0.24001254418E+02  0.20096408987E+02 -0.84100449241E+02  0.15394701594E+03  0.12508745854E+03 0.  0.
          5    1    3    3  502    0 -0.28229742699E+02 -0.21882314870E+01  0.27677189190E+02  0.39814644684E+02  0.41800000000E+01 0.  1.
         -5    1    3    3    0  502  0.42284882814E+01  0.22284640474E+02 -0.11177763843E+03  0.11413237125E+03  0.41800000000E+01 0.  1.
        -11    1    1    2    0    0  0.44429209454E+02  0.24464321435E+01 -0.34293037766E+02  0.56177861496E+02  0.00000000000E+00 0. -1.
         11    1    1    2    0    0 -0.20427955037E+02 -0.22542841131E+02  0.25803297478E+02  0.39890991388E+02  0.00000000000E+00 0.  1.
</event>
<event>
 7    1  0.2723366E-009  0.7181296E+02  0.7561462E-02  0.1354034E+00
         -1   -1    0    0    0  501 -0.00000000000E+00  0.00000000000E+00  0.41404296140E+03  0.41404296140E+03  0.00000000000E+00 0.  1.
          1   -1    0    0  501    0  0.00000000000E+00 -0.00000000000E+00 -0.29030442062E+02  0.29030442062E+02  0.00000000000E+00 0. -1.
         25    2    1    2    0    0 -0.77073157308E+01 -0.68539607458E+01  0.25101192022E+03  0.28064332537E+03  0.12508921812E+03 0.  0.
          5    1    3    3  502    0 -0.36687899273E+02 -0.11918639067E+00  0.24767626289E+03  0.25041369723E+03  0.41800000000E+01 0.  1.
         -5    1    3    3    0  502  0.28980583543E+02 -0.67347743552E+01  0.33356573306E+01  0.30229628147E+02  0.41800000000E+01 0.  1.
        -11    1    1    2    0    0 -0.20002387514E+02 -0.26558207338E+02  0.10522044983E+03  0.11034843427E+03  0.00000000000E+00 0.  1.
         11    1    1    2    0    0  0.27709703244E+02  0.33412168083E+02  0.28780149282E+02  0.52081643816E+02  0.00000000000E+00 0. -1.
</event>
<event>
 7    1  0.2723366E-009  0.1440407E+03  0.7561462E-02  0.1207993E+00
          2   -1    0    0  501    0  0.00000000000E+00  0.00000000000E+00  0.86454208043E+03  0.86454208043E+03  0.00000000000E+00 0. -1.
         -2   -1    0    0    0  501 -0.00000000000E+00 -0.00000000000E+00 -0.26023622713E+02  0.26023622713E+02  0.00000000000E+00 0.  1.
         25    2    1    2    0    0  0.92111714875E+02  0.41730493098E+02  0.52823010702E+03  0.55217743189E+03  0.12508744243E+03 0.  0.
          5    1    3    3  502    0  0.12266530317E+03  0.36417619519E+02  0.39105845762E+03  0.41148172413E+03  0.41800000000E+01 0.  1.
         -5    1    3    3    0  502 -0.30553588298E+02  0.53128735786E+01  0.13717164940E+03  0.14069570776E+03  0.41800000000E+01 0.  1.
        -11    1    1    2    0    0 -0.10431752032E+03 -0.23676584784E+02  0.28796401822E+03  0.30719049709E+03  0.00000000000E+00 0. -1.
         11    1    1    2    0    0  0.12205805449E+02 -0.18053908314E+02  0.22324332473E+02  0.31197774158E+02  0.00000000000E+00 0.  1.
</event>
<event>
 7    1  0.2723366E-009  0.1064497E+03  0.7561462E-02  0.1267289E+00
          1   -1    0    0  501    0  0.00000000000E+00  0.00000000000E+00  0.10063308241E+04  0.10063308241E+04  0.00000000000E+00 0. -1.
         -1   -1    0    0    0  501 -0.00000000000E+00 -0.00000000000E+00 -0.20448792073E+02  0.20448792073E+02  0.00000000000E+00 0.  1.
         25    2    1    2    0    0  0.86714038310E+02  0.17331473170E+02  0.41997225310E+03  0.44703667714E+03  0.12508154510E+03 0.  0.
          5    1    3    3  502    0  0.86036141730E+01  0.28058057352E+01 -0.73412558666E+01  0.12379869158E+02  0.41800000000E+01 0. -1.
         -5    1    3    3    0  502  0.78110424137E+02  0.14525667435E+02  0.42731350897E+03  0.43465680798E+03  0.41800000000E+01 0. -1.
        -11    1    1    2    0    0 -0.75653217984E+01  0.30142259189E+02  0.97712416456E+02  0.10253539005E+03  0.00000000000E+00 0.  1.
         11    1    1    2    0    0 -0.79148716511E+02 -0.47473732359E+02  0.46819736245E+03  0.47720754897E+03  0.00000000000E+00 0. -1.
</event>
<event>
 7    1  0.2723366E-009  0.1124023E+03  0.7561462E-02  0.1256185E+00
          1   -1    0    0  501    0  0.00000000000E+00  0.00000000000E+00  0.75603995329E+02  0.75603995329E+02  0.00000000000E+00 0. -1.
         -1   -1    0    0    0  501 -0.00000000000E+00 -0.00000000000E+00 -0.20861822318E+03  0.20861822318E+03  0.00000000000E+00 0.  1.
         25    2    1    2    0    0 -0.14283082185E+02 -0.55113867582E+02 -0.93173377367E+02  0.16604134060E+03  0.12508758412E+03 0.  0.
          5    1    3    3  502    0 -0.41527180446E+02 -0.70536098139E+02 -0.17172597740E+02  0.83738989542E+02  0.41800000000E+01 0.  1.
         -5    1    3    3    0  502  0.27244098261E+02  0.15422230557E+02 -0.76000779627E+02  0.82302351055E+02  0.41800000000E+01 0.  1.
        -11    1    1    2    0    0  0.19880365067E+02  0.81704231456E+02 -0.29832368394E+02  0.89223206382E+02  0.00000000000E+00 0. -1.
         11    1    1    2    0    0 -0.55972828820E+01 -0.26590363875E+02 -0.10008482090E+02  0.28957671529E+02  0.00000000000E+00 0.  1.
</event>
<event>
 7    1  0.2723366E-009  0.2009586E+03  0.7561462E-02  0.1148933E+00
          2   -1    0    0  501    0  0.00000000000E+00  0.00000000000E+00  0.79317811528E+03  0.79317811528E+03  0.00000000000E+00 0. -1.
         -2   -1    0    0    0  501 -0.00000000000E+00 -0.00000000000E+00 -0.78560245232E+02  0.78560245232E+02  0.00000000000E+00 0.  1.
         25    2    1    2    0    0 -0.12961323401E+03  0.12576549787E+03  0.13499714087E+03  0.25785329019E+03  0.12509012885E+03 0.  0.
          5    1    3    3  502    0 -0.92992082129E+02  0.15315176967E+02  0.24813003536E+02  0.97546089254E+02  0.41800000000E+01 0.  1.
         -5    1    3    3    0  502 -0.36621151884E+02  0.11045032090E+03  0.11018413734E+03  0.16030720094E+03  0.41800000000E+01 0.  1.
        -11    1    1    2    0    0  0.93284988358E+02 -0.12346033422E+03  0.36884212093E+03  0.39998631646E+03  0.00000000000E+00 0. -1.
         11    1    1    2    0    0  0.36328245654E+02 -0.23051636517E+01  0.21077860824E+03  0.21389875386E+03  0.00000000000E+00 0.  1.
</event>
<event>
 7    1  0.2723366E-009  0.1449384E+03  0.7561462E-02  0.1206834E+00
         -1   -1    0    0    0  501 -0.00000000000E+00  0.00000000000E+00  0.97187781148E+02  0.97187781148E+02  0.00000000000E+00 0.  1.
          1   -1    0    0  501    0  0.00000000000E+00 -0.00000000000E+00 -0.22182772358E+03  0.22182772358E+03  0.00000000000E+00 0. -1.
         25    2    1    2    0    0 -0.75573143496E+02  0.60809601580E+02 -0.67920355851E+02  0.17224890220E+03  0.12508957554E+03 0.  0.
          5    1    3    3  502    0  0.34453482541E+02  0.95433124759E+01 -0.23190726857E+02  0.42818214399E+02  0.41800000000E+01 0. -1.
         -5    1    3    3    0  502 -0.11002662604E+03  0.51266289104E+02 -0.44729628994E+02  0.12943068780E+03  0.41800000000E+01 0. -1.
        -11    1    1    2    0    0  0.84912209045E+01  0.23324977524E+02  0.63689055902E+00  0.24830647163E+02  0.00000000000E+00 0.  1.
         11    1    1    2    0    0  0.67081922591E+02 -0.84134579104E+02 -0.57356477136E+02  0.12193595536E+03  0.00000000000E+00 0. -1.
</event>
<event>
 7    1  0.2723366E-009  0.1120741E+03  0.7561462E-02  0.1256777E+00
         -2   -1    0    0    0  501 -0.00000000000E+00  0.00000000000E+00  0.12440395855E+02  0.12440395855E+02  0.00000000000E+00 0.  1.
          2   -1    0    0  501    0  0.00000000000E+00 -0.00000000000E+00 -0.11160369603E+04  0.11160369603E+04  0.00000000000E+00 0. -1.
         25    2    1    2    0    0  0.42865485187E+02 -0.94084936989E+01 -0.70275218148E+03  0.71514622409E+03  0.12509006231E+03 0.  0.
          5    1    3    3  502    0  0.34493711055E+02 -0.61374777500E+02 -0.52503628559E+03  0.52975206749E+03  0.41800000000E+01 0. -1.
         -5    1    3    3    0  502  0.83717741328E+01  0.51966283802E+02 -0.17771589589E+03  0.18539415661E+03  0.41800000000E+01 0. -1.
        -11    1    1    2    0    0 -0.71124048597E+02  0.13097929363E+02 -0.29016432791E+03  0.29904100594E+03  0.00000000000E+00 0. -1.
         11    1    1    2    0    0  0.28258563410E+02 -0.36894356642E+01 -0.11068005507E+03  0.11429012613E+03  0.00000000000E+00 0.  1.
</event>
<event>
 7    1  0.2723366E-009  0.7277579E+02  0.7561462E-02  0.1350900E+00
          1   -1    0    0  501    0  0.00000000000E+00  0.00000000000E+00  0.90810131800E+02  0.90810131800E+02  0.00000000000E+00 0. -1.
         -1   -1    0    0    0  501 -0.00000000000E+00 -0.00000000000E+00 -0.22482270164E+03  0.22482270164E+03  0.00000000000E+00 0.  1.
         25    2    1    2    0    0 -0.38209168430E+02  0.11997405577E+01 -0.16643252381E+03  0.21167998243E+03  0.12508896853E+03 0.  0.
          5    1    3    3  502    0 -0.22952100283E+02 -0.31882383515E+02 -0.17028556216E+03  0.17480826744E+03  0.41800000000E+01 0. -1.
         -5    1    3    3    0  502 -0.15257068148E+02  0.33082124073E+02  0.38530383443E+01  0.36871714987E+02  0.41800000000E+01 0. -1.
        -11    1    1    2    0    0 -0.10789204342E+02 -0.14993927045E+02 -0.22473029057E+02  0.29090579464E+02  0.00000000000E+00 0.  1.
         11    1    1    2    0    0  0.48998372772E+02  0.13794186488E+02  0.54892983032E+02  0.74862271548E+02  0.00000000000E+00 0. -1.
</event>
<event>
 7    1  0.2723366E-009  0.1778077E+03  0.7561462E-02  0.1169942E+00
          1   -1    0    0  501    0  0.00000000000E+00  0.00000000000E+00  0.76300457017E+03  0.76300457017E+03  0.00000000000E+00 0. -1.
         -1   -1    0    0    0  501 -0.00000000000E+00 -0.00000000000E+00 -0.48814481342E+02  0.48814481342E+02  0.00000000000E+00 0.  1.
         25    2    1    2    0    0 -0.15219744613E+03 -0.34732907952E+02  0.43807010525E+03  0.48158561966E+03  0.12509538139E+03 0.  0.
          5    1    3    3  502    0 -0.88170589721E+02  0.23483651532E+02  0.33353051498E+03  0.34581152613E+03  0.41800000000E+01 0. -1.
         -5    1    3    3    0  502 -0.64026856411E+02 -0.58216559484E+02  0.10453959027E+03  0.13577409353E+03  0.41800000000E+01 0. -1.
        -11    1    1    2    0    0  0.50376698494E+02  0.54174372781E+02  0.83996759424E+02  0.11192912941E+03  0.00000000000E+00 0.  1.
         11    1    1    2    0    0  0.10182074764E+03 -0.19441464829E+02  0.19212322416E+03  0.21830430244E+03  0.00000000000E+00 0. -1.
</event>
<event>
 7    1  0.2723366E-009  0.1041916E+03  0.7561462E-02  0.1271721E+00
          4   -1    0    0  501    0  0.00000000000E+00  0.00000000000E+00  0.73444253283E+02  0.73444253283E+02  0.00000000000E+00 0.  1.
         -4   -1    0    0    0  501 -0.00000000000E+00 -0.00000000000E+00 -0.23871327346E+03  0.23871327346E+03  0.00000000000E+00 0. -1.
         25    2    1    2    0    0  0.16346749942E+02 -0.72673967965E+02 -0.10438072358E+03  0.17914312024E+03  0.12509276647E+03 0.  0.
          5    1    3    3  502    0 -0.35198887462E+02 -0.47542797730E+02 -0.10617902245E+03  0.12161717191E+03  0.41800000000E+01 0. -1.
         -5    1    3    3    0  502  0.51545637404E+02 -0.25131170235E+02  0.17982988779E+01  0.57525948333E+02  0.41800000000E+01 0. -1.
        -11    1    1    2    0    0 -0.35370094177E+02  0.56273897180E+02 -0.78108899619E+02  0.10256117816E+03  0.00000000000E+00 0. -1.
         11    1    1    2    0    0  0.19023344235E+02  0.16400070785E+02  0.17220603021E+02  0.30453228335E+02  0.00000000000E+00 0.  1.
</event>
<event>
 7    1  0.2723366E-009  0.1744583E+03  0.7561462E-02  0.1173277E+00
          2   -1    0    0  501    0  0.00000000000E+00  0.00000000000E+00  0.10533977679E+04  0.10533977679E+04  0.00000000000E+00 0. -1.
         -2   -1    0    0    0  501 -0.00000000000E+00 -0.00000000000E+00 -0.39937836635E+02  0.39937836635E+02  0.00000000000E+00 0.  1.
         25    2    1    2    0    0  0.20847806280E+02 -0.14060124684E+03  0.26216921317E+03  0.32339359889E+03  0.12508949526E+03 0.  0.
          5    1    3    3  502    0 -0.46009897254E+02 -0.21841541128E+02  0.93009095701E+02  0.10612317300E+03  0.41800000000E+01 0. -1.
         -5    1    3    3    0  502  0.66857703533E+02 -0.11875970571E+03  0.16916011747E+03  0.21727042589E+03  0.41800000000E+01 0. -1.
        -11    1    1    2    0    0  0.21040831367E+02  0.10315310971E+03  0.58548404563E+03  0.59487380873E+03  0.00000000000E+00 0. -1.
         11    1    1    2    0    0 -0.41888637647E+02  0.37448137131E+02  0.16580667243E+03  0.17506819689E+03  0.00000000000E+00 0.  1.
</event>
<event>
 7    1  0.2723366E-009  0.1896961E+03  0.7561462E-02  0.1158736E+00
         -1   -1    0    0    0  501 -0.00000000000E+00  0.00000000000E+00  0.56853922822E+02  0.56853922822E+02  0.00000000000E+00 0.  1.
          1   -1    0    0  501    0  0.00000000000E+00 -0.00000000000E+00 -0.77260651856E+03  0.77260651856E+03  0.00000000000E+00 0. -1.
         25    2    1    2    0    0 -0.87569621943E+02  0.13423548328E+03 -0.52896578830E+03  0.56669187926E+03  0.12508907692E+03 0.  0.
          5    1    3    3  502    0 -0.11965644657E+03  0.11108444763E+03 -0.41509766100E+03  0.44607281948E+03  0.41800000000E+01 0.  1.
         -5    1    3    3    0  502  0.32086824629E+02  0.23151035644E+02 -0.11386812731E+03  0.12061905978E+03  0.41800000000E+01 0.  1.
        -11    1    1    2    0    0  0.75347190502E+02 -0.48341707394E+02 -0.13419293370E+03  0.16131293577E+03  0.00000000000E+00 0. -1.
         11    1    1    2    0    0  0.12222431441E+02 -0.85893775882E+02 -0.52593873735E+02  0.10145562636E+03  0.00000000000E+00 0.  1.
</event>
<event>
 7    1  0.2723366E-009  0.1609499E+03  0.7561462E-02  0.1187629E+00
          2   -1    0    0  501    0  0.00000000000E+00  0.00000000000E+00  0.47713967209E+03  0.47713967209E+03  0.00000000000E+00 0.  1.
         -2   -1    0    0    0  501 -0.00000000000E+00 -0.00000000000E+00 -0.77303443170E+02  0.77303443170E+02  0.00000000000E+00 0. -1.
         25    2    1    2    0    0  0.70318070699E+02 -0.13854541289E+03  0.14624737336E+03  0.24733604972E+03  0.12508942712E+03 0.  0.
          5    1    3    3  502    0  0.40373225791E+02 -0.83283842637E+02  0.15809239632E+03  0.18323993554E+03  0.41800000000E+01 0.  1.
         -5    1    3    3    0  502  0.29944844908E+02 -0.55261570254E+02 -0.11845022961E+02  0.64096114176E+02  0.41800000000E+01 0.  1.
        -11    1    1    2    0    0 -0.51791791159E+02  0.13835617673E+03  0.24627857740E+03  0.28718976123E+03  0.00000000000E+00 0.  1.
         11    1    1    2    0    0 -0.18526279540E+02  0.18923616206E+00  0.73102781583E+01  0.19917304302E+02  0.00000000000E+00 0. -1.
</event>
<event>
 7    1  0.3771044E-009  0.1132846E+03  0.7561462E-02  0.1254605E+00
          1   -1    0    0  501    0  0.00000000000E+00  0.00000000000E+00  0.24446629795E+03  0.24446629795E+03  0.00000000000E+00 0. -1.
         -1   -1    0    0    0  501 -0.00000000000E+00 -0.00000000000E+00 -0.70867187451E+02  0.70867187451E+02  0.00000000000E+00 0.  1.
         25    2    1    2    0    0 -0.11212018176E+02  0.44490584526E+02  0.25866051087E+02  0.13572371271E+03  0.12508697826E+03 0.  0.
          5    1    3    3  502    0 -0.57282091537E+02  0.61089099038E+02  0.20230144254E+02  0.86254548684E+02  0.41800000000E+01 0.  1.
         -5    1    3    3    0  502  0.46070073361E+02 -0.16598514513E+02  0.56359068326E+01  0.49469164025E+02  0.41800000000E+01 0.  1.
        -11    1    1    2    0    0 -0.19194631445E+02 -0.57411676210E+02  0.57391040457E+02  0.83416221242E+02  0.00000000000E+00 0.  1.
         11    1    1    2    0    0  0.30406649621E+02  0.12921091684E+02  0.90342018959E+02  0.96193551452E+02  0.00000000000E+00 0. -1.
</event>
<event>
 7    1  0.2723366E-009  0.7444159E+02  0.7561462E-02  0.1345609E+00
         -2   -1    0    0    0  501 -0.00000000000E+00  0.00000000000E+00  0.50074347291E+02  0.50074347291E+02  0.00000000000E+00 0.  1.
          2   -1    0    0  501    0  0.00000000000E+00 -0.00000000000E+00 -0.24063798131E+03  0.24063798131E+03  0.00000000000E+00 0. -1.
         25    2    1    2    0    0  0.12448606261E+02 -0.18944780014E+01 -0.11771219764E+03  0.17223146734E+03  0.12509580339E+03 0.  0.
          5    1    3    3  502    0  0.26556547740E+02 -0.28719040884E+02  0.10258757217E+02  0.40654003946E+02  0.41800000000E+01 0.  1.
         -5    1    3    3    0  502 -0.14107941479E+02  0.26824562883E+02 -0.12797095486E+03  0.13157746340E+03  0.41800000000E+01 0.  1.
        -11    1    1    2    0    0 -0.15772930827E+02  0.38805858839E+02 -0.63744632629E+01  0.42371143589E+02  0.00000000000E+00 0.  1.
         11    1    1    2    0    0  0.33243245653E+01 -0.36911380838E+02 -0.66476973112E+02  0.76109717667E+02  0.00000000000E+00 0. -1.
</event>
<event>
 7    1  0.2723366E-009  0.8208805E+02  0.7561462E-02  0.1323228E+00
         -3   -1    0    0    0  501 -0.00000000000E+00  0.00000000000E+00  0.18177962104E+03  0.18177962104E+03  0.00000000000E+00 0.  1.
          3   -1    0    0  501    0  0.00000000000E+00 -0.00000000000E+00 -0.92445523639E+02  0.92445523639E+02  0.00000000000E+00 0. -1.
         25    2    1    2    0    0  0.22258284019E+02 -0.28391002316E+01  0.12118684360E+03  0.17560764274E+03  0.12509317098E+03 0.  0.
          5    1    3    3  502    0  0.40834062519E+02  0.24053021269E+02 -0.24663893104E+01  0.47639521096E+02  0.41800000000E+01 0.  1.
         -5    1    3    3    0  502 -0.18575778500E+02 -0.26892121501E+02  0.12365323291E+03  0.12796812164E+03  0.41800000000E+01 0.  1.
        -11    1    1    2    0    0 -0.45162295331E+02  0.25135485414E+02  0.24326942179E+01  0.51743053135E+02  0.00000000000E+00 0. -1.
         11    1    1    2    0    0  0.22904011312E+02 -0.22296385183E+02 -0.34285440420E+02  0.46874448810E+02  0.00000000000E+00 0.  1.
</event>
<event>
 7    1  0.2723366E-009  0.8308815E+02  0.7561462E-02  0.1320509E+00
         -2   -1    0    0    0  501 -0.00000000000E+00  0.00000000000E+00  0.88399816082E+02  0.88399816082E+02  0.00000000000E+00 0.  1.
          2   -1    0    0  501    0  0.00000000000E+00 -0.00000000000E+00 -0.13746669436E+03  0.13746669436E+03  0.00000000000E+00 0. -1.
         25    2    1    2    0    0  0.15710429005E+01 -0.16505056772E+02 -0.17800196166E+02  0.12742738530E+03  0.12508399764E+03 0.  0.
          5    1    3    3  502    0  0.52699383910E+02 -0.20990228597E+02 -0.41827224033E+02  0.70603143212E+02  0.41800000000E+01 0.  1.
         -5    1    3    3    0  502 -0.51128341010E+02  0.44851718250E+01  0.24027027867E+02  0.56824242088E+02  0.41800000000E+01 0.  1.
        -11    1    1    2    0    0 -0.19996225692E+01 -0.20598866979E+02 -0.51976084894E+02  0.55944840800E+02  0.00000000000E+00 0. -1.
         11    1    1    2    0    0  0.42857966863E+00  0.37103923750E+02  0.20709402783E+02  0.42494284343E+02  0.00000000000E+00 0.  1.
</event>
<event>
 7    1  0.2723366E-009  0.8039170E+02  0.7561462E-02  0.1327944E+00
          2   -1    0    0  501    0  0.00000000000E+00  0.00000000000E+00  0.39017705721E+03  0.39017705721E+03  0.00000000000E+00 0. -1.
         -2   -1    0    0    0  501 -0.00000000000E+00 -0.00000000000E+00 -0.32736549218E+02  0.32736549218E+02  0.00000000000E+00 0.  1.
         25    2    1    2    0    0  0.70124418949E+01  0.25271886598E+02  0.16913552167E+03  0.21199708465E+03  0.12509235236E+03 0.  0.
          5    1    3    3  502    0 -0.11977344475E+02 -0.19795975341E+02  0.16043458621E+03  0.16214828483E+03  0.41800000000E+01 0. -1.
         -5    1    3    3    0  502  0.18989786370E+02  0.45067861939E+02  0.87009354557E+01  0.49848799825E+02  0.41800000000E+01 0. -1.
        -11    1    1    2    0    0  0.38535523612E+02 -0.72906323670E+01  0.12421911224E+03  0.13026330161E+03  0.00000000000E+00 0. -1.
         11    1    1    2    0    0 -0.45547965507E+02 -0.17981254231E+02  0.64085874083E+02  0.80653220162E+02  0.00000000000E+00 0.  1.
</event>
<event>
 7    1  0.2723366E-009  0.1154823E+03  0.7561462E-02  0.1250742E+00
         -2   -1    0    0    0  501 -0.00000000000E+00  0.00000000000E+00  0.35453758559E+03  0.35453758559E+03  0.00000000000E+00 0.  1.
          2   -1    0    0  501    0  0.00000000000E+00 -0.00000000000E+00 -0.57540859352E+02  0.57540859352E+02  0.00000000000E+00 0. -1.
         25    2    1    2    0    0  0.50115117275E+02 -0.46655897745E+02  0.25495499176E+03  0.29212671400E+03  0.12509065287E+03 0.  0.
          5    1    3    3  502    0  0.82447981662E+01 -0.80459233923E+02  0.19664840726E+03  0.21267283206E+03  0.41800000000E+01 0.  1.
         -5    1    3    3    0  502  0.41870319109E+02  0.33803336178E+02  0.58306584503E+02  0.79453881941E+02  0.41800000000E+01 0.  1.
        -11    1    1    2    0    0  0.16389288206E+02  0.15510959649E+02 -0.14887161569E+02  0.27033797675E+02  0.00000000000E+00 0. -1.
         11    1    1    2    0    0 -0.66504405482E+02  0.31144938096E+02  0.56928896048E+02  0.92917933267E+02  0.00000000000E+00 0.  1.
</event>
<event>
 7    1  0.2723366E-009  0.1107231E+03  0.7561462E-02  0.1259237E+00
         -1   -1    0    0    0  501 -0.00000000000E+00  0.00000000000E+00  0.10881971651E+02  0.10881971651E+02  0.00000000000E+00 0.  1.
          1   -1    0    0  501    0  0.00000000000E+00 -0.00000000000E+00 -0.22022582099E+04  0.22022582099E+04  0.00000000000E+00 0. -1.
         25    2    1    2    0    0  0.51198560683E+02  0.76536556267E+02 -0.16152258909E+04  0.16226772194E+04  0.12509013780E+03 0.  0.
          5    1    3    3  502    0  0.23794358955E+02  0.34780738220E+02 -0.14346481743E+04  0.14352730499E+04  0.41800000000E+01 0. -1.
         -5    1    3    3    0  502  0.27404201728E+02  0.41755818047E+02 -0.18057771660E+03  0.18740416950E+03  0.41800000000E+01 0. -1.
        -11    1    1    2    0    0 -0.73083697987E+02 -0.32871655340E+02 -0.34027566822E+03  0.34958447194E+03  0.00000000000E+00 0.  1.
         11    1    1    2    0    0  0.21885137304E+02 -0.43664900927E+02 -0.23587467910E+03  0.24087849021E+03  0.00000000000E+00 0. -1.
</event>
<event>
 7    1  0.2723366E-009  0.2226835E+03  0.7561462E-02  0.1131898E+00
         -1   -1    0    0    0  501 -0.00000000000E+00  0.00000000000E+00  0.27854535617E+03  0.27854535617E+03  0.00000000000E+00 0.  1.
          1   -1    0    0  501    0  0.00000000000E+00 -0.00000000000E+00 -0.22256179654E+03  0.22256179654E+03  0.00000000000E+00 0. -1.
         25    2    1    2    0    0 -0.18628318187E+03  0.89365284155E+02 -0.69951628851E+02  0.25146046548E+03  0.12510618474E+03 0.  0.
          5    1    3    3  502    0  0.12280573983E+02  0.14212337535E+02  0.13280234327E+02  0.23380334886E+02  0.41800000000E+01 0. -1.
         -5    1    3    3    0  502 -0.19856375586E+03  0.75152946620E+02 -0.83231863178E+02  0.22808013060E+03  0.41800000000E+01 0. -1.
        -11    1    1    2    0    0  0.16652844612E+03 -0.57299202620E+02  0.11535092062E+03  0.21052495547E+03  0.00000000000E+00 0.  1.
         11    1    1    2    0    0  0.19754735750E+02 -0.32066081535E+02  0.10584267863E+02  0.39121731758E+02  0.00000000000E+00 0. -1.
</event>
<event>
 7    1  0.2723366E-009  0.9626314E+02  0.7561462E-02  0.1288356E+00
         -1   -1    0    0    0  501 -0.00000000000E+00  0.00000000000E+00  0.82790143431E+02  0.82790143431E+02  0.00000000000E+00 0.  1.
          1   -1    0    0  501    0  0.00000000000E+00 -0.00000000000E+00 -0.20822725891E+03  0.20822725891E+03  0.00000000000E+00 0. -1.
         25    2    1    2    0    0 -0.76447374815E+01 -0.72059216548E+02 -0.76894467367E+02  0.16374156088E+03  0.12509023522E+03 0.  0.
          5    1    3    3  502    0 -0.29952250874E+02 -0.23879912822E+02  0.26959389008E+02  0.47028381053E+02  0.41800000000E+01 0. -1.
         -5    1    3    3    0  502  0.22307513392E+02 -0.48179303727E+02 -0.10385385638E+03  0.11671317983E+03  0.41800000000E+01 0. -1.
        -11    1    1    2    0    0 -0.86920206905E+01  0.81436011635E+02 -0.76520897336E+01  0.82255271515E+02  0.00000000000E+00 0.  1.
         11    1    1    2    0    0  0.16336758172E+02 -0.93767950870E+01 -0.40890558378E+02  0.45020569945E+02  0.00000000000E+00 0. -1.
</event>
<event>
 7    1  0.2723366E-009  0.8389734E+02  0.7561462E-02  0.1318342E+00
          1   -1    0    0  501    0  0.00000000000E+00  0.00000000000E+00  0.97485405551E+03  0.97485405551E+03  0.00000000000E+00 0. -1.
         -1   -1    0    0    0  501 -0.00000000000E+00 -0.00000000000E+00 -0.37857383218E+02  0.37857383218E+02  0.00000000000E+00 0.  1.
         25    2    1    2    0    0  0.59251685120E+02  0.52381331337E+02  0.85330838916E+03  0.86604478052E+03  0.12507513259E+03 0.  0.
          5    1    3    3  502    0  0.33510400285E+02  0.52213418904E+02  0.15167251286E+03  0.16392440819E+03  0.41800000000E+01 0. -1.
         -5    1    3    3    0  502  0.25741284835E+02  0.16791243342E+00  0.70163587630E+03  0.70212037234E+03  0.41800000000E+01 0. -1.
        -11    1    1    2    0    0 -0.13607464505E+02 -0.17038176097E+02  0.86169190214E+02  0.88885273680E+02  0.00000000000E+00 0. -1.
         11    1    1    2    0    0 -0.45644220614E+02 -0.35343155240E+02 -0.24809070833E+01  0.57781384526E+02  0.00000000000E+00 0.  1.
</event>
<event>
 7    1  0.2723366E-009  0.7679406E+02  0.7561462E-02  0.1338404E+00
          1   -1    0    0  501    0  0.00000000000E+00  0.00000000000E+00  0.23569832890E+03  0.23569832890E+03  0.00000000000E+00 0. -1.
         -1   -1    0    0    0  501 -0.00000000000E+00 -0.00000000000E+00 -0.51002077418E+02  0.51002077418E+02  0.00000000000E+00 0.  1.
         25    2    1    2    0    0  0.26438141537E+02  0.75627963887E+01  0.10947014539E+03  0.16848832128E+03  0.12509368673E+03 0.  0.
          5    1    3    3  502    0 -0.13888741888E+01 -0.36307058930E+02 -0.10193451917E+02  0.37967227468E+02  0.41800000000E+01 0. -1.
         -5    1    3    3    0  502  0.27827015726E+02  0.43869855318E+02  0.11966359731E+03  0.13052109382E+03  0.41800000000E+01 0. -1.
        -11    1    1    2    0    0 -0.43005708789E+02  0.60809866944E+01  0.37636450000E+01  0.43596266025E+02  0.00000000000E+00 0.  1.
         11    1    1    2    0    0  0.16567567251E+02 -0.13643783083E+02  0.71462461089E+02  0.74615819009E+02  0.00000000000E+00 0. -1.
</event>
<event>
 7    1  0.2723366E-009  0.1657386E+03  0.7561462E-02  0.1182366E+00
         -1   -1    0    0    0  501 -0.00000000000E+00  0.00000000000E+00  0.62199659686E+02  0.62199659686E+02  0.00000000000E+00 0.  1.
          1   -1    0    0  501    0  0.00000000000E+00 -0.00000000000E+00 -0.50616721272E+03  0.50616721272E+03  0.00000000000E+00 0. -1.
         25    2    1    2    0    0 -0.64434571662E+01  0.13932175687E+03 -0.21550079135E+03  0.28555194648E+03  0.12508898027E+03 0.  0.
          5    1    3    3  502    0 -0.63201150808E+02  0.68821690928E+02 -0.13572456129E+03  0.16483154900E+03  0.41800000000E+01 0. -1.
         -5    1    3    3    0  502  0.56757693642E+02  0.70500065941E+02 -0.79776230060E+02  0.12072039748E+03  0.41800000000E+01 0. -1.
        -11    1    1    2    0    0 -0.73501728175E+01 -0.13105169823E+03 -0.23180695199E+03  0.26638888047E+03  0.00000000000E+00 0. -1.
         11    1    1    2    0    0  0.13793629984E+02 -0.82700586393E+01  0.33401903090E+01  0.16426045456E+02  0.00000000000E+00 0.  1.
</event>
<event>
 7    1  0.2723366E-009  0.1163203E+03  0.7561462E-02  0.1249294E+00
         -4   -1    0    0    0  501 -0.00000000000E+00  0.00000000000E+00  0.46434242204E+03  0.46434242204E+03  0.00000000000E+00 0.  1.
          4   -1    0    0  501    0  0.00000000000E+00 -0.00000000000E+00 -0.36858689813E+02  0.36858689813E+02  0.00000000000E+00 0. -1.
         25    2    1    2    0    0  0.64443563342E+02  0.30703891851E+02  0.20927144080E+03  0.25404238397E+03  0.12508914857E+03 0.  0.
          5    1    3    3  502    0  0.23472976372E+02 -0.33051030857E+02  0.15619921995E+03  0.16142806439E+03  0.41800000000E+01 0. -1.
         -5    1    3    3    0  502  0.40970586970E+02  0.63754922707E+02  0.53072220849E+02  0.92614319584E+02  0.41800000000E+01 0. -1.
        -11    1    1    2    0    0  0.76756591811E+01 -0.42257477953E+02  0.76514920062E+02  0.87744761547E+02  0.00000000000E+00 0.  1.
         11    1    1    2    0    0 -0.72119222524E+02  0.11553586102E+02  0.14169737137E+03  0.15941396634E+03  0.00000000000E+00 0. -1.
</event>
<event>
 7    1  0.2723366E-009  0.1238228E+03  0.7561462E-02  0.1236921E+00
         -2   -1    0    0    0  501 -0.00000000000E+00  0.00000000000E+00  0.85907717680E+02  0.85907717680E+02  0.00000000000E+00 0. -1.
          2   -1    0    0  501    0  0.00000000000E+00 -0.00000000000E+00 -0.27195647563E+03  0.27195647563E+03  0.00000000000E+00 0.  1.
         25    2    1    2    0    0  0.45970364118E+02 -0.96068070448E+02 -0.11745607861E+03  0.20195283919E+03  0.12508665124E+03 0.  0.
          5    1    3    3  502    0 -0.24492389362E+02 -0.52200659175E+01 -0.75234374547E+02  0.79402832055E+02  0.41800000000E+01 0.  1.
         -5    1    3    3    0  502  0.70462753479E+02 -0.90848004531E+02 -0.42221704067E+02  0.12255000714E+03  0.41800000000E+01 0.  1.
        -11    1    1    2    0    0 -0.22442915879E+02  0.33113921048E+02 -0.78377666097E+02  0.87995879354E+02  0.00000000000E+00 0.  1.
         11    1    1    2    0    0 -0.23527448239E+02  0.62954149399E+02  0.97849867568E+01  0.67915474769E+02  0.00000000000E+00 0. -1.
</event>
<event>
 7    1  0.2723366E-009  0.1031085E+03  0.7561462E-02  0.1273892E+00
         -2   -1    0    0    0  501 -0.00000000000E+00  0.00000000000E+00  0.29087466020E+02  0.29087466020E+02  0.00000000000E+00 0. -1.
          2   -1    0    0  501    0  0.00000000000E+00 -0.00000000000E+00 -0.58904000368E+03  0.58904000368E+03  0.00000000000E+00 0.  1.
         25    2    1    2    0    0  0.24556990230E+02  0.46329002619E+02 -0.42718735282E+03  0.44820498629E+03  0.12509697469E+03 0.  0.
          5    1    3    3  502    0  0.17512185662E+02 -0.36160811835E+02 -0.24149078767E+03  0.24484597993E+03  0.41800000000E+01 0.  1.
         -5    1    3    3    0  502  0.70448045681E+01  0.82489814454E+02 -0.18569656515E+03  0.20335900636E+03  0.41800000000E+01 0.  1.
        -11    1    1    2    0    0 -0.12643067765E+02 -0.61980246762E+02 -0.13599727731E+03  0.14998885821E+03  0.00000000000E+00 0.  1.
         11    1    1    2    0    0 -0.11913922465E+02  0.15651244143E+02  0.32320924709E+01  0.19933625196E+02  0.00000000000E+00 0. -1.
</event>
<event>
 7    1  0.2723366E-009  0.5894956E+02  0.7561462E-02  0.1402294E+00
          1   -1    0    0  501    0  0.00000000000E+00  0.00000000000E+00  0.32115029993E+02  0.32115029993E+02  0.00000000000E+00 0. -1.
         -1   -1    0    0    0  501 -0.00000000000E+00 -0.00000000000E+00 -0.43604262060E+03  0.43604262060E+03  0.00000000000E+00 0.  1.
         25    2    1    2    0    0 -0.91952973928E+00 -0.39192476207E+02 -0.27833864134E+03  0.30766337265E+03  0.12508979127E+03 0.  0.
          5    1    3    3  502    0 -0.26509571045E+02 -0.41739258171E+02 -0.30051156464E+02  0.58012648918E+02  0.41800000000E+01 0.  1.
         -5    1    3    3    0  502  0.25590041305E+02  0.25467819637E+01 -0.24828748488E+03  0.24965072373E+03  0.41800000000E+01 0.  1.
        -11    1    1    2    0    0 -0.68321874235E+01  0.26356050789E+02 -0.13822728854E+03  0.14088329743E+03  0.00000000000E+00 0.  1.
         11    1    1    2    0    0  0.77517171628E+01  0.12836425419E+02  0.12638339283E+02  0.19610980504E+02  0.00000000000E+00 0. -1.
</event>
<event>
 7    1  0.2723366E-009  0.1151280E+03  0.7561462E-02  0.1251358E+00
         -3   -1    0    0    0  501 -0.00000000000E+00  0.00000000000E+00  0.22800317697E+03  0.22800317697E+03  0.00000000000E+00 0. -1.
          3   -1    0    0  501    0  0.00000000000E+00 -0.00000000000E+00 -0.88158465777E+02  0.88158465777E+02  0.00000000000E+00 0.  1.
         25    2    1    2    0    0 -0.49187075897E+02 -0.27371274955E+02  0.28363616939E+02  0.14007700262E+03  0.12509403171E+03 0.  0.
          5    1    3    3  502    0 -0.90913543990E+02 -0.27890752862E+02  0.21417256861E+02  0.97567094184E+02  0.41800000000E+01 0. -1.
         -5    1    3    3    0  502  0.41726468093E+02  0.51947790659E+00  0.69463600778E+01  0.42509908435E+02  0.41800000000E+01 0. -1.
        -11    1    1    2    0    0  0.68822870524E+02  0.25540060074E+02  0.11654096049E+02  0.74328326568E+02  0.00000000000E+00 0.  1.
         11    1    1    2    0    0 -0.19635794627E+02  0.18312148812E+01  0.99826998206E+02  0.10175631356E+03  0.00000000000E+00 0. -1.
</event>
<event>
 7    1  0.2723366E-009  0.1451218E+03  0.7561462E-02  0.1206599E+00
          1   -1    0    0  501    0  0.00000000000E+00  0.00000000000E+00  0.85903921156E+02  0.85903921156E+02  0.00000000000E+00 0. -1.
         -1   -1    0    0    0  501 -0.00000000000E+00 -0.00000000000E+00 -0.32828963291E+03  0.32828963291E+03  0.00000000000E+00 0.  1.
         25    2    1    2    0    0 -0.74178486641E+02 -0.84665409876E+02 -0.54195484305E+02  0.17679078692E+03  0.12508857787E+03 0.  0.
          5    1    3    3  502    0 -0.43714150009E+02  0.27065809683E+02 -0.87918530019E+01  0.52328329268E+02  0.41800000000E+01 0. -1.
         -5    1    3    3    0  502 -0.30464336632E+02 -0.11173121956E+03 -0.45403631304E+02  0.12446245766E+03  0.41800000000E+01 0. -1.
        -11    1    1    2    0    0  0.54373405553E+02  0.24883569491E+02 -0.15517213951E+03  0.16629507552E+03  0.00000000000E+00 0.  1.
         11    1    1    2    0    0  0.19805081088E+02  0.59781840385E+02 -0.33018087941E+02  0.71107691623E+02  0.00000000000E+00 0. -1.
</event>
<event>
 7    1  0.2723366E-009  0.5637968E+02  0.7561462E-02  0.1413685E+00
         -1   -1    0    0    0  501 -0.00000000000E+00  0.00000000000E+00  0.61000517073E+02  0.61000517073E+02  0.00000000000E+00 0.  1.
          1   -1    0    0  501    0  0.00000000000E+00 -0.00000000000E+00 -0.24222219195E+03  0.24222219195E+03  0.00000000000E+00 0. -1.
         25    2    1    2    0    0 -0.55339154962E+01  0.37949482312E+02 -0.55050684862E+02  0.14194288718E+03  0.12508564222E+03 0.  0.
          5    1    3    3  502    0 -0.22109608687E+02  0.71169709471E+01 -0.89555483621E+02  0.92612866916E+02  0.41800000000E+01 0. -1.
         -5    1    3    3    0  502  0.16575693191E+02  0.30832511365E+02  0.34504798759E+02  0.49330020264E+02  0.41800000000E+01 0. -1.
        -11    1    1    2    0    0 -0.16259456485E+02 -0.13328248909E+02 -0.12666222227E+03  0.12839521290E+03  0.00000000000E+00 0. -1.
         11    1    1    2    0    0  0.21793371981E+02 -0.24621233403E+02  0.49123225388E+00  0.32884608949E+02  0.00000000000E+00 0.  1.
</event>
<event>
 7    1  0.2723366E-009  0.1202585E+03  0.7561462E-02  0.1242671E+00
          3   -1    0    0  501    0  0.00000000000E+00  0.00000000000E+00  0.58662171362E+02  0.58662171362E+02  0.00000000000E+00 0. -1.
         -3   -1    0    0    0  501 -0.00000000000E+00 -0.00000000000E+00 -0.35938713652E+03  0.35938713652E+03  0.00000000000E+00 0.  1.
         25    2    1    2    0    0  0.82797310420E+02  0.28688184656E+02 -0.22202632758E+03  0.26948516423E+03  0.12509259392E+03 0.  0.
          5    1    3    3  502    0 -0.33326948263E+02  0.31950223625E+01 -0.51204351910E+02  0.61320891244E+02  0.41800000000E+01 0. -1.
         -5    1    3    3    0  502  0.11612425868E+03  0.25493162293E+02 -0.17082197567E+03  0.20816427299E+03  0.41800000000E+01 0. -1.
        -11    1    1    2    0    0 -0.47447955515E+02 -0.19433602642E+02 -0.95463054098E+02  0.10836128502E+03  0.00000000000E+00 0.  1.
         11    1    1    2    0    0 -0.35349354905E+02 -0.92545820140E+01  0.16764416518E+02  0.40202858625E+02  0.00000000000E+00 0. -1.
</event>
<event>
 7    1  0.2723366E-009  0.7699741E+02  0.7561462E-02  0.1337795E+00
          1   -1    0    0  501    0  0.00000000000E+00  0.00000000000E+00  0.78265829704E+02  0.78265829704E+02  0.00000000000E+00 0. -1.
         -1   -1    0    0    0  501 -0.00000000000E+00 -0.00000000000E+00 -0.31329558850E+03  0.31329558850E+03  0.00000000000E+00 0.  1.
         25    2    1    2    0    0  0.27221783215E+02  0.63421582380E+02 -0.14705069337E+02  0.14361275957E+03  0.12508022647E+03 0.  0.
          5    1    3    3  502    0  0.38176006408E+02  0.46858264994E+02  0.48260761318E+02  0.77457588050E+02  0.41800000000E+01 0.  1.
         -5    1    3    3    0  502 -0.10954223192E+02  0.16563317386E+02 -0.62965830655E+02  0.66155171518E+02  0.41800000000E+01 0.  1.
        -11    1    1    2    0    0 -0.16335609859E+02 -0.59246128256E+02 -0.22654546191E+03  0.23473347050E+03  0.00000000000E+00 0.  1.
         11    1    1    2    0    0 -0.10886173356E+02 -0.41754541244E+01  0.62207724504E+01  0.13215188132E+02  0.00000000000E+00 0. -1.
</event>
<event>
 7    1  0.2723366E-009  0.1320433E+03  0.7561462E-02  0.1224455E+00
          1   -1    0    0  501    0  0.00000000000E+00  0.00000000000E+00  0.68349408310E+02  0.68349408310E+02  0.00000000000E+00 0. -1.
         -1   -1    0    0    0  501 -0.00000000000E+00 -0.00000000000E+00 -0.29835708897E+03  0.29835708897E+03  0.00000000000E+00 0.  1.
         25    2    1    2    0    0  0.68429491327E+02  0.40395082095E+02 -0.63838579275E+02  0.16135931555E+03  0.12508839503E+03 0.  0.
          5    1    3    3  502    0  0.97241035091E+02  0.57612429377E+02 -0.57743221469E+02  0.12699119241E+03  0.41800000000E+01 0.  1.
         -5    1    3    3    0  502 -0.28811543763E+02 -0.17217347282E+02 -0.60953578063E+01  0.34368123141E+02  0.41800000000E+01 0.  1.
        -11    1    1    2    0    0 -0.70099473099E+02 -0.63146169038E+02 -0.11119383642E+03  0.14582676041E+03  0.00000000000E+00 0. -1.
         11    1    1    2    0    0  0.16699817718E+01  0.22751086943E+02 -0.54975264970E+02  0.59520421325E+02  0.00000000000E+00 0.  1.
</event>
<event>
 7    1  0.2905544E-009  0.1040020E+03  0.7561462E-02  0.1272099E+00
         -1   -1    0    0    0  501 -0.00000000000E+00  0.00000000000E+00  0.37857773757E+02  0.37857773757E+02  0.00000000000E+00 0.  1.
          1   -1    0    0  501    0  0.00000000000E+00 -0.00000000000E+00 -0.38632807795E+03  0.38632807795E+03  0.00000000000E+00 0. -1.
         25    2    1    2    0    0 -0.42349683627E+02  0.31015706606E+02 -0.20552761904E+03  0.24625596416E+03  0.12507968634E+03 0.  0.
          5    1    3    3  502    0 -0.41700773159E+02  0.69243407775E+02 -0.18658339557E+03  0.20338249655E+03  0.41800000000E+01 0. -1.
         -5    1    3    3    0  502 -0.64891046849E+00 -0.38227701169E+02 -0.18944223468E+02  0.42873467603E+02  0.41800000000E+01 0. -1.
        -11    1    1    2    0    0  0.57873692980E+02 -0.40293523630E+02 -0.58656334807E+02  0.91725121961E+02  0.00000000000E+00 0.  1.
         11    1    1    2    0    0 -0.15524009353E+02  0.92778170249E+01 -0.84286350346E+02  0.86204765586E+02  0.00000000000E+00 0. -1.
</event>
<event>
 7    1  0.2723366E-009  0.1688087E+03  0.7561462E-02  0.1179096E+00
          1   -1    0    0  501    0  0.00000000000E+00  0.00000000000E+00  0.49440892550E+02  0.49440892550E+02  0.00000000000E+00 0. -1.
         -1   -1    0    0    0  501 -0.00000000000E+00 -0.00000000000E+00 -0.65957518585E+03  0.65957518585E+03  0.00000000000E+00 0.  1.
         25    2    1    2    0    0  0.88796855290E+02  0.10420053994E+03 -0.23694517940E+03  0.30088707129E+03  0.12508947835E+03 0.  0.
          5    1    3    3  502    0 -0.30886527896E+02  0.27700476480E+02 -0.38101522619E+02  0.56484444129E+02  0.41800000000E+01 0. -1.
         -5    1    3    3    0  502  0.11968338319E+03  0.76500063462E+02 -0.19884365679E+03  0.24440262716E+03  0.41800000000E+01 0. -1.
        -11    1    1    2    0    0 -0.26604042589E+02 -0.84478876095E+02 -0.28488994383E+03  0.29833996662E+03  0.00000000000E+00 0.  1.
         11    1    1    2    0    0 -0.62192812700E+02 -0.19721663846E+02 -0.88299170069E+02  0.10978904049E+03  0.00000000000E+00 0. -1.
</event>
<event>
 7    1  0.2723366E-009  0.1164707E+03  0.7561462E-02  0.1249036E+00
          3   -1    0    0  501    0  0.00000000000E+00  0.00000000000E+00  0.18226445290E+03  0.18226445290E+03  0.00000000000E+00 0. -1.
         -3   -1    0    0    0  501 -0.00000000000E+00 -0.00000000000E+00 -0.97162611255E+02  0.97162611255E+02  0.00000000000E+00 0.  1.
         25    2    1    2    0    0 -0.34494418268E+02  0.69539076503E+02  0.56359027702E+02  0.15763534288E+03  0.12508802208E+03 0.  0.
          5    1    3    3  502    0 -0.35563109571E+02  0.10121410402E+03  0.63698790674E+02  0.12483604426E+03  0.41800000000E+01 0. -1.
         -5    1    3    3    0  502  0.10686913023E+01 -0.31675027513E+02 -0.73397629721E+01  0.32799298613E+02  0.41800000000E+01 0. -1.
        -11    1    1    2    0    0 -0.10302033996E+02 -0.36564740723E+02 -0.24166008482E+02  0.45023417624E+02  0.00000000000E+00 0.  1.
         11    1    1    2    0    0  0.44796452265E+02 -0.32974335780E+02  0.52908822429E+02  0.76768303658E+02  0.00000000000E+00 0. -1.
</event>
<event>
 7    1  0.2723366E-009  0.9051999E+02  0.7561462E-02  0.1301597E+00
         -1   -1    0    0    0  501 -0.00000000000E+00  0.00000000000E+00  0.91540586651E+01  0.91540586651E+01  0.00000000000E+00 0.  1.
          1   -1    0    0  501    0  0.00000000000E+00 -0.00000000000E+00 -0.18573093476E+04  0.18573093476E+04  0.00000000000E+00 0. -1.
         25    2    1    2    0    0  0.35394695817E+02 -0.16766639371E+02 -0.14662368717E+04  0.14720842410E+04  0.12509014358E+03 0.  0.
          5    1    3    3  502    0  0.58356081730E+02 -0.17004884161E+02 -0.14083762519E+04  0.14096934906E+04  0.41800000000E+01 0.  1.
         -5    1    3    3    0  502 -0.22961385913E+02  0.23824479018E+00 -0.57860619860E+02  0.62390750390E+02  0.41800000000E+01 0.  1.
        -11    1    1    2    0    0  0.81515136802E+01 -0.31048388910E+02 -0.95522996371E+02  0.10077247871E+03  0.00000000000E+00 0.  1.
         11    1    1    2    0    0 -0.43546209497E+02  0.47815028281E+02 -0.28639542083E+03  0.29360668651E+03  0.00000000000E+00 0. -1.
</event>
<event>
 7    1  0.2723366E-009  0.1271386E+03  0.7561462E-02  0.1231764E+00
          2   -1    0    0  501    0  0.00000000000E+00  0.00000000000E+00  0.63382315752E+03  0.63382315752E+03  0.00000000000E+00 0. -1.
         -2   -1    0    0    0  501 -0.00000000000E+00 -0.00000000000E+00 -0.32235389455E+02  0.32235389455E+02  0.00000000000E+00 0.  1.
         25    2    1    2    0    0  0.31453620407E+02  0.84539154933E+02  0.36220317049E+03  0.39366767106E+03  0.12508756762E+03 0.  0.
          5    1    3    3  502    0  0.75945072307E+02  0.34410183800E+02  0.15789779171E+03  0.17860822989E+03  0.41800000000E+01 0.  1.
         -5    1    3    3    0  502 -0.44491451900E+02  0.50128971133E+02  0.20430537878E+03  0.21505944117E+03  0.41800000000E+01 0.  1.
        -11    1    1    2    0    0 -0.40424691983E+02 -0.35539165884E+02  0.40494118060E+02  0.67356971660E+02  0.00000000000E+00 0. -1.
         11    1    1    2    0    0  0.89710715759E+01 -0.48999989049E+02  0.19889047952E+03  0.20503390426E+03  0.00000000000E+00 0.  1.
</event>
<event>
 7    1  0.2723366E-009  0.1676613E+03  0.7561462E-02  0.1180309E+00
         -1   -1    0    0    0  501 -0.00000000000E+00  0.00000000000E+00  0.29179124533E+02  0.29179124533E+02  0.00000000000E+00 0.  1.
          1   -1    0    0  501    0  0.00000000000E+00 -0.00000000000E+00 -0.11328730655E+04  0.11328730655E+04  0.00000000000E+00 0. -1.
         25    2    1    2    0    0  0.12280462338E+03  0.75200101038E+02 -0.54918785170E+03  0.58136917797E+03  0.12508714529E+03 0.  0.
          5    1    3    3  502    0 -0.11102126663E+02  0.52908039547E+02 -0.18017372314E+03  0.18815568229E+03  0.41800000000E+01 0. -1.
         -5    1    3    3    0  502  0.13390675004E+03  0.22292061491E+02 -0.36901412855E+03  0.39321349568E+03  0.41800000000E+01 0. -1.
        -11    1    1    2    0    0 -0.73919118173E+02 -0.56123943992E+02 -0.48385416782E+03  0.49267513519E+03  0.00000000000E+00 0.  1.
         11    1    1    2    0    0 -0.48885505203E+02 -0.19076157045E+02 -0.70651921423E+02  0.88007876848E+02  0.00000000000E+00 0. -1.
</event>
<event>
 7    1  0.2723366E-009  0.8586235E+02  0.7561462E-02  0.1313193E+00
          2   -1    0    0  501    0  0.00000000000E+00  0.00000000000E+00  0.20413425900E+03  0.20413425900E+03  0.00000000000E+00 0. -1.
         -2   -1    0    0    0  501 -0.00000000000E+00 -0.00000000000E+00 -0.88051893888E+02  0.88051893888E+02  0.00000000000E+00 0.  1.
         25    2    1    2    0    0 -0.23441001830E+02 -0.60323082378E+02  0.10979336573E+03  0.17857572389E+03  0.12508537553E+03 0.  0.
          5    1    3    3  502    0 -0.64160425727E+00  0.33005580447E+01 -0.26153569553E+02  0.26698069964E+02  0.41800000000E+01 0. -1.
         -5    1    3    3    0  502 -0.22799397573E+02 -0.63623640422E+02  0.13594693528E+03  0.15187765393E+03  0.41800000000E+01 0. -1.
        -11    1    1    2    0    0 -0.24429616063E+02  0.40455598650E+01 -0.23320253497E+02  0.34014804406E+02  0.00000000000E+00 0.  1.
         11    1    1    2    0    0  0.47870617893E+02  0.56277522513E+02  0.29609252881E+02  0.79595624590E+02  0.00000000000E+00 0. -1.
</event>
<event>
 7    1  0.2723366E-009  0.7151941E+02  0.7561462E-02  0.1355001E+00
          3   -1    0    0  501    0  0.00000000000E+00  0.00000000000E+00  0.24199257030E+02  0.24199257030E+02  0.00000000000E+00 0. -1.
         -3   -1    0    0    0  501 -0.00000000000E+00 -0.00000000000E+00 -0.59268911017E+03  0.59268911017E+03  0.00000000000E+00 0.  1.
         25    2    1    2    0    0  0.41341647701E+02 -0.18710770582E+02 -0.37255811147E+03  0.39560848574E+03  0.12508917937E+03 0.  0.
          5    1    3    3  502    0  0.26164479955E+02  0.23254699201E+02 -0.33579117286E+03  0.33763670597E+03  0.41800000000E+01 0. -1.
         -5    1    3    3    0  502  0.15177167746E+02 -0.41965469783E+02 -0.36766938608E+02  0.57971779768E+02  0.41800000000E+01 0. -1.
        -11    1    1    2    0    0  0.52679811048E+01  0.15355231039E+02  0.33641852819E+01  0.16578675695E+02  0.00000000000E+00 0. -1.
         11    1    1    2    0    0 -0.46609628806E+02  0.33555395423E+01 -0.19929592695E+03  0.20470120577E+03  0.00000000000E+00 0.  1.
</event>
<event>
 7    1  0.2723366E-009  0.1229472E+03  0.7561462E-02  0.1238313E+00
         -2   -1    0    0    0  501 -0.00000000000E+00  0.00000000000E+00  0.82514706592E+02  0.82514706592E+02  0.00000000000E+00 0. -1.
          2   -1    0    0  501    0  0.00000000000E+00 -0.00000000000E+00 -0.20192110003E+03  0.20192110003E+03  0.00000000000E+00 0.  1.
         25    2    1    2    0    0 -0.67030518424E+02 -0.20780857805E+02 -0.65504247907E+02  0.15767970206E+03  0.12508855861E+03 0.  0.
          5    1    3    3  502    0  0.21757624131E+02  0.23695439104E+02 -0.46164831427E+02  0.56422797723E+02  0.41800000000E+01 0. -1.
         -5    1    3    3    0  502 -0.88788142556E+02 -0.44476296910E+02 -0.19339416480E+02  0.10125690433E+03  0.41800000000E+01 0. -1.
        -11    1    1    2    0    0  0.60087181464E+02  0.53597796044E+02 -0.31717144309E+02  0.86539992837E+02  0.00000000000E+00 0.  1.
         11    1    1    2    0    0  0.69433369604E+01 -0.32816938239E+02 -0.22185001226E+02  0.40216111733E+02  0.00000000000E+00 0. -1.
</event>
<event>
 7    1  0.3000094E-009  0.1077559E+03  0.7561462E-02  0.1264783E+00
          2   -1    0    0  501    0  0.00000000000E+00  0.00000000000E+00  0.45462928673E+03  0.45462928673E+03  0.00000000000E+00 0. -1.
         -2   -1    0    0    0  501 -0.00000000000E+00 -0.00000000000E+00 -0.44871005149E+02  0.44871005149E+02  0.00000000000E+00 0.  1.
         25    2    1    2    0    0 -0.77022992676E+02 -0.10304098739E+02  0.13556570199E+03  0.20016112098E+03  0.12509076283E+03 0.  0.
          5    1    3    3  502    0 -0.10647531818E+03 -0.13693631583E+02  0.13171739492E+03  0.16997486123E+03  0.41800000000E+01 0.  1.
         -5    1    3    3    0  502  0.29452325503E+02  0.33895328440E+01  0.38483070744E+01  0.30186259751E+02  0.41800000000E+01 0.  1.
        -11    1    1    2    0    0  0.11128110180E+02 -0.13871674524E+01 -0.49703999406E+01  0.12266374578E+02  0.00000000000E+00 0.  1.
         11    1    1    2    0    0  0.65894882496E+02  0.11691266191E+02  0.27916297953E+03  0.28707279631E+03  0.00000000000E+00 0. -1.
</event>
<event>
 7    1  0.2723366E-009  0.1090258E+03  0.7561462E-02  0.1262385E+00
          2   -1    0    0  501    0  0.00000000000E+00  0.00000000000E+00  0.60800107238E+03  0.60800107238E+03  0.00000000000E+00 0. -1.
         -2   -1    0    0    0  501 -0.00000000000E+00 -0.00000000000E+00 -0.23608006625E+02  0.23608006625E+02  0.00000000000E+00 0.  1.
         25    2    1    2    0    0  0.24320533322E+02 -0.16725031282E+02  0.22021744875E+03  0.25498403868E+03  0.12509964122E+03 0.  0.
          5    1    3    3  502    0  0.52900461379E+02 -0.54661395249E+02  0.16684756016E+03  0.18341730474E+03  0.41800000000E+01 0. -1.
         -5    1    3    3    0  502 -0.28579928058E+02  0.37936363967E+02  0.53369888591E+02  0.71566733941E+02  0.41800000000E+01 0. -1.
        -11    1    1    2    0    0  0.22554341847E+02  0.36826957386E+02  0.13092534205E+03  0.13786358590E+03  0.00000000000E+00 0.  1.
         11    1    1    2    0    0 -0.46874875169E+02 -0.20101926103E+02  0.23325027495E+03  0.23876145443E+03  0.00000000000E+00 0. -1.
</event>
<event>
 7    1  0.2723366E-009  0.1533321E+03  0.7561462E-02  0.1196437E+00
         -1   -1    0    0    0  501 -0.00000000000E+00  0.00000000000E+00  0.78561876024E+03  0.78561876024E+03  0.00000000000E+00 0.  1.
          1   -1    0    0  501    0  0.00000000000E+00 -0.00000000000E+00 -0.42312986930E+02  0.42312986930E+02  0.00000000000E+00 0. -1.
         25    2    1    2    0    0 -0.86792588521E+01  0.14118062134E+03  0.47364518537E+03  0.50989663666E+03  0.12509005189E+03 0.  0.
          5    1    3    3  502    0 -0.22366138067E+02  0.11991648384E+03  0.46799531031E+03  0.48364996651E+03  0.41800000000E+01 0.  1.
         -5    1    3    3    0  502  0.13686879215E+02  0.21264137494E+02  0.56498750549E+01  0.26246670153E+02  0.41800000000E+01 0.  1.
        -11    1    1    2    0    0  0.35547061368E+02 -0.36684068718E+02  0.14187726083E+03  0.15079281021E+03  0.00000000000E+00 0.  1.
         11    1    1    2    0    0 -0.26867802516E+02 -0.10449655262E+03  0.12778332711E+03  0.16724230030E+03  0.00000000000E+00 0. -1.
</event>
<event>
 7    1  0.2723366E-009  0.1298182E+03  0.7561462E-02  0.1227726E+00
         -2   -1    0    0    0  501 -0.00000000000E+00  0.00000000000E+00  0.60123574203E+02  0.60123574203E+02  0.00000000000E+00 0.  1.
          2   -1    0    0  501    0  0.00000000000E+00 -0.00000000000E+00 -0.32278864897E+03  0.32278864897E+03  0.00000000000E+00 0. -1.
         25    2    1    2    0    0  0.86527016809E+02 -0.56515116542E+00 -0.13258643425E+03  0.20177662537E+03  0.12508956777E+03 0.  0.
          5    1    3    3  502    0 -0.38934807877E+01  0.37351250804E+02 -0.84346990336E+02  0.92423818943E+02  0.41800000000E+01 0. -1.
         -5    1    3    3    0  502  0.90420497597E+02 -0.37916401969E+02 -0.48239443916E+02  0.10935280643E+03  0.41800000000E+01 0. -1.
        -11    1    1    2    0    0 -0.43034591025E+02  0.44490907617E+02 -0.82455014314E+02  0.10310308565E+03  0.00000000000E+00 0.  1.
         11    1    1    2    0    0 -0.43492425785E+02 -0.43925756452E+02 -0.47623626204E+02  0.78032512155E+02  0.00000000000E+00 0. -1.
</event>
<event>
 7    1  0.2723366E-009  0.2351631E+03  0.7561462E-02  0.1123058E+00
         -2   -1    0    0    0  501 -0.00000000000E+00  0.00000000000E+00  0.17484525478E+03  0.17484525478E+03  0.00000000000E+00 0.  1.
          2   -1    0    0  501    0  0.00000000000E+00 -0.00000000000E+00 -0.34745479223E+03  0.34745479223E+03  0.00000000000E+00 0. -1.
         25    2    1    2    0    0  0.17642017624E+03 -0.12250045831E+03 -0.33839515535E+02  0.25084437464E+03  0.12508935449E+03 0.  0.
          5    1    3    3  502    0  0.70338757347E+02 -0.12245048300E+03 -0.75735809129E+01  0.14147965614E+03  0.41800000000E+01 0. -1.
         -5    1    3    3    0  502  0.10608141889E+03 -0.49975305062E-01 -0.26265934623E+02  0.10936471850E+03  0.41800000000E+01 0. -1.
        -11    1    1    2    0    0 -0.17775514093E+02  0.40658639541E+02 -0.64090510326E+02  0.77953110165E+02  0.00000000000E+00 0. -1.
         11    1    1    2    0    0 -0.15864466215E+03  0.81841818768E+02 -0.74679511592E+02  0.19350256220E+03  0.00000000000E+00 0.  1.
</event>
<event>
 7    1  0.2723366E-009  0.1352942E+03  0.7561462E-02  0.1219805E+00
          2   -1    0    0  501    0  0.00000000000E+00  0.00000000000E+00  0.55753510728E+03  0.55753510728E+03  0.00000000000E+00 0. -1.
         -2   -1    0    0    0  501 -0.00000000000E+00 -0.00000000000E+00 -0.59107927371E+02  0.59107927371E+02  0.00000000000E+00 0.  1.
         25    2    1    2    0    0  0.58644092756E+02  0.10446009090E+03  0.40159259011E+03  0.43735215281E+03  0.12509699008E+03 0.  0.
          5    1    3    3  502    0  0.31423552877E+02  0.48711181835E+02  0.35481009366E+03  0.35953844562E+03  0.41800000000E+01 0. -1.
         -5    1    3    3    0  502  0.27220539880E+02  0.55748909061E+02  0.46782496450E+02  0.77813707192E+02  0.41800000000E+01 0. -1.
        -11    1    1    2    0    0 -0.78541671913E+02 -0.52031173209E+02  0.68340209893E+02  0.11638909528E+03  0.00000000000E+00 0. -1.
         11    1    1    2    0    0  0.19897579157E+02 -0.52428917687E+02  0.28494379900E+02  0.62901786557E+02  0.00000000000E+00 0.  1.
</event>
<event>
 7    1  0.2723366E-009  0.1417889E+03  0.7561462E-02  0.1210942E+00
         -2   -1    0    0    0  501 -0.00000000000E+00  0.00000000000E+00  0.63694004312E+02  0.63694004312E+02  0.00000000000E+00 0.  1.
          2   -1    0    0  501    0  0.00000000000E+00 -0.00000000000E+00 -0.50636050937E+03  0.50636050937E+03  0.00000000000E+00 0. -1.
         25    2    1    2    0    0  0.13703438929E+03 -0.18677308395E+02 -0.28879820758E+03  0.34377207281E+03  0.12509023802E+03 0.  0.
          5    1    3    3  502    0  0.97325827480E+01  0.12004757063E+00  0.12341274926E+02  0.16263979992E+02  0.41800000000E+01 0. -1.
         -5    1    3    3    0  502  0.12730180654E+03 -0.18797355965E+02 -0.30113948251E+03  0.32750809282E+03  0.41800000000E+01 0. -1.
        -11    1    1    2    0    0 -0.11943769754E+03  0.30205658493E+02 -0.16217703469E+03  0.20366427272E+03  0.00000000000E+00 0. -1.
         11    1    1    2    0    0 -0.17596691745E+02 -0.11528350098E+02  0.83087372158E+01  0.22618168150E+02  0.00000000000E+00 0.  1.
</event>
<event>
 7    1  0.2723366E-009  0.1159960E+03  0.7561462E-02  0.1249852E+00
          1   -1    0    0  501    0  0.00000000000E+00  0.00000000000E+00  0.27209908356E+03  0.27209908356E+03  0.00000000000E+00 0. -1.
         -1   -1    0    0    0  501 -0.00000000000E+00 -0.00000000000E+00 -0.74962962216E+02  0.74962962216E+02  0.00000000000E+00 0.  1.
         25    2    1    2    0    0  0.31089352789E+02  0.48312468101E+02  0.18303044356E+02  0.13886511874E+03  0.12509147589E+03 0.  0.
          5    1    3    3  502    0 -0.20409684899E+02  0.68376991967E+02  0.36846067919E+02  0.80418116051E+02  0.41800000000E+01 0.  1.
         -5    1    3    3    0  502  0.51499037688E+02 -0.20064523866E+02 -0.18543023563E+02  0.58447002691E+02  0.41800000000E+01 0.  1.
        -11    1    1    2    0    0 -0.48930167602E+02  0.46949714902E+01  0.66328319685E+02  0.82556950350E+02  0.00000000000E+00 0.  1.
         11    1    1    2    0    0  0.17840814813E+02 -0.53007439591E+02  0.11250475731E+03  0.12563997669E+03  0.00000000000E+00 0. -1.
</event>
<event>
 7    1  0.2723366E-009  0.4226149E+03  0.7561462E-02  0.1036219E+00
          1   -1    0    0  501    0  0.00000000000E+00  0.00000000000E+00  0.43894060902E+03  0.43894060902E+03  0.00000000000E+00 0. -1.
         -1   -1    0    0    0  501 -0.00000000000E+00 -0.00000000000E+00 -0.47365440832E+03  0.47365440832E+03  0.00000000000E+00 0.  1.
         25    2    1    2    0    0 -0.32771550918E+03  0.24755119403E+03  0.14749567536E+03  0.45396387665E+03  0.12509667632E+03 0.  0.
          5    1    3    3  502    0 -0.55430089568E+02  0.10839107820E+03  0.60534623350E+02  0.13602585668E+03  0.41800000000E+01 0. -1.
         -5    1    3    3    0  502 -0.27228541962E+03  0.13916011584E+03  0.86961052013E+02  0.31793801997E+03  0.41800000000E+01 0. -1.
        -11    1    1    2    0    0  0.22646397340E+03 -0.21222842908E+03 -0.15976038288E+03  0.34907050477E+03  0.00000000000E+00 0.  1.
         11    1    1    2    0    0  0.10125153578E+03 -0.35322764951E+02 -0.22449091788E+02  0.10956063593E+03  0.00000000000E+00 0. -1.
</event>
<event>
 7    1  0.2723366E-009  0.1036380E+03  0.7561462E-02  0.1272827E+00
         -1   -1    0    0    0  501 -0.00000000000E+00  0.00000000000E+00  0.13724882167E+02  0.13724882167E+02  0.00000000000E+00 0.  1.
          1   -1    0    0  501    0  0.00000000000E+00 -0.00000000000E+00 -0.85583802825E+03  0.85583802825E+03  0.00000000000E+00 0. -1.
         25    2    1    2    0    0 -0.39170587032E+00  0.11580734979E+02 -0.41756764856E+03  0.43605272773E+03  0.12507986799E+03 0.  0.
          5    1    3    3  502    0 -0.59012430574E+02 -0.26213560583E+01 -0.27304208235E+03  0.27939003132E+03  0.41800000000E+01 0. -1.
         -5    1    3    3    0  502  0.58620724704E+02  0.14202091038E+02 -0.14452556621E+03  0.15666269640E+03  0.41800000000E+01 0. -1.
        -11    1    1    2    0    0  0.27207562212E+02 -0.40094302309E+02 -0.24551515238E+03  0.25025086327E+03  0.00000000000E+00 0.  1.
         11    1    1    2    0    0 -0.26815856342E+02  0.28513567329E+02 -0.17903034514E+03  0.18325931942E+03  0.00000000000E+00 0. -1.
</event>
<event>
 7    1  0.2723366E-009  0.4126422E+02  0.7561462E-02  0.1499109E+00
          3   -1    0    0  501    0  0.00000000000E+00  0.00000000000E+00  0.58676372122E+02  0.58676372122E+02  0.00000000000E+00 0. -1.
         -3   -1    0    0    0  501 -0.00000000000E+00 -0.00000000000E+00 -0.20140659851E+03  0.20140659851E+03  0.00000000000E+00 0.  1.
         25    2    1    2    0    0  0.18164429674E+01  0.20926442223E+02 -0.68030475623E+02  0.14393378823E+03  0.12509026474E+03 0.  0.
          5    1    3    3  502    0 -0.13733326030E+01  0.94355551789E+01 -0.10466475411E+03  0.10518126685E+03  0.41800000000E+01 0. -1.
         -5    1    3    3    0  502  0.31897755704E+01  0.11490887044E+02  0.36634278486E+02  0.38752521381E+02  0.41800000000E+01 0. -1.
        -11    1    1    2    0    0  0.26659623532E+02 -0.59865743306E+01 -0.79105632963E+02  0.83691551339E+02  0.00000000000E+00 0.  1.
         11    1    1    2    0    0 -0.28476066499E+02 -0.14939867892E+02  0.44058821989E+01  0.32457631058E+02  0.00000000000E+00 0. -1.
</event>
<event>
 7    1  0.2723366E-009  0.1066533E+03  0.7561462E-02  0.1266896E+00
         -1   -1    0    0    0  501 -0.00000000000E+00  0.00000000000E+00  0.51105857050E+02  0.51105857050E+02  0.00000000000E+00 0.  1.
          1   -1    0    0  501    0  0.00000000000E+00 -0.00000000000E+00 -0.30249461854E+03  0.30249461854E+03  0.00000000000E+00 0. -1.
         25    2    1    2    0    0 -0.44256770834E+02  0.27861485426E+02 -0.98880026869E+02  0.16781163388E+03  0.12509420697E+03 0.  0.
          5    1    3    3  502    0  0.25136514309E+02  0.27777608258E+02 -0.90191313335E+02  0.97751651000E+02  0.41800000000E+01 0. -1.
         -5    1    3    3    0  502 -0.69393285143E+02  0.83877167973E-01 -0.86887135340E+01  0.70059982880E+02  0.41800000000E+01 0. -1.
        -11    1    1    2    0    0  0.14143164511E+02 -0.60238218454E+02 -0.90425690378E+02  0.10956951011E+03  0.00000000000E+00 0.  1.
         11    1    1    2    0    0  0.30113606323E+02  0.32376733028E+02 -0.62083044242E+02  0.76219331601E+02  0.00000000000E+00 0. -1.
</event>
<event>
 7    1  0.2723366E-009  0.1198390E+03  0.7561462E-02  0.1243363E+00
          1   -1    0    0  501    0  0.00000000000E+00  0.00000000000E+00  0.23016287772E+03  0.23016287772E+03  0.00000000000E+00 0. -1.
         -1   -1    0    0    0  501 -0.00000000000E+00 -0.00000000000E+00 -0.10240238509E+03  0.10240238509E+03  0.00000000000E+00 0.  1.
         25    2    1    2    0    0 -0.86568898239E+02 -0.33812309175E+02  0.99400371428E+01  0.15615233199E+03  0.12508916841E+03 0.  0.
          5    1    3    3  502    0 -0.64397273588E+02 -0.62290624243E+02 -0.36803596027E+02  0.96948995841E+02  0.41800000000E+01 0.  1.
         -5    1    3    3    0  502 -0.22171624651E+02  0.28478315068E+02  0.46743633170E+02  0.59203336145E+02  0.41800000000E+01 0.  1.
        -11    1    1    2    0    0  0.36750580932E+02 -0.18729830190E+02  0.89716768811E+02  0.98744672482E+02  0.00000000000E+00 0. -1.
         11    1    1    2    0    0  0.49818317307E+02  0.52542139365E+02  0.28103686683E+02  0.77668258340E+02  0.00000000000E+00 0.  1.
</event>
<event>
 7    1  0.2723366E-009  0.8268875E+02  0.7561462E-02  0.1321590E+00
          2   -1    0    0  501    0  0.00000000000E+00  0.00000000000E+00  0.57199384569E+03  0.57199384569E+03  0.00000000000E+00 0. -1.
         -2   -1    0    0    0  501 -0.00000000000E+00 -0.00000000000E+00 -0.34120493238E+02  0.34120493238E+02  0.00000000000E+00 0.  1.
         25    2    1    2    0    0  0.49393572731E+02 -0.40256226793E+02  0.42530665295E+03  0.44787631362E+03  0.12508858635E+03 0.  0.
          5    1    3    3  502    0  0.51572363024E+02 -0.20577253081E+02  0.59429417436E+02  0.81439916681E+02  0.41800000000E+01 0.  1.
         -5    1    3    3    0  502 -0.21787902930E+01 -0.19678973712E+02  0.36587723551E+03  0.36643639694E+03  0.41800000000E+01 0.  1.
        -11    1    1    2    0    0 -0.22601966715E+01  0.42223897441E+02  0.10125059648E+03  0.10972533569E+03  0.00000000000E+00 0. -1.
         11    1    1    2    0    0 -0.47133376060E+02 -0.19676706481E+01  0.11316103018E+02  0.48512689619E+02  0.00000000000E+00 0.  1.
</event>
<event>
 7    1  0.2723366E-009  0.1172606E+03  0.7561462E-02  0.1247686E+00
          1   -1    0    0  501    0  0.00000000000E+00  0.00000000000E+00  0.74944935824E+03  0.74944935824E+03  0.00000000000E+00 0. -1.
         -1   -1    0    0    0  501 -0.00000000000E+00 -0.00000000000E+00 -0.21393474124E+02  0.21393474124E+02  0.00000000000E+00 0.  1.
         25    2    1    2    0    0  0.50075048276E+02  0.29150082285E+02  0.31920364764E+03  0.34770121618E+03  0.12509168362E+03 0.  0.
          5    1    3    3  502    0 -0.38785262745E+02 -0.62913390545E+01  0.12631085810E+03  0.13234720559E+03  0.41800000000E+01 0. -1.
         -5    1    3    3    0  502  0.88860311022E+02  0.35441421340E+02  0.19289278954E+03  0.21535401059E+03  0.41800000000E+01 0. -1.
        -11    1    1    2    0    0 -0.57439812005E+02  0.10953170204E+02  0.32107742961E+03  0.32635872862E+03  0.00000000000E+00 0. -1.
         11    1    1    2    0    0  0.73647637291E+01 -0.40103252489E+02  0.87774806865E+02  0.96782887564E+02  0.00000000000E+00 0.  1.
</event>
<event>
 7    1  0.2723366E-009  0.1451639E+03  0.7561462E-02  0.1206545E+00
         -2   -1    0    0    0  501 -0.00000000000E+00  0.00000000000E+00  0.93772778741E+02  0.93772778741E+02  0.00000000000E+00 0.  1.
          2   -1    0    0  501    0  0.00000000000E+00 -0.00000000000E+00 -0.28471105839E+03  0.28471105839E+03  0.00000000000E+00 0. -1.
         25    2    1    2    0    0 -0.11164530274E+03 -0.76477938725E+01 -0.15199552746E+03  0.22643464952E+03  0.12508736053E+03 0.  0.
          5    1    3    3  502    0 -0.11277822284E+03  0.38672767346E+02 -0.12432993987E+03  0.17230762267E+03  0.41800000000E+01 0.  1.
         -5    1    3    3    0  502  0.11329201065E+01 -0.46320561219E+02 -0.27665587582E+02  0.54127026852E+02  0.41800000000E+01 0.  1.
        -11    1    1    2    0    0  0.19150201960E+02  0.23867989033E+02 -0.48827234054E+02  0.57623865898E+02  0.00000000000E+00 0. -1.
         11    1    1    2    0    0  0.92495100775E+02 -0.16220195160E+02  0.98844818613E+01  0.94425321710E+02  0.00000000000E+00 0.  1.
</event>
<event>
 7    1  0.2723366E-009  0.9046131E+02  0.7561462E-02  0.1301738E+00
         -1   -1    0    0    0  501 -0.00000000000E+00  0.00000000000E+00  0.14952526371E+03  0.14952526371E+03  0.00000000000E+00 0.  1.
          1   -1    0    0  501    0  0.00000000000E+00 -0.00000000000E+00 -0.14556475450E+03  0.14556475450E+03  0.00000000000E+00 0. -1.
         25    2    1    2    0    0  0.42423391002E+02  0.29558471064E+02  0.87738761197E+02  0.16130210923E+03  0.12508730115E+03 0.  0.
          5    1    3    3  502    0 -0.43996705296E+01 -0.12508200567E+02  0.96603881690E+02  0.97599152351E+02  0.41800000000E+01 0. -1.
         -5    1    3    3    0  502  0.46823061532E+02  0.42066671631E+02 -0.88651204931E+01  0.63702956875E+02  0.41800000000E+01 0. -1.
        -11    1    1    2    0    0  0.27631326687E+02 -0.17889492891E+02 -0.31899038107E+02  0.45837460690E+02  0.00000000000E+00 0. -1.
         11    1    1    2    0    0 -0.70054717689E+02 -0.11668978173E+02 -0.51879213882E+02  0.87950448295E+02  0.00000000000E+00 0.  1.
</event>
<event>
 7    1  0.2723366E-009  0.1537224E+03  0.7561462E-02  0.1195972E+00
         -2   -1    0    0    0  501 -0.00000000000E+00  0.00000000000E+00  0.70611653489E+02  0.70611653489E+02  0.00000000000E+00 0.  1.
          2   -1    0    0  501    0  0.00000000000E+00 -0.00000000000E+00 -0.35165002128E+03  0.35165002128E+03  0.00000000000E+00 0. -1.
         25    2    1    2    0    0  0.82233313742E+02  0.71662072421E+02 -0.10758577547E+03  0.19778663080E+03  0.12508829573E+03 0.  0.
          5    1    3    3  502    0  0.11330591885E+03  0.37554710301E+02 -0.73129495833E+02  0.14004993064E+03  0.41800000000E+01 0. -1.
         -5    1    3    3    0  502 -0.31072605107E+02  0.34107362120E+02 -0.34456279632E+02  0.57736700157E+02  0.41800000000E+01 0. -1.
        -11    1    1    2    0    0 -0.28271772774E+02  0.20470169094E+02 -0.32893936737E+02  0.47961776787E+02  0.00000000000E+00 0.  1.
         11    1    1    2    0    0 -0.53961540968E+02 -0.92132241515E+02 -0.14055865558E+03  0.17651326718E+03  0.00000000000E+00 0. -1.
</event>
<event>
 7    1  0.3337263E-009  0.1198654E+03  0.7561462E-02  0.1243319E+00
         -2   -1    0    0    0  501 -0.00000000000E+00  0.00000000000E+00  0.12323164012E+02  0.12323164012E+02  0.00000000000E+00 0. -1.
          2   -1    0    0  501    0  0.00000000000E+00 -0.00000000000E+00 -0.16437129821E+04  0.16437129821E+04  0.00000000000E+00 0.  1.
         25    2    1    2    0    0  0.73433767589E+02 -0.19689873778E+02 -0.11876918384E+04  0.11966785526E+04  0.12508975159E+03 0.  0.
          5    1    3    3  502    0 -0.30915223830E+02 -0.20158657915E+02 -0.19478879276E+03  0.19829843352E+03  0.41800000000E+01 0.  1.
         -5    1    3    3    0  502  0.10434899142E+03  0.46878413680E+00 -0.99290304567E+03  0.99838011913E+03  0.41800000000E+01 0.  1.
        -11    1    1    2    0    0 -0.26424480827E+01 -0.17836784051E+02 -0.15651329662E+02  0.23876714961E+02  0.00000000000E+00 0. -1.
         11    1    1    2    0    0 -0.70791319506E+02  0.37526657829E+02 -0.42804664997E+03  0.43548087847E+03  0.00000000000E+00 0.  1.
</event>
<event>
 7    1  0.2723366E-009  0.1218585E+03  0.7561462E-02  0.1240062E+00
          2   -1    0    0  501    0  0.00000000000E+00  0.00000000000E+00  0.37586421917E+02  0.37586421917E+02  0.00000000000E+00 0. -1.
         -2   -1    0    0    0  501 -0.00000000000E+00 -0.00000000000E+00 -0.55662379783E+03  0.55662379783E+03  0.00000000000E+00 0.  1.
         25    2    1    2    0    0 -0.77930432380E+02 -0.44647121592E+02 -0.34282879420E+03  0.37582136879E+03  0.12507438326E+03 0.  0.
          5    1    3    3  502    0 -0.12676392064E+02  0.38295983161E+02 -0.15620230719E+03  0.16138124554E+03  0.41800000000E+01 0. -1.
         -5    1    3    3    0  502 -0.65254040317E+02 -0.82943104753E+02 -0.18662648702E+03  0.21444012325E+03  0.41800000000E+01 0. -1.
        -11    1    1    2    0    0  0.39911362000E+02  0.13647730029E+01 -0.14976994304E+03  0.15500262985E+03  0.00000000000E+00 0.  1.
         11    1    1    2    0    0  0.38019070380E+02  0.43282348589E+02 -0.26438638680E+02  0.63386221115E+02  0.00000000000E+00 0. -1.
</event>
<event>
 7    1  0.2723366E-009  0.1084566E+03  0.7561462E-02  0.1263455E+00
         -2   -1    0    0    0  501 -0.00000000000E+00  0.00000000000E+00  0.17138560968E+03  0.17138560968E+03  0.00000000000E+00 0. -1.
          2   -1    0    0  501    0  0.00000000000E+00 -0.00000000000E+00 -0.13709670863E+03  0.13709670863E+03  0.00000000000E+00 0.  1.
         25    2    1    2    0    0  0.92881524533E+00 -0.10394889773E+03  0.49654408335E+02  0.17005721008E+03  0.12509060075E+03 0.  0.
          5    1    3    3  502    0 -0.39721424622E+01 -0.10224097565E+03  0.85618874009E+02  0.13348055665E+03  0.41800000000E+01 0.  1.
         -5    1    3    3    0  502  0.49009577076E+01 -0.17079220748E+01 -0.35964465675E+02  0.36576653422E+02  0.41800000000E+01 0.  1.
        -11    1    1    2    0    0  0.13884905476E+02  0.47846856260E+02  0.35570066207E+02  0.61215536133E+02  0.00000000000E+00 0. -1.
         11    1    1    2    0    0 -0.14813720721E+02  0.56102041467E+02 -0.50935573491E+02  0.77209572109E+02  0.00000000000E+00 0.  1.
</event>
<event>
 7    1  0.2723366E-009  0.1297431E+03  0.7561462E-02  0.1227837E+00
         -1   -1    0    0    0  501 -0.00000000000E+00  0.00000000000E+00  0.20703955862E+03  0.20703955862E+03  0.00000000000E+00 0.  1.
          1   -1    0    0  501    0  0.00000000000E+00 -0.00000000000E+00 -0.92832111911E+02  0.92832111911E+02  0.00000000000E+00 0. -1.
         25    2    1    2    0    0  0.76771218680E+02  0.38201536680E+02  0.71815372858E+02  0.16780315531E+03  0.12508906319E+03 0.  0.
          5    1    3    3  502    0  0.17368960959E+02 -0.36929976255E+02  0.57854105427E+02  0.70923013654E+02  0.41800000000E+01 0. -1.
         -5    1    3    3    0  502  0.59402257720E+02  0.75131512935E+02  0.13961267431E+02  0.96880141651E+02  0.41800000000E+01 0. -1.
        -11    1    1    2    0    0 -0.73671200345E+02  0.99516897176E+01  0.38342818789E+02  0.83646001944E+02  0.00000000000E+00 0.  1.
         11    1    1    2    0    0 -0.31000183344E+01 -0.48153226398E+02  0.40492550641E+01  0.48422513284E+02  0.00000000000E+00 0. -1.
</event>
<event>
 7    1  0.2723366E-009  0.1707523E+03  0.7561462E-02  0.1177066E+00
          2   -1    0    0  501    0  0.00000000000E+00  0.00000000000E+00  0.31265533655E+03  0.31265533655E+03  0.00000000000E+00 0. -1.
         -2   -1    0    0    0  501 -0.00000000000E+00 -0.00000000000E+00 -0.10338004289E+03  0.10338004289E+03  0.00000000000E+00 0.  1.
         25    2    1    2    0    0  0.69470088670E+01 -0.13707227976E+03  0.68016794322E+02  0.19776410396E+03  0.12508911102E+03 0.  0.
          5    1    3    3  502    0  0.35286855735E+02  0.76907066880E+00  0.41260087718E+02  0.54457514595E+02  0.41800000000E+01 0. -1.
         -5    1    3    3    0  502 -0.28339846868E+02 -0.13784135043E+03  0.26756706604E+02  0.14330658937E+03  0.41800000000E+01 0. -1.
        -11    1    1    2    0    0  0.23618662106E+02 -0.11187430526E+01  0.30277093340E+02  0.38416079535E+02  0.00000000000E+00 0. -1.
         11    1    1    2    0    0 -0.30565670973E+02  0.13819102281E+03  0.11098140600E+03  0.17985519594E+03  0.00000000000E+00 0.  1.
</event>
<event>
 7    1  0.2723366E-009  0.9830268E+02  0.7561462E-02  0.1283906E+00
          1   -1    0    0  501    0  0.00000000000E+00  0.00000000000E+00  0.21445867343E+03  0.21445867343E+03  0.00000000000E+00 0. -1.
         -1   -1    0    0    0  501 -0.00000000000E+00 -0.00000000000E+00 -0.68264887643E+02  0.68264887643E+02  0.00000000000E+00 0.  1.
         25    2    1    2    0    0 -0.25589274225E+02 -0.39678428389E+02  0.52000417340E+02  0.14345958738E+03  0.12508965254E+03 0.  0.
          5    1    3    3  502    0 -0.31701998739E+02 -0.63638647520E+02  0.79166224057E+02  0.10648782848E+03  0.41800000000E+01 0.  1.
         -5    1    3    3    0  502  0.61127245141E+01  0.23960219130E+02 -0.27165806718E+02  0.36971758903E+02  0.41800000000E+01 0.  1.
        -11    1    1    2    0    0 -0.17471447018E+02  0.52537628710E+02  0.66272840097E+02  0.86357068187E+02  0.00000000000E+00 0.  1.
         11    1    1    2    0    0  0.43060721243E+02 -0.12859200321E+02  0.27920528351E+02  0.52906905506E+02  0.00000000000E+00 0. -1.
</event>
<event>
 7    1  0.2723366E-009  0.1239449E+03  0.7561462E-02  0.1236728E+00
         -2   -1    0    0    0  501 -0.00000000000E+00  0.00000000000E+00  0.86965213678E+02  0.86965213678E+02  0.00000000000E+00 0.  1.
          2   -1    0    0  501    0  0.00000000000E+00 -0.00000000000E+00 -0.23206044378E+03  0.23206044378E+03  0.00000000000E+00 0. -1.
         25    2    1    2    0    0 -0.20265710905E+02  0.63791747736E+02 -0.97448179623E+01  0.14220527467E+03  0.12508913841E+03 0.  0.
          5    1    3    3  502    0  0.17068785853E+02 -0.29864945706E+02 -0.21238495478E+02  0.40642398093E+02  0.41800000000E+01 0. -1.
         -5    1    3    3    0  502 -0.37334496759E+02  0.93656693443E+02  0.11493677516E+02  0.10156287657E+03  0.41800000000E+01 0. -1.
        -11    1    1    2    0    0  0.54212556127E+02 -0.55073443368E+02 -0.79402249143E+02  0.11080073364E+03  0.00000000000E+00 0. -1.
         11    1    1    2    0    0 -0.33946845222E+02 -0.87183043680E+01 -0.55948162997E+02  0.66019649153E+02  0.00000000000E+00 0.  1.
</event>
<event>
 7    1  0.2723366E-009  0.1200552E+03  0.7561462E-02  0.1243006E+00
         -2   -1    0    0    0  501 -0.00000000000E+00  0.00000000000E+00  0.21479369280E+02  0.21479369280E+02  0.00000000000E+00 0. -1.
          2   -1    0    0  501    0  0.00000000000E+00 -0.00000000000E+00 -0.11170053463E+04  0.11170053463E+04  0.00000000000E+00 0.  1.
         25    2    1    2    0    0  0.77145837783E+02 -0.52570875856E+02 -0.80249317348E+03  0.81753191771E+03  0.12509182917E+03 0.  0.
          5    1    3    3  502    0  0.59078700263E+02 -0.65192641895E+02 -0.78262635599E+03  0.78756705040E+03  0.41800000000E+01 0.  1.
         -5    1    3    3    0  502  0.18067137520E+02  0.12621766039E+02 -0.19866817489E+02  0.29964867315E+02  0.41800000000E+01 0.  1.
        -11    1    1    2    0    0 -0.96548679165E+02  0.32979011342E+02 -0.21022009041E+03  0.23367017150E+03  0.00000000000E+00 0. -1.
         11    1    1    2    0    0  0.19402841382E+02  0.19591864515E+02 -0.82812713112E+02  0.87282626346E+02  0.00000000000E+00 0.  1.
</event>
<event>
 7    1  0.2723366E-009  0.1054962E+03  0.7561462E-02  0.1269145E+00
          2   -1    0    0  501    0  0.00000000000E+00  0.00000000000E+00  0.22377873137E+03  0.22377873137E+03  0.00000000000E+00 0. -1.
         -2   -1    0    0    0  501 -0.00000000000E+00 -0.00000000000E+00 -0.70483969118E+02  0.70483969118E+02  0.00000000000E+00 0.  1.
         25    2    1    2    0    0 -0.53085503416E+02 -0.35315953372E+02  0.99403618678E+02  0.17202863389E+03  0.12508990461E+03 0.  0.
          5    1    3    3  502    0 -0.93688135354E+02 -0.22477040859E+02  0.78800636003E+02  0.12453793280E+03  0.41800000000E+01 0.  1.
         -5    1    3    3    0  502  0.40602631938E+02 -0.12838912513E+02  0.20602982675E+02  0.47490701089E+02  0.41800000000E+01 0.  1.
        -11    1    1    2    0    0  0.32863149100E+02  0.21652775981E+01 -0.20162989074E+02  0.38616332351E+02  0.00000000000E+00 0.  1.
         11    1    1    2    0    0  0.20222354316E+02  0.33150675774E+02  0.74054132648E+02  0.83617734247E+02  0.00000000000E+00 0. -1.
</event>
<event>
 7    1  0.2723366E-009  0.9648038E+02  0.7561462E-02  0.1287876E+00
         -2   -1    0    0    0  501 -0.00000000000E+00  0.00000000000E+00  0.41462092184E+03  0.41462092184E+03  0.00000000000E+00 0.  1.
          2   -1    0    0  501    0  0.00000000000E+00 -0.00000000000E+00 -0.34749332305E+02  0.34749332305E+02  0.00000000000E+00 0. -1.
         25    2    1    2    0    0 -0.71329019160E+01 -0.29267871377E+02  0.20292843956E+03  0.24028409184E+03  0.12509598964E+03 0.  0.
          5    1    3    3  502    0 -0.18800468703E+02  0.25205209399E+02  0.17495347830E+03  0.17780593964E+03  0.41800000000E+01 0. -1.
         -5    1    3    3    0  502  0.11667566787E+02 -0.54473080776E+02  0.27974961263E+02  0.62478152194E+02  0.41800000000E+01 0. -1.
        -11    1    1    2    0    0 -0.25516098744E+02 -0.28972615151E+02  0.10010811950E+03  0.10729454466E+03  0.00000000000E+00 0.  1.
         11    1    1    2    0    0  0.32649000660E+02  0.58240486528E+02  0.76835030476E+02  0.10179161765E+03  0.00000000000E+00 0. -1.
</event>
<event>
 7    1  0.2723366E-009  0.9525342E+02  0.7561462E-02  0.1290606E+00
         -2   -1    0    0    0  501 -0.00000000000E+00  0.00000000000E+00  0.28202361270E+02  0.28202361270E+02  0.00000000000E+00 0.  1.
          2   -1    0    0  501    0  0.00000000000E+00 -0.00000000000E+00 -0.71150975933E+03  0.71150975933E+03  0.00000000000E+00 0. -1.
         25    2    1    2    0    0  0.47063444344E+02 -0.16792834448E+02 -0.56899803180E+03  0.58472529870E+03  0.12509175697E+03 0.  0.
          5    1    3    3  502    0  0.67092151035E+02  0.13319740881E+01 -0.14481054065E+03  0.15965805951E+03  0.41800000000E+01 0.  1.
         -5    1    3    3    0  502 -0.20028706690E+02 -0.18124808536E+02 -0.42418749115E+03  0.42506723918E+03  0.41800000000E+01 0.  1.
        -11    1    1    2    0    0 -0.53970955783E+01 -0.31612214990E+02 -0.11726110634E+02  0.34146192290E+02  0.00000000000E+00 0.  1.
         11    1    1    2    0    0 -0.41666348766E+02  0.48405049438E+02 -0.10258325562E+03  0.12084062961E+03  0.00000000000E+00 0. -1.
</event>
<event>
 7    1  0.2723366E-009  0.2012825E+03  0.7561462E-02  0.1148661E+00
          1   -1    0    0  501    0  0.00000000000E+00  0.00000000000E+00  0.93786404328E+02  0.93786404328E+02  0.00000000000E+00 0. -1.
         -1   -1    0    0    0  501 -0.00000000000E+00 -0.00000000000E+00 -0.55228746571E+03  0.55228746571E+03  0.00000000000E+00 0.  1.
         25    2    1    2    0    0 -0.18030948667E+03  0.94725378338E+01 -0.35730178393E+03  0.41942109394E+03  0.12509296257E+03 0.  0.
          5    1    3    3  502    0 -0.16405659013E+03  0.36443328395E+02 -0.34774835708E+03  0.38625001385E+03  0.41800000000E+01 0.  1.
         -5    1    3    3    0  502 -0.16252896537E+02 -0.26970790562E+02 -0.95534268513E+01  0.33171080084E+02  0.41800000000E+01 0.  1.
        -11    1    1    2    0    0  0.13751572075E+03 -0.47454699064E+02 -0.76025809086E+02  0.16414154125E+03  0.00000000000E+00 0.  1.
         11    1    1    2    0    0  0.42793765921E+02  0.37982161231E+02 -0.25173468372E+02  0.62511234857E+02  0.00000000000E+00 0. -1.
</event>
<event>
 7    1  0.2723366E-009  0.1124629E+03  0.7561462E-02  0.1256076E+00
          1   -1    0    0  501    0  0.00000000000E+00  0.00000000000E+00  0.20309370188E+03  0.20309370188E+03  0.00000000000E+00 0. -1.
         -1   -1    0    0    0  501 -0.00000000000E+00 -0.00000000000E+00 -0.80234621484E+02  0.80234621484E+02  0.00000000000E+00 0.  1.
         25    2    1    2    0    0  0.13463025296E+02  0.25464596684E+02  0.17908254781E+01  0.12837500824E+03  0.12508891617E+03 0.  0.
          5    1    3    3  502    0 -0.70821315697E+01  0.74504782939E+02  0.31539461028E+01  0.75023589919E+02  0.41800000000E+01 0. -1.
         -5    1    3    3    0  502  0.20545156866E+02 -0.49040186255E+02 -0.13631206247E+01  0.53351418317E+02  0.41800000000E+01 0. -1.
        -11    1    1    2    0    0  0.49505935409E+01 -0.58556083856E+02  0.76608042597E+02  0.96551103170E+02  0.00000000000E+00 0. -1.
         11    1    1    2    0    0 -0.18413618837E+02  0.33091487172E+02  0.44460212324E+02  0.58402211960E+02  0.00000000000E+00 0.  1.
</event>
<event>
 7    1  0.2723366E-009  0.2442572E+03  0.7561462E-02  0.1116989E+00
          1   -1    0    0  501    0  0.00000000000E+00  0.00000000000E+00  0.12399778003E+03  0.12399778003E+03  0.00000000000E+00 0. -1.
         -1   -1    0    0    0  501 -0.00000000000E+00 -0.00000000000E+00 -0.68470568713E+03  0.68470568713E+03  0.00000000000E+00 0.  1.
         25    2    1    2    0    0  0.73042704739E+02 -0.22999370720E+03 -0.11777969192E+03  0.29623084549E+03  0.12509322894E+03 0.  0.
          5    1    3    3  502    0 -0.33512416754E+01 -0.45676563666E+02 -0.81231090094E+02  0.93346353368E+02  0.41800000000E+01 0. -1.
         -5    1    3    3    0  502  0.76393946414E+02 -0.18431714353E+03 -0.36548601821E+02  0.20288449212E+03  0.41800000000E+01 0. -1.
        -11    1    1    2    0    0 -0.19774233937E+02  0.10870141982E+03 -0.11837795678E+03  0.16192701952E+03  0.00000000000E+00 0.  1.
         11    1    1    2    0    0 -0.53268470802E+02  0.12129228738E+03 -0.32455025840E+03  0.35054560215E+03  0.00000000000E+00 0. -1.
</event>
<event>
 7    1  0.2723366E-009  0.9905542E+02  0.7561462E-02  0.1282295E+00
          1   -1    0    0  501    0  0.00000000000E+00  0.00000000000E+00  0.57325036520E+03  0.57325036520E+03  0.00000000000E+00 0. -1.
         -1   -1    0    0    0  501 -0.00000000000E+00 -0.00000000000E+00 -0.32909348624E+02  0.32909348624E+02  0.00000000000E+00 0.  1.
         25    2    1    2    0    0 -0.24636589668E+02 -0.81088924259E+02  0.30667069899E+03  0.34187567747E+03  0.12509870518E+03 0.  0.
          5    1    3    3  502    0 -0.13078858417E+01 -0.71469923066E+02  0.30804827363E+03  0.31626076544E+03  0.41800000000E+01 0. -1.
         -5    1    3    3    0  502 -0.23328703826E+02 -0.96190011930E+01 -0.13775746472E+01  0.25614912025E+02  0.41800000000E+01 0. -1.
        -11    1    1    2    0    0  0.42207176517E+02  0.52365658538E+02  0.69572967650E+02  0.96767793048E+02  0.00000000000E+00 0.  1.
         11    1    1    2    0    0 -0.17570586849E+02  0.28723265721E+02  0.16409734994E+03  0.16751624331E+03  0.00000000000E+00 0. -1.
</event>
<event>
 7    1  0.2723366E-009  0.1834402E+03  0.7561462E-02  0.1164515E+00
         -1   -1    0    0    0  501 -0.00000000000E+00  0.00000000000E+00  0.27802037153E+02  0.27802037153E+02  0.00000000000E+00 0.  1.
          1   -1    0    0  501    0  0.00000000000E+00 -0.00000000000E+00 -0.12823296402E+04  0.12823296402E+04  0.00000000000E+00 0. -1.
         25    2    1    2    0    0  0.29497594816E+02 -0.15131496027E+03 -0.66986761226E+03  0.69866900862E+03  0.12509772320E+03 0.  0.
          5    1    3    3  502    0  0.69879508077E+02 -0.74393548282E+02 -0.46525452496E+03  0.47633684623E+03  0.41800000000E+01 0. -1.
         -5    1    3    3    0  502 -0.40381913261E+02 -0.76921411993E+02 -0.20461308730E+03  0.22233216239E+03  0.41800000000E+01 0. -1.
        -11    1    1    2    0    0 -0.59017739871E+02  0.12488508559E+03 -0.48269750268E+03  0.50207196428E+03  0.00000000000E+00 0. -1.
         11    1    1    2    0    0  0.29520145055E+02  0.26429874687E+02 -0.10196248813E+03  0.10939070447E+03  0.00000000000E+00 0.  1.
</event>
<event>
 7    1  0.2723366E-009  0.2641735E+03  0.7561462E-02  0.1104661E+00
         -1   -1    0    0    0  501 -0.00000000000E+00  0.00000000000E+00  0.51618560220E+02  0.51618560220E+02  0.00000000000E+00 0.  1.
          1   -1    0    0  501    0  0.00000000000E+00 -0.00000000000E+00 -0.21950351706E+04  0.21950351706E+04  0.00000000000E+00 0. -1.
         25    2    1    2    0    0  0.25114497742E+03 -0.40937359759E+02 -0.17255012980E+04  0.17486428502E+04  0.12508965142E+03 0.  0.
          5    1    3    3  502    0  0.18117887609E+03  0.38030017133E-01 -0.83458307485E+03  0.85403288450E+03  0.41800000000E+01 0. -1.
         -5    1    3    3    0  502  0.69966101331E+02 -0.40975389776E+02 -0.89091822316E+03  0.89460996566E+03  0.41800000000E+01 0. -1.
        -11    1    1    2    0    0 -0.12920365937E+03 -0.18072588617E+02 -0.15791334250E+03  0.20483365884E+03  0.00000000000E+00 0.  1.
         11    1    1    2    0    0 -0.12194131805E+03  0.59009948375E+02 -0.26000196986E+03  0.29317722181E+03  0.00000000000E+00 0. -1.
</event>
<event>
 7    1  0.2723366E-009  0.1599735E+03  0.7561462E-02  0.1188727E+00
          1   -1    0    0  501    0  0.00000000000E+00  0.00000000000E+00  0.14479129204E+03  0.14479129204E+03  0.00000000000E+00 0. -1.
         -1   -1    0    0    0  501 -0.00000000000E+00 -0.00000000000E+00 -0.20030687520E+03  0.20030687520E+03  0.00000000000E+00 0.  1.
         25    2    1    2    0    0 -0.37247727128E+02  0.11642809295E+03 -0.72830128487E+02  0.18945801043E+03  0.12508883282E+03 0.  0.
          5    1    3    3  502    0  0.44180254559E+02  0.60957733894E+02 -0.41038229931E+02  0.85844912082E+02  0.41800000000E+01 0. -1.
         -5    1    3    3    0  502 -0.81427981687E+02  0.55470359052E+02 -0.31791898556E+02  0.10361309835E+03  0.41800000000E+01 0. -1.
        -11    1    1    2    0    0 -0.12775010979E+02 -0.86920184222E+02 -0.15080376190E+02  0.89138864009E+02  0.00000000000E+00 0.  1.
         11    1    1    2    0    0  0.50022738107E+02 -0.29507908724E+02  0.32394921514E+02  0.66501292806E+02  0.00000000000E+00 0. -1.
</event>
<event>
 7    1  0.2723366E-009  0.1251358E+03  0.7561462E-02  0.1234857E+00
          2   -1    0    0  501    0  0.00000000000E+00  0.00000000000E+00  0.12724721869E+04  0.12724721869E+04  0.00000000000E+00 0. -1.
         -2   -1    0    0    0  501 -0.00000000000E+00 -0.00000000000E+00 -0.14564567958E+02  0.14564567958E+02  0.00000000000E+00 0.  1.
         25    2    1    2    0    0 -0.69477137739E+02 -0.39183208285E+01  0.81725125760E+03  0.82969203065E+03  0.12508725663E+03 0.  0.
          5    1    3    3  502    0 -0.67558791632E+02 -0.55433891512E+02  0.60141106347E+03  0.60774159502E+03  0.41800000000E+01 0.  1.
         -5    1    3    3    0  502 -0.19183461063E+01  0.51515570683E+02  0.21584019413E+03  0.22195043563E+03  0.41800000000E+01 0.  1.
        -11    1    1    2    0    0  0.26787950417E+02  0.44641977143E+02  0.11296767409E+03  0.12438728150E+03  0.00000000000E+00 0. -1.
         11    1    1    2    0    0  0.42689187321E+02 -0.40723656315E+02  0.32768868730E+03  0.33295744275E+03  0.00000000000E+00 0.  1.
</event>
<event>
 7    1  0.2723366E-009  0.2913150E+03  0.7561462E-02  0.1089665E+00
          1   -1    0    0  501    0  0.00000000000E+00  0.00000000000E+00  0.85872703332E+03  0.85872703332E+03  0.00000000000E+00 0. -1.
         -1   -1    0    0    0  501 -0.00000000000E+00 -0.00000000000E+00 -0.12139963989E+03  0.12139963989E+03  0.00000000000E+00 0.  1.
         25    2    1    2    0    0  0.22868005620E+03 -0.17925183706E+03  0.23977452117E+03  0.39694463555E+03  0.12508970182E+03 0.  0.
          5    1    3    3  502    0  0.15409782490E+03 -0.10381700971E+03  0.22163039519E+03  0.28924317730E+03  0.41800000000E+01 0.  1.
         -5    1    3    3    0  502  0.74582231292E+02 -0.75434827346E+02  0.18144125981E+02  0.10770145825E+03  0.41800000000E+01 0.  1.
        -11    1    1    2    0    0 -0.68984945378E+02  0.57330802330E+02  0.81663285691E+02  0.12130389860E+03  0.00000000000E+00 0.  1.
         11    1    1    2    0    0 -0.15969511082E+03  0.12192103473E+03  0.41588958656E+03  0.46187813906E+03  0.00000000000E+00 0. -1.
</event>
<event>
 7    1  0.2723366E-009  0.1023946E+03  0.7561462E-02  0.1275340E+00
          2   -1    0    0  501    0  0.00000000000E+00  0.00000000000E+00  0.14273624375E+03  0.14273624375E+03  0.00000000000E+00 0. -1.
         -2   -1    0    0    0  501 -0.00000000000E+00 -0.00000000000E+00 -0.97789426249E+02  0.97789426249E+02  0.00000000000E+00 0.  1.
         25    2    1    2    0    0  0.15190971040E+02  0.38096545927E+02  0.45365738516E+01  0.13172754415E+03  0.12509777366E+03 0.  0.
          5    1    3    3  502    0  0.70422803225E+02  0.20346761239E+02  0.51014094743E+00  0.73424073373E+02  0.41800000000E+01 0. -1.
         -5    1    3    3    0  502 -0.55231832185E+02  0.17749784688E+02  0.40264329041E+01  0.58303470779E+02  0.41800000000E+01 0. -1.
        -11    1    1    2    0    0 -0.11042646200E+02  0.15728547728E+02 -0.20030280120E+02  0.27758590930E+02  0.00000000000E+00 0.  1.
         11    1    1    2    0    0 -0.41483248399E+01 -0.53825093656E+02  0.60440523768E+02  0.81039534916E+02  0.00000000000E+00 0. -1.
</event>
<event>
 7    1  0.2723366E-009  0.6659049E+02  0.7561462E-02  0.1372087E+00
         -1   -1    0    0    0  501 -0.00000000000E+00  0.00000000000E+00  0.18969021771E+03  0.18969021771E+03  0.00000000000E+00 0.  1.
          1   -1    0    0  501    0  0.00000000000E+00 -0.00000000000E+00 -0.77930551945E+02  0.77930551945E+02  0.00000000000E+00 0. -1.
         25    2    1    2    0    0 -0.24200139653E+01  0.36969186473E+02  0.10374400187E+03  0.16668272506E+03  0.12509090971E+03 0.  0.
          5    1    3    3  502    0  0.15953055263E+01  0.31391380959E+01 -0.29032093032E+02  0.29542071923E+02  0.41800000000E+01 0. -1.
         -5    1    3    3    0  502 -0.40153194916E+01  0.33830048377E+02  0.13277609491E+03  0.13714065314E+03  0.41800000000E+01 0. -1.
        -11    1    1    2    0    0 -0.14311968756E+02 -0.61808225250E+02  0.22956487081E+02  0.67469174127E+02  0.00000000000E+00 0.  1.
         11    1    1    2    0    0  0.16731982721E+02  0.24839038777E+02 -0.14940823189E+02  0.33468870472E+02  0.00000000000E+00 0. -1.
</event>
<event>
 7    1  0.2723366E-009  0.1144084E+03  0.7561462E-02  0.1252617E+00
         -1   -1    0    0    0  501 -0.00000000000E+00  0.00000000000E+00  0.79368717209E+02  0.79368717209E+02  0.00000000000E+00 0.  1.
          1   -1    0    0  501    0  0.00000000000E+00 -0.00000000000E+00 -0.21772279969E+03  0.21772279969E+03  0.00000000000E+00 0. -1.
         25    2    1    2    0    0  0.23680166865E+02  0.69765323715E+02 -0.83859952465E+02  0.16765374245E+03  0.12508930824E+03 0.  0.
          5    1    3    3  502    0  0.49981202899E+02  0.82174717537E+02 -0.95914472152E+02  0.13589651656E+03  0.41800000000E+01 0. -1.
         -5    1    3    3    0  502 -0.26301036034E+02 -0.12409393822E+02  0.12054519687E+02  0.31757225892E+02  0.41800000000E+01 0. -1.
        -11    1    1    2    0    0 -0.49122453492E+02 -0.55021301759E+02 -0.76843219355E+01  0.74157992745E+02  0.00000000000E+00 0.  1.
         11    1    1    2    0    0  0.25442286627E+02 -0.14744021956E+02 -0.46809808077E+02  0.55279781697E+02  0.00000000000E+00 0. -1.
</event>
<event>
 7    1  0.2723366E-009  0.1306672E+03  0.7561462E-02  0.1226469E+00
         -2   -1    0    0    0  501 -0.00000000000E+00  0.00000000000E+00  0.12413941640E+03  0.12413941640E+03  0.00000000000E+00 0.  1.
          2   -1    0    0  501    0  0.00000000000E+00 -0.00000000000E+00 -0.23318118521E+03  0.23318118521E+03  0.00000000000E+00 0. -1.
         25    2    1    2    0    0 -0.45322374342E+02 -0.69392036168E+02 -0.16380844711E+03  0.22214730099E+03  0.12508734426E+03 0.  0.
          5    1    3    3  502    0  0.36251468191E+02 -0.30578244548E+02 -0.18668456983E+02  0.51138846993E+02  0.41800000000E+01 0. -1.
         -5    1    3    3    0  502 -0.81573842534E+02 -0.38813791620E+02 -0.14513999012E+03  0.17100845400E+03  0.41800000000E+01 0. -1.
        -11    1    1    2    0    0 -0.21157195880E+02  0.49606144957E+02  0.28568352017E+02  0.61029069237E+02  0.00000000000E+00 0.  1.
         11    1    1    2    0    0  0.66479570222E+02  0.19785891211E+02  0.26198326275E+02  0.74144231384E+02  0.00000000000E+00 0. -1.
</event>
<event>
 7    1  0.2810343E-009  0.2098952E+03  0.7561462E-02  0.1141649E+00
          1   -1    0    0  501    0  0.00000000000E+00  0.00000000000E+00  0.13118732312E+04  0.13118732312E+04  0.00000000000E+00 0. -1.
         -1   -1    0    0    0  501 -0.00000000000E+00 -0.00000000000E+00 -0.35775574657E+02  0.35775574657E+02  0.00000000000E+00 0.  1.
         25    2    1    2    0    0 -0.11138154371E+03  0.15032395550E+03  0.67316796842E+03  0.70979242742E+03  0.12508811468E+03 0.  0.
          5    1    3    3  502    0 -0.35201885258E+02 -0.76742747494E+01  0.46196960448E+02  0.58734136354E+02  0.41800000000E+01 0.  1.
         -5    1    3    3    0  502 -0.76179658451E+02  0.15799823025E+03  0.62697100797E+03  0.65105829106E+03  0.41800000000E+01 0.  1.
        -11    1    1    2    0    0  0.72196579428E+02 -0.15259765950E+03  0.48092370640E+03  0.50969206698E+03  0.00000000000E+00 0.  1.
         11    1    1    2    0    0  0.39184964280E+02  0.22737039997E+01  0.12200598171E+03  0.12816431145E+03  0.00000000000E+00 0. -1.
</event>
<event>
 7    1  0.2723366E-009  0.9787904E+02  0.7561462E-02  0.1284820E+00
         -1   -1    0    0    0  501 -0.00000000000E+00  0.00000000000E+00  0.16178639309E+03  0.16178639309E+03  0.00000000000E+00 0.  1.
          1   -1    0    0  501    0  0.00000000000E+00 -0.00000000000E+00 -0.92260607242E+02  0.92260607242E+02  0.00000000000E+00 0. -1.
         25    2    1    2    0    0  0.46670807533E+02  0.34515925782E+02  0.30949797003E+02  0.14133140454E+03  0.12508861885E+03 0.  0.
          5    1    3    3  502    0  0.84441792412E+02  0.47474060210E+02  0.28690089070E+02  0.10111773489E+03  0.41800000000E+01 0.  1.
         -5    1    3    3    0  502 -0.37770984879E+02 -0.12958134428E+02  0.22597079338E+01  0.40213669647E+02  0.41800000000E+01 0.  1.
        -11    1    1    2    0    0 -0.34769828716E+02 -0.20925425880E+02  0.67414502023E+02  0.78686272756E+02  0.00000000000E+00 0.  1.
         11    1    1    2    0    0 -0.11900978817E+02 -0.13590499903E+02 -0.28838513176E+02  0.34029323040E+02  0.00000000000E+00 0. -1.
</event>
<event>
 7    1  0.2723366E-009  0.1825665E+03  0.7561462E-02  0.1165342E+00
          3   -1    0    0  501    0  0.00000000000E+00  0.00000000000E+00  0.56259881057E+03  0.56259881057E+03  0.00000000000E+00 0. -1.
         -3   -1    0    0    0  501 -0.00000000000E+00 -0.00000000000E+00 -0.69773324635E+02  0.69773324635E+02  0.00000000000E+00 0.  1.
         25    2    1    2    0    0  0.14370633820E+03  0.69829639581E+02  0.32252572169E+03  0.38105119352E+03  0.12509788460E+03 0.  0.
          5    1    3    3  502    0  0.74955575735E+02 -0.29961018648E+02  0.11231464550E+03  0.13837648993E+03  0.41800000000E+01 0.  1.
         -5    1    3    3    0  502  0.68750762461E+02  0.99790658230E+02  0.21021107619E+03  0.24267470359E+03  0.41800000000E+01 0.  1.
        -11    1    1    2    0    0 -0.90209256418E+02 -0.60826604687E+02  0.50783821121E+02  0.12006907291E+03  0.00000000000E+00 0.  1.
         11    1    1    2    0    0 -0.53497081778E+02 -0.90030348940E+01  0.11951594312E+03  0.13125186877E+03  0.00000000000E+00 0. -1.
</event>
<event>
 7    1  0.2723366E-009  0.1687338E+03  0.7561462E-02  0.1179175E+00
         -1   -1    0    0    0  501 -0.00000000000E+00  0.00000000000E+00  0.39114634278E+02  0.39114634278E+02  0.00000000000E+00 0.  1.
          1   -1    0    0  501    0  0.00000000000E+00 -0.00000000000E+00 -0.16444584761E+04  0.16444584761E+04  0.00000000000E+00 0. -1.
         25    2    1    2    0    0 -0.12678312056E+02 -0.14379741303E+03 -0.14151534601E+04  0.14279868540E+04  0.12509477984E+03 0.  0.
          5    1    3    3  502    0 -0.87257805549E+01  0.11471581446E+02 -0.46269637009E+03  0.46293967180E+03  0.41800000000E+01 0.  1.
         -5    1    3    3    0  502 -0.39525315009E+01 -0.15526899447E+03 -0.95245709000E+03  0.96504718219E+03  0.41800000000E+01 0.  1.
        -11    1    1    2    0    0 -0.32404175113E+02  0.28015428866E+02 -0.27605359188E+02  0.50960285274E+02  0.00000000000E+00 0.  1.
         11    1    1    2    0    0  0.45082487169E+02  0.11578198416E+03 -0.16258502258E+03  0.20462597116E+03  0.00000000000E+00 0. -1.
</event>
<event>
 7    1  0.2723366E-009  0.1080915E+03  0.7561462E-02  0.1264146E+00
         -2   -1    0    0    0  501 -0.00000000000E+00  0.00000000000E+00  0.61908883719E+03  0.61908883719E+03  0.00000000000E+00 0.  1.
          2   -1    0    0  501    0  0.00000000000E+00 -0.00000000000E+00 -0.37613133078E+02  0.37613133078E+02  0.00000000000E+00 0. -1.
         25    2    1    2    0    0  0.65293439116E+02  0.46154019678E+02  0.16444216828E+03  0.22153993323E+03  0.12508112800E+03 0.  0.
          5    1    3    3  502    0 -0.22590902748E+01 -0.80456305645E+01 -0.17586364616E+02  0.19914524360E+02  0.41800000000E+01 0. -1.
         -5    1    3    3    0  502  0.67552529391E+02  0.54199650242E+02  0.18202853289E+03  0.20162540887E+03  0.41800000000E+01 0. -1.
        -11    1    1    2    0    0  0.20414315032E+02  0.40343290756E+01  0.12451077882E+03  0.12623768895E+03  0.00000000000E+00 0.  1.
         11    1    1    2    0    0 -0.85707754148E+02 -0.50188348753E+02  0.29252275701E+03  0.30892434809E+03  0.00000000000E+00 0. -1.
</event>
<event>
 7    1  0.2723366E-009  0.1365336E+03  0.7561462E-02  0.1218071E+00
          1   -1    0    0  501    0  0.00000000000E+00  0.00000000000E+00  0.51053286233E+03  0.51053286233E+03  0.00000000000E+00 0. -1.
         -1   -1    0    0    0  501 -0.00000000000E+00 -0.00000000000E+00 -0.66376253078E+02  0.66376253078E+02  0.00000000000E+00 0.  1.
         25    2    1    2    0    0 -0.21440816494E+02  0.10483563166E+03  0.39442460294E+03  0.42739920311E+03  0.12509633542E+03 0.  0.
          5    1    3    3  502    0  0.31343531778E+02  0.19182969538E+02  0.24138631875E+03  0.24420325670E+03  0.41800000000E+01 0. -1.
         -5    1    3    3    0  502 -0.52784348272E+02  0.85652662126E+02  0.15303828418E+03  0.18319594640E+03  0.41800000000E+01 0. -1.
        -11    1    1    2    0    0  0.37239888753E+02 -0.90752189176E+01 -0.40611469329E+01  0.38544283975E+02  0.00000000000E+00 0.  1.
         11    1    1    2    0    0 -0.15799072259E+02 -0.95760412747E+02  0.53793153249E+02  0.11096562833E+03  0.00000000000E+00 0. -1.
</event>
<event>
 7    1  0.2723366E-009  0.1185737E+03  0.7561462E-02  0.1245469E+00
          2   -1    0    0  501    0  0.00000000000E+00  0.00000000000E+00  0.65556449373E+03  0.65556449373E+03  0.00000000000E+00 0. -1.
         -2   -1    0    0    0  501 -0.00000000000E+00 -0.00000000000E+00 -0.33480081558E+02  0.33480081558E+02  0.00000000000E+00 0.  1.
         25    2    1    2    0    0  0.12316502000E+02  0.90492419857E+02  0.43766844311E+03  0.46426465439E+03  0.12508968361E+03 0.  0.
          5    1    3    3  502    0  0.33660806384E+02  0.81053575380E+02  0.13759638028E+03  0.16325736809E+03  0.41800000000E+01 0.  1.
         -5    1    3    3    0  502 -0.21344304383E+02  0.94388444771E+01  0.30007206283E+03  0.30100728630E+03  0.41800000000E+01 0.  1.
        -11    1    1    2    0    0  0.37342142923E+02 -0.41175877410E+02  0.10588228446E+03  0.11958656563E+03  0.00000000000E+00 0.  1.
         11    1    1    2    0    0 -0.49658644923E+02 -0.49316542447E+02  0.78533684604E+02  0.10519335527E+03  0.00000000000E+00 0. -1.
</event>
<event>
 7    1  0.2723366E-009  0.9259495E+02  0.7561462E-02  0.1296687E+00
         -1   -1    0    0    0  501 -0.00000000000E+00  0.00000000000E+00  0.34971809138E+02  0.34971809138E+02  0.00000000000E+00 0.  1.
          1   -1    0    0  501    0  0.00000000000E+00 -0.00000000000E+00 -0.43308466636E+03  0.43308466636E+03  0.00000000000E+00 0. -1.
         25    2    1    2    0    0 -0.43296625649E+02 -0.39691702016E+02 -0.23123192913E+03  0.26938310507E+03  0.12509605609E+03 0.  0.
          5    1    3    3  502    0 -0.72293831876E+02 -0.18411063621E+02 -0.21862589005E+03  0.23104137636E+03  0.41800000000E+01 0. -1.
         -5    1    3    3    0  502  0.28997206227E+02 -0.21280638395E+02 -0.12606039077E+02  0.38341728713E+02  0.41800000000E+01 0. -1.
        -11    1    1    2    0    0  0.43262272159E+02  0.97855502604E+01 -0.19784401869E+02  0.48567517371E+02  0.00000000000E+00 0.  1.
         11    1    1    2    0    0  0.34353489917E-01  0.29906151755E+02 -0.14709652622E+03  0.15010585305E+03  0.00000000000E+00 0. -1.
</event>
<event>
 7    1  0.2723366E-009  0.1490510E+03  0.7561462E-02  0.1201644E+00
         -2   -1    0    0    0  501 -0.00000000000E+00  0.00000000000E+00  0.17437786700E+02  0.17437786700E+02  0.00000000000E+00 0.  1.
          2   -1    0    0  501    0  0.00000000000E+00 -0.00000000000E+00 -0.13919563805E+04  0.13919563805E+04  0.00000000000E+00 0. -1.
         25    2    1    2    0    0 -0.12031616233E+02  0.79678805954E+02 -0.81425500358E+03  0.82773894984E+03  0.12508831407E+03 0.  0.
          5    1    3    3  502    0  0.49621360924E+02  0.58814232816E+02 -0.55881649084E+03  0.56410525284E+03  0.41800000000E+01 0.  1.
         -5    1    3    3    0  502 -0.61652977157E+02  0.20864573138E+02 -0.25543851273E+03  0.26363369700E+03  0.41800000000E+01 0.  1.
        -11    1    1    2    0    0 -0.25910890114E+02  0.30070065110E+02 -0.12376142685E+03  0.12997104992E+03  0.00000000000E+00 0. -1.
         11    1    1    2    0    0  0.37942506347E+02 -0.10974887106E+03 -0.43650216334E+03  0.45168416741E+03  0.00000000000E+00 0.  1.
</event>
<event>
 7    1  0.2723366E-009  0.1060167E+03  0.7561462E-02  0.1268129E+00
          1   -1    0    0  501    0  0.00000000000E+00  0.00000000000E+00  0.17305354991E+03  0.17305354991E+03  0.00000000000E+00 0. -1.
         -1   -1    0    0    0  501 -0.00000000000E+00 -0.00000000000E+00 -0.91925749613E+02  0.91925749613E+02  0.00000000000E+00 0.  1.
         25    2    1    2    0    0 -0.43985651238E+02 -0.43801057621E+02  0.29863408818E+02  0.14280315368E+03  0.12509055661E+03 0.  0.
          5    1    3    3  502    0  0.39773970924E+02 -0.32270656044E+02  0.27119324898E+02  0.58105887718E+02  0.41800000000E+01 0.  1.
         -5    1    3    3    0  502 -0.83759622162E+02 -0.11530401577E+02  0.27440839204E+01  0.84697265964E+02  0.41800000000E+01 0.  1.
        -11    1    1    2    0    0  0.10531971640E+02  0.41101185196E+02  0.71386576175E+02  0.83043802353E+02  0.00000000000E+00 0. -1.
         11    1    1    2    0    0  0.33453679598E+02  0.26998724250E+01 -0.20122184698E+02  0.39132343487E+02  0.00000000000E+00 0.  1.
</event>
<event>
 7    1  0.2723366E-009  0.1037374E+03  0.7561462E-02  0.1272627E+00
         -2   -1    0    0    0  501 -0.00000000000E+00  0.00000000000E+00  0.10449360748E+02  0.10449360748E+02  0.00000000000E+00 0.  1.
          2   -1    0    0  501    0  0.00000000000E+00 -0.00000000000E+00 -0.22007159886E+04  0.22007159886E+04  0.00000000000E+00 0. -1.
         25    2    1    2    0    0 -0.84430854257E+01  0.60142166353E+01 -0.19472068915E+04  0.19512482582E+04  0.12509048881E+03 0.  0.
          5    1    3    3  502    0 -0.45072149747E+02 -0.38696500610E+02 -0.64216308210E+03  0.64491845551E+03  0.41800000000E+01 0.  1.
         -5    1    3    3    0  502  0.36629064321E+02  0.44710717245E+02 -0.13050438094E+04  0.13063298027E+04  0.41800000000E+01 0.  1.
        -11    1    1    2    0    0  0.20487739155E+02  0.38633290681E+02 -0.14592252005E+03  0.15233404236E+03  0.00000000000E+00 0.  1.
         11    1    1    2    0    0 -0.12044653729E+02 -0.44647507316E+02 -0.97137216343E+02  0.10758304881E+03  0.00000000000E+00 0. -1.
</event>
<event>
 7    1  0.2723366E-009  0.1974591E+03  0.7561462E-02  0.1151901E+00
         -2   -1    0    0    0  501 -0.00000000000E+00  0.00000000000E+00  0.38624366342E+03  0.38624366342E+03  0.00000000000E+00 0.  1.
          2   -1    0    0  501    0  0.00000000000E+00 -0.00000000000E+00 -0.15453308947E+03  0.15453308947E+03  0.00000000000E+00 0. -1.
         25    2    1    2    0    0  0.24181228184E+02  0.18726817018E+03  0.23916711100E+03  0.32939902918E+03  0.12509482037E+03 0.  0.
          5    1    3    3  502    0 -0.73934401541E+01  0.12421143819E+03  0.62870485584E+02  0.13947514005E+03  0.41800000000E+01 0. -1.
         -5    1    3    3    0  502  0.31574668338E+02  0.63056731986E+02  0.17629662542E+03  0.18992388913E+03  0.41800000000E+01 0. -1.
        -11    1    1    2    0    0  0.21453992402E+02 -0.87028258431E+02  0.30808968920E+02  0.94780715978E+02  0.00000000000E+00 0.  1.
         11    1    1    2    0    0 -0.45635220585E+02 -0.10023991175E+03 -0.38265505965E+02  0.11659700773E+03  0.00000000000E+00 0. -1.
</event>
<event>
 7    1  0.2723366E-009  0.3642357E+03  0.7561462E-02  0.1056919E+00
          2   -1    0    0  501    0  0.00000000000E+00  0.00000000000E+00  0.27359802707E+04  0.27359802707E+04  0.00000000000E+00 0. -1.
         -2   -1    0    0    0  501 -0.00000000000E+00 -0.00000000000E+00 -0.53007804307E+02  0.53007804307E+02  0.00000000000E+00 0.  1.
         25    2    1    2    0    0  0.92460020639E+02  0.34582209837E+03  0.16167554148E+04  0.16606286187E+04  0.12509020289E+03 0.  0.
          5    1    3    3  502    0  0.10647143603E+02  0.14892043638E+02  0.18293708071E+02  0.26215773603E+02  0.41800000000E+01 0. -1.
         -5    1    3    3    0  502  0.81812877036E+02  0.33093005473E+03  0.15984617067E+04  0.16344128451E+04  0.41800000000E+01 0. -1.
        -11    1    1    2    0    0  0.17795630706E+02 -0.50290204647E+02  0.17631405106E+03  0.18420758333E+03  0.00000000000E+00 0. -1.
         11    1    1    2    0    0 -0.11025565135E+03 -0.29553189372E+03  0.88990300049E+03  0.94415187292E+03  0.00000000000E+00 0.  1.
</event>
<event>
 7    1  0.2723366E-009  0.1319168E+03  0.7561462E-02  0.1224639E+00
          2   -1    0    0  501    0  0.00000000000E+00  0.00000000000E+00  0.36200351578E+03  0.36200351578E+03  0.00000000000E+00 0. -1.
         -2   -1    0    0    0  501 -0.00000000000E+00 -0.00000000000E+00 -0.11940836772E+03  0.11940836772E+03  0.00000000000E+00 0.  1.
         25    2    1    2    0    0  0.10843971618E+03  0.42321313053E+01  0.28961518606E+03  0.33362015219E+03  0.12509343298E+03 0.  0.
          5    1    3    3  502    0  0.10313543394E+03 -0.19333104517E+02  0.10903221373E+03  0.15138091919E+03  0.41800000000E+01 0.  1.
         -5    1    3    3    0  502  0.53042822341E+01  0.23565235823E+02  0.18058297233E+03  0.18223923300E+03  0.41800000000E+01 0.  1.
        -11    1    1    2    0    0 -0.90217343360E+02  0.30374728573E+02 -0.13235443607E+02  0.96109157453E+02  0.00000000000E+00 0. -1.
         11    1    1    2    0    0 -0.18222372817E+02 -0.34606859879E+02 -0.33784594394E+02  0.51682573854E+02  0.00000000000E+00 0.  1.
</event>
<event>
 7    1  0.2723366E-009  0.1165656E+03  0.7561462E-02  0.1248873E+00
          2   -1    0    0  501    0  0.00000000000E+00  0.00000000000E+00  0.21248905918E+03  0.21248905918E+03  0.00000000000E+00 0.  1.
         -2   -1    0    0    0  501 -0.00000000000E+00 -0.00000000000E+00 -0.14363271082E+03  0.14363271082E+03  0.00000000000E+00 0. -1.
         25    2    1    2    0    0  0.94971663665E+02  0.90337778690E+01  0.13594906422E+03  0.20791756071E+03  0.12508532266E+03 0.  0.
          5    1    3    3  502    0  0.10335328481E+03  0.27678601521E+02  0.14886772530E+03  0.18337687559E+03  0.41800000000E+01 0.  1.
         -5    1    3    3    0  502 -0.83816211468E+01 -0.18644823652E+02 -0.12918661080E+02  0.24540685120E+02  0.41800000000E+01 0.  1.
        -11    1    1    2    0    0 -0.66729049467E+02  0.14664027471E+02  0.36630647454E+01  0.68419425515E+02  0.00000000000E+00 0.  1.
         11    1    1    2    0    0 -0.28242614198E+02 -0.23697805340E+02 -0.70755780599E+02  0.79784783780E+02  0.00000000000E+00 0. -1.
</event>
<event>
 7    1  0.2723366E-009  0.9029591E+02  0.7561462E-02  0.1302137E+00
          1   -1    0    0  501    0  0.00000000000E+00  0.00000000000E+00  0.10108333046E+04  0.10108333046E+04  0.00000000000E+00 0. -1.
         -1   -1    0    0    0  501 -0.00000000000E+00 -0.00000000000E+00 -0.10751116584E+02  0.10751116584E+02  0.00000000000E+00 0.  1.
         25    2    1    2    0    0 -0.97875763578E+00 -0.12256381036E+02  0.65193932206E+03  0.66394533257E+03  0.12508936065E+03 0.  0.
          5    1    3    3  502    0  0.25957268613E+02  0.35723149663E+02  0.10177433324E+03  0.11101986544E+03  0.41800000000E+01 0.  1.
         -5    1    3    3    0  502 -0.26936026249E+02 -0.47979530700E+02  0.55016498882E+03  0.55292546713E+03  0.41800000000E+01 0.  1.
        -11    1    1    2    0    0 -0.78698371860E+01 -0.33519613139E+02  0.12354823499E+03  0.12825624808E+03  0.00000000000E+00 0. -1.
         11    1    1    2    0    0  0.88485948218E+01  0.45775994176E+02  0.22459463093E+03  0.22938284050E+03  0.00000000000E+00 0.  1.
</event>
<event>
 7    1  0.2723366E-009  0.1731787E+03  0.7561462E-02  0.1174573E+00
          1   -1    0    0  501    0  0.00000000000E+00  0.00000000000E+00  0.78676048222E+02  0.78676048222E+02  0.00000000000E+00 0. -1.
         -1   -1    0    0    0  501 -0.00000000000E+00 -0.00000000000E+00 -0.52773910448E+03  0.52773910448E+03  0.00000000000E+00 0.  1.
         25    2    1    2    0    0  0.18321368476E+02 -0.14325665769E+03 -0.95374165445E+02  0.21354315835E+03  0.12508519708E+03 0.  0.
          5    1    3    3  502    0 -0.48574099121E+02 -0.36503019172E+02 -0.11080023397E+02  0.61904384599E+02  0.41800000000E+01 0. -1.
         -5    1    3    3    0  502  0.66895467597E+02 -0.10675363852E+03 -0.84294142048E+02  0.15163877375E+03  0.41800000000E+01 0. -1.
        -11    1    1    2    0    0  0.20116753843E+02  0.13891752261E+02 -0.12469987125E+03  0.12707368908E+03  0.00000000000E+00 0.  1.
         11    1    1    2    0    0 -0.38438122319E+02  0.12936490543E+03 -0.22898901957E+03  0.26579830527E+03  0.00000000000E+00 0. -1.
</event>
<event>
 7    1  0.2723366E-009  0.1104626E+03  0.7561462E-02  0.1259716E+00
         -1   -1    0    0    0  501 -0.00000000000E+00  0.00000000000E+00  0.17935072027E+03  0.17935072027E+03  0.00000000000E+00 0. -1.
          1   -1    0    0  501    0  0.00000000000E+00 -0.00000000000E+00 -0.10516019012E+03  0.10516019012E+03  0.00000000000E+00 0.  1.
         25    2    1    2    0    0  0.49171286588E+02  0.18861787301E+02  0.10874120930E+03  0.17391390130E+03  0.12509121480E+03 0.  0.
          5    1    3    3  502    0 -0.22624309904E+02  0.49615958626E+02  0.27781916669E+02  0.61342563060E+02  0.41800000000E+01 0.  1.
         -5    1    3    3    0  502  0.71795596492E+02 -0.30754171325E+02  0.80959292633E+02  0.11257133824E+03  0.41800000000E+01 0.  1.
        -11    1    1    2    0    0 -0.36587147722E+02 -0.45601407560E+02 -0.50286638476E+02  0.77115846355E+02  0.00000000000E+00 0.  1.
         11    1    1    2    0    0 -0.12584138866E+02  0.26739620259E+02  0.15735959319E+02  0.33481162738E+02  0.00000000000E+00 0. -1.
</event>
<event>
 7    1  0.2723366E-009  0.1167068E+03  0.7561462E-02  0.1248631E+00
         -3   -1    0    0    0  501 -0.00000000000E+00  0.00000000000E+00  0.12088686446E+03  0.12088686446E+03  0.00000000000E+00 0.  1.
          3   -1    0    0  501    0  0.00000000000E+00 -0.00000000000E+00 -0.11819440287E+03  0.11819440287E+03  0.00000000000E+00 0. -1.
         25    2    1    2    0    0  0.40888533496E+02 -0.14860709012E+02 -0.22106313270E+02  0.13426977682E+03  0.12508785328E+03 0.  0.
          5    1    3    3  502    0  0.74598060342E+02  0.25565834059E+02 -0.66299365265E+01  0.79245889081E+02  0.41800000000E+01 0. -1.
         -5    1    3    3    0  502 -0.33709526846E+02 -0.40426543071E+02 -0.15476376744E+02  0.55023887740E+02  0.41800000000E+01 0. -1.
        -11    1    1    2    0    0 -0.66655920130E+02  0.28494525972E+02  0.20580596621E+02  0.75355893307E+02  0.00000000000E+00 0.  1.
         11    1    1    2    0    0  0.25767386634E+02 -0.13633816960E+02  0.42181782415E+01  0.29455597202E+02  0.00000000000E+00 0. -1.
</event>
<event>
 7    1  0.2723366E-009  0.1133986E+03  0.7561462E-02  0.1254403E+00
          1   -1    0    0  501    0  0.00000000000E+00  0.00000000000E+00  0.78838495363E+02  0.78838495363E+02  0.00000000000E+00 0. -1.
         -1   -1    0    0    0  501 -0.00000000000E+00 -0.00000000000E+00 -0.24285521235E+03  0.24285521235E+03  0.00000000000E+00 0.  1.
         25    2    1    2    0    0  0.56322696971E+02  0.54554168252E+02 -0.13785205356E+03  0.20198732009E+03  0.12508910960E+03 0.  0.
          5    1    3    3  502    0  0.74988929038E+02  0.83828282068E+02 -0.10846351266E+03  0.15630843333E+03  0.41800000000E+01 0. -1.
         -5    1    3    3    0  502 -0.18666232067E+02 -0.29274113816E+02 -0.29388540900E+02  0.45678886759E+02  0.41800000000E+01 0. -1.
        -11    1    1    2    0    0 -0.41867648441E+02 -0.47076210110E+02 -0.56923123144E+02  0.84907664511E+02  0.00000000000E+00 0.  1.
         11    1    1    2    0    0 -0.14455048530E+02 -0.74779581416E+01  0.30758459715E+02  0.34798723109E+02  0.00000000000E+00 0. -1.
</event>
<event>
 7    1  0.2723366E-009  0.9784286E+02  0.7561462E-02  0.1284899E+00
         -2   -1    0    0    0  501 -0.00000000000E+00  0.00000000000E+00  0.42350943718E+03  0.42350943718E+03  0.00000000000E+00 0. -1.
          2   -1    0    0  501    0  0.00000000000E+00 -0.00000000000E+00 -0.58898861210E+02  0.58898861210E+02  0.00000000000E+00 0.  1.
         25    2    1    2    0    0 -0.38262249224E+02  0.10554637851E+02  0.35749925123E+03  0.38082566154E+03  0.12508824790E+03 0.  0.
          5    1    3    3  502    0  0.61081966097E+01 -0.51742712922E+02  0.18159258974E+03  0.18896549805E+03  0.41800000000E+01 0. -1.
         -5    1    3    3    0  502 -0.44370445834E+02  0.62297350774E+02  0.17590666149E+03  0.19186016349E+03  0.41800000000E+01 0. -1.
        -11    1    1    2    0    0  0.45433124664E+02  0.87121434083E+01 -0.32785570765E+02  0.56700651759E+02  0.00000000000E+00 0.  1.
         11    1    1    2    0    0 -0.71708754395E+01 -0.19266781259E+02  0.39896895501E+02  0.44881985086E+02  0.00000000000E+00 0. -1.
</event>
<event>
 7    1  0.2723366E-009  0.1506629E+03  0.7561462E-02  0.1199661E+00
          1   -1    0    0  501    0  0.00000000000E+00  0.00000000000E+00  0.12527506784E+03  0.12527506784E+03  0.00000000000E+00 0. -1.
         -1   -1    0    0    0  501 -0.00000000000E+00 -0.00000000000E+00 -0.20019986946E+03  0.20019986946E+03  0.00000000000E+00 0.  1.
         25    2    1    2    0    0  0.10114493302E+03 -0.56100923976E+02 -0.79139223633E+01  0.17055987898E+03  0.12510168266E+03 0.  0.
          5    1    3    3  502    0  0.13808175715E+02 -0.74806641486E+02  0.16331251967E+02  0.77915861786E+02  0.41800000000E+01 0. -1.
         -5    1    3    3    0  502  0.87336757307E+02  0.18705717510E+02 -0.24245174331E+02  0.92644017199E+02  0.41800000000E+01 0. -1.
        -11    1    1    2    0    0 -0.34483274286E+02  0.59725290459E+02 -0.52299798034E+02  0.86553309586E+02  0.00000000000E+00 0.  1.
         11    1    1    2    0    0 -0.66661658736E+02 -0.36243664829E+01 -0.14711081227E+02  0.68361748724E+02  0.00000000000E+00 0. -1.
</event>
<event>
 7    1  0.2723366E-009  0.1958179E+03  0.7561462E-02  0.1153316E+00
          2   -1    0    0  501    0  0.00000000000E+00  0.00000000000E+00  0.17593572454E+03  0.17593572454E+03  0.00000000000E+00 0. -1.
         -2   -1    0    0    0  501 -0.00000000000E+00 -0.00000000000E+00 -0.27857001149E+03  0.27857001149E+03  0.00000000000E+00 0.  1.
         25    2    1    2    0    0 -0.75070520452E+02  0.16400721517E+03 -0.12431816416E+02  0.21985459569E+03  0.12509014158E+03 0.  0.
          5    1    3    3  502    0  0.23586880580E+01 -0.77009632303E+01  0.26027772050E+02  0.27564207987E+02  0.41800000000E+01 0. -1.
         -5    1    3    3    0  502 -0.77429208510E+02  0.17170817840E+03 -0.38459588467E+02  0.19229038771E+03  0.41800000000E+01 0. -1.
        -11    1    1    2    0    0  0.58943264628E+02 -0.45250082376E+02 -0.87469535790E+02  0.11477281077E+03  0.00000000000E+00 0.  1.
         11    1    1    2    0    0  0.16127255824E+02 -0.11875713279E+03 -0.27329347441E+01  0.11987832957E+03  0.00000000000E+00 0. -1.
</event>
<event>
 7    1  0.2723366E-009  0.1039979E+03  0.7561462E-02  0.1272107E+00
          1   -1    0    0  501    0  0.00000000000E+00  0.00000000000E+00  0.34391576272E+03  0.34391576272E+03  0.00000000000E+00 0. -1.
         -1   -1    0    0    0  501 -0.00000000000E+00 -0.00000000000E+00 -0.55987033655E+02  0.55987033655E+02  0.00000000000E+00 0.  1.
         25    2    1    2    0    0  0.11441085702E+02  0.38392086692E+02  0.48756993090E+02  0.14010075185E+03  0.12508447358E+03 0.  0.
          5    1    3    3  502    0 -0.38869199868E+02  0.58944380122E+02  0.63007611452E+01  0.71010046031E+02  0.41800000000E+01 0.  1.
         -5    1    3    3    0  502  0.50310285570E+02 -0.20552293430E+02  0.42456231945E+02  0.69090705817E+02  0.41800000000E+01 0.  1.
        -11    1    1    2    0    0  0.30525688186E+02 -0.10128463045E+02  0.27966358329E+02  0.42620659323E+02  0.00000000000E+00 0.  1.
         11    1    1    2    0    0 -0.41966773888E+02 -0.28263623647E+02  0.21120537765E+03  0.21718138521E+03  0.00000000000E+00 0. -1.
</event>
<event>
 7    1  0.2807557E-009  0.1538571E+03  0.7561462E-02  0.1195812E+00
          3   -1    0    0  501    0  0.00000000000E+00  0.00000000000E+00  0.28674478074E+03  0.28674478074E+03  0.00000000000E+00 0. -1.
         -3   -1    0    0    0  501 -0.00000000000E+00 -0.00000000000E+00 -0.93755504097E+02  0.93755504097E+02  0.00000000000E+00 0.  1.
         25    2    1    2    0    0  0.11497895375E+03 -0.40674303179E+02  0.11462629677E+03  0.20895378631E+03  0.12509171900E+03 0.  0.
          5    1    3    3  502    0  0.13705067531E+02  0.37672661590E+02  0.55246944286E+01  0.40682342064E+02  0.41800000000E+01 0.  1.
         -5    1    3    3    0  502  0.10127388621E+03 -0.78346964768E+02  0.10910160234E+03  0.16827144425E+03  0.41800000000E+01 0.  1.
        -11    1    1    2    0    0 -0.47357021728E+02 -0.17107716298E+02 -0.37511309901E+01  0.50491904773E+02  0.00000000000E+00 0.  1.
         11    1    1    2    0    0 -0.67621932018E+02  0.57782019477E+02  0.82114110868E+02  0.12105459375E+03  0.00000000000E+00 0. -1.
</event>
<event>
 7    1  0.2723366E-009  0.9746448E+02  0.7561462E-02  0.1285720E+00
          1   -1    0    0  501    0  0.00000000000E+00  0.00000000000E+00  0.72451889930E+02  0.72451889930E+02  0.00000000000E+00 0. -1.
         -1   -1    0    0    0  501 -0.00000000000E+00 -0.00000000000E+00 -0.25034061950E+03  0.25034061950E+03  0.00000000000E+00 0.  1.
         25    2    1    2    0    0  0.41308886925E+02 -0.54534514219E+02 -0.14858383775E+03  0.20592248347E+03  0.12508587042E+03 0.  0.
          5    1    3    3  502    0  0.69705515079E+02 -0.21480399464E+02 -0.29047936424E+02  0.78622651978E+02  0.41800000000E+01 0. -1.
         -5    1    3    3    0  502 -0.28396628153E+02 -0.33054114755E+02 -0.11953590132E+03  0.12729983149E+03  0.41800000000E+01 0. -1.
        -11    1    1    2    0    0 -0.39156172687E+02  0.20892313218E+02 -0.57699771242E+02  0.72793943515E+02  0.00000000000E+00 0.  1.
         11    1    1    2    0    0 -0.21527142382E+01  0.33642201001E+02  0.28394879417E+02  0.44076082447E+02  0.00000000000E+00 0. -1.
</event>
<event>
 7    1  0.2723366E-009  0.9084392E+02  0.7561462E-02  0.1300821E+00
         -2   -1    0    0    0  501 -0.00000000000E+00  0.00000000000E+00  0.50397796734E+02  0.50397796734E+02  0.00000000000E+00 0.  1.
          2   -1    0    0  501    0  0.00000000000E+00 -0.00000000000E+00 -0.25876845162E+03  0.25876845162E+03  0.00000000000E+00 0. -1.
         25    2    1    2    0    0  0.97398295436E+01  0.67893781879E+01 -0.76904129279E+02  0.14731977864E+03  0.12509161500E+03 0.  0.
          5    1    3    3  502    0  0.61673262987E+02 -0.39827961018E+01 -0.70318699772E+02  0.93710436825E+02  0.41800000000E+01 0. -1.
         -5    1    3    3    0  502 -0.51933433443E+02  0.10772174290E+02 -0.65854295066E+01  0.53609341816E+02  0.41800000000E+01 0. -1.
        -11    1    1    2    0    0 -0.34273330316E+02  0.11269132037E+02 -0.12578651477E+03  0.13085832723E+03  0.00000000000E+00 0. -1.
         11    1    1    2    0    0  0.24533500773E+02 -0.18058510225E+02 -0.56800108439E+01  0.30988142489E+02  0.00000000000E+00 0.  1.
</event>
<event>
 7    1  0.2723366E-009  0.9764559E+02  0.7561462E-02  0.1285326E+00
         -4   -1    0    0    0  501 -0.00000000000E+00  0.00000000000E+00  0.67804892907E+02  0.67804892907E+02  0.00000000000E+00 0. -1.
          4   -1    0    0  501    0  0.00000000000E+00 -0.00000000000E+00 -0.24299027371E+03  0.24299027371E+03  0.00000000000E+00 0.  1.
         25    2    1    2    0    0  0.52039147604E+02  0.46139199325E+02 -0.11013998742E+03  0.18059691415E+03  0.12509008743E+03 0.  0.
          5    1    3    3  502    0 -0.24244815713E+02 -0.12227419528E+02  0.76812805294E+01  0.28527098483E+02  0.41800000000E+01 0. -1.
         -5    1    3    3    0  502  0.76283963317E+02  0.58366618853E+02 -0.11782126795E+03  0.15206981567E+03  0.41800000000E+01 0. -1.
        -11    1    1    2    0    0 -0.44517384572E+02 -0.29471367135E+02 -0.86722121474E+02  0.10183852593E+03  0.00000000000E+00 0.  1.
         11    1    1    2    0    0 -0.75217630324E+01 -0.16667832190E+02  0.21676728089E+02  0.28359726544E+02  0.00000000000E+00 0. -1.
</event>
<event>
 7    1  0.2723366E-009  0.2846624E+03  0.7561462E-02  0.1093169E+00
         -2   -1    0    0    0  501 -0.00000000000E+00  0.00000000000E+00  0.49808132411E+02  0.49808132411E+02  0.00000000000E+00 0. -1.
          2   -1    0    0  501    0  0.00000000000E+00 -0.00000000000E+00 -0.18178972322E+04  0.18178972322E+04  0.00000000000E+00 0.  1.
         25    2    1    2    0    0  0.26919015233E+03  0.38542976725E+02 -0.69108176434E+03  0.75312070527E+03  0.12509153667E+03 0.  0.
          5    1    3    3  502    0 -0.68073907586E+01 -0.11613190338E+02 -0.72990359744E+02  0.74338898124E+02  0.41800000000E+01 0.  1.
         -5    1    3    3    0  502  0.27599754309E+03  0.50156167063E+02 -0.61809140459E+03  0.67878180715E+03  0.41800000000E+01 0.  1.
        -11    1    1    2    0    0 -0.22300296710E+03 -0.16810175242E+02 -0.97741673894E+03  0.10026746167E+04  0.00000000000E+00 0.  1.
         11    1    1    2    0    0 -0.46187185226E+02 -0.21732801484E+02 -0.99590596533E+02  0.11191004270E+03  0.00000000000E+00 0. -1.
</event>
<event>
 7    1  0.2723366E-009  0.8451478E+02  0.7561462E-02  0.1316706E+00
          1   -1    0    0  501    0  0.00000000000E+00  0.00000000000E+00  0.31614676463E+02  0.31614676463E+02  0.00000000000E+00 0. -1.
         -1   -1    0    0    0  501 -0.00000000000E+00 -0.00000000000E+00 -0.50968187475E+03  0.50968187475E+03  0.00000000000E+00 0.  1.
         25    2    1    2    0    0  0.51064506200E+02  0.70753489090E+01 -0.17996065039E+03  0.22514702414E+03  0.12509077678E+03 0.  0.
          5    1    3    3  502    0  0.55757330807E+02  0.15197016153E+02 -0.14980324421E+02  0.59847403940E+02  0.41800000000E+01 0. -1.
         -5    1    3    3    0  502 -0.46928246063E+01 -0.81216672437E+01 -0.16498032597E+03  0.16529962020E+03  0.41800000000E+01 0. -1.
        -11    1    1    2    0    0 -0.25599208415E+01 -0.41347876559E+02 -0.79851820642E+02  0.89958397888E+02  0.00000000000E+00 0. -1.
         11    1    1    2    0    0 -0.48504585359E+02  0.34272527650E+02 -0.21825472725E+03  0.22619112918E+03  0.00000000000E+00 0.  1.
</event>
<event>
 7    1  0.2723366E-009  0.1066931E+03  0.7561462E-02  0.1266819E+00
          2   -1    0    0  501    0  0.00000000000E+00  0.00000000000E+00  0.58142265608E+02  0.58142265608E+02  0.00000000000E+00 0. -1.
         -2   -1    0    0    0  501 -0.00000000000E+00 -0.00000000000E+00 -0.20337565802E+03  0.20337565802E+03  0.00000000000E+00 0.  1.
         25    2    1    2    0    0 -0.29085230709E+01  0.14094800381E+02 -0.86029837005E+02  0.15249861157E+03  0.12509025050E+03 0.  0.
          5    1    3    3  502    0 -0.33489981330E+02  0.60377094260E+02 -0.37531872386E+02  0.78696163855E+02  0.41800000000E+01 0. -1.
         -5    1    3    3    0  502  0.30581458259E+02 -0.46282293879E+02 -0.48497964620E+02  0.73802447712E+02  0.41800000000E+01 0. -1.
        -11    1    1    2    0    0 -0.24944722999E+01  0.37061480403E+02 -0.11554539283E+02  0.38900939574E+02  0.00000000000E+00 0. -1.
         11    1    1    2    0    0  0.54029953708E+01 -0.51156280784E+02 -0.47649016121E+02  0.70118372484E+02  0.00000000000E+00 0.  1.
</event>
<event>
 7    1  0.2723366E-009  0.1105457E+03  0.7561462E-02  0.1259563E+00
          1   -1    0    0  501    0  0.00000000000E+00  0.00000000000E+00  0.50710071815E+02  0.50710071815E+02  0.00000000000E+00 0.  1.
         -1   -1    0    0    0  501 -0.00000000000E+00 -0.00000000000E+00 -0.28799437003E+03  0.28799437003E+03  0.00000000000E+00 0. -1.
         25    2    1    2    0    0 -0.42051247624E+02 -0.27220406882E+02 -0.15730767469E+03  0.20713046528E+03  0.12509223459E+03 0.  0.
          5    1    3    3  502    0  0.36836838318E+02 -0.13968370153E+02 -0.10299267605E+03  0.11034958877E+03  0.41800000000E+01 0.  1.
         -5    1    3    3    0  502 -0.78888085942E+02 -0.13252036729E+02 -0.54314998633E+02  0.96780876508E+02  0.41800000000E+01 0.  1.
        -11    1    1    2    0    0  0.13239622539E+02  0.57835211192E+02 -0.30708438676E+02  0.66807241108E+02  0.00000000000E+00 0.  1.
         11    1    1    2    0    0  0.28811625084E+02 -0.30614804310E+02 -0.49268184855E+02  0.64766735458E+02  0.00000000000E+00 0. -1.
</event>
<event>
 7    1  0.2723366E-009  0.7064296E+02  0.7561462E-02  0.1357920E+00
          1   -1    0    0  501    0  0.00000000000E+00  0.00000000000E+00  0.70713735844E+03  0.70713735844E+03  0.00000000000E+00 0. -1.
         -1   -1    0    0    0  501 -0.00000000000E+00 -0.00000000000E+00 -0.19022449040E+02  0.19022449040E+02  0.00000000000E+00 0.  1.
         25    2    1    2    0    0  0.22149030915E+02  0.29537375950E+02  0.34461096043E+03  0.36846766248E+03  0.12509463655E+03 0.  0.
          5    1    3    3  502    0 -0.11031093457E+02  0.71383544738E+01  0.32201155112E+03  0.32230661269E+03  0.41800000000E+01 0. -1.
         -5    1    3    3    0  502  0.33180124372E+02  0.22399021476E+02  0.22599409310E+02  0.46161049788E+02  0.41800000000E+01 0. -1.
        -11    1    1    2    0    0  0.24028832969E+02  0.10411325982E+02  0.38022117336E+02  0.46167758547E+02  0.00000000000E+00 0.  1.
         11    1    1    2    0    0 -0.46177863883E+02 -0.39948701932E+02  0.30548183163E+03  0.31152438645E+03  0.00000000000E+00 0. -1.
</event>
<event>
 7    1  0.2723366E-009  0.1085105E+03  0.7561462E-02  0.1263353E+00
          1   -1    0    0  501    0  0.00000000000E+00  0.00000000000E+00  0.52021332865E+03  0.52021332865E+03  0.00000000000E+00 0. -1.
         -1   -1    0    0    0  501 -0.00000000000E+00 -0.00000000000E+00 -0.27918768959E+02  0.27918768959E+02  0.00000000000E+00 0.  1.
         25    2    1    2    0    0 -0.42532703280E+02  0.19178771347E+02  0.22804995466E+03  0.26425632242E+03  0.12509103086E+03 0.  0.
          5    1    3    3  502    0  0.34380512099E+02  0.75537756658E+01  0.17048690703E+02  0.39334582668E+02  0.41800000000E+01 0. -1.
         -5    1    3    3    0  502 -0.76913215378E+02  0.11624995681E+02  0.21100126395E+03  0.22492173975E+03  0.41800000000E+01 0. -1.
        -11    1    1    2    0    0  0.72208040219E+02 -0.13835238094E+02  0.19162208337E+03  0.20524238773E+03  0.00000000000E+00 0. -1.
         11    1    1    2    0    0 -0.29675336940E+02 -0.53435332531E+01  0.72622521661E+02  0.78633387454E+02  0.00000000000E+00 0.  1.
</event>
<event>
 7    1  0.2723366E-009  0.8927413E+02  0.7561462E-02  0.1304619E+00
          1   -1    0    0  501    0  0.00000000000E+00  0.00000000000E+00  0.26465107149E+03  0.26465107149E+03  0.00000000000E+00 0. -1.
         -1   -1    0    0    0  501 -0.00000000000E+00 -0.00000000000E+00 -0.89881040578E+02  0.89881040578E+02  0.00000000000E+00 0.  1.
         25    2    1    2    0    0  0.13980223149E+02  0.70995398193E+01  0.22022649900E+03  0.25374813395E+03  0.12507019835E+03 0.  0.
          5    1    3    3  502    0 -0.10957561225E+02  0.63297713505E+02  0.11607080094E+03  0.13272743467E+03  0.41800000000E+01 0.  1.
         -5    1    3    3    0  502  0.24937784375E+02 -0.56198173686E+02  0.10415569806E+03  0.12102069928E+03  0.41800000000E+01 0.  1.
        -11    1    1    2    0    0 -0.32973858746E+02 -0.29387923707E+01  0.15679801124E+02  0.36630151849E+02  0.00000000000E+00 0. -1.
         11    1    1    2    0    0  0.18993635597E+02 -0.41607474486E+01 -0.61136269212E+02  0.64153826274E+02  0.00000000000E+00 0.  1.
</event>
<event>
 7    1  0.2723366E-009  0.2008411E+03  0.7561462E-02  0.1149031E+00
          1   -1    0    0  501    0  0.00000000000E+00  0.00000000000E+00  0.76150371753E+03  0.76150371753E+03  0.00000000000E+00 0. -1.
         -1   -1    0    0    0  501 -0.00000000000E+00 -0.00000000000E+00 -0.60049273142E+02  0.60049273142E+02  0.00000000000E+00 0.  1.
         25    2    1    2    0    0  0.63549207420E+02 -0.17300062891E+03  0.33891738601E+03  0.40556238865E+03  0.12509251450E+03 0.  0.
          5    1    3    3  502    0 -0.29622013247E+02 -0.70583151690E+02  0.17433637278E+03  0.19044707466E+03  0.41800000000E+01 0.  1.
         -5    1    3    3    0  502  0.93171220667E+02 -0.10241747722E+03  0.16458101323E+03  0.21511531400E+03  0.41800000000E+01 0.  1.
        -11    1    1    2    0    0 -0.41742807876E+02  0.14569597669E+03  0.34515193064E+03  0.37696105217E+03  0.00000000000E+00 0. -1.
         11    1    1    2    0    0 -0.21806399544E+02  0.27304652229E+02  0.17385127740E+02  0.39029549843E+02  0.00000000000E+00 0.  1.
</event>
<event>
 7    1  0.2723366E-009  0.2257913E+03  0.7561462E-02  0.1129638E+00
          1   -1    0    0  501    0  0.00000000000E+00  0.00000000000E+00  0.97137440556E+02  0.97137440556E+02  0.00000000000E+00 0. -1.
         -1   -1    0    0    0  501 -0.00000000000E+00 -0.00000000000E+00 -0.58461733064E+03  0.58461733064E+03  0.00000000000E+00 0.  1.
         25    2    1    2    0    0  0.17695928914E+03  0.11313326743E+03 -0.29925654528E+03  0.38641415770E+03  0.12509074774E+03 0.  0.
          5    1    3    3  502    0  0.16142168734E+03  0.44334221759E+02 -0.16714526450E+03  0.23659563861E+03  0.41800000000E+01 0. -1.
         -5    1    3    3    0  502  0.15537601792E+02  0.68799045674E+02 -0.13211128078E+03  0.14981851909E+03  0.41800000000E+01 0. -1.
        -11    1    1    2    0    0 -0.11147030540E+03 -0.92387324018E+02 -0.17187319248E+03  0.22472525652E+03  0.00000000000E+00 0.  1.
         11    1    1    2    0    0 -0.65488983732E+02 -0.20745943415E+02 -0.16350152320E+02  0.70615356965E+02  0.00000000000E+00 0. -1.
</event>
<event>
 7    1  0.2723366E-009  0.1101338E+03  0.7561462E-02  0.1260322E+00
          2   -1    0    0  501    0  0.00000000000E+00  0.00000000000E+00  0.74090250817E+03  0.74090250817E+03  0.00000000000E+00 0. -1.
         -2   -1    0    0    0  501 -0.00000000000E+00 -0.00000000000E+00 -0.32692004521E+02  0.32692004521E+02  0.00000000000E+00 0.  1.
         25    2    1    2    0    0 -0.16866539873E+02 -0.61338992344E+02  0.60356879630E+03  0.61966870909E+03  0.12508822889E+03 0.  0.
          5    1    3    3  502    0  0.20398253110E+02  0.31959274397E+02  0.21144216630E+03  0.21485517457E+03  0.41800000000E+01 0. -1.
         -5    1    3    3    0  502 -0.37264792983E+02 -0.93298266741E+02  0.39212663000E+03  0.40481353452E+03  0.41800000000E+01 0. -1.
        -11    1    1    2    0    0  0.34773548307E+02  0.47859141149E+02  0.14322834838E+02  0.60867402205E+02  0.00000000000E+00 0.  1.
         11    1    1    2    0    0 -0.17907008433E+02  0.13479851195E+02  0.90318872515E+02  0.93058401403E+02  0.00000000000E+00 0. -1.
</event>
<event>
 7    1  0.2723366E-009  0.1459965E+03  0.7561462E-02  0.1205481E+00
          2   -1    0    0  501    0  0.00000000000E+00  0.00000000000E+00  0.14879495519E+03  0.14879495519E+03  0.00000000000E+00 0.  1.
         -2   -1    0    0    0  501 -0.00000000000E+00 -0.00000000000E+00 -0.15293773832E+03  0.15293773832E+03  0.00000000000E+00 0. -1.
         25    2    1    2    0    0  0.16433491072E+02  0.10244353928E+03  0.17162772275E+02  0.16342179838E+03  0.12508950821E+03 0.  0.
          5    1    3    3  502    0 -0.20645219748E+02  0.11610207910E+03  0.29842937876E+02  0.12171274054E+03  0.41800000000E+01 0.  1.
         -5    1    3    3    0  502  0.37078710820E+02 -0.13658539820E+02 -0.12680165601E+02  0.41709057838E+02  0.41800000000E+01 0.  1.
        -11    1    1    2    0    0 -0.50982753218E+02 -0.71932898070E+02 -0.15999406897E+01  0.88182440206E+02  0.00000000000E+00 0.  1.
         11    1    1    2    0    0  0.34549262147E+02 -0.30510641208E+02 -0.19705614709E+02  0.50128454922E+02  0.00000000000E+00 0. -1.
</event>
<event>
 7    1  0.2723366E-009  0.1632694E+03  0.7561462E-02  0.1185054E+00
         -2   -1    0    0    0  501 -0.00000000000E+00  0.00000000000E+00  0.22755227207E+02  0.22755227207E+02  0.00000000000E+00 0.  1.
          2   -1    0    0  501    0  0.00000000000E+00 -0.00000000000E+00 -0.13325761897E+04  0.13325761897E+04  0.00000000000E+00 0. -1.
         25    2    1    2    0    0 -0.81157979193E+02 -0.10633375433E+03 -0.77827601925E+03  0.79953159157E+03  0.12507485315E+03 0.  0.
          5    1    3    3  502    0 -0.80386999778E+02 -0.26934172179E+02 -0.22330738477E+03  0.23889575102E+03  0.41800000000E+01 0.  1.
         -5    1    3    3    0  502 -0.77097941490E+00 -0.79399582148E+02 -0.55496863448E+03  0.56063584055E+03  0.41800000000E+01 0.  1.
        -11    1    1    2    0    0  0.95344463505E+02  0.11180480491E+03 -0.49013651361E+03  0.51168807206E+03  0.00000000000E+00 0.  1.
         11    1    1    2    0    0 -0.14186484313E+02 -0.54710505809E+01 -0.41408429656E+02  0.44111753288E+02  0.00000000000E+00 0. -1.
</event>
<event>
 7    1  0.2723366E-009  0.1164220E+03  0.7561462E-02  0.1249119E+00
         -2   -1    0    0    0  501 -0.00000000000E+00  0.00000000000E+00  0.40167271397E+02  0.40167271397E+02  0.00000000000E+00 0.  1.
          2   -1    0    0  501    0  0.00000000000E+00 -0.00000000000E+00 -0.39596412782E+03  0.39596412782E+03  0.00000000000E+00 0. -1.
         25    2    1    2    0    0 -0.51835110169E+02  0.23068138226E+02 -0.14426690857E+03  0.19919780830E+03  0.12509119984E+03 0.  0.
          5    1    3    3  502    0  0.35061640336E+02 -0.19671215380E+02 -0.43453245643E+02  0.59345870071E+02  0.41800000000E+01 0.  1.
         -5    1    3    3    0  502 -0.86896750505E+02  0.42739353605E+02 -0.10081366292E+03  0.13985193823E+03  0.41800000000E+01 0.  1.
        -11    1    1    2    0    0  0.68485544449E+02 -0.33091193471E+02 -0.20082405132E+03  0.21474542247E+03  0.00000000000E+00 0. -1.
         11    1    1    2    0    0 -0.16650434280E+02  0.10023055245E+02 -0.10705896534E+02  0.22188168441E+02  0.00000000000E+00 0.  1.
</event>
<event>
 7    1  0.2723366E-009  0.1100612E+03  0.7561462E-02  0.1260457E+00
         -2   -1    0    0    0  501 -0.00000000000E+00  0.00000000000E+00  0.23827853853E+02  0.23827853853E+02  0.00000000000E+00 0.  1.
          2   -1    0    0  501    0  0.00000000000E+00 -0.00000000000E+00 -0.57722189195E+03  0.57722189195E+03  0.00000000000E+00 0. -1.
         25    2    1    2    0    0 -0.37285774481E+02  0.11588591539E+02 -0.25506462220E+03  0.28675788459E+03  0.12509036112E+03 0.  0.
          5    1    3    3  502    0  0.41099881752E+02 -0.61261667123E+01 -0.14176542012E+03  0.14778916382E+03  0.41800000000E+01 0.  1.
         -5    1    3    3    0  502 -0.78385656233E+02  0.17714758251E+02 -0.11329920208E+03  0.13896872078E+03  0.41800000000E+01 0.  1.
        -11    1    1    2    0    0  0.48792354257E+02 -0.42623875213E+02 -0.17535580689E+03  0.18694156194E+03  0.00000000000E+00 0.  1.
         11    1    1    2    0    0 -0.11506579776E+02  0.31035283674E+02 -0.12297360900E+03  0.12735029926E+03  0.00000000000E+00 0. -1.
</event>
<event>
 7    1  0.2723366E-009  0.7942175E+02  0.7561462E-02  0.1330700E+00
          1   -1    0    0  501    0  0.00000000000E+00  0.00000000000E+00  0.56551476240E+03  0.56551476240E+03  0.00000000000E+00 0. -1.
         -1   -1    0    0    0  501 -0.00000000000E+00 -0.00000000000E+00 -0.22244496534E+02  0.22244496534E+02  0.00000000000E+00 0.  1.
         25    2    1    2    0    0 -0.48820072436E+01 -0.22311039075E+02  0.35050953996E+03  0.37286233148E+03  0.12509102355E+03 0.  0.
          5    1    3    3  502    0  0.39640893137E+02 -0.34035342599E+02  0.29937145133E+03  0.30392522637E+03  0.41800000000E+01 0.  1.
         -5    1    3    3    0  502 -0.44522900381E+02  0.11724303524E+02  0.51138088629E+02  0.68937105104E+02  0.41800000000E+01 0.  1.
        -11    1    1    2    0    0 -0.20304369425E+02 -0.70700663554E+01  0.35768808163E+01  0.21795580570E+02  0.00000000000E+00 0.  1.
         11    1    1    2    0    0  0.25186376669E+02  0.29381105430E+02  0.18918384509E+03  0.19310134689E+03  0.00000000000E+00 0. -1.
</event>
<event>
 7    1  0.2723366E-009  0.8383175E+02  0.7561462E-02  0.1318516E+00
         -1   -1    0    0    0  501 -0.00000000000E+00  0.00000000000E+00  0.12338091420E+03  0.12338091420E+03  0.00000000000E+00 0.  1.
          1   -1    0    0  501    0  0.00000000000E+00 -0.00000000000E+00 -0.15463644815E+03  0.15463644815E+03  0.00000000000E+00 0. -1.
         25    2    1    2    0    0  0.60462470313E+02 -0.22461171543E+02 -0.73838647909E+02  0.15893166980E+03  0.12508763007E+03 0.  0.
          5    1    3    3  502    0  0.43845540304E+02 -0.46651761182E+02  0.14478869659E+02  0.65771789488E+02  0.41800000000E+01 0. -1.
         -5    1    3    3    0  502  0.16616930009E+02  0.24190589639E+02 -0.88317517568E+02  0.93159880310E+02  0.41800000000E+01 0. -1.
        -11    1    1    2    0    0 -0.42273658652E+02  0.32282049821E+02 -0.17142378860E+02  0.55884292153E+02  0.00000000000E+00 0. -1.
         11    1    1    2    0    0 -0.18188811661E+02 -0.98208782779E+01  0.59725492816E+02  0.63201400395E+02  0.00000000000E+00 0.  1.
</event>
<event>
 7    1  0.2723366E-009  0.9693404E+02  0.7561462E-02  0.1286879E+00
         -1   -1    0    0    0  501 -0.00000000000E+00  0.00000000000E+00  0.46121645177E+02  0.46121645177E+02  0.00000000000E+00 0.  1.
          1   -1    0    0  501    0  0.00000000000E+00 -0.00000000000E+00 -0.34950132601E+03  0.34950132601E+03  0.00000000000E+00 0. -1.
         25    2    1    2    0    0 -0.50343925083E+01  0.33993721952E+02 -0.25577645496E+03  0.28678917850E+03  0.12508205209E+03 0.  0.
          5    1    3    3  502    0  0.41018398113E+01 -0.46346972793E+02 -0.70248957412E+02  0.84363827523E+02  0.41800000000E+01 0.  1.
         -5    1    3    3    0  502 -0.91362323196E+01  0.80340694745E+02 -0.18552749754E+03  0.20242535098E+03  0.41800000000E+01 0.  1.
        -11    1    1    2    0    0 -0.60969272527E+01  0.14869542451E+02  0.19380957847E+02  0.25177318000E+02  0.00000000000E+00 0.  1.
         11    1    1    2    0    0  0.11131319761E+02 -0.48863264404E+02 -0.66984183724E+02  0.83656474687E+02  0.00000000000E+00 0. -1.
</event>
<event>
 7    1  0.2723366E-009  0.8313435E+02  0.7561462E-02  0.1320385E+00
          3   -1    0    0  501    0  0.00000000000E+00  0.00000000000E+00  0.22072353581E+03  0.22072353581E+03  0.00000000000E+00 0. -1.
         -3   -1    0    0    0  501 -0.00000000000E+00 -0.00000000000E+00 -0.87572261002E+02  0.87572261002E+02  0.00000000000E+00 0.  1.
         25    2    1    2    0    0  0.65507380816E+02  0.34898766867E+02  0.12265471600E+03  0.19026510560E+03  0.12508992838E+03 0.  0.
          5    1    3    3  502    0  0.53159574236E+02  0.11515501294E+02  0.14529813667E+03  0.15520170109E+03  0.41800000000E+01 0. -1.
         -5    1    3    3    0  502  0.12347806580E+02  0.23383265573E+02 -0.22643420666E+02  0.35063404507E+02  0.41800000000E+01 0. -1.
        -11    1    1    2    0    0 -0.47670441328E+02 -0.22292771244E+01  0.46222834903E+02  0.66437874134E+02  0.00000000000E+00 0. -1.
         11    1    1    2    0    0 -0.17836939487E+02 -0.32669489743E+02 -0.35726276097E+02  0.51592817078E+02  0.00000000000E+00 0.  1.
</event>
<event>
 7    1  0.2723366E-009  0.1657091E+03  0.7561462E-02  0.1182398E+00
         -2   -1    0    0    0  501 -0.00000000000E+00  0.00000000000E+00  0.47915910098E+02  0.47915910098E+02  0.00000000000E+00 0.  1.
          2   -1    0    0  501    0  0.00000000000E+00 -0.00000000000E+00 -0.75094731552E+03  0.75094731552E+03  0.00000000000E+00 0. -1.
         25    2    1    2    0    0 -0.11780544974E+03 -0.79152522774E+02 -0.50254272711E+03  0.53697334696E+03  0.12509171405E+03 0.  0.
          5    1    3    3  502    0  0.51560341393E+01 -0.30257206906E+02 -0.24925032824E+03  0.25116783589E+03  0.41800000000E+01 0.  1.
         -5    1    3    3    0  502 -0.12296148388E+03 -0.48895315869E+02 -0.25329239886E+03  0.28580551107E+03  0.41800000000E+01 0.  1.
        -11    1    1    2    0    0  0.27814956218E+02  0.72686287756E+02 -0.83392969454E+02  0.11406732912E+03  0.00000000000E+00 0.  1.
         11    1    1    2    0    0  0.89990493527E+02  0.64662350186E+01 -0.11709570886E+03  0.14782254955E+03  0.00000000000E+00 0. -1.
</event>
<event>
 7    1  0.2723366E-009  0.2268861E+03  0.7561462E-02  0.1128851E+00
          2   -1    0    0  501    0  0.00000000000E+00  0.00000000000E+00  0.11317876619E+03  0.11317876619E+03  0.00000000000E+00 0. -1.
         -2   -1    0    0    0  501 -0.00000000000E+00 -0.00000000000E+00 -0.51868992361E+03  0.51868992361E+03  0.00000000000E+00 0.  1.
         25    2    1    2    0    0  0.18066581048E+03  0.10801343957E+03 -0.13762979769E+03  0.28089234831E+03  0.12510600274E+03 0.  0.
          5    1    3    3  502    0  0.14480529006E+03  0.19389150176E+02 -0.61335831125E+02  0.15850573413E+03  0.41800000000E+01 0.  1.
         -5    1    3    3    0  502  0.35860520423E+02  0.88624289390E+02 -0.76293966563E+02  0.12238661417E+03  0.41800000000E+01 0.  1.
        -11    1    1    2    0    0 -0.10236815420E+03 -0.75212217940E+02 -0.95826965977E+02  0.15911921358E+03  0.00000000000E+00 0. -1.
         11    1    1    2    0    0 -0.78297656282E+02 -0.32801221626E+02 -0.17205439376E+03  0.19185712792E+03  0.00000000000E+00 0.  1.
</event>
<event>
 7    1  0.2723366E-009  0.2059446E+03  0.7561462E-02  0.1144818E+00
          2   -1    0    0  501    0  0.00000000000E+00  0.00000000000E+00  0.47415156612E+03  0.47415156612E+03  0.00000000000E+00 0. -1.
         -2   -1    0    0    0  501 -0.00000000000E+00 -0.00000000000E+00 -0.99762218542E+02  0.99762218542E+02  0.00000000000E+00 0.  1.
         25    2    1    2    0    0  0.16172952994E+03 -0.95428705920E+02  0.18825568986E+03  0.29385570606E+03  0.12509153628E+03 0.  0.
          5    1    3    3  502    0  0.12355306666E+03 -0.26112871457E+01  0.86726499132E+02  0.15103356300E+03  0.41800000000E+01 0.  1.
         -5    1    3    3    0  502  0.38176463283E+02 -0.92817418774E+02  0.10152919073E+03  0.14282214306E+03  0.41800000000E+01 0.  1.
        -11    1    1    2    0    0 -0.64552549291E+02  0.37376988427E+02  0.16942962504E+02  0.76492711171E+02  0.00000000000E+00 0.  1.
         11    1    1    2    0    0 -0.97176980651E+02  0.58051717493E+02  0.16919069521E+03  0.20356536743E+03  0.00000000000E+00 0. -1.
</event>
<event>
 7    1  0.2723366E-009  0.1853191E+03  0.7561462E-02  0.1162752E+00
         -2   -1    0    0    0  501 -0.00000000000E+00  0.00000000000E+00  0.83539358516E+02  0.83539358516E+02  0.00000000000E+00 0.  1.
          2   -1    0    0  501    0  0.00000000000E+00 -0.00000000000E+00 -0.56869924687E+03  0.56869924687E+03  0.00000000000E+00 0. -1.
         25    2    1    2    0    0 -0.12810425372E+03  0.10879352544E+03 -0.12427866102E+03  0.24359878752E+03  0.12509377562E+03 0.  0.
          5    1    3    3  502    0 -0.58454317550E+02  0.10460686986E+03 -0.12565557200E+03  0.17368448300E+03  0.41800000000E+01 0. -1.
         -5    1    3    3    0  502 -0.69649936165E+02  0.41866555840E+01  0.13769109796E+01  0.69914304521E+02  0.41800000000E+01 0. -1.
        -11    1    1    2    0    0  0.79635340296E+02 -0.24014638468E+02 -0.23522316794E+03  0.24949635072E+03  0.00000000000E+00 0. -1.
         11    1    1    2    0    0  0.48468913419E+02 -0.84778886973E+02 -0.12565805940E+03  0.15914346715E+03  0.00000000000E+00 0.  1.
</event>
<event>
 7    1  0.2723366E-009  0.1139024E+03  0.7561462E-02  0.1253509E+00
          2   -1    0    0  501    0  0.00000000000E+00  0.00000000000E+00  0.54405686069E+03  0.54405686069E+03  0.00000000000E+00 0. -1.
         -2   -1    0    0    0  501 -0.00000000000E+00 -0.00000000000E+00 -0.38931252519E+02  0.38931252519E+02  0.00000000000E+00 0.  1.
         25    2    1    2    0    0 -0.96824241169E+02  0.40060987795E+01  0.27074930024E+03  0.31359855806E+03  0.12509152461E+03 0.  0.
          5    1    3    3  502    0 -0.62999246736E+02  0.42109922272E+02  0.24474669147E+03  0.25624317753E+03  0.41800000000E+01 0. -1.
         -5    1    3    3    0  502 -0.33824994433E+02 -0.38103823492E+02  0.26002608772E+02  0.57355380533E+02  0.41800000000E+01 0. -1.
        -11    1    1    2    0    0  0.69852064491E+02  0.97218827970E+01  0.60562167906E+02  0.92960217836E+02  0.00000000000E+00 0.  1.
         11    1    1    2    0    0  0.26972176678E+02 -0.13727981576E+02  0.17381414002E+03  0.17642933731E+03  0.00000000000E+00 0. -1.
</event>
<event>
 7    1  0.2723366E-009  0.1065601E+03  0.7561462E-02  0.1267076E+00
          2   -1    0    0  501    0  0.00000000000E+00  0.00000000000E+00  0.20992067711E+03  0.20992067711E+03  0.00000000000E+00 0.  1.
         -2   -1    0    0    0  501 -0.00000000000E+00 -0.00000000000E+00 -0.71873844464E+02  0.71873844464E+02  0.00000000000E+00 0. -1.
         25    2    1    2    0    0 -0.29076318413E+02 -0.47908977003E+02  0.61413386191E+02  0.15020077867E+03  0.12509183642E+03 0.  0.
          5    1    3    3  502    0 -0.12669844724E+02 -0.90316529485E+02  0.43794269050E+02  0.10125715217E+03  0.41800000000E+01 0. -1.
         -5    1    3    3    0  502 -0.16406473689E+02  0.42407552482E+02  0.17619117140E+02  0.48943626503E+02  0.41800000000E+01 0. -1.
        -11    1    1    2    0    0  0.41839509629E+02  0.21980901672E+02 -0.25204645076E+01  0.47329244085E+02  0.00000000000E+00 0. -1.
         11    1    1    2    0    0 -0.12763191216E+02  0.25928075331E+02  0.79153910961E+02  0.84264498817E+02  0.00000000000E+00 0.  1.
</event>
<event>
 7    1  0.2723366E-009  0.1073205E+03  0.7561462E-02  0.1265614E+00
         -1   -1    0    0    0  501 -0.00000000000E+00  0.00000000000E+00  0.14426464911E+02  0.14426464911E+02  0.00000000000E+00 0.  1.
          1   -1    0    0  501    0  0.00000000000E+00 -0.00000000000E+00 -0.88606713158E+03  0.88606713158E+03  0.00000000000E+00 0. -1.
         25    2    1    2    0    0 -0.73061851874E+01  0.26992051916E+02 -0.54312816879E+03  0.55804771593E+03  0.12508834604E+03 0.  0.
          5    1    3    3  502    0 -0.49886394945E+02 -0.23376534525E+02 -0.33942615204E+03  0.34389344259E+03  0.41800000000E+01 0.  1.
         -5    1    3    3    0  502  0.42580209757E+02  0.50368586441E+02 -0.20370201674E+03  0.21415427334E+03  0.41800000000E+01 0.  1.
        -11    1    1    2    0    0  0.34007847243E+02  0.19856029057E+02 -0.18481549002E+03  0.18896444352E+03  0.00000000000E+00 0. -1.
         11    1    1    2    0    0 -0.26701662056E+02 -0.46848080973E+02 -0.14369700785E+03  0.15348143703E+03  0.00000000000E+00 0.  1.
</event>
<event>
 7    1  0.2723366E-009  0.1026982E+03  0.7561462E-02  0.1274722E+00
         -1   -1    0    0    0  501 -0.00000000000E+00  0.00000000000E+00  0.22814850981E+03  0.22814850981E+03  0.00000000000E+00 0.  1.
          1   -1    0    0  501    0  0.00000000000E+00 -0.00000000000E+00 -0.92133831572E+02  0.92133831572E+02  0.00000000000E+00 0. -1.
         25    2    1    2    0    0 -0.33959911796E+02 -0.71605202772E+02  0.13328000558E+02  0.14867852412E+03  0.12508831785E+03 0.  0.
          5    1    3    3  502    0 -0.54673124698E+02 -0.58316466760E+02 -0.40231323681E+02  0.89587904679E+02  0.41800000000E+01 0. -1.
         -5    1    3    3    0  502  0.20713212902E+02 -0.13288736012E+02  0.53559324239E+02  0.59090619446E+02  0.41800000000E+01 0. -1.
        -11    1    1    2    0    0 -0.61849091726E+01  0.57508398088E+02  0.21275983389E+02  0.61629022557E+02  0.00000000000E+00 0.  1.
         11    1    1    2    0    0  0.40144820968E+02  0.14096804684E+02  0.10141069429E+03  0.10997479470E+03  0.00000000000E+00 0. -1.
</event>
<event>
 7    1  0.2723366E-009  0.1229278E+03  0.7561462E-02  0.1238344E+00
          1   -1    0    0  501    0  0.00000000000E+00  0.00000000000E+00  0.62187216069E+03  0.62187216069E+03  0.00000000000E+00 0. -1.
         -1   -1    0    0    0  501 -0.00000000000E+00 -0.00000000000E+00 -0.26478892663E+02  0.26478892663E+02  0.00000000000E+00 0.  1.
         25    2    1    2    0    0 -0.45355369509E+02  0.52069790018E+02  0.32504753747E+03  0.35506659327E+03  0.12509201198E+03 0.  0.
          5    1    3    3  502    0 -0.86364506959E+02  0.49676136516E+02  0.20194943737E+03  0.22522787184E+03  0.41800000000E+01 0. -1.
         -5    1    3    3    0  502  0.41009137450E+02  0.23936535015E+01  0.12309810011E+03  0.12983872143E+03  0.41800000000E+01 0. -1.
        -11    1    1    2    0    0 -0.13998137898E+02 -0.42473205640E+02  0.17451772080E+03  0.18015647625E+03  0.00000000000E+00 0. -1.
         11    1    1    2    0    0  0.59353507408E+02 -0.95965843779E+01  0.95828009750E+02  0.11312798383E+03  0.00000000000E+00 0.  1.
</event>
<event>
 7    1  0.2723366E-009  0.9347180E+02  0.7561462E-02  0.1294656E+00
         -2   -1    0    0    0  501 -0.00000000000E+00  0.00000000000E+00  0.76566116052E+02  0.76566116052E+02  0.00000000000E+00 0. -1.
          2   -1    0    0  501    0  0.00000000000E+00 -0.00000000000E+00 -0.32692054605E+03  0.32692054605E+03  0.00000000000E+00 0.  1.
         25    2    1    2    0    0  0.54738684389E+02 -0.36896232401E+01 -0.26025681513E+03  0.29392178826E+03  0.12508585413E+03 0.  0.
          5    1    3    3  502    0  0.73199149880E+02 -0.29450201709E+02 -0.24697459604E+03  0.25930552137E+03  0.41800000000E+01 0.  1.
         -5    1    3    3    0  502 -0.18460465491E+02  0.25760578469E+02 -0.13282219082E+02  0.34616266883E+02  0.41800000000E+01 0.  1.
        -11    1    1    2    0    0 -0.55620318340E+02  0.20390966084E+02  0.42512665120E+02  0.72915965369E+02  0.00000000000E+00 0. -1.
         11    1    1    2    0    0  0.88163395031E+00 -0.16701342844E+02 -0.32610279990E+02  0.36648908472E+02  0.00000000000E+00 0.  1.
</event>
<event>
 7    1  0.2723366E-009  0.9091275E+02  0.7561462E-02  0.1300656E+00
         -1   -1    0    0    0  501 -0.00000000000E+00  0.00000000000E+00  0.16145124997E+03  0.16145124997E+03  0.00000000000E+00 0.  1.
          1   -1    0    0  501    0  0.00000000000E+00 -0.00000000000E+00 -0.10301593698E+03  0.10301593698E+03  0.00000000000E+00 0. -1.
         25    2    1    2    0    0 -0.35514778221E+01 -0.66355318335E+02  0.10115426042E+02  0.14200155361E+03  0.12508588297E+03 0.  0.
          5    1    3    3  502    0 -0.20643686208E+02 -0.34863876692E+02  0.64771221495E+02  0.76514281100E+02  0.41800000000E+01 0. -1.
         -5    1    3    3    0  502  0.17092208386E+02 -0.31491441644E+02 -0.54655795453E+02  0.65487272511E+02  0.41800000000E+01 0. -1.
        -11    1    1    2    0    0  0.41379680911E+02  0.46679566221E+02  0.49769989708E+02  0.79801702804E+02  0.00000000000E+00 0.  1.
         11    1    1    2    0    0 -0.37828203089E+02  0.19675752114E+02 -0.14501027592E+01  0.42663930529E+02  0.00000000000E+00 0. -1.
</event>
<event>
 7    1  0.2723366E-009  0.7991654E+02  0.7561462E-02  0.1329288E+00
         -1   -1    0    0    0  501 -0.00000000000E+00  0.00000000000E+00  0.21050282241E+03  0.21050282241E+03  0.00000000000E+00 0.  1.
          1   -1    0    0  501    0  0.00000000000E+00 -0.00000000000E+00 -0.47057698032E+02  0.47057698032E+02  0.00000000000E+00 0. -1.
         25    2    1    2    0    0  0.82203755843E+01 -0.83841728678E+01  0.11946637192E+03  0.17336966941E+03  0.12508780645E+03 0.  0.
          5    1    3    3  502    0 -0.14686445765E+02  0.36894947565E+02  0.11560643998E+03  0.12230801368E+03  0.41800000000E+01 0. -1.
         -5    1    3    3    0  502  0.22906821349E+02 -0.45279120433E+02  0.38599319343E+01  0.51061655731E+02  0.41800000000E+01 0. -1.
        -11    1    1    2    0    0 -0.10419044418E+02  0.37942773669E+02  0.36388531308E+02  0.53594176653E+02  0.00000000000E+00 0.  1.
         11    1    1    2    0    0  0.21986688341E+01 -0.29558600801E+02  0.75902211576E+01  0.30596674381E+02  0.00000000000E+00 0. -1.
</event>
<event>
 7    1  0.3627294E-009  0.9468330E+02  0.7561462E-02  0.1291891E+00
         -1   -1    0    0    0  501 -0.00000000000E+00  0.00000000000E+00  0.10720748803E+03  0.10720748803E+03  0.00000000000E+00 0.  1.
          1   -1    0    0  501    0  0.00000000000E+00 -0.00000000000E+00 -0.14424121827E+03  0.14424121827E+03  0.00000000000E+00 0. -1.
         25    2    1    2    0    0 -0.93455506049E+01 -0.39567267690E+02 -0.65177895953E+02  0.14679431393E+03  0.12508998558E+03 0.  0.
          5    1    3    3  502    0 -0.51646187524E+02 -0.57660482475E+02 -0.64091162575E+02  0.10058433996E+03  0.41800000000E+01 0.  1.
         -5    1    3    3    0  502  0.42300636919E+02  0.18093214784E+02 -0.10867333780E+01  0.46209973972E+02  0.41800000000E+01 0.  1.
        -11    1    1    2    0    0 -0.20980226431E+02  0.22846421809E+02  0.53426100644E+02  0.61777642562E+02  0.00000000000E+00 0.  1.
         11    1    1    2    0    0  0.30325777036E+02  0.16720845882E+02 -0.25281934938E+02  0.42876749807E+02  0.00000000000E+00 0. -1.
</event>
<event>
 7    1  0.2723366E-009  0.9506296E+02  0.7561462E-02  0.1291034E+00
          4   -1    0    0  501    0  0.00000000000E+00  0.00000000000E+00  0.20796394269E+03  0.20796394269E+03  0.00000000000E+00 0. -1.
         -4   -1    0    0    0  501 -0.00000000000E+00 -0.00000000000E+00 -0.59847504505E+02  0.59847504505E+02  0.00000000000E+00 0.  1.
         25    2    1    2    0    0  0.35979635438E+02  0.18351276816E+01  0.91352951007E+02  0.15903194179E+03  0.12509154645E+03 0.  0.
          5    1    3    3  502    0  0.68503529965E+02 -0.33035244823E+02  0.31579987608E+02  0.82455012192E+02  0.41800000000E+01 0.  1.
         -5    1    3    3    0  502 -0.32523894527E+02  0.34870372504E+02  0.59772963399E+02  0.76576929602E+02  0.41800000000E+01 0.  1.
        -11    1    1    2    0    0 -0.50306310904E+02 -0.71475408790E+01  0.71390842330E+02  0.87626848773E+02  0.00000000000E+00 0. -1.
         11    1    1    2    0    0  0.14326675466E+02  0.53124131974E+01 -0.14627355149E+02  0.21152656631E+02  0.00000000000E+00 0.  1.
</event>
<event>
 7    1  0.2723366E-009  0.1133012E+03  0.7561462E-02  0.1254576E+00
         -2   -1    0    0    0  501 -0.00000000000E+00  0.00000000000E+00  0.69174342040E+02  0.69174342040E+02  0.00000000000E+00 0.  1.
          2   -1    0    0  501    0  0.00000000000E+00 -0.00000000000E+00 -0.31861787249E+03  0.31861787249E+03  0.00000000000E+00 0. -1.
         25    2    1    2    0    0  0.78007420682E+02  0.54837347992E+02 -0.16892433353E+03  0.23081354302E+03  0.12508864365E+03 0.  0.
          5    1    3    3  502    0  0.66672041364E+02  0.50458276084E+02 -0.18915113416E+03  0.20684975871E+03  0.41800000000E+01 0.  1.
         -5    1    3    3    0  502  0.11335379318E+02  0.43790719080E+01  0.20226800630E+02  0.23963784317E+02  0.41800000000E+01 0.  1.
        -11    1    1    2    0    0 -0.33218455347E+02 -0.74155947205E+02 -0.29635735936E+02  0.86491890521E+02  0.00000000000E+00 0. -1.
         11    1    1    2    0    0 -0.44788965335E+02  0.19318599213E+02 -0.50883460986E+02  0.70486780982E+02  0.00000000000E+00 0.  1.
</event>
<event>
 7    1  0.2723366E-009  0.8230297E+02  0.7561462E-02  0.1322640E+00
         -2   -1    0    0    0  501 -0.00000000000E+00  0.00000000000E+00  0.19941222284E+02  0.19941222284E+02  0.00000000000E+00 0.  1.
          2   -1    0    0  501    0  0.00000000000E+00 -0.00000000000E+00 -0.62089879854E+03  0.62089879854E+03  0.00000000000E+00 0. -1.
         25    2    1    2    0    0 -0.20488221285E+01  0.10888952938E+02 -0.37106686264E+03  0.39174049930E+03  0.12508890947E+03 0.  0.
          5    1    3    3  502    0  0.39613812198E+02  0.70102531626E+01 -0.36311636523E+02  0.54354439683E+02  0.41800000000E+01 0.  1.
         -5    1    3    3    0  502 -0.41662634326E+02  0.38786997757E+01 -0.33475522611E+03  0.33738605961E+03  0.41800000000E+01 0.  1.
        -11    1    1    2    0    0 -0.39571087831E+02 -0.81308579522E+01 -0.17797988001E+03  0.18250703968E+03  0.00000000000E+00 0. -1.
         11    1    1    2    0    0  0.41619909960E+02 -0.27580949861E+01 -0.51910833608E+02  0.66592481849E+02  0.00000000000E+00 0.  1.
</event>
<event>
 7    1  0.2723366E-009  0.9191266E+02  0.7561462E-02  0.1298285E+00
          1   -1    0    0  501    0  0.00000000000E+00  0.00000000000E+00  0.19998952681E+02  0.19998952681E+02  0.00000000000E+00 0.  1.
         -1   -1    0    0    0  501 -0.00000000000E+00 -0.00000000000E+00 -0.64808581245E+03  0.64808581245E+03  0.00000000000E+00 0. -1.
         25    2    1    2    0    0 -0.10379375159E+02  0.18125143400E+02 -0.49784916984E+03  0.51374866100E+03  0.12509052131E+03 0.  0.
          5    1    3    3  502    0 -0.55737933097E+02  0.13766075592E+02 -0.11949724418E+03  0.13263968407E+03  0.41800000000E+01 0. -1.
         -5    1    3    3    0  502  0.45358557938E+02  0.43590678081E+01 -0.37835192566E+03  0.38110897694E+03  0.41800000000E+01 0. -1.
        -11    1    1    2    0    0  0.36474682921E+02 -0.34077532801E+02 -0.62297261371E+02  0.79828751151E+02  0.00000000000E+00 0.  1.
         11    1    1    2    0    0 -0.26095307762E+02  0.15952389400E+02 -0.67940428555E+02  0.74507352973E+02  0.00000000000E+00 0. -1.
</event>
<event>
 7    1  0.2723366E-009  0.1678283E+03  0.7561462E-02  0.1180132E+00
         -1   -1    0    0    0  501 -0.00000000000E+00  0.00000000000E+00  0.25122091652E+03  0.25122091652E+03  0.00000000000E+00 0.  1.
          1   -1    0    0  501    0  0.00000000000E+00 -0.00000000000E+00 -0.16481417478E+03  0.16481417478E+03  0.00000000000E+00 0. -1.
         25    2    1    2    0    0  0.47998704504E+02 -0.14170983279E+03  0.13060443586E+03  0.23471497091E+03  0.12509215226E+03 0.  0.
          5    1    3    3  502    0  0.70121869243E+02 -0.38208577876E+02  0.92199207322E+02  0.12204563982E+03  0.41800000000E+01 0.  1.
         -5    1    3    3    0  502 -0.22123164739E+02 -0.10350125492E+03  0.38405228535E+02  0.11266933108E+03  0.41800000000E+01 0.  1.
        -11    1    1    2    0    0 -0.22877576654E+02  0.78004413861E+02 -0.70854469714E+02  0.10783518894E+03  0.00000000000E+00 0.  1.
         11    1    1    2    0    0 -0.25121127849E+02  0.63705418933E+02  0.26656775590E+02  0.73484931453E+02  0.00000000000E+00 0. -1.
</event>
<event>
 7    1  0.2723366E-009  0.1047033E+03  0.7561462E-02  0.1270705E+00
         -2   -1    0    0    0  501 -0.00000000000E+00  0.00000000000E+00  0.35074528043E+02  0.35074528043E+02  0.00000000000E+00 0. -1.
          2   -1    0    0  501    0  0.00000000000E+00 -0.00000000000E+00 -0.34615587447E+03  0.34615587447E+03  0.00000000000E+00 0.  1.
         25    2    1    2    0    0  0.15358294296E+01 -0.81860151022E+01 -0.14612803204E+03  0.19253577907E+03  0.12508898775E+03 0.  0.
          5    1    3    3  502    0 -0.57543415140E+02  0.19208799151E+01 -0.10468359758E+03  0.11954523164E+03  0.41800000000E+01 0. -1.
         -5    1    3    3    0  502  0.59079244570E+02 -0.10106895017E+02 -0.41444434467E+02  0.72990547430E+02  0.41800000000E+01 0. -1.
        -11    1    1    2    0    0 -0.46286152884E+02  0.71433074440E+01 -0.81792073348E+02  0.94251674004E+02  0.00000000000E+00 0. -1.
         11    1    1    2    0    0  0.44750323454E+02  0.10427076582E+01 -0.83161241033E+02  0.94442949438E+02  0.00000000000E+00 0.  1.
</event>
<event>
 7    1  0.2723366E-009  0.1167362E+03  0.7561462E-02  0.1248581E+00
          1   -1    0    0  501    0  0.00000000000E+00  0.00000000000E+00  0.26314024543E+03  0.26314024543E+03  0.00000000000E+00 0. -1.
         -1   -1    0    0    0  501 -0.00000000000E+00 -0.00000000000E+00 -0.11961938517E+03  0.11961938517E+03  0.00000000000E+00 0.  1.
         25    2    1    2    0    0  0.78027207125E+02  0.69158945691E+02 -0.28003157291E+02  0.16523542832E+03  0.12508942854E+03 0.  0.
          5    1    3    3  502    0  0.86287318516E+02  0.63825303145E+02  0.25732274982E+02  0.11044814636E+03  0.41800000000E+01 0. -1.
         -5    1    3    3    0  502 -0.82601113907E+01  0.53336425462E+01 -0.53735432273E+02  0.54787281960E+02  0.41800000000E+01 0. -1.
        -11    1    1    2    0    0  0.48182699986E+01 -0.16560250532E+02  0.84882016317E+02  0.86616478325E+02  0.00000000000E+00 0. -1.
         11    1    1    2    0    0 -0.82845477124E+02 -0.52598695160E+02  0.86642001235E+02  0.13090772395E+03  0.00000000000E+00 0.  1.
</event>
<event>
 7    1  0.2723366E-009  0.1842972E+03  0.7561462E-02  0.1163708E+00
          2   -1    0    0  501    0  0.00000000000E+00  0.00000000000E+00  0.16925412867E+04  0.16925412867E+04  0.00000000000E+00 0. -1.
         -2   -1    0    0    0  501 -0.00000000000E+00 -0.00000000000E+00 -0.25140322351E+02  0.25140322351E+02  0.00000000000E+00 0.  1.
         25    2    1    2    0    0 -0.10446336819E+03  0.14159079471E+03  0.90481665351E+03  0.93021573774E+03  0.12509034264E+03 0.  0.
          5    1    3    3  502    0 -0.91244558929E+02  0.72041234248E+02  0.76126230268E+03  0.77009952269E+03  0.41800000000E+01 0.  1.
         -5    1    3    3    0  502 -0.13218809260E+02  0.69549560459E+02  0.14355435084E+03  0.16011621505E+03  0.41800000000E+01 0. -1.
        -11    1    1    2    0    0 -0.86572789753E+00 -0.21864251307E+02  0.26791729011E+02  0.34591786791E+02  0.00000000000E+00 0.  1.
         11    1    1    2    0    0  0.10532909609E+03 -0.11972654340E+03  0.73579258183E+03  0.75287408453E+03  0.00000000000E+00 0. -1.
</event>
<event>
 7    1  0.2723366E-009  0.8113977E+02  0.7561462E-02  0.1325848E+00
         -2   -1    0    0    0  501 -0.00000000000E+00  0.00000000000E+00  0.93920222797E+02  0.93920222797E+02  0.00000000000E+00 0.  1.
          2   -1    0    0  501    0  0.00000000000E+00 -0.00000000000E+00 -0.27789689409E+03  0.27789689409E+03  0.00000000000E+00 0. -1.
         25    2    1    2    0    0 -0.14454838944E+02  0.62375005747E+02  0.16904154295E+02  0.14153417975E+03  0.12508632977E+03 0.  0.
          5    1    3    3  502    0  0.81743890039E+01  0.14257495389E+01  0.61748249869E+02  0.62443351602E+02  0.41800000000E+01 0. -1.
         -5    1    3    3    0  502 -0.22629227948E+02  0.60949256208E+02 -0.44844095575E+02  0.79090828152E+02  0.41800000000E+01 0. -1.
        -11    1    1    2    0    0 -0.22836393353E+02 -0.34102605203E+02 -0.16837259234E+03  0.17330267855E+03  0.00000000000E+00 0. -1.
         11    1    1    2    0    0  0.37291232297E+02 -0.28272400544E+02 -0.32508233246E+02  0.56980258577E+02  0.00000000000E+00 0.  1.
</event>
<event>
 7    1  0.2723366E-009  0.1158661E+03  0.7561462E-02  0.1250077E+00
          2   -1    0    0  501    0  0.00000000000E+00  0.00000000000E+00  0.12546506284E+02  0.12546506284E+02  0.00000000000E+00 0.  1.
         -2   -1    0    0    0  501 -0.00000000000E+00 -0.00000000000E+00 -0.11889230954E+04  0.11889230954E+04  0.00000000000E+00 0. -1.
         25    2    1    2    0    0  0.34523238574E+02  0.38382793241E+02 -0.76288829912E+03  0.77479673393E+03  0.12508528757E+03 0.  0.
          5    1    3    3  502    0  0.57108019150E+02 -0.22900495626E+02 -0.50422660081E+03  0.50798395242E+03  0.41800000000E+01 0.  1.
         -5    1    3    3    0  502 -0.22584780576E+02  0.61283288867E+02 -0.25866169830E+03  0.26681278151E+03  0.41800000000E+01 0.  1.
        -11    1    1    2    0    0 -0.62263842254E+02 -0.44090637522E+02 -0.32119739992E+03  0.33013412439E+03  0.00000000000E+00 0. -1.
         11    1    1    2    0    0  0.27740603680E+02  0.57078442812E+01 -0.92290890112E+02  0.96538743396E+02  0.00000000000E+00 0.  1.
</event>
<event>
 7    1  0.2723366E-009  0.1009823E+03  0.7561462E-02  0.1278244E+00
         -2   -1    0    0    0  501 -0.00000000000E+00  0.00000000000E+00  0.52941267153E+02  0.52941267153E+02  0.00000000000E+00 0.  1.
          2   -1    0    0  501    0  0.00000000000E+00 -0.00000000000E+00 -0.37220016311E+03  0.37220016311E+03  0.00000000000E+00 0. -1.
         25    2    1    2    0    0  0.21454046896E+02  0.55844741814E+02 -0.27503305614E+03  0.30801040085E+03  0.12509322023E+03 0.  0.
          5    1    3    3  502    0 -0.34287221358E+02  0.63944192073E+02 -0.96827471249E+02  0.12106818259E+03  0.41800000000E+01 0. -1.
         -5    1    3    3    0  502  0.55741268254E+02 -0.80994502590E+01 -0.17820558489E+03  0.18694221826E+03  0.41800000000E+01 0. -1.
        -11    1    1    2    0    0  0.11301301323E+02 -0.26576228087E+02 -0.63043504853E+02  0.69343340092E+02  0.00000000000E+00 0. -1.
         11    1    1    2    0    0 -0.32755348220E+02 -0.29268513727E+02  0.18817665038E+02  0.47787689317E+02  0.00000000000E+00 0.  1.
</event>
<event>
 7    1  0.2723366E-009  0.1410498E+03  0.7561462E-02  0.1211923E+00
          2   -1    0    0  501    0  0.00000000000E+00  0.00000000000E+00  0.13284621769E+03  0.13284621769E+03  0.00000000000E+00 0. -1.
         -2   -1    0    0    0  501 -0.00000000000E+00 -0.00000000000E+00 -0.22491523806E+03  0.22491523806E+03  0.00000000000E+00 0.  1.
         25    2    1    2    0    0 -0.12042457865E+03 -0.30793593090E+02  0.28856052705E+01  0.17636640538E+03  0.12508580139E+03 0.  0.
          5    1    3    3  502    0  0.53579521035E+01 -0.27085497326E+02 -0.35101191898E+02  0.44854184742E+02  0.41800000000E+01 0. -1.
         -5    1    3    3    0  502 -0.12578253076E+03 -0.37080957640E+01  0.37986797169E+02  0.13151222064E+03  0.41800000000E+01 0. -1.
        -11    1    1    2    0    0  0.56965118981E+02 -0.16645013363E+01 -0.94217891175E+02  0.11011269846E+03  0.00000000000E+00 0.  1.
         11    1    1    2    0    0  0.63459459671E+02  0.32458094427E+02 -0.73673446052E+00  0.71282351906E+02  0.00000000000E+00 0. -1.
</event>
<event>
 7    1  0.2723366E-009  0.1239653E+03  0.7561462E-02  0.1236695E+00
         -2   -1    0    0    0  501 -0.00000000000E+00  0.00000000000E+00  0.56938924323E+02  0.56938924323E+02  0.00000000000E+00 0.  1.
          2   -1    0    0  501    0  0.00000000000E+00 -0.00000000000E+00 -0.42011891477E+03  0.42011891477E+03  0.00000000000E+00 0. -1.
         25    2    1    2    0    0  0.53175871539E+02  0.91331466271E+02 -0.23541325172E+03  0.28676729592E+03  0.12508786064E+03 0.  0.
          5    1    3    3  502    0  0.31351260957E+02  0.43101724057E+01 -0.17648236917E+03  0.17934597341E+03  0.41800000000E+01 0.  1.
         -5    1    3    3    0  502  0.21824610582E+02  0.87021293866E+02 -0.58930882554E+02  0.10742132252E+03  0.41800000000E+01 0.  1.
        -11    1    1    2    0    0 -0.59803257995E+02 -0.34625407409E+02 -0.11106060419E+03  0.13080445829E+03  0.00000000000E+00 0. -1.
         11    1    1    2    0    0  0.66273864558E+01 -0.56706058862E+02 -0.16706134530E+02  0.59486084876E+02  0.00000000000E+00 0.  1.
</event>
<event>
 7    1  0.2723366E-009  0.7957790E+02  0.7561462E-02  0.1330254E+00
         -1   -1    0    0    0  501 -0.00000000000E+00  0.00000000000E+00  0.38581074821E+03  0.38581074821E+03  0.00000000000E+00 0.  1.
          1   -1    0    0  501    0  0.00000000000E+00 -0.00000000000E+00 -0.43349842426E+02  0.43349842426E+02  0.00000000000E+00 0. -1.
         25    2    1    2    0    0  0.56063592709E+02  0.32693429765E+02  0.23431573467E+03  0.27343180151E+03  0.12509636201E+03 0.  0.
          5    1    3    3  502    0 -0.10411765489E+02 -0.86093500794E+01  0.17390264745E+03  0.17447672899E+03  0.41800000000E+01 0. -1.
         -5    1    3    3    0  502  0.66475358197E+02  0.41302779845E+02  0.60413087217E+02  0.98955072520E+02  0.41800000000E+01 0. -1.
        -11    1    1    2    0    0 -0.43798824302E+02 -0.17626133706E+02  0.14033432133E+01  0.47233324801E+02  0.00000000000E+00 0. -1.
         11    1    1    2    0    0 -0.12264768407E+02 -0.15067296060E+02  0.10674182790E+03  0.10849546432E+03  0.00000000000E+00 0.  1.
</event>
<event>
 7    1  0.2723366E-009  0.1474536E+03  0.7561462E-02  0.1203637E+00
         -3   -1    0    0    0  501 -0.00000000000E+00  0.00000000000E+00  0.85259132379E+02  0.85259132379E+02  0.00000000000E+00 0.  1.
          3   -1    0    0  501    0  0.00000000000E+00 -0.00000000000E+00 -0.63363615882E+03  0.63363615882E+03  0.00000000000E+00 0. -1.
         25    2    1    2    0    0 -0.85415622870E+02 -0.99113078078E+02 -0.52777415113E+03  0.55795419726E+03  0.12509236891E+03 0.  0.
          5    1    3    3  502    0 -0.32981268757E+01  0.18544300915E+02 -0.12330930196E+02  0.22897444766E+02  0.41800000000E+01 0. -1.
         -5    1    3    3    0  502 -0.82117495995E+02 -0.11765737899E+03 -0.51544322094E+03  0.53505675249E+03  0.41800000000E+01 0. -1.
        -11    1    1    2    0    0  0.50214991739E+02  0.44484346436E+02  0.34771827142E+02  0.75561117223E+02  0.00000000000E+00 0.  1.
         11    1    1    2    0    0  0.35200631131E+02  0.54628731642E+02 -0.55374702454E+02  0.85379976720E+02  0.00000000000E+00 0. -1.
</event>
<event>
 7    1  0.3209803E-009  0.1078421E+03  0.7561462E-02  0.1264619E+00
         -3   -1    0    0    0  501 -0.00000000000E+00  0.00000000000E+00  0.30703662307E+02  0.30703662307E+02  0.00000000000E+00 0.  1.
          3   -1    0    0  501    0  0.00000000000E+00 -0.00000000000E+00 -0.64882736852E+03  0.64882736852E+03  0.00000000000E+00 0. -1.
         25    2    1    2    0    0 -0.84579167174E+02  0.30063085175E+02 -0.35261873401E+03  0.38476701019E+03  0.12509298919E+03 0.  0.
          5    1    3    3  502    0 -0.91045676359E+02  0.43083415530E+02 -0.35536970166E+03  0.36939219420E+03  0.41800000000E+01 0.  1.
         -5    1    3    3    0  502  0.64665091847E+01 -0.13020330355E+02  0.27509676543E+01  0.15374815986E+02  0.41800000000E+01 0.  1.
        -11    1    1    2    0    0  0.13798755669E+02 -0.25284166790E+02 -0.11461016439E+02  0.31000800733E+02  0.00000000000E+00 0.  1.
         11    1    1    2    0    0  0.70780411505E+02 -0.47789183847E+01 -0.25404395577E+03  0.26376321991E+03  0.00000000000E+00 0. -1.
</event>
<event>
 7    1  0.2723366E-009  0.1386840E+03  0.7561462E-02  0.1215111E+00
          2   -1    0    0  501    0  0.00000000000E+00  0.00000000000E+00  0.49468041365E+03  0.49468041365E+03  0.00000000000E+00 0. -1.
         -2   -1    0    0    0  501 -0.00000000000E+00 -0.00000000000E+00 -0.56187879127E+02  0.56187879127E+02  0.00000000000E+00 0.  1.
         25    2    1    2    0    0  0.39233261218E+02 -0.12040300995E+03  0.29781788390E+03  0.34695721338E+03  0.12509069652E+03 0.  0.
          5    1    3    3  502    0  0.40540022130E+01 -0.55983338948E+02  0.20248673593E+02  0.59816806635E+02  0.41800000000E+01 0. -1.
         -5    1    3    3    0  502  0.35179259005E+02 -0.64419671006E+02  0.27756921030E+03  0.28714040674E+03  0.41800000000E+01 0. -1.
        -11    1    1    2    0    0 -0.60920365915E+02  0.70638826143E+02  0.86320355951E+02  0.12709185101E+03  0.00000000000E+00 0.  1.
         11    1    1    2    0    0  0.21687104697E+02  0.49764183810E+02  0.54354294679E+02  0.76819228391E+02  0.00000000000E+00 0. -1.
</event>
<event>
 7    1  0.2723366E-009  0.1970727E+03  0.7561462E-02  0.1152233E+00
          2   -1    0    0  501    0  0.00000000000E+00  0.00000000000E+00  0.51938332688E+03  0.51938332688E+03  0.00000000000E+00 0. -1.
         -2   -1    0    0    0  501 -0.00000000000E+00 -0.00000000000E+00 -0.80357928888E+02  0.80357928888E+02  0.00000000000E+00 0.  1.
         25    2    1    2    0    0  0.15388197768E+03  0.71698889068E+02  0.27273473448E+03  0.34474897042E+03  0.12508886226E+03 0.  0.
          5    1    3    3  502    0  0.56161748806E+02  0.92689464234E+02  0.16755403242E+03  0.19959284804E+03  0.41800000000E+01 0.  1.
         -5    1    3    3    0  502  0.97720228873E+02 -0.20990575166E+02  0.10518070206E+03  0.14515612238E+03  0.41800000000E+01 0.  1.
        -11    1    1    2    0    0 -0.11489961974E+03 -0.13621259478E+02  0.13656641250E+03  0.17899119071E+03  0.00000000000E+00 0. -1.
         11    1    1    2    0    0 -0.38982357935E+02 -0.58077629590E+02  0.29724251006E+02  0.76001094642E+02  0.00000000000E+00 0.  1.
</event>
<event>
 7    1  0.2723366E-009  0.1794924E+03  0.7561462E-02  0.1168295E+00
          2   -1    0    0  501    0  0.00000000000E+00  0.00000000000E+00  0.43250616021E+03  0.43250616021E+03  0.00000000000E+00 0.  1.
         -2   -1    0    0    0  501 -0.00000000000E+00 -0.00000000000E+00 -0.91854497686E+02  0.91854497686E+02  0.00000000000E+00 0. -1.
         25    2    1    2    0    0 -0.13490630885E+03  0.71821334963E+02  0.90341362358E+02  0.21718067297E+03  0.12509143310E+03 0.  0.
          5    1    3    3  502    0 -0.29818925659E+02  0.85623092864E+02  0.32813147561E+02  0.96512472831E+02  0.41800000000E+01 0.  1.
         -5    1    3    3    0  502 -0.10508738319E+03 -0.13801757902E+02  0.57528214797E+02  0.12066820014E+03  0.41800000000E+01 0.  1.
        -11    1    1    2    0    0  0.88836795010E+02 -0.16841009219E+02  0.20022410945E+03  0.21969362700E+03  0.00000000000E+00 0.  1.
         11    1    1    2    0    0  0.46069513836E+02 -0.54980325744E+02  0.50086190725E+02  0.87486357939E+02  0.00000000000E+00 0. -1.
</event>
<event>
 7    1  0.2723366E-009  0.9353031E+02  0.7561462E-02  0.1294521E+00
          2   -1    0    0  501    0  0.00000000000E+00  0.00000000000E+00  0.14913745605E+03  0.14913745605E+03  0.00000000000E+00 0. -1.
         -2   -1    0    0    0  501 -0.00000000000E+00 -0.00000000000E+00 -0.94080898182E+02  0.94080898182E+02  0.00000000000E+00 0.  1.
         25    2    1    2    0    0  0.27637596289E+02  0.44003694319E+01 -0.87767707071E+01  0.12847618411E+03  0.12508356487E+03 0.  0.
          5    1    3    3  502    0  0.56649916072E+02  0.24207069686E+02 -0.46095243040E+02  0.77054779506E+02  0.41800000000E+01 0.  1.
         -5    1    3    3    0  502 -0.29012319782E+02 -0.19806700254E+02  0.37318472333E+02  0.51421404603E+02  0.41800000000E+01 0.  1.
        -11    1    1    2    0    0 -0.41339603408E+02  0.31199528327E+02  0.17371539453E+02  0.54627316983E+02  0.00000000000E+00 0.  1.
         11    1    1    2    0    0  0.13702007118E+02 -0.35599897759E+02  0.46461789119E+02  0.60114853137E+02  0.00000000000E+00 0. -1.
</event>
<event>
 7    1  0.2723366E-009  0.8296699E+02  0.7561462E-02  0.1320836E+00
          2   -1    0    0  501    0  0.00000000000E+00  0.00000000000E+00  0.63056598814E+02  0.63056598814E+02  0.00000000000E+00 0. -1.
         -2   -1    0    0    0  501 -0.00000000000E+00 -0.00000000000E+00 -0.21542003475E+03  0.21542003475E+03  0.00000000000E+00 0.  1.
         25    2    1    2    0    0  0.41823856719E+02  0.12414937630E+02 -0.91500523963E+02  0.16100818996E+03  0.12509166911E+03 0.  0.
          5    1    3    3  502    0 -0.18269373819E+02 -0.18502406356E+02  0.18257461209E+02  0.32045535578E+02  0.41800000000E+01 0.  1.
         -5    1    3    3    0  502  0.60093230538E+02  0.30917343986E+02 -0.10975798517E+03  0.12896265438E+03  0.41800000000E+01 0.  1.
        -11    1    1    2    0    0 -0.55794378650E+02 -0.14781495373E+02 -0.28926999892E+01  0.57791634409E+02  0.00000000000E+00 0. -1.
         11    1    1    2    0    0  0.13970521931E+02  0.23665577428E+01 -0.57970211987E+02  0.59676809200E+02  0.00000000000E+00 0.  1.
</event>
<event>
 7    1  0.2723366E-009  0.9407110E+02  0.7561462E-02  0.1293282E+00
          2   -1    0    0  501    0  0.00000000000E+00  0.00000000000E+00  0.91470052002E+02  0.91470052002E+02  0.00000000000E+00 0. -1.
         -2   -1    0    0    0  501 -0.00000000000E+00 -0.00000000000E+00 -0.16694316030E+03  0.16694316030E+03  0.00000000000E+00 0.  1.
         25    2    1    2    0    0  0.42855975689E+02 -0.24078964999E+02 -0.62117985255E+02  0.14806128254E+03  0.12508824121E+03 0.  0.
          5    1    3    3  502    0 -0.25021344098E+02 -0.40976380264E+02 -0.61308462250E+02  0.77982891352E+02  0.41800000000E+01 0.  1.
         -5    1    3    3    0  502  0.67877319788E+02  0.16897415265E+02 -0.80952300490E+00  0.70078391189E+02  0.41800000000E+01 0.  1.
        -11    1    1    2    0    0 -0.85169757357E+01 -0.15371309644E+02 -0.45627513146E+02  0.48894641749E+02  0.00000000000E+00 0.  1.
         11    1    1    2    0    0 -0.34338999953E+02  0.39450274643E+02  0.32272390101E+02  0.61457288014E+02  0.00000000000E+00 0. -1.
</event>
<event>
 7    1  0.2723366E-009  0.1347568E+03  0.7561462E-02  0.1220563E+00
          2   -1    0    0  501    0  0.00000000000E+00  0.00000000000E+00  0.96187822256E+02  0.96187822256E+02  0.00000000000E+00 0. -1.
         -2   -1    0    0    0  501 -0.00000000000E+00 -0.00000000000E+00 -0.24989576616E+03  0.24989576616E+03  0.00000000000E+00 0.  1.
         25    2    1    2    0    0 -0.23270322082E+02 -0.10286931348E+03 -0.11882385548E+03  0.20222306612E+03  0.12510578042E+03 0.  0.
          5    1    3    3  502    0 -0.57443949405E+02 -0.54891242334E+01 -0.60038883726E+02  0.83379120691E+02  0.41800000000E+01 0. -1.
         -5    1    3    3    0  502  0.34173627323E+02 -0.97380189244E+02 -0.58784971751E+02  0.11884394543E+03  0.41800000000E+01 0. -1.
        -11    1    1    2    0    0 -0.54022732712E+01  0.17384168458E+02 -0.49296515433E+02  0.52550359688E+02  0.00000000000E+00 0.  1.
         11    1    1    2    0    0  0.28672595353E+02  0.85485145020E+02  0.14412427005E+02  0.91310162608E+02  0.00000000000E+00 0. -1.
</event>
<event>
 7    1  0.2723366E-009  0.8722182E+02  0.7561462E-02  0.1309722E+00
         -1   -1    0    0    0  501 -0.00000000000E+00  0.00000000000E+00  0.13432710268E+03  0.13432710268E+03  0.00000000000E+00 0.  1.
          1   -1    0    0  501    0  0.00000000000E+00 -0.00000000000E+00 -0.10562724337E+03  0.10562724337E+03  0.00000000000E+00 0. -1.
         25    2    1    2    0    0  0.14896874546E+01 -0.21861236182E+01  0.52399388914E+02  0.13564696644E+03  0.12508958886E+03 0.  0.
          5    1    3    3  502    0 -0.26408075083E+02 -0.49275168775E+02 -0.49272663143E+01  0.56277695766E+02  0.41800000000E+01 0.  1.
         -5    1    3    3    0  502  0.27897762538E+02  0.47089045156E+02  0.57326655228E+02  0.79369270678E+02  0.41800000000E+01 0.  1.
        -11    1    1    2    0    0  0.50528794263E+01 -0.30113473230E+02  0.29026455978E+02  0.42129419734E+02  0.00000000000E+00 0.  1.
         11    1    1    2    0    0 -0.65425668809E+01  0.32299596848E+02 -0.52725985583E+02  0.62177959870E+02  0.00000000000E+00 0. -1.
</event>
<event>
 7    1  0.2723366E-009  0.3089379E+03  0.7561462E-02  0.1080856E+00
          1   -1    0    0  501    0  0.00000000000E+00  0.00000000000E+00  0.93396638045E+02  0.93396638045E+02  0.00000000000E+00 0. -1.
         -1   -1    0    0    0  501 -0.00000000000E+00 -0.00000000000E+00 -0.11058025074E+04  0.11058025074E+04  0.00000000000E+00 0.  1.
         25    2    1    2    0    0 -0.24071600653E+02 -0.28958532503E+03 -0.67078171850E+03  0.74164289321E+03  0.12508782812E+03 0.  0.
          5    1    3    3  502    0  0.33971437817E+02 -0.19206456691E+02 -0.98618943096E+02  0.10614195638E+03  0.41800000000E+01 0. -1.
         -5    1    3    3    0  502 -0.58043038469E+02 -0.27037886834E+03 -0.57216277540E+03  0.63550093683E+03  0.41800000000E+01 0. -1.
        -11    1    1    2    0    0 -0.24794589644E+02  0.35413599860E+02 -0.30814147371E+02  0.53088665540E+02  0.00000000000E+00 0. -1.
         11    1    1    2    0    0  0.48866190296E+02  0.25417172517E+03 -0.31081000353E+03  0.40446758674E+03  0.00000000000E+00 0.  1.
</event>
<event>
 7    1  0.2723366E-009  0.1408904E+03  0.7561462E-02  0.1212136E+00
         -1   -1    0    0    0  501 -0.00000000000E+00  0.00000000000E+00  0.10456270499E+03  0.10456270499E+03  0.00000000000E+00 0.  1.
          1   -1    0    0  501    0  0.00000000000E+00 -0.00000000000E+00 -0.34740732727E+03  0.34740732727E+03  0.00000000000E+00 0. -1.
         25    2    1    2    0    0 -0.12249466512E+03 -0.26517799694E+02 -0.23819219188E+03  0.29680163877E+03  0.12509019074E+03 0.  0.
          5    1    3    3  502    0 -0.82058276185E+02 -0.15736290904E+01 -0.37162919247E+02  0.90191972846E+02  0.41800000000E+01 0.  1.
         -5    1    3    3    0  502 -0.40436388931E+02 -0.24944170604E+02 -0.20102927263E+03  0.20660966592E+03  0.41800000000E+01 0.  1.
        -11    1    1    2    0    0  0.16366394784E+02  0.41607554334E+02  0.12924418492E+02  0.46541251049E+02  0.00000000000E+00 0.  1.
         11    1    1    2    0    0  0.10612827033E+03 -0.15089754640E+02 -0.17576848899E+02  0.10862714245E+03  0.00000000000E+00 0. -1.
</event>
<event>
 7    1  0.4039826E-009  0.1152767E+03  0.7561462E-02  0.1251099E+00
          2   -1    0    0  501    0  0.00000000000E+00  0.00000000000E+00  0.74544784666E+03  0.74544784666E+03  0.00000000000E+00 0. -1.
         -2   -1    0    0    0  501 -0.00000000000E+00 -0.00000000000E+00 -0.23504180959E+02  0.23504180959E+02  0.00000000000E+00 0.  1.
         25    2    1    2    0    0 -0.41200797571E+02 -0.59380700731E+02  0.46877869735E+03  0.49053543160E+03  0.12509184316E+03 0.  0.
          5    1    3    3  502    0 -0.35565088118E+02 -0.94477451703E+02  0.26441354801E+03  0.28305981902E+03  0.41800000000E+01 0. -1.
         -5    1    3    3    0  502 -0.56357094527E+01  0.35096750972E+02  0.20436514935E+03  0.20747561258E+03  0.41800000000E+01 0. -1.
        -11    1    1    2    0    0 -0.56185543609E+01  0.44128421612E+02  0.20414430626E+03  0.20893487867E+03  0.00000000000E+00 0. -1.
         11    1    1    2    0    0  0.46819351932E+02  0.15252279119E+02  0.49020662084E+02  0.69481717342E+02  0.00000000000E+00 0.  1.
</event>
<event>
 7    1  0.2723366E-009  0.1083275E+03  0.7561462E-02  0.1263699E+00
         -1   -1    0    0    0  501 -0.00000000000E+00  0.00000000000E+00  0.37615773527E+03  0.37615773527E+03  0.00000000000E+00 0.  1.
          1   -1    0    0  501    0  0.00000000000E+00 -0.00000000000E+00 -0.49077760728E+02  0.49077760728E+02  0.00000000000E+00 0. -1.
         25    2    1    2    0    0  0.68531048949E+02 -0.16460548035E+01  0.24211973315E+03  0.28101267154E+03  0.12508773808E+03 0.  0.
          5    1    3    3  502    0  0.52797479797E+02  0.42204329554E+02  0.21821801251E+03  0.22848490692E+03  0.41800000000E+01 0. -1.
         -5    1    3    3    0  502  0.15733569152E+02 -0.43850384358E+02  0.23901720643E+02  0.52527764623E+02  0.41800000000E+01 0. -1.
        -11    1    1    2    0    0 -0.59523891051E+02  0.34016552996E+02  0.20544091580E+02  0.71570099780E+02  0.00000000000E+00 0.  1.
         11    1    1    2    0    0 -0.90071578981E+01 -0.32370498193E+02  0.64416149806E+02  0.72652724674E+02  0.00000000000E+00 0. -1.
</event>
<event>
 7    1  0.2723366E-009  0.3365961E+03  0.7561462E-02  0.1068255E+00
         -2   -1    0    0    0  501 -0.00000000000E+00  0.00000000000E+00  0.90872451202E+03  0.90872451202E+03  0.00000000000E+00 0.  1.
          2   -1    0    0  501    0  0.00000000000E+00 -0.00000000000E+00 -0.13050930292E+03  0.13050930292E+03  0.00000000000E+00 0. -1.
         25    2    1    2    0    0  0.28289351892E+03 -0.14895746203E+03  0.29552997369E+03  0.45299287513E+03  0.12509001172E+03 0.  0.
          5    1    3    3  502    0  0.17644993784E+03 -0.26008375743E+02  0.12874039372E+03  0.22000585799E+03  0.41800000000E+01 0.  1.
         -5    1    3    3    0  502  0.10644358107E+03 -0.12294908629E+03  0.16678957997E+03  0.23298701714E+03  0.41800000000E+01 0.  1.
        -11    1    1    2    0    0 -0.55976358015E+02  0.74709076189E+02  0.15185209121E+03  0.17825222671E+03  0.00000000000E+00 0. -1.
         11    1    1    2    0    0 -0.22691716090E+03  0.74248385845E+02  0.33083314420E+03  0.40798871310E+03  0.00000000000E+00 0.  1.
</event>
<event>
 7    1  0.2723366E-009  0.1078666E+03  0.7561462E-02  0.1264572E+00
         -2   -1    0    0    0  501 -0.00000000000E+00  0.00000000000E+00  0.24910384749E+02  0.24910384749E+02  0.00000000000E+00 0.  1.
          2   -1    0    0  501    0  0.00000000000E+00 -0.00000000000E+00 -0.10056428320E+04  0.10056428320E+04  0.00000000000E+00 0. -1.
         25    2    1    2    0    0  0.88108981497E+02  0.18943747742E+01 -0.76746278712E+03  0.78256835674E+03  0.12508925648E+03 0.  0.
          5    1    3    3  502    0  0.24475018803E+01  0.39038930552E+01  0.33026866354E+01  0.70434924187E+01  0.41800000000E+01 0.  1.
         -5    1    3    3    0  502  0.85661479617E+02 -0.20095182810E+01 -0.77076547375E+03  0.77552486432E+03  0.41800000000E+01 0.  1.
        -11    1    1    2    0    0  0.65721653285E+01  0.24554775706E+02 -0.25317947678E+02  0.35876577898E+02  0.00000000000E+00 0.  1.
         11    1    1    2    0    0 -0.94681146826E+02 -0.26449150480E+02 -0.18795171248E+03  0.21210828213E+03  0.00000000000E+00 0. -1.
</event>
<event>
 7    1  0.2723366E-009  0.1027974E+03  0.7561462E-02  0.1274521E+00
          2   -1    0    0  501    0  0.00000000000E+00  0.00000000000E+00  0.37977975871E+02  0.37977975871E+02  0.00000000000E+00 0.  1.
         -2   -1    0    0    0  501 -0.00000000000E+00 -0.00000000000E+00 -0.34505728536E+03  0.34505728536E+03  0.00000000000E+00 0. -1.
         25    2    1    2    0    0  0.25422307447E+01 -0.33445610843E+02 -0.15304350739E+03  0.20048384059E+03  0.12508550420E+03 0.  0.
          5    1    3    3  502    0  0.39633501826E+02 -0.67592272268E+02 -0.84790146966E+02  0.11552649549E+03  0.41800000000E+01 0. -1.
         -5    1    3    3    0  502 -0.37091271082E+02  0.34146661425E+02 -0.68253360423E+02  0.84957345097E+02  0.41800000000E+01 0. -1.
        -11    1    1    2    0    0  0.22656818904E+02 -0.11199423574E+02 -0.61208570808E+01  0.26004296234E+02  0.00000000000E+00 0.  1.
         11    1    1    2    0    0 -0.25199049648E+02  0.44645034417E+02 -0.14791494502E+03  0.15654712441E+03  0.00000000000E+00 0. -1.
</event>
<event>
 7    1  0.2723366E-009  0.1054399E+03  0.7561462E-02  0.1269255E+00
         -1   -1    0    0    0  501 -0.00000000000E+00  0.00000000000E+00  0.14234713771E+03  0.14234713771E+03  0.00000000000E+00 0.  1.
          1   -1    0    0  501    0  0.00000000000E+00 -0.00000000000E+00 -0.13633646625E+03  0.13633646625E+03  0.00000000000E+00 0. -1.
         25    2    1    2    0    0  0.66835340786E+02 -0.31082632489E+02 -0.42059227745E+02  0.15116066189E+03  0.12508986468E+03 0.  0.
          5    1    3    3  502    0 -0.27046839802E+02 -0.27455002209E+02  0.14533785119E+02  0.41400628008E+02  0.41800000000E+01 0.  1.
         -5    1    3    3    0  502  0.93882180588E+02 -0.36276302803E+01 -0.56593012864E+02  0.10976003389E+03  0.41800000000E+01 0.  1.
        -11    1    1    2    0    0 -0.44049518614E+02  0.33236225061E+02  0.74403612891E+02  0.92633170937E+02  0.00000000000E+00 0.  1.
         11    1    1    2    0    0 -0.22785822172E+02 -0.21535925725E+01 -0.26333713685E+02  0.34889771130E+02  0.00000000000E+00 0. -1.
</event>
<event>
 7    1  0.2723366E-009  0.9032930E+02  0.7561462E-02  0.1302056E+00
         -3   -1    0    0    0  501 -0.00000000000E+00  0.00000000000E+00  0.61340969588E+03  0.61340969588E+03  0.00000000000E+00 0.  1.
          3   -1    0    0  501    0  0.00000000000E+00 -0.00000000000E+00 -0.20646940610E+02  0.20646940610E+02  0.00000000000E+00 0. -1.
         25    2    1    2    0    0 -0.14245166255E+02 -0.21153691962E+02  0.30528203834E+03  0.33090012189E+03  0.12508942517E+03 0.  0.
          5    1    3    3  502    0 -0.13597503498E+02 -0.57638939383E+02  0.28020734836E+03  0.28642759977E+03  0.41800000000E+01 0. -1.
         -5    1    3    3    0  502 -0.64766275778E+00  0.36485247421E+02  0.25074689978E+02  0.44472522122E+02  0.41800000000E+01 0. -1.
        -11    1    1    2    0    0 -0.33046690302E+02  0.75079937185E+00  0.19050740277E+03  0.19335386717E+03  0.00000000000E+00 0.  1.
         11    1    1    2    0    0  0.47291856557E+02  0.20402892591E+02  0.96973314156E+02  0.10980264742E+03  0.00000000000E+00 0. -1.
</event>
<event>
 7    1  0.2723366E-009  0.1011207E+03  0.7561462E-02  0.1277957E+00
          2   -1    0    0  501    0  0.00000000000E+00  0.00000000000E+00  0.47715199504E+02  0.47715199504E+02  0.00000000000E+00 0. -1.
         -2   -1    0    0    0  501 -0.00000000000E+00 -0.00000000000E+00 -0.62083091083E+03  0.62083091083E+03  0.00000000000E+00 0.  1.
         25    2    1    2    0    0  0.46200429606E+01  0.57952504540E+01 -0.56467895349E+03  0.57841773422E+03  0.12509926066E+03 0.  0.
          5    1    3    3  502    0  0.63186933545E+02  0.12877532163E+02 -0.33992154797E+03  0.34600946603E+03  0.41800000000E+01 0. -1.
         -5    1    3    3    0  502 -0.58566890584E+02 -0.70822817091E+01 -0.22475740552E+03  0.23240826819E+03  0.41800000000E+01 0. -1.
        -11    1    1    2    0    0 -0.18488226252E+02 -0.38635015039E+02  0.17266595288E+02  0.46180236139E+02  0.00000000000E+00 0. -1.
         11    1    1    2    0    0  0.13868183291E+02  0.32839764585E+02 -0.25703353122E+02  0.43948139978E+02  0.00000000000E+00 0.  1.
</event>
<event>
 7    1  0.2723366E-009  0.2929963E+03  0.7561462E-02  0.1088795E+00
          1   -1    0    0  501    0  0.00000000000E+00  0.00000000000E+00  0.74379727333E+03  0.74379727333E+03  0.00000000000E+00 0.  1.
         -1   -1    0    0    0  501 -0.00000000000E+00 -0.00000000000E+00 -0.15352825537E+03  0.15352825537E+03  0.00000000000E+00 0. -1.
         25    2    1    2    0    0 -0.13726966406E+03 -0.23987002766E+03  0.85525566819E+02  0.31518458572E+03  0.12508441012E+03 0.  0.
          5    1    3    3  502    0 -0.13286450706E+03 -0.10780904419E+03  0.49221291079E+02  0.17808979516E+03  0.41800000000E+01 0. -1.
         -5    1    3    3    0  502 -0.44051570079E+01 -0.13206098346E+03  0.36304275740E+02  0.13709479056E+03  0.41800000000E+01 0. -1.
        -11    1    1    2    0    0  0.62627798581E+02  0.55302767308E+02  0.94484119270E+02  0.12612646836E+03  0.00000000000E+00 0. -1.
         11    1    1    2    0    0  0.74641865483E+02  0.18456726035E+03  0.41025933187E+03  0.45601447462E+03  0.00000000000E+00 0.  1.
</event>
<event>
 7    1  0.2723366E-009  0.1031035E+03  0.7561462E-02  0.1273902E+00
         -2   -1    0    0    0  501 -0.00000000000E+00  0.00000000000E+00  0.23791270452E+02  0.23791270452E+02  0.00000000000E+00 0.  1.
          2   -1    0    0  501    0  0.00000000000E+00 -0.00000000000E+00 -0.56598486550E+03  0.56598486550E+03  0.00000000000E+00 0. -1.
         25    2    1    2    0    0 -0.17660223252E+02  0.11913096703E+02 -0.40314192738E+03  0.42263992243E+03  0.12508910850E+03 0.  0.
          5    1    3    3  502    0  0.51320358668E+02 -0.62770362835E+01 -0.22041705798E+03  0.22643836302E+03  0.41800000000E+01 0. -1.
         -5    1    3    3    0  502 -0.68980581920E+02  0.18190132987E+02 -0.18272486940E+03  0.19620155941E+03  0.41800000000E+01 0. -1.
        -11    1    1    2    0    0  0.48038309619E+02  0.46702854126E+01 -0.11576021214E+03  0.12541896775E+03  0.00000000000E+00 0. -1.
         11    1    1    2    0    0 -0.30378086366E+02 -0.16583382116E+02 -0.23291455526E+02  0.41717245765E+02  0.00000000000E+00 0.  1.
</event>
<event>
 7    1  0.2723366E-009  0.2591823E+03  0.7561462E-02  0.1107636E+00
          1   -1    0    0  501    0  0.00000000000E+00  0.00000000000E+00  0.28038267504E+03  0.28038267504E+03  0.00000000000E+00 0. -1.
         -1   -1    0    0    0  501 -0.00000000000E+00 -0.00000000000E+00 -0.26034828734E+03  0.26034828734E+03  0.00000000000E+00 0.  1.
         25    2    1    2    0    0 -0.20442675448E+03  0.13287713049E+03 -0.30204133512E+02  0.27569239349E+03  0.12508947355E+03 0.  0.
          5    1    3    3  502    0 -0.13130250191E+03  0.28908971107E+02  0.25402730210E+02  0.13688990730E+03  0.41800000000E+01 0.  1.
         -5    1    3    3    0  502 -0.73124252563E+02  0.10396815938E+03 -0.55606863722E+02  0.13880248619E+03  0.41800000000E+01 0.  1.
        -11    1    1    2    0    0  0.17023392791E+03 -0.67949006103E+02  0.15787241314E+02  0.18397253771E+03  0.00000000000E+00 0.  1.
         11    1    1    2    0    0  0.34192826567E+02 -0.64928124388E+02  0.34451279894E+02  0.81066031181E+02  0.00000000000E+00 0. -1.
</event>
<event>
 7    1  0.2723366E-009  0.1366902E+03  0.7561462E-02  0.1217853E+00
          2   -1    0    0  501    0  0.00000000000E+00  0.00000000000E+00  0.13606432918E+04  0.13606432918E+04  0.00000000000E+00 0.  1.
         -2   -1    0    0    0  501 -0.00000000000E+00 -0.00000000000E+00 -0.13820041043E+02  0.13820041043E+02  0.00000000000E+00 0. -1.
         25    2    1    2    0    0  0.40498516012E+02  0.88246612829E+02  0.79552181795E+03  0.81112898248E+03  0.12509064278E+03 0.  0.
          5    1    3    3  502    0  0.81711801870E+02  0.31589596637E+02  0.47237110236E+03  0.48044422353E+03  0.41800000000E+01 0. -1.
         -5    1    3    3    0  502 -0.41213285858E+02  0.56657016192E+02  0.32315071559E+03  0.33068475895E+03  0.41800000000E+01 0. -1.
        -11    1    1    2    0    0 -0.54225770036E+02 -0.46131607958E+02  0.31907805166E+03  0.32692409278E+03  0.00000000000E+00 0.  1.
         11    1    1    2    0    0  0.13727254023E+02 -0.42115004871E+02  0.23222338115E+03  0.23641025759E+03  0.00000000000E+00 0. -1.
</event>
<event>
 7    1  0.2723366E-009  0.1203152E+03  0.7561462E-02  0.1242578E+00
          1   -1    0    0  501    0  0.00000000000E+00  0.00000000000E+00  0.16037152162E+03  0.16037152162E+03  0.00000000000E+00 0. -1.
         -1   -1    0    0    0  501 -0.00000000000E+00 -0.00000000000E+00 -0.12749554625E+03  0.12749554625E+03  0.00000000000E+00 0.  1.
         25    2    1    2    0    0 -0.26539640330E+02  0.66125974840E+02 -0.37632217265E+02  0.14880455446E+03  0.12509841963E+03 0.  0.
          5    1    3    3  502    0  0.76896376383E+01  0.82489323029E+02 -0.61963288053E+02  0.10354004253E+03  0.41800000000E+01 0.  1.
         -5    1    3    3    0  502 -0.34229277968E+02 -0.16363348189E+02  0.24331070788E+02  0.45264511926E+02  0.41800000000E+01 0.  1.
        -11    1    1    2    0    0  0.27708549375E+02  0.19495347383E+02  0.15266096544E+02  0.37160274242E+02  0.00000000000E+00 0. -1.
         11    1    1    2    0    0 -0.11689090446E+01 -0.85621322223E+02  0.55242096089E+02  0.10190223917E+03  0.00000000000E+00 0.  1.
</event>
<event>
 7    1  0.2723366E-009  0.9898869E+02  0.7561462E-02  0.1282437E+00
         -2   -1    0    0    0  501 -0.00000000000E+00  0.00000000000E+00  0.16394228631E+03  0.16394228631E+03  0.00000000000E+00 0. -1.
          2   -1    0    0  501    0  0.00000000000E+00 -0.00000000000E+00 -0.77421387758E+02  0.77421387758E+02  0.00000000000E+00 0.  1.
         25    2    1    2    0    0 -0.12858903121E+02  0.27818720382E+02  0.43672154675E+02  0.13598914190E+03  0.12508619839E+03 0.  0.
          5    1    3    3  502    0 -0.59990036331E+02  0.66627015910E+01  0.56296292320E+02  0.82643456973E+02  0.41800000000E+01 0.  1.
         -5    1    3    3    0  502  0.47131133210E+02  0.21156018791E+02 -0.12624137645E+02  0.53345684924E+02  0.41800000000E+01 0.  1.
        -11    1    1    2    0    0 -0.54220898655E+01  0.27164766260E+02  0.38280732976E+02  0.47251858182E+02  0.00000000000E+00 0. -1.
         11    1    1    2    0    0  0.18280992986E+02 -0.54983486642E+02  0.45680109009E+01  0.58122673988E+02  0.00000000000E+00 0.  1.
</event>
<event>
 7    1  0.2723366E-009  0.1136866E+03  0.7561462E-02  0.1253891E+00
         -1   -1    0    0    0  501 -0.00000000000E+00  0.00000000000E+00  0.11517973672E+02  0.11517973672E+02  0.00000000000E+00 0.  1.
          1   -1    0    0  501    0  0.00000000000E+00 -0.00000000000E+00 -0.13165938216E+04  0.13165938216E+04  0.00000000000E+00 0. -1.
         25    2    1    2    0    0 -0.49534793043E+02  0.11579473462E+02 -0.85819887685E+03  0.86875821273E+03  0.12509092706E+03 0.  0.
          5    1    3    3  502    0 -0.77540799325E+02  0.35379960884E+02 -0.39643338672E+03  0.40551352591E+03  0.41800000000E+01 0. -1.
         -5    1    3    3    0  502  0.28006006282E+02 -0.23800487422E+02 -0.46176549013E+03  0.46324468681E+03  0.41800000000E+01 0. -1.
        -11    1    1    2    0    0 -0.59000141543E+01 -0.41594283791E+02 -0.14491180496E+03  0.15087851348E+03  0.00000000000E+00 0.  1.
         11    1    1    2    0    0  0.55434807197E+02  0.30014810329E+02 -0.30196516607E+03  0.30847506902E+03  0.00000000000E+00 0. -1.
</event>
<event>
 7    1  0.2723366E-009  0.1512672E+03  0.7561462E-02  0.1198924E+00
         -2   -1    0    0    0  501 -0.00000000000E+00  0.00000000000E+00  0.25637527655E+03  0.25637527655E+03  0.00000000000E+00 0.  1.
          2   -1    0    0  501    0  0.00000000000E+00 -0.00000000000E+00 -0.11019161616E+03  0.11019161616E+03  0.00000000000E+00 0. -1.
         25    2    1    2    0    0 -0.11034620384E+03 -0.43918126689E+02  0.29195483242E+02  0.17494097861E+03  0.12508750218E+03 0.  0.
          5    1    3    3  502    0 -0.10231713421E+03 -0.74865716237E+02  0.50239314285E+02  0.13643728421E+03  0.41800000000E+01 0. -1.
         -5    1    3    3    0  502 -0.80290696303E+01  0.30947589548E+02 -0.21043831043E+02  0.38503694406E+02  0.41800000000E+01 0. -1.
        -11    1    1    2    0    0  0.96102410891E+02  0.66410444537E+02  0.11652719784E+03  0.16499881321E+03  0.00000000000E+00 0.  1.
         11    1    1    2    0    0  0.14243792954E+02 -0.22492317848E+02  0.46097930729E+00  0.26627100890E+02  0.00000000000E+00 0. -1.
</event>
<event>
 7    1  0.2723366E-009  0.1194182E+03  0.7561462E-02  0.1244060E+00
         -1   -1    0    0    0  501 -0.00000000000E+00  0.00000000000E+00  0.83942487082E+02  0.83942487082E+02  0.00000000000E+00 0.  1.
          1   -1    0    0  501    0  0.00000000000E+00 -0.00000000000E+00 -0.24314455047E+03  0.24314455047E+03  0.00000000000E+00 0. -1.
         25    2    1    2    0    0 -0.80702534817E+02 -0.32906935681E+02 -0.58136369819E+02  0.16316497913E+03  0.12508879797E+03 0.  0.
          5    1    3    3  502    0  0.79848205076E-01  0.15495804811E+02 -0.66612331752E+02  0.68518621440E+02  0.41800000000E+01 0.  1.
         -5    1    3    3    0  502 -0.80782383022E+02 -0.48402740492E+02  0.84759619336E+01  0.94646357693E+02  0.41800000000E+01 0.  1.
        -11    1    1    2    0    0  0.79212553223E+02 -0.14974836170E+02 -0.70520629898E+02  0.10710757932E+03  0.00000000000E+00 0. -1.
         11    1    1    2    0    0  0.14899815939E+01  0.47881771850E+02 -0.30545063673E+02  0.56814479101E+02  0.00000000000E+00 0.  1.
</event>
<event>
 7    1  0.2723366E-009  0.1008712E+03  0.7561462E-02  0.1278475E+00
          1   -1    0    0  501    0  0.00000000000E+00  0.00000000000E+00  0.15551599573E+03  0.15551599573E+03  0.00000000000E+00 0. -1.
         -1   -1    0    0    0  501 -0.00000000000E+00 -0.00000000000E+00 -0.98201912873E+02  0.98201912873E+02  0.00000000000E+00 0.  1.
         25    2    1    2    0    0 -0.25643948225E+02 -0.49653454938E+02  0.29418931005E+02  0.14012669807E+03  0.12508773058E+03 0.  0.
          5    1    3    3  502    0 -0.39802724382E+01 -0.67730451934E+02 -0.29934655375E+02  0.74275249446E+02  0.41800000000E+01 0. -1.
         -5    1    3    3    0  502 -0.21663675787E+02  0.18076996996E+02  0.59353586380E+02  0.65851448619E+02  0.41800000000E+01 0. -1.
        -11    1    1    2    0    0  0.58357969447E+02  0.41257438041E+02  0.34204931076E+02  0.79232607565E+02  0.00000000000E+00 0. -1.
         11    1    1    2    0    0 -0.32714021221E+02  0.83960168964E+01 -0.63097792255E+01  0.34358602970E+02  0.00000000000E+00 0.  1.
</event>
<event>
 7    1  0.2723366E-009  0.1041840E+03  0.7561462E-02  0.1271736E+00
         -1   -1    0    0    0  501 -0.00000000000E+00  0.00000000000E+00  0.57021078938E+03  0.57021078938E+03  0.00000000000E+00 0.  1.
          1   -1    0    0  501    0  0.00000000000E+00 -0.00000000000E+00 -0.35198861878E+02  0.35198861878E+02  0.00000000000E+00 0. -1.
         25    2    1    2    0    0  0.70139599006E+02  0.58624111946E+02  0.31654684240E+03  0.35242802036E+03  0.12508899335E+03 0.  0.
          5    1    3    3  502    0  0.38290772251E+02 -0.11050533307E+02  0.17553771517E+02  0.43748197911E+02  0.41800000000E+01 0.  1.
         -5    1    3    3    0  502  0.31848826755E+02  0.69674645253E+02  0.29899307088E+03  0.30867982245E+03  0.41800000000E+01 0.  1.
        -11    1    1    2    0    0 -0.50021696380E+02 -0.44923674908E+02  0.21853301661E+03  0.22864161044E+03  0.00000000000E+00 0.  1.
         11    1    1    2    0    0 -0.20117902627E+02 -0.13700437038E+02 -0.67931499767E-01  0.24340020457E+02  0.00000000000E+00 0. -1.
</event>
<event>
 7    1  0.2723366E-009  0.9527289E+02  0.7561462E-02  0.1290563E+00
         -4   -1    0    0    0  501 -0.00000000000E+00  0.00000000000E+00  0.24947158243E+03  0.24947158243E+03  0.00000000000E+00 0.  1.
          4   -1    0    0  501    0  0.00000000000E+00 -0.00000000000E+00 -0.89630472148E+02  0.89630472148E+02  0.00000000000E+00 0. -1.
         25    2    1    2    0    0 -0.26078250664E+02 -0.28935295673E+01  0.20025566700E+03  0.23756805513E+03  0.12509117067E+03 0.  0.
          5    1    3    3  502    0  0.42240091024E+02 -0.28950918914E+02  0.10943805519E+03  0.12089888883E+03  0.41800000000E+01 0. -1.
         -5    1    3    3    0  502 -0.68318341688E+02  0.26057389347E+02  0.90817611807E+02  0.11666916630E+03  0.41800000000E+01 0.  1.
        -11    1    1    2    0    0 -0.19282914368E+02 -0.49153464108E+01  0.18227178971E+02  0.26985578928E+02  0.00000000000E+00 0.  1.
         11    1    1    2    0    0  0.45361165032E+02  0.78088759781E+01 -0.58641735691E+02  0.74548420519E+02  0.00000000000E+00 0. -1.
</event>
<event>
 7    1  0.2723366E-009  0.7161252E+02  0.7561462E-02  0.1354694E+00
          2   -1    0    0  501    0  0.00000000000E+00  0.00000000000E+00  0.10179146066E+03  0.10179146066E+03  0.00000000000E+00 0. -1.
         -2   -1    0    0    0  501 -0.00000000000E+00 -0.00000000000E+00 -0.14649418801E+03  0.14649418801E+03  0.00000000000E+00 0.  1.
         25    2    1    2    0    0 -0.34685193487E+02  0.36734550584E+02 -0.53599297302E+02  0.14516391163E+03  0.12508871538E+03 0.  0.
          5    1    3    3  502    0  0.22842361777E+02 -0.55312109279E+00  0.29376382260E+02  0.37450282632E+02  0.41800000000E+01 0.  1.
         -5    1    3    3    0  502 -0.57527555264E+02  0.37287671677E+02 -0.82975679562E+02  0.10771362900E+03  0.41800000000E+01 0.  1.
        -11    1    1    2    0    0  0.20897476266E+02 -0.28199875727E+02 -0.39051028333E+02  0.52506383604E+02  0.00000000000E+00 0.  1.
         11    1    1    2    0    0  0.13787717220E+02 -0.85346748565E+01  0.47947598290E+02  0.50615353430E+02  0.00000000000E+00 0. -1.
</event>
<event>
 7    1  0.2723366E-009  0.1705040E+03  0.7561462E-02  0.1177323E+00
          2   -1    0    0  501    0  0.00000000000E+00  0.00000000000E+00  0.59832953222E+03  0.59832953222E+03  0.00000000000E+00 0.  1.
         -2   -1    0    0    0  501 -0.00000000000E+00 -0.00000000000E+00 -0.56078652255E+02  0.56078652255E+02  0.00000000000E+00 0. -1.
         25    2    1    2    0    0  0.13299232657E+03 -0.48588395200E+02  0.21501836226E+03  0.28623387136E+03  0.12509653045E+03 0.  0.
          5    1    3    3  502    0  0.14889805673E+03 -0.66837518210E+02  0.19646759792E+03  0.25545033680E+03  0.41800000000E+01 0. -1.
         -5    1    3    3    0  502 -0.15905730161E+02  0.18249123010E+02  0.18550764344E+02  0.30783534565E+02  0.41800000000E+01 0. -1.
        -11    1    1    2    0    0 -0.11410377920E+03  0.15601980257E+02  0.16286998626E+03  0.19947362392E+03  0.00000000000E+00 0.  1.
         11    1    1    2    0    0 -0.18888547364E+02  0.32986414943E+02  0.16436253144E+03  0.16870068919E+03  0.00000000000E+00 0. -1.
</event>
<event>
 7    1  0.2723366E-009  0.1248758E+03  0.7561462E-02  0.1235264E+00
          1   -1    0    0  501    0  0.00000000000E+00  0.00000000000E+00  0.30733051704E+03  0.30733051704E+03  0.00000000000E+00 0. -1.
         -1   -1    0    0    0  501 -0.00000000000E+00 -0.00000000000E+00 -0.62797124710E+02  0.62797124710E+02  0.00000000000E+00 0.  1.
         25    2    1    2    0    0  0.35926595257E+02  0.66735255042E+02  0.19616889876E+03  0.24469120717E+03  0.12508891044E+03 0.  0.
          5    1    3    3  502    0  0.70267442374E+02  0.71260933814E+02  0.18053247411E+03  0.20645842379E+03  0.41800000000E+01 0.  1.
         -5    1    3    3    0  502 -0.34340847116E+02 -0.45256787712E+01  0.15636424643E+02  0.38232783375E+02  0.41800000000E+01 0.  1.
        -11    1    1    2    0    0 -0.15870574784E+02 -0.85662441996E+02  0.29316108535E+02  0.91920418473E+02  0.00000000000E+00 0. -1.
         11    1    1    2    0    0 -0.20056020474E+02  0.18927186953E+02  0.19048385040E+02  0.33516016109E+02  0.00000000000E+00 0.  1.
</event>
<event>
 7    1  0.2723366E-009  0.6209786E+02  0.7561462E-02  0.1389233E+00
          2   -1    0    0  501    0  0.00000000000E+00  0.00000000000E+00  0.52390436352E+02  0.52390436352E+02  0.00000000000E+00 0. -1.
         -2   -1    0    0    0  501 -0.00000000000E+00 -0.00000000000E+00 -0.44256448812E+03  0.44256448812E+03  0.00000000000E+00 0.  1.
         25    2    1    2    0    0 -0.26313327217E+02  0.40490964703E+02 -0.35704658260E+03  0.38139519409E+03  0.12509245586E+03 0.  0.
          5    1    3    3  502    0  0.70509107267E+01  0.32464132306E+02 -0.13481283593E+02  0.36095050018E+02  0.41800000000E+01 0.  1.
         -5    1    3    3    0  502 -0.33364237944E+02  0.80268323968E+01 -0.34356529901E+03  0.34530014407E+03  0.41800000000E+01 0.  1.
        -11    1    1    2    0    0  0.30712911027E+02 -0.23724857015E+02 -0.65904015310E+02  0.76481965051E+02  0.00000000000E+00 0.  1.
         11    1    1    2    0    0 -0.43995838096E+01 -0.16766107688E+02  0.32776546146E+02  0.37077765331E+02  0.00000000000E+00 0. -1.
</event>
<event>
 7    1  0.2723366E-009  0.1076396E+03  0.7561462E-02  0.1265004E+00
         -2   -1    0    0    0  501 -0.00000000000E+00  0.00000000000E+00  0.23197077493E+02  0.23197077493E+02  0.00000000000E+00 0.  1.
          2   -1    0    0  501    0  0.00000000000E+00 -0.00000000000E+00 -0.56960263672E+03  0.56960263672E+03  0.00000000000E+00 0. -1.
         25    2    1    2    0    0 -0.13754552616E+02 -0.19424794406E+01 -0.22457405869E+03  0.25743920176E+03  0.12509386005E+03 0.  0.
          5    1    3    3  502    0 -0.19782974650E+02 -0.59569364482E+02 -0.81007162108E+02  0.10256465270E+03  0.41800000000E+01 0.  1.
         -5    1    3    3    0  502  0.60284220342E+01  0.57626885041E+02 -0.14356689658E+03  0.15487454906E+03  0.41800000000E+01 0.  1.
        -11    1    1    2    0    0  0.52138042897E+02  0.14110664579E+02 -0.18713883694E+03  0.19477790086E+03  0.00000000000E+00 0.  1.
         11    1    1    2    0    0 -0.38383490282E+02 -0.12168185139E+02 -0.13469266360E+03  0.14058261160E+03  0.00000000000E+00 0. -1.
</event>
<event>
 7    1  0.2723366E-009  0.1140488E+03  0.7561462E-02  0.1253251E+00
          2   -1    0    0  501    0  0.00000000000E+00  0.00000000000E+00  0.51049154298E+03  0.51049154298E+03  0.00000000000E+00 0.  1.
         -2   -1    0    0    0  501 -0.00000000000E+00 -0.00000000000E+00 -0.43186672000E+02  0.43186672000E+02  0.00000000000E+00 0. -1.
         25    2    1    2    0    0  0.17300793566E+02  0.99668283213E+02  0.29950854410E+03  0.33997853547E+03  0.12508777900E+03 0.  0.
          5    1    3    3  502    0  0.14916669913E+02  0.16366358377E+01 -0.77682561375E+01  0.17407004957E+02  0.41800000000E+01 0.  1.
         -5    1    3    3    0  502  0.23841236526E+01  0.98031647375E+02  0.30727680024E+03  0.32257153051E+03  0.41800000000E+01 0.  1.
        -11    1    1    2    0    0 -0.36343004358E+02 -0.73645319671E+02  0.61443413174E+02  0.10256578424E+03  0.00000000000E+00 0. -1.
         11    1    1    2    0    0  0.19042210792E+02 -0.26022963542E+02  0.10635291370E+03  0.11113389527E+03  0.00000000000E+00 0.  1.
</event>
<event>
 7    1  0.2723366E-009  0.5098699E+03  0.7561462E-02  0.1011234E+00
          2   -1    0    0  501    0  0.00000000000E+00  0.00000000000E+00  0.18141807058E+04  0.18141807058E+04  0.00000000000E+00 0. -1.
         -2   -1    0    0    0  501 -0.00000000000E+00 -0.00000000000E+00 -0.15511806322E+03  0.15511806322E+03  0.00000000000E+00 0.  1.
         25    2    1    2    0    0 -0.42781349397E+03  0.26584522451E+03  0.10674006282E+04  0.11868821865E+04  0.12508858615E+03 0.  0.
          5    1    3    3  502    0 -0.17033549993E+03  0.69463186519E+02  0.27523420152E+03  0.33107499891E+03  0.41800000000E+01 0.  1.
         -5    1    3    3    0  502 -0.25747799403E+03  0.19638203799E+03  0.79216642673E+03  0.85580718757E+03  0.41800000000E+01 0.  1.
        -11    1    1    2    0    0  0.79934231465E+02 -0.11081315704E+02  0.88295434373E+02  0.11961755995E+03  0.00000000000E+00 0.  1.
         11    1    1    2    0    0  0.34787926250E+03 -0.25476390880E+03  0.50336657993E+03  0.66279902255E+03  0.00000000000E+00 0. -1.
</event>
<event>
 7    1  0.2723366E-009  0.9691787E+02  0.7561462E-02  0.1286914E+00
         -2   -1    0    0    0  501 -0.00000000000E+00  0.00000000000E+00  0.33648587377E+02  0.33648587377E+02  0.00000000000E+00 0.  1.
          2   -1    0    0  501    0  0.00000000000E+00 -0.00000000000E+00 -0.48076718528E+03  0.48076718528E+03  0.00000000000E+00 0. -1.
         25    2    1    2    0    0  0.44016794405E+02  0.31895765647E+02 -0.32783086474E+03  0.35507168398E+03  0.12509199348E+03 0.  0.
          5    1    3    3  502    0  0.80798962315E+01  0.61114628917E+02 -0.28575112088E+03  0.29235502061E+03  0.41800000000E+01 0.  1.
         -5    1    3    3    0  502  0.35936898173E+02 -0.29218863270E+02 -0.42079743857E+02  0.62716663369E+02  0.41800000000E+01 0.  1.
        -11    1    1    2    0    0 -0.55862288045E+02 -0.42066917743E+02 -0.44374154059E+02  0.82820808632E+02  0.00000000000E+00 0.  1.
         11    1    1    2    0    0  0.11845493640E+02  0.10171152095E+02 -0.74913579111E+02  0.76523280051E+02  0.00000000000E+00 0. -1.
</event>
<event>
 7    1  0.2723366E-009  0.1262298E+03  0.7561462E-02  0.1233160E+00
         -2   -1    0    0    0  501 -0.00000000000E+00  0.00000000000E+00  0.11416199677E+02  0.11416199677E+02  0.00000000000E+00 0.  1.
          2   -1    0    0  501    0  0.00000000000E+00 -0.00000000000E+00 -0.16038630322E+04  0.16038630322E+04  0.00000000000E+00 0. -1.
         25    2    1    2    0    0  0.52025214919E+02 -0.48918342469E+02 -0.11088885414E+04  0.11182044594E+04  0.12509112059E+03 0.  0.
          5    1    3    3  502    0  0.78969354654E+02  0.54231235292E+01 -0.49419340403E+03  0.50050990223E+03  0.41800000000E+01 0. -1.
         -5    1    3    3    0  502 -0.26944139735E+02 -0.54341465998E+02 -0.61469513739E+03  0.61769455714E+03  0.41800000000E+01 0. -1.
        -11    1    1    2    0    0  0.15596029870E+02  0.41541933324E+02 -0.14060282922E+03  0.14743854298E+03  0.00000000000E+00 0.  1.
         11    1    1    2    0    0 -0.67621244789E+02  0.73764091447E+01 -0.34295546184E+03  0.34963622948E+03  0.00000000000E+00 0. -1.
</event>
<event>
 7    1  0.2723366E-009  0.1079256E+03  0.7561462E-02  0.1264460E+00
          1   -1    0    0  501    0  0.00000000000E+00  0.00000000000E+00  0.86746186972E+02  0.86746186972E+02  0.00000000000E+00 0.  1.
         -1   -1    0    0    0  501 -0.00000000000E+00 -0.00000000000E+00 -0.19212269068E+03  0.19212269068E+03  0.00000000000E+00 0. -1.
         25    2    1    2    0    0  0.53817071233E+02  0.29545576335E+02 -0.23425250313E+02  0.14129993650E+03  0.12509081287E+03 0.  0.
          5    1    3    3  502    0  0.92420682335E+02  0.19033281317E+02  0.58043396315E+00  0.94454526755E+02  0.41800000000E+01 0. -1.
         -5    1    3    3    0  502 -0.38603611101E+02  0.10512295018E+02 -0.24005684276E+02  0.46845409745E+02  0.41800000000E+01 0. -1.
        -11    1    1    2    0    0 -0.31141539433E+01 -0.30303106260E+02 -0.81339447487E+02  0.86856674592E+02  0.00000000000E+00 0. -1.
         11    1    1    2    0    0 -0.50702917290E+02  0.75752992505E+00 -0.61180590972E+00  0.50712266561E+02  0.00000000000E+00 0.  1.
</event>
<event>
 7    1  0.2723366E-009  0.1188346E+03  0.7561462E-02  0.1245032E+00
          2   -1    0    0  501    0  0.00000000000E+00  0.00000000000E+00  0.27161426693E+02  0.27161426693E+02  0.00000000000E+00 0.  1.
         -2   -1    0    0    0  501 -0.00000000000E+00 -0.00000000000E+00 -0.83659164299E+03  0.83659164299E+03  0.00000000000E+00 0. -1.
         25    2    1    2    0    0 -0.66979355698E+02 -0.73899222579E+02 -0.33880892309E+03  0.37468210303E+03  0.12509141769E+03 0.  0.
          5    1    3    3  502    0 -0.69933171537E+02 -0.72926043934E+02 -0.34893558725E+03  0.36329378307E+03  0.41800000000E+01 0. -1.
         -5    1    3    3    0  502  0.29538158389E+01 -0.97317864461E+00  0.10126664160E+02  0.11388319968E+02  0.41800000000E+01 0. -1.
        -11    1    1    2    0    0  0.55281005692E+01  0.69506350703E+02 -0.21024876985E+03  0.22150900187E+03  0.00000000000E+00 0. -1.
         11    1    1    2    0    0  0.61451255129E+02  0.43928718758E+01 -0.26037252336E+03  0.26756196478E+03  0.00000000000E+00 0.  1.
</event>
<event>
 7    1  0.2723366E-009  0.1103148E+03  0.7561462E-02  0.1259988E+00
          1   -1    0    0  501    0  0.00000000000E+00  0.00000000000E+00  0.26285756008E+03  0.26285756008E+03  0.00000000000E+00 0. -1.
         -1   -1    0    0    0  501 -0.00000000000E+00 -0.00000000000E+00 -0.56349794420E+02  0.56349794420E+02  0.00000000000E+00 0.  1.
         25    2    1    2    0    0 -0.51311989171E+02 -0.23370753816E+02  0.12350662137E+03  0.18460833479E+03  0.12508892590E+03 0.  0.
          5    1    3    3  502    0 -0.51587855190E+02 -0.66451372987E+02  0.46349627860E+02  0.96139753368E+02  0.41800000000E+01 0. -1.
         -5    1    3    3    0  502  0.27586601847E+00  0.43080619171E+02  0.77156993512E+02  0.88468581418E+02  0.41800000000E+01 0. -1.
        -11    1    1    2    0    0 -0.16621962661E+02  0.18703948698E+02 -0.26676874348E+01  0.25164337779E+02  0.00000000000E+00 0.  1.
         11    1    1    2    0    0  0.67933951832E+02  0.46668051179E+01  0.85668831721E+02  0.10943468193E+03  0.00000000000E+00 0. -1.
</event>
<event>
 7    1  0.2723366E-009  0.9273153E+02  0.7561462E-02  0.1296369E+00
         -2   -1    0    0    0  501 -0.00000000000E+00  0.00000000000E+00  0.25084110873E+03  0.25084110873E+03  0.00000000000E+00 0.  1.
          2   -1    0    0  501    0  0.00000000000E+00 -0.00000000000E+00 -0.47817190073E+02  0.47817190073E+02  0.00000000000E+00 0. -1.
         25    2    1    2    0    0 -0.46520524669E+02 -0.62860831804E+01  0.99340830650E+02  0.16649099194E+03  0.12508787193E+03 0.  0.
          5    1    3    3  502    0  0.22358163678E+02 -0.23485669530E+02  0.88761952772E+02  0.94591864430E+02  0.41800000000E+01 0.  1.
         -5    1    3    3    0  502 -0.68878688347E+02  0.17199586350E+02  0.10578877877E+02  0.71899127506E+02  0.41800000000E+01 0.  1.
        -11    1    1    2    0    0  0.63446560355E+02  0.10246573205E+02  0.86105852647E+02  0.10744615462E+03  0.00000000000E+00 0.  1.
         11    1    1    2    0    0 -0.16926035687E+02 -0.39604900249E+01  0.17577235358E+02  0.24721152241E+02  0.00000000000E+00 0. -1.
</event>
<event>
 7    1  0.2723366E-009  0.1205972E+03  0.7561462E-02  0.1242115E+00
          2   -1    0    0  501    0  0.00000000000E+00  0.00000000000E+00  0.34418001005E+03  0.34418001005E+03  0.00000000000E+00 0.  1.
         -2   -1    0    0    0  501 -0.00000000000E+00 -0.00000000000E+00 -0.63428097299E+02  0.63428097299E+02  0.00000000000E+00 0. -1.
         25    2    1    2    0    0 -0.47644420200E+02 -0.32325777670E+01  0.26623129217E+03  0.29800481598E+03  0.12508928444E+03 0.  0.
          5    1    3    3  502    0  0.17937628479E+02  0.47340483382E+02  0.93823328024E+02  0.10669193580E+03  0.41800000000E+01 0. -1.
         -5    1    3    3    0  502 -0.65582048679E+02 -0.50573061149E+02  0.17240796415E+03  0.19131288018E+03  0.41800000000E+01 0. -1.
        -11    1    1    2    0    0 -0.20098396730E+02  0.28755859889E+02  0.12302259094E+02  0.37177824141E+02  0.00000000000E+00 0.  1.
         11    1    1    2    0    0  0.67742816930E+02 -0.25523282122E+02  0.22183614889E+01  0.72425467231E+02  0.00000000000E+00 0. -1.
</event>
<event>
 7    1  0.2723366E-009  0.1268697E+03  0.7561462E-02  0.1232176E+00
          1   -1    0    0  501    0  0.00000000000E+00  0.00000000000E+00  0.72759869153E+03  0.72759869153E+03  0.00000000000E+00 0. -1.
         -1   -1    0    0    0  501 -0.00000000000E+00 -0.00000000000E+00 -0.36138628776E+02  0.36138628776E+02  0.00000000000E+00 0.  1.
         25    2    1    2    0    0 -0.63391228939E+02 -0.98266999314E+02  0.42994613233E+03  0.46279128337E+03  0.12508894516E+03 0.  0.
          5    1    3    3  502    0 -0.24676394507E+02 -0.91602098882E+01  0.53261736057E+01  0.27178565385E+02  0.41800000000E+01 0. -1.
         -5    1    3    3    0  502 -0.38714834431E+02 -0.89106789426E+02  0.42461995872E+03  0.43561271799E+03  0.41800000000E+01 0. -1.
        -11    1    1    2    0    0  0.69767465047E+02  0.62991319544E+02  0.10742780671E+03  0.14274501452E+03  0.00000000000E+00 0.  1.
         11    1    1    2    0    0 -0.63762361080E+01  0.35275679770E+02  0.15408612372E+03  0.15820102241E+03  0.00000000000E+00 0. -1.
</event>
<event>
 7    1  0.2723366E-009  0.1078072E+03  0.7561462E-02  0.1264685E+00
          2   -1    0    0  501    0  0.00000000000E+00  0.00000000000E+00  0.12339216443E+04  0.12339216443E+04  0.00000000000E+00 0. -1.
         -2   -1    0    0    0  501 -0.00000000000E+00 -0.00000000000E+00 -0.16858950489E+02  0.16858950489E+02  0.00000000000E+00 0.  1.
         25    2    1    2    0    0  0.53836236679E+02 -0.21582686176E+02  0.10031344472E+04  0.10125661325E+04  0.12508917104E+03 0.  0.
          5    1    3    3  502    0 -0.22580602831E+02  0.24740246842E+02  0.11263036203E+03  0.11757990597E+03  0.41800000000E+01 0.  1.
         -5    1    3    3    0  502  0.76416839509E+02 -0.46322933018E+02  0.89050408520E+03  0.89498622650E+03  0.41800000000E+01 0.  1.
        -11    1    1    2    0    0 -0.12735115223E+02 -0.26345711961E+02  0.23310021407E+02  0.37411720041E+02  0.00000000000E+00 0.  1.
         11    1    1    2    0    0 -0.41101121455E+02  0.47928398137E+02  0.19061822522E+03  0.20080274231E+03  0.00000000000E+00 0. -1.
</event>
<event>
 7    1  0.2723366E-009  0.1152559E+03  0.7561462E-02  0.1251135E+00
         -1   -1    0    0    0  501 -0.00000000000E+00  0.00000000000E+00  0.39398360621E+02  0.39398360621E+02  0.00000000000E+00 0.  1.
          1   -1    0    0  501    0  0.00000000000E+00 -0.00000000000E+00 -0.56010218486E+03  0.56010218486E+03  0.00000000000E+00 0. -1.
         25    2    1    2    0    0 -0.56080975798E+02  0.83916524116E+02 -0.29213237195E+03  0.33343631890E+03  0.12510554406E+03 0.  0.
          5    1    3    3  502    0 -0.41794362924E+02  0.28457639398E+02 -0.18751055624E+02  0.54089559985E+02  0.41800000000E+01 0. -1.
         -5    1    3    3    0  502 -0.14286612874E+02  0.55458884717E+02 -0.27338131632E+03  0.27934675892E+03  0.41800000000E+01 0. -1.
        -11    1    1    2    0    0  0.10879994431E+01  0.11861655393E+02  0.32522944608E+00  0.11915887950E+02  0.00000000000E+00 0.  1.
         11    1    1    2    0    0  0.54992976355E+02 -0.95778179509E+02 -0.22889668174E+03  0.25414833863E+03  0.00000000000E+00 0. -1.
</event>
<event>
 7    1  0.2723366E-009  0.1027653E+03  0.7561462E-02  0.1274586E+00
         -2   -1    0    0    0  501 -0.00000000000E+00  0.00000000000E+00  0.12864764022E+03  0.12864764022E+03  0.00000000000E+00 0.  1.
          2   -1    0    0  501    0  0.00000000000E+00 -0.00000000000E+00 -0.11954864848E+03  0.11954864848E+03  0.00000000000E+00 0. -1.
         25    2    1    2    0    0 -0.27304832440E-01 -0.21940876966E+02  0.62714772904E+02  0.14164337462E+03  0.12509316531E+03 0.  0.
          5    1    3    3  502    0 -0.58135769936E+02 -0.14533206913E+02  0.56708478928E+02  0.82609356804E+02  0.41800000000E+01 0.  1.
         -5    1    3    3    0  502  0.58108465104E+02 -0.74076700531E+01  0.60062939755E+01  0.59034017817E+02  0.41800000000E+01 0.  1.
        -11    1    1    2    0    0  0.28580622967E+02  0.42733911337E+02 -0.13602340614E+02  0.53179534197E+02  0.00000000000E+00 0.  1.
         11    1    1    2    0    0 -0.28553318134E+02 -0.20793034371E+02 -0.40013440547E+02  0.53373379875E+02  0.00000000000E+00 0. -1.
</event>
<event>
 7    1  0.2723366E-009  0.2101009E+03  0.7561462E-02  0.1141486E+00
         -1   -1    0    0    0  501 -0.00000000000E+00  0.00000000000E+00  0.11293995282E+03  0.11293995282E+03  0.00000000000E+00 0.  1.
          1   -1    0    0  501    0  0.00000000000E+00 -0.00000000000E+00 -0.40921153349E+03  0.40921153349E+03  0.00000000000E+00 0. -1.
         25    2    1    2    0    0 -0.15595805908E+03  0.93468840054E+02 -0.18635262658E+03  0.28884951939E+03  0.12508958056E+03 0.  0.
          5    1    3    3  502    0 -0.17674062733E+03  0.92298017933E+02 -0.16984436689E+03  0.26195563523E+03  0.41800000000E+01 0.  1.
         -5    1    3    3    0  502  0.20782568246E+02  0.11708221201E+01 -0.16508259694E+02  0.26893884164E+02  0.41800000000E+01 0.  1.
        -11    1    1    2    0    0  0.60220249631E+02 -0.83966888879E+02 -0.85312829891E+02  0.13399699936E+03  0.00000000000E+00 0.  1.
         11    1    1    2    0    0  0.95737809452E+02 -0.95019511744E+01 -0.24606124198E+02  0.99304967564E+02  0.00000000000E+00 0. -1.
</event>
<event>
 7    1  0.2723366E-009  0.1168147E+03  0.7561462E-02  0.1248446E+00
          4   -1    0    0  501    0  0.00000000000E+00  0.00000000000E+00  0.20599881091E+03  0.20599881091E+03  0.00000000000E+00 0. -1.
         -4   -1    0    0    0  501 -0.00000000000E+00 -0.00000000000E+00 -0.93784354409E+02  0.93784354409E+02  0.00000000000E+00 0.  1.
         25    2    1    2    0    0  0.57390626144E+02 -0.51130301724E+02  0.18234232760E+02  0.14794747895E+03  0.12509187648E+03 0.  0.
          5    1    3    3  502    0 -0.25825534931E+02 -0.50563039225E+02  0.29070198943E+02  0.63922828917E+02  0.41800000000E+01 0. -1.
         -5    1    3    3    0  502  0.83216161075E+02 -0.56726249821E+00 -0.10835966183E+02  0.84024650038E+02  0.41800000000E+01 0. -1.
        -11    1    1    2    0    0 -0.49523603846E+02  0.62380187226E+02  0.10668075661E+03  0.13313398862E+03  0.00000000000E+00 0. -1.
         11    1    1    2    0    0 -0.78670222986E+01 -0.11249885503E+02 -0.12700532861E+02  0.18701697747E+02  0.00000000000E+00 0.  1.
</event>
<event>
 7    1  0.2723366E-009  0.1354897E+03  0.7561462E-02  0.1219530E+00
          2   -1    0    0  501    0  0.00000000000E+00  0.00000000000E+00  0.11273146602E+04  0.11273146602E+04  0.00000000000E+00 0.  1.
         -2   -1    0    0    0  501 -0.00000000000E+00 -0.00000000000E+00 -0.22651797655E+02  0.22651797655E+02  0.00000000000E+00 0. -1.
         25    2    1    2    0    0  0.15747372362E+02 -0.94553744114E+02  0.81020815823E+03  0.82539107691E+03  0.12507909465E+03 0.  0.
          5    1    3    3  502    0  0.28109915836E+02 -0.11048140037E+03  0.43794756033E+03  0.45256142698E+03  0.41800000000E+01 0.  1.
         -5    1    3    3    0  502 -0.12362543474E+02  0.15927656252E+02  0.37226059790E+03  0.37282964993E+03  0.41800000000E+01 0.  1.
        -11    1    1    2    0    0  0.26961143896E+02 -0.55054979648E+01  0.67455432478E+02  0.72852241961E+02  0.00000000000E+00 0.  1.
         11    1    1    2    0    0 -0.42708516258E+02  0.10005924208E+03  0.22699927187E+03  0.25172313901E+03  0.00000000000E+00 0. -1.
</event>
<event>
 7    1  0.2723366E-009  0.1278445E+03  0.7561462E-02  0.1230690E+00
          2   -1    0    0  501    0  0.00000000000E+00  0.00000000000E+00  0.92562239316E+02  0.92562239316E+02  0.00000000000E+00 0. -1.
         -2   -1    0    0    0  501 -0.00000000000E+00 -0.00000000000E+00 -0.18260508843E+03  0.18260508843E+03  0.00000000000E+00 0.  1.
         25    2    1    2    0    0 -0.45686437421E+02 -0.50893725484E+02 -0.27552037605E+02  0.14519413075E+03  0.12507917081E+03 0.  0.
          5    1    3    3  502    0 -0.55080768008E+02  0.28722391929E+02 -0.10877221509E+02  0.63203268509E+02  0.41800000000E+01 0.  1.
         -5    1    3    3    0  502  0.93943305867E+01 -0.79616117413E+02 -0.16674816096E+02  0.81990862240E+02  0.41800000000E+01 0.  1.
        -11    1    1    2    0    0  0.11681481989E+02  0.72123537194E+02 -0.47640052043E+02  0.87222910966E+02  0.00000000000E+00 0. -1.
         11    1    1    2    0    0  0.34004955432E+02 -0.21229811710E+02 -0.14850759470E+02  0.42750286034E+02  0.00000000000E+00 0.  1.
</event>
<event>
 7    1  0.2723366E-009  0.9287506E+02  0.7561462E-02  0.1296035E+00
          1   -1    0    0  501    0  0.00000000000E+00  0.00000000000E+00  0.54440772889E+02  0.54440772889E+02  0.00000000000E+00 0. -1.
         -1   -1    0    0    0  501 -0.00000000000E+00 -0.00000000000E+00 -0.27812025383E+03  0.27812025383E+03  0.00000000000E+00 0.  1.
         25    2    1    2    0    0 -0.44694009413E+02  0.23594956389E+02 -0.16291192257E+03  0.21152044215E+03  0.12508527686E+03 0.  0.
          5    1    3    3  502    0  0.24274827734E+02  0.51051442131E+01  0.78758709410E+01  0.26359656713E+02  0.41800000000E+01 0. -1.
         -5    1    3    3    0  502 -0.68968837147E+02  0.18489812176E+02 -0.17078779351E+03  0.18516078544E+03  0.41800000000E+01 0. -1.
        -11    1    1    2    0    0  0.39679832762E+02 -0.49069041466E+02 -0.98275464192E+01  0.63865801702E+02  0.00000000000E+00 0. -1.
         11    1    1    2    0    0  0.50141766508E+01  0.25474085077E+02 -0.50940011947E+02  0.57174782861E+02  0.00000000000E+00 0.  1.
</event>
<event>
 7    1  0.2723366E-009  0.7770361E+02  0.7561462E-02  0.1335697E+00
         -2   -1    0    0    0  501 -0.00000000000E+00  0.00000000000E+00  0.22347393727E+03  0.22347393727E+03  0.00000000000E+00 0.  1.
          2   -1    0    0  501    0  0.00000000000E+00 -0.00000000000E+00 -0.83206362979E+02  0.83206362979E+02  0.00000000000E+00 0. -1.
         25    2    1    2    0    0 -0.35403585878E+02 -0.42407362115E+02  0.94083215477E+01  0.13706717650E+03  0.12508835320E+03 0.  0.
          5    1    3    3  502    0 -0.41102788219E+02  0.30469145284E+01 -0.48063403241E+02  0.63453022139E+02  0.41800000000E+01 0. -1.
         -5    1    3    3    0  502  0.56992023410E+01 -0.45454276644E+02  0.57471724789E+02  0.73614154364E+02  0.41800000000E+01 0. -1.
        -11    1    1    2    0    0  0.32252080045E+02  0.77378704952E+01  0.13065601559E+03  0.13480009539E+03  0.00000000000E+00 0.  1.
         11    1    1    2    0    0  0.31515058326E+01  0.34669491620E+02  0.20323715544E+00  0.34813028359E+02  0.00000000000E+00 0. -1.
</event>
<event>
 7    1  0.2723366E-009  0.1210596E+03  0.7561462E-02  0.1241359E+00
          2   -1    0    0  501    0  0.00000000000E+00  0.00000000000E+00  0.14172727431E+04  0.14172727431E+04  0.00000000000E+00 0. -1.
         -2   -1    0    0    0  501 -0.00000000000E+00 -0.00000000000E+00 -0.20360028267E+02  0.20360028267E+02  0.00000000000E+00 0.  1.
         25    2    1    2    0    0 -0.60485900895E+02 -0.67481299901E+02  0.11411866306E+04  0.11515931678E+04  0.12509048022E+03 0.  0.
          5    1    3    3  502    0 -0.53734581286E+02 -0.88799078596E+02  0.10968816951E+04  0.11017892753E+04  0.41800000000E+01 0.  1.
         -5    1    3    3    0  502 -0.67513196088E+01  0.21317778695E+02  0.44304935440E+02  0.49803892512E+02  0.41800000000E+01 0.  1.
        -11    1    1    2    0    0  0.13997369698E+02  0.67571787280E+02  0.87101101782E+02  0.11112369111E+03  0.00000000000E+00 0.  1.
         11    1    1    2    0    0  0.46488531197E+02 -0.90487379335E-01  0.16862498254E+03  0.17491591253E+03  0.00000000000E+00 0. -1.
</event>
<event>
 7    1  0.2723366E-009  0.3665248E+03  0.7561462E-02  0.1056030E+00
          2   -1    0    0  501    0  0.00000000000E+00  0.00000000000E+00  0.12085671908E+04  0.12085671908E+04  0.00000000000E+00 0. -1.
         -2   -1    0    0    0  501 -0.00000000000E+00 -0.00000000000E+00 -0.14420271881E+03  0.14420271881E+03  0.00000000000E+00 0.  1.
         25    2    1    2    0    0 -0.36344803450E+03 -0.59242952725E+01  0.25607027175E+03  0.46189824470E+03  0.12509369817E+03 0.  0.
          5    1    3    3  502    0 -0.76999337379E+02 -0.22733933744E+02  0.11965133117E+03  0.14415145907E+03  0.41800000000E+01 0. -1.
         -5    1    3    3    0  502 -0.28644869713E+03  0.16809638471E+02  0.13641894058E+03  0.31774678563E+03  0.41800000000E+01 0. -1.
        -11    1    1    2    0    0  0.11238746223E+03 -0.16633293500E+02  0.34799385658E+03  0.36607011943E+03  0.00000000000E+00 0.  1.
         11    1    1    2    0    0  0.25106057227E+03  0.22557588772E+02  0.46030034361E+03  0.52480154543E+03  0.00000000000E+00 0. -1.
</event>
<event>
 7    1  0.2723366E-009  0.6957033E+02  0.7561462E-02  0.1361560E+00
          2   -1    0    0  501    0  0.00000000000E+00  0.00000000000E+00  0.23941738845E+03  0.23941738845E+03  0.00000000000E+00 0. -1.
         -2   -1    0    0    0  501 -0.00000000000E+00 -0.00000000000E+00 -0.48829748468E+02  0.48829748468E+02  0.00000000000E+00 0.  1.
         25    2    1    2    0    0  0.83684432844E+01 -0.12657635924E+01  0.11333646471E+03  0.16901117846E+03  0.12509193105E+03 0.  0.
          5    1    3    3  502    0  0.11876598284E+02  0.22229693249E+02  0.13451048922E+03  0.13691514510E+03  0.41800000000E+01 0.  1.
         -5    1    3    3    0  502 -0.35081549996E+01 -0.23495456841E+02 -0.21174024509E+02  0.32096033362E+02  0.41800000000E+01 0.  1.
        -11    1    1    2    0    0  0.18252315010E+02 -0.37928733926E+02  0.46650580813E+02  0.62833212163E+02  0.00000000000E+00 0.  1.
         11    1    1    2    0    0 -0.26620758295E+02  0.39194497519E+02  0.30600594459E+02  0.56402746291E+02  0.00000000000E+00 0. -1.
</event>
<event>
 7    1  0.2723366E-009  0.9815528E+02  0.7561462E-02  0.1284224E+00
          1   -1    0    0  501    0  0.00000000000E+00  0.00000000000E+00  0.16369149712E+03  0.16369149712E+03  0.00000000000E+00 0. -1.
         -1   -1    0    0    0  501 -0.00000000000E+00 -0.00000000000E+00 -0.73971583735E+02  0.73971583735E+02  0.00000000000E+00 0.  1.
         25    2    1    2    0    0 -0.35540203970E+01 -0.11461653658E+02  0.49225861825E+02  0.13496194136E+03  0.12509012582E+03 0.  0.
          5    1    3    3  502    0 -0.55752960349E+02 -0.31569532282E+02  0.45598173584E+02  0.78750833586E+02  0.41800000000E+01 0. -1.
         -5    1    3    3    0  502  0.52198939953E+02  0.20107878623E+02  0.36276882407E+01  0.56211107771E+02  0.41800000000E+01 0. -1.
        -11    1    1    2    0    0 -0.10901609666E+02 -0.30096154698E+02 -0.12018286801E+02  0.34191560926E+02  0.00000000000E+00 0.  1.
         11    1    1    2    0    0  0.14455630063E+02  0.41557808357E+02  0.52512338356E+02  0.68509578568E+02  0.00000000000E+00 0. -1.
</event>
<event>
 7    1  0.2723366E-009  0.1309736E+03  0.7561462E-02  0.1226018E+00
         -3   -1    0    0    0  501 -0.00000000000E+00  0.00000000000E+00  0.15181527520E+03  0.15181527520E+03  0.00000000000E+00 0.  1.
          3   -1    0    0  501    0  0.00000000000E+00 -0.00000000000E+00 -0.16878651510E+03  0.16878651510E+03  0.00000000000E+00 0. -1.
         25    2    1    2    0    0 -0.56985303038E+01 -0.11306270954E+03 -0.37094868621E+02  0.17274011939E+03  0.12508984784E+03 0.  0.
          5    1    3    3  502    0 -0.16592668698E+02 -0.37037152439E+02  0.44660493660E+02  0.60490490238E+02  0.41800000000E+01 0.  1.
         -5    1    3    3    0  502  0.10894138394E+02 -0.76025557096E+02 -0.81755362281E+02  0.11224962915E+03  0.41800000000E+01 0.  1.
        -11    1    1    2    0    0 -0.32112981303E+02  0.87579858736E+01  0.15762120306E+02  0.36829204734E+02  0.00000000000E+00 0. -1.
         11    1    1    2    0    0  0.37811511607E+02  0.10430472366E+03  0.43615084117E+01  0.11103246617E+03  0.00000000000E+00 0.  1.
</event>
<event>
 7    1  0.2723366E-009  0.1284826E+03  0.7561462E-02  0.1229725E+00
         -2   -1    0    0    0  501 -0.00000000000E+00  0.00000000000E+00  0.94009159734E+02  0.94009159734E+02  0.00000000000E+00 0. -1.
          2   -1    0    0  501    0  0.00000000000E+00 -0.00000000000E+00 -0.22467538594E+03  0.22467538594E+03  0.00000000000E+00 0.  1.
         25    2    1    2    0    0  0.79221808790E+02 -0.44339736500E+02 -0.33493829673E+02  0.15814912257E+03  0.12508877297E+03 0.  0.
          5    1    3    3  502    0  0.98564295241E+02  0.75848408943E+01 -0.23374818058E+02  0.10166761838E+03  0.41800000000E+01 0. -1.
         -5    1    3    3    0  502 -0.19342486451E+02 -0.51924577394E+02 -0.10119011616E+02  0.56481504192E+02  0.41800000000E+01 0. -1.
        -11    1    1    2    0    0 -0.53450657927E+02  0.52993528770E+02 -0.18797821118E+02  0.77579926547E+02  0.00000000000E+00 0. -1.
         11    1    1    2    0    0 -0.25771150863E+02 -0.86537922697E+01 -0.78374575414E+02  0.82955496555E+02  0.00000000000E+00 0.  1.
</event>
<event>
 7    1  0.2723366E-009  0.9931744E+02  0.7561462E-02  0.1281738E+00
          1   -1    0    0  501    0  0.00000000000E+00  0.00000000000E+00  0.10518949029E+03  0.10518949029E+03  0.00000000000E+00 0. -1.
         -1   -1    0    0    0  501 -0.00000000000E+00 -0.00000000000E+00 -0.16441383467E+03  0.16441383467E+03  0.00000000000E+00 0.  1.
         25    2    1    2    0    0 -0.20684906547E+02 -0.29669760926E+02  0.33957547113E+02  0.13457711367E+03  0.12509885869E+03 0.  0.
          5    1    3    3  502    0 -0.49148838784E+02  0.15226227055E+02 -0.23035208944E+02  0.56529103966E+02  0.41800000000E+01 0.  1.
         -5    1    3    3    0  502  0.28463932237E+02 -0.44895987981E+02  0.56992756056E+02  0.78048009699E+02  0.41800000000E+01 0.  1.
        -11    1    1    2    0    0  0.11562769021E+02 -0.30611088716E+02 -0.15308554351E+02  0.36126004707E+02  0.00000000000E+00 0.  1.
         11    1    1    2    0    0  0.91221375265E+01  0.60280849642E+02 -0.77873337140E+02  0.98900206592E+02  0.00000000000E+00 0. -1.
</event>
<event>
 7    1  0.2723366E-009  0.1107041E+03  0.7561462E-02  0.1259271E+00
          1   -1    0    0  501    0  0.00000000000E+00  0.00000000000E+00  0.93556105840E+03  0.93556105840E+03  0.00000000000E+00 0. -1.
         -1   -1    0    0    0  501 -0.00000000000E+00 -0.00000000000E+00 -0.14176917431E+02  0.14176917431E+02  0.00000000000E+00 0.  1.
         25    2    1    2    0    0 -0.36600723481E+02 -0.11321968643E+02  0.55938714168E+03  0.57448230832E+03  0.12509255920E+03 0.  0.
          5    1    3    3  502    0  0.39851555519E+02  0.18530896780E+02  0.27264266952E+03  0.27619384181E+03  0.41800000000E+01 0.  1.
         -5    1    3    3    0  502 -0.76452279001E+02 -0.29852865423E+02  0.28674447216E+03  0.29828846651E+03  0.41800000000E+01 0.  1.
        -11    1    1    2    0    0 -0.16396203918E+02 -0.25663205278E+02  0.16910569570E+03  0.17182599316E+03  0.00000000000E+00 0. -1.
         11    1    1    2    0    0  0.52996927400E+02  0.36985173921E+02  0.19289130359E+03  0.20342967434E+03  0.00000000000E+00 0.  1.
</event>
<event>
 7    1  0.2723366E-009  0.2091531E+03  0.7561462E-02  0.1142238E+00
         -1   -1    0    0    0  501 -0.00000000000E+00  0.00000000000E+00  0.49174817913E+02  0.49174817913E+02  0.00000000000E+00 0.  1.
          1   -1    0    0  501    0  0.00000000000E+00 -0.00000000000E+00 -0.10075279228E+04  0.10075279228E+04  0.00000000000E+00 0. -1.
         25    2    1    2    0    0  0.16624237305E+03 -0.89844901984E+02 -0.39668230069E+03  0.45685143499E+03  0.12509097873E+03 0.  0.
          5    1    3    3  502    0  0.84606462449E+02  0.16459075974E+02 -0.10566797701E+03  0.13642708102E+03  0.41800000000E+01 0.  1.
         -5    1    3    3    0  502  0.81635910597E+02 -0.10630397796E+03 -0.29101432368E+03  0.32042435397E+03  0.41800000000E+01 0.  1.
        -11    1    1    2    0    0 -0.91182027578E+02  0.15918497533E+02 -0.36709606428E+03  0.37858563249E+03  0.00000000000E+00 0.  1.
         11    1    1    2    0    0 -0.75060345468E+02  0.73926404451E+02 -0.19457473987E+03  0.22126567319E+03  0.00000000000E+00 0. -1.
</event>
<event>
 7    1  0.2723366E-009  0.1189974E+03  0.7561462E-02  0.1244760E+00
         -1   -1    0    0    0  501 -0.00000000000E+00  0.00000000000E+00  0.19321532848E+02  0.19321532848E+02  0.00000000000E+00 0.  1.
          1   -1    0    0  501    0  0.00000000000E+00 -0.00000000000E+00 -0.83026729834E+03  0.83026729834E+03  0.00000000000E+00 0. -1.
         25    2    1    2    0    0  0.55909466933E+02  0.31962571635E+02 -0.40733969141E+03  0.43095310529E+03  0.12508988882E+03 0.  0.
          5    1    3    3  502    0  0.89903541543E+02 -0.56087627959E+00 -0.30930912067E+03  0.32213749532E+03  0.41800000000E+01 0. -1.
         -5    1    3    3    0  502 -0.33994074611E+02  0.32523447915E+02 -0.98030570740E+02  0.10881560997E+03  0.41800000000E+01 0. -1.
        -11    1    1    2    0    0 -0.10946147221E+02 -0.50832877164E+02 -0.29551238880E+03  0.30005228123E+03  0.00000000000E+00 0.  1.
         11    1    1    2    0    0 -0.44963319711E+02  0.18870305529E+02 -0.10809368529E+03  0.11858344467E+03  0.00000000000E+00 0. -1.
</event>
<event>
 7    1  0.2723366E-009  0.1037916E+03  0.7561462E-02  0.1272519E+00
         -1   -1    0    0    0  501 -0.00000000000E+00  0.00000000000E+00  0.89002865872E+02  0.89002865872E+02  0.00000000000E+00 0.  1.
          1   -1    0    0  501    0  0.00000000000E+00 -0.00000000000E+00 -0.15197629772E+03  0.15197629772E+03  0.00000000000E+00 0. -1.
         25    2    1    2    0    0  0.16831557078E+02  0.26931703039E+02 -0.59896164925E+02  0.14228123284E+03  0.12509108963E+03 0.  0.
          5    1    3    3  502    0 -0.42167182061E+02  0.38795875758E+02 -0.25623701797E+00  0.57451973649E+02  0.41800000000E+01 0.  1.
         -5    1    3    3    0  502  0.58998739139E+02 -0.11864172718E+02 -0.59639927907E+02  0.84829259192E+02  0.41800000000E+01 0.  1.
        -11    1    1    2    0    0 -0.75159569857E+01  0.30608419803E+02  0.18496508458E+02  0.36544299109E+02  0.00000000000E+00 0.  1.
         11    1    1    2    0    0 -0.93156000927E+01 -0.57540122843E+02 -0.21573775377E+02  0.62153631638E+02  0.00000000000E+00 0. -1.
</event>
<event>
 7    1  0.2723366E-009  0.1053643E+03  0.7561462E-02  0.1269404E+00
         -1   -1    0    0    0  501 -0.00000000000E+00  0.00000000000E+00  0.20742413740E+02  0.20742413740E+02  0.00000000000E+00 0.  1.
          1   -1    0    0  501    0  0.00000000000E+00 -0.00000000000E+00 -0.74224798699E+03  0.74224798699E+03  0.00000000000E+00 0. -1.
         25    2    1    2    0    0 -0.48824634132E+02 -0.19079490880E+01 -0.53352063615E+03  0.55016174947E+03  0.12508475614E+03 0.  0.
          5    1    3    3  502    0  0.30904869337E+02  0.15280277841E+00 -0.33094164603E+03  0.33240785155E+03  0.41800000000E+01 0.  1.
         -5    1    3    3    0  502 -0.79729503469E+02 -0.20607518664E+01 -0.20257899012E+03  0.21775389792E+03  0.41800000000E+01 0.  1.
        -11    1    1    2    0    0  0.67144249327E+02  0.23702494566E+02 -0.13875387018E+03  0.15595767040E+03  0.00000000000E+00 0. -1.
         11    1    1    2    0    0 -0.18319615194E+02 -0.21794545478E+02 -0.49231066919E+02  0.56870980855E+02  0.00000000000E+00 0.  1.
</event>
<event>
 7    1  0.2723366E-009  0.1443349E+03  0.7561462E-02  0.1207612E+00
          2   -1    0    0  501    0  0.00000000000E+00  0.00000000000E+00  0.27892829760E+03  0.27892829760E+03  0.00000000000E+00 0.  1.
         -2   -1    0    0    0  501 -0.00000000000E+00 -0.00000000000E+00 -0.89053737204E+02  0.89053737204E+02  0.00000000000E+00 0. -1.
         25    2    1    2    0    0  0.20511030644E+02 -0.99104470740E+02  0.40648896272E+02  0.16596022651E+03  0.12509222804E+03 0.  0.
          5    1    3    3  502    0  0.29884350159E+02 -0.12505848221E+03  0.17764587052E+02  0.12986820746E+03  0.41800000000E+01 0. -1.
         -5    1    3    3    0  502 -0.93733195155E+01  0.25954011469E+02  0.22884309220E+02  0.36092019043E+02  0.41800000000E+01 0. -1.
        -11    1    1    2    0    0 -0.49261847812E+02  0.88841361614E+02  0.91485193406E+02  0.13670792880E+03  0.00000000000E+00 0. -1.
         11    1    1    2    0    0  0.28750817168E+02  0.10263109126E+02  0.57740470716E+02  0.65313879500E+02  0.00000000000E+00 0.  1.
</event>
<event>
 7    1  0.2723366E-009  0.1262362E+03  0.7561462E-02  0.1233150E+00
          2   -1    0    0  501    0  0.00000000000E+00  0.00000000000E+00  0.54028647541E+03  0.54028647541E+03  0.00000000000E+00 0. -1.
         -2   -1    0    0    0  501 -0.00000000000E+00 -0.00000000000E+00 -0.32723860873E+02  0.32723860873E+02  0.00000000000E+00 0.  1.
         25    2    1    2    0    0  0.63981872669E+02  0.38244931492E+02  0.28962086576E+03  0.32416678115E+03  0.12508997283E+03 0.  0.
          5    1    3    3  502    0  0.80491989723E+02 -0.12717377985E+02  0.11183591987E+03  0.13843929169E+03  0.41800000000E+01 0.  1.
         -5    1    3    3    0  502 -0.16510117054E+02  0.50962309477E+02  0.17778494590E+03  0.18572748946E+03  0.41800000000E+01 0.  1.
        -11    1    1    2    0    0 -0.73551054567E+02  0.41621144895E+01  0.16226399786E+03  0.17820405671E+03  0.00000000000E+00 0.  1.
         11    1    1    2    0    0  0.95691818979E+01 -0.42407045982E+02  0.55677750914E+02  0.70639498426E+02  0.00000000000E+00 0. -1.
</event>
<event>
 7    1  0.2723366E-009  0.1408157E+03  0.7561462E-02  0.1212236E+00
         -2   -1    0    0    0  501 -0.00000000000E+00  0.00000000000E+00  0.18382103143E+03  0.18382103143E+03  0.00000000000E+00 0. -1.
          2   -1    0    0  501    0  0.00000000000E+00 -0.00000000000E+00 -0.21790433880E+03  0.21790433880E+03  0.00000000000E+00 0.  1.
         25    2    1    2    0    0 -0.99071445199E+02  0.79850659422E+02 -0.12700821326E+03  0.21901066963E+03  0.12507321101E+03 0.  0.
          5    1    3    3  502    0 -0.31876598421E+02  0.70802974641E+02 -0.12948027858E+03  0.15103573645E+03  0.41800000000E+01 0. -1.
         -5    1    3    3    0  502 -0.67194846778E+02  0.90476847808E+01  0.24720653221E+01  0.67974933177E+02  0.41800000000E+01 0. -1.
        -11    1    1    2    0    0  0.62651570307E+02 -0.19793296969E+02 -0.65650882660E+00  0.65707114308E+02  0.00000000000E+00 0.  1.
         11    1    1    2    0    0  0.36419874892E+02 -0.60057362454E+02  0.93581414714E+02  0.11700758630E+03  0.00000000000E+00 0. -1.
</event>
<event>
 7    1  0.2723366E-009  0.1659461E+03  0.7561462E-02  0.1182143E+00
         -2   -1    0    0    0  501 -0.00000000000E+00  0.00000000000E+00  0.26145945952E+02  0.26145945952E+02  0.00000000000E+00 0.  1.
          2   -1    0    0  501    0  0.00000000000E+00 -0.00000000000E+00 -0.13152252779E+04  0.13152252779E+04  0.00000000000E+00 0. -1.
         25    2    1    2    0    0  0.64526465940E+02 -0.13640491738E+03 -0.68993532969E+03  0.71723640230E+03  0.12508929346E+03 0.  0.
          5    1    3    3  502    0  0.87826889725E+02 -0.12226914560E+03 -0.42546505775E+03  0.45133279771E+03  0.41800000000E+01 0. -1.
         -5    1    3    3    0  502 -0.23300423785E+02 -0.14135771777E+02 -0.26447027194E+03  0.26590360459E+03  0.41800000000E+01 0. -1.
        -11    1    1    2    0    0 -0.86394681611E+01  0.50508361748E+02 -0.80221518897E+02  0.95190478046E+02  0.00000000000E+00 0.  1.
         11    1    1    2    0    0 -0.55886997779E+02  0.85896555632E+02 -0.51892248339E+03  0.52894434353E+03  0.00000000000E+00 0. -1.
</event>
<event>
 7    1  0.2723366E-009  0.8616565E+02  0.7561462E-02  0.1312412E+00
         -1   -1    0    0    0  501 -0.00000000000E+00  0.00000000000E+00  0.16247886054E+03  0.16247886054E+03  0.00000000000E+00 0.  1.
          1   -1    0    0  501    0  0.00000000000E+00 -0.00000000000E+00 -0.76196019141E+02  0.76196019141E+02  0.00000000000E+00 0. -1.
         25    2    1    2    0    0  0.14538621751E+02  0.76868510111E+01  0.25799095428E+02  0.12877676882E+03  0.12508958255E+03 0.  0.
          5    1    3    3  502    0 -0.33704951235E+02  0.87075584437E+01  0.59993395185E+02  0.69487590098E+02  0.41800000000E+01 0. -1.
         -5    1    3    3    0  502  0.48243572986E+02 -0.10207074327E+01 -0.34194299757E+02  0.59289178726E+02  0.41800000000E+01 0. -1.
        -11    1    1    2    0    0 -0.16486909976E+02 -0.46827715308E+02  0.47245732602E+02  0.68533293885E+02  0.00000000000E+00 0.  1.
         11    1    1    2    0    0  0.19482882253E+01  0.39140864297E+02  0.13238013364E+02  0.41364816968E+02  0.00000000000E+00 0. -1.
</event>
<event>
 7    1  0.2723366E-009  0.1212816E+03  0.7561462E-02  0.1240998E+00
          2   -1    0    0  501    0  0.00000000000E+00  0.00000000000E+00  0.87027488527E+02  0.87027488527E+02  0.00000000000E+00 0. -1.
         -2   -1    0    0    0  501 -0.00000000000E+00 -0.00000000000E+00 -0.21881500514E+03  0.21881500514E+03  0.00000000000E+00 0.  1.
         25    2    1    2    0    0  0.86731541565E+02 -0.10588550566E+02 -0.70945210058E+02  0.16827255491E+03  0.12509177510E+03 0.  0.
          5    1    3    3  502    0  0.40749836043E+02 -0.56482615579E+02 -0.75759773000E+02  0.10299442026E+03  0.41800000000E+01 0. -1.
         -5    1    3    3    0  502  0.45981705522E+02  0.45894065012E+02  0.48145629426E+01  0.65278134643E+02  0.41800000000E+01 0. -1.
        -11    1    1    2    0    0 -0.61008372583E+02 -0.23159166417E+02 -0.68325897679E+02  0.94481727377E+02  0.00000000000E+00 0.  1.
         11    1    1    2    0    0 -0.25723168982E+02  0.33747716983E+02  0.74835911263E+01  0.43088211384E+02  0.00000000000E+00 0. -1.
</event>
<event>
 7    1  0.2723366E-009  0.9084118E+02  0.7561462E-02  0.1300827E+00
          2   -1    0    0  501    0  0.00000000000E+00  0.00000000000E+00  0.11964271839E+04  0.11964271839E+04  0.00000000000E+00 0. -1.
         -2   -1    0    0    0  501 -0.00000000000E+00 -0.00000000000E+00 -0.10710433447E+02  0.10710433447E+02  0.00000000000E+00 0.  1.
         25    2    1    2    0    0  0.22662774447E+02 -0.28496905394E+02  0.69570385317E+03  0.70779695261E+03  0.12508796842E+03 0.  0.
          5    1    3    3  502    0 -0.23701219395E+02 -0.30745714007E+02  0.68364951412E+02  0.78729192249E+02  0.41800000000E+01 0.  1.
         -5    1    3    3    0  502  0.46363993842E+02  0.22488086130E+01  0.62733890176E+03  0.62906776036E+03  0.41800000000E+01 0.  1.
        -11    1    1    2    0    0 -0.42777121807E+02  0.50524595752E+02  0.33159684651E+03  0.33814062983E+03  0.00000000000E+00 0.  1.
         11    1    1    2    0    0  0.20114347360E+02 -0.22027690358E+02  0.15841605078E+03  0.16120003491E+03  0.00000000000E+00 0. -1.
</event>
<event>
 7    1  0.2723366E-009  0.1156135E+03  0.7561462E-02  0.1250514E+00
         -3   -1    0    0    0  501 -0.00000000000E+00  0.00000000000E+00  0.28828681141E+03  0.28828681141E+03  0.00000000000E+00 0.  1.
          3   -1    0    0  501    0  0.00000000000E+00 -0.00000000000E+00 -0.58278387497E+02  0.58278387497E+02  0.00000000000E+00 0. -1.
         25    2    1    2    0    0 -0.38824763253E+02 -0.56770691289E+02  0.10329197951E+03  0.17620251416E+03  0.12509124403E+03 0.  0.
          5    1    3    3  502    0 -0.48910146556E+02  0.17186666738E+02  0.43484428113E+01  0.52191621019E+02  0.41800000000E+01 0.  1.
         -5    1    3    3    0  502  0.10085383303E+02 -0.73957358027E+02  0.98943536697E+02  0.12401089314E+03  0.41800000000E+01 0.  1.
        -11    1    1    2    0    0  0.13701136105E+02  0.73179223662E+02  0.11726369032E+03  0.13890173856E+03  0.00000000000E+00 0.  1.
         11    1    1    2    0    0  0.25123627147E+02 -0.16408532373E+02  0.94527540851E+01  0.31460946195E+02  0.00000000000E+00 0. -1.
</event>
<event>
 7    1  0.2723366E-009  0.9364493E+02  0.7561462E-02  0.1294258E+00
          2   -1    0    0  501    0  0.00000000000E+00  0.00000000000E+00  0.32133293680E+03  0.32133293680E+03  0.00000000000E+00 0. -1.
         -2   -1    0    0    0  501 -0.00000000000E+00 -0.00000000000E+00 -0.41345081447E+02  0.41345081447E+02  0.00000000000E+00 0.  1.
         25    2    1    2    0    0  0.15780743709E+02  0.14694728726E+02  0.20910087409E+03  0.24461312744E+03  0.12508972638E+03 0.  0.
          5    1    3    3  502    0 -0.29516450869E+01 -0.37223838490E+02  0.11334155829E+02  0.39246169864E+02  0.41800000000E+01 0.  1.
         -5    1    3    3    0  502  0.18732388796E+02  0.51918567216E+02  0.19776671826E+03  0.20536695758E+03  0.41800000000E+01 0.  1.
        -11    1    1    2    0    0 -0.51468932339E+02  0.79759048625E+01  0.41079739947E+02  0.66334086928E+02  0.00000000000E+00 0.  1.
         11    1    1    2    0    0  0.35688188631E+02 -0.22670633588E+02  0.29807241314E+02  0.51730803877E+02  0.00000000000E+00 0. -1.
</event>
<event>
 7    1  0.2723366E-009  0.1436902E+03  0.7561462E-02  0.1208448E+00
         -2   -1    0    0    0  501 -0.00000000000E+00  0.00000000000E+00  0.67995054229E+02  0.67995054229E+02  0.00000000000E+00 0.  1.
          2   -1    0    0  501    0  0.00000000000E+00 -0.00000000000E+00 -0.50377325547E+03  0.50377325547E+03  0.00000000000E+00 0. -1.
         25    2    1    2    0    0  0.68268952155E+01 -0.96045255223E+02 -0.52971673953E+02  0.16650966183E+03  0.12509265243E+03 0.  0.
          5    1    3    3  502    0  0.77562466643E+01 -0.12540534972E+03 -0.30696316027E+02  0.12940787193E+03  0.41800000000E+01 0.  1.
         -5    1    3    3    0  502 -0.92935144881E+00  0.29360094494E+02 -0.22275357926E+02  0.37101789896E+02  0.41800000000E+01 0.  1.
        -11    1    1    2    0    0  0.16254091073E+02  0.10572464031E+03 -0.32815470187E+03  0.34514837883E+03  0.00000000000E+00 0.  1.
         11    1    1    2    0    0 -0.23080986288E+02 -0.96793850849E+01 -0.54651825418E+02  0.60110269049E+02  0.00000000000E+00 0. -1.
</event>
<event>
 7    1  0.2723366E-009  0.2107796E+03  0.7561462E-02  0.1140950E+00
          2   -1    0    0  501    0  0.00000000000E+00  0.00000000000E+00  0.47963925114E+03  0.47963925114E+03  0.00000000000E+00 0. -1.
         -2   -1    0    0    0  501 -0.00000000000E+00 -0.00000000000E+00 -0.12040981144E+03  0.12040981144E+03  0.00000000000E+00 0.  1.
         25    2    1    2    0    0  0.20749098024E+03  0.29335167444E+02  0.24111267561E+03  0.34306781644E+03  0.12508855027E+03 0.  0.
          5    1    3    3  502    0  0.14260397569E+03  0.68265492023E+01  0.70866912420E+02  0.15944305357E+03  0.41800000000E+01 0. -1.
         -5    1    3    3    0  502  0.64887004548E+02  0.22508618242E+02  0.17024576319E+03  0.18362476287E+03  0.41800000000E+01 0. -1.
        -11    1    1    2    0    0 -0.12745618740E+03 -0.11890627537E+02  0.20650666156E+02  0.12966463181E+03  0.00000000000E+00 0.  1.
         11    1    1    2    0    0 -0.80034792839E+02 -0.17444539906E+02  0.97466097937E+02  0.12731661433E+03  0.00000000000E+00 0. -1.
</event>
<event>
 7    1  0.2723366E-009  0.1067032E+03  0.7561462E-02  0.1266800E+00
          1   -1    0    0  501    0  0.00000000000E+00  0.00000000000E+00  0.31299942947E+03  0.31299942947E+03  0.00000000000E+00 0. -1.
         -1   -1    0    0    0  501 -0.00000000000E+00 -0.00000000000E+00 -0.51443760701E+02  0.51443760701E+02  0.00000000000E+00 0.  1.
         25    2    1    2    0    0 -0.47562359726E+02 -0.11998606294E+02  0.83897372873E+02  0.15840513080E+03  0.12508905497E+03 0.  0.
          5    1    3    3  502    0 -0.48142449406E+02  0.45814294287E+02  0.14801587893E+02  0.68214400239E+02  0.41800000000E+01 0. -1.
         -5    1    3    3    0  502  0.58008968028E+00 -0.57812900580E+02  0.69095784980E+02  0.90190730563E+02  0.41800000000E+01 0. -1.
        -11    1    1    2    0    0  0.60621199454E+02 -0.11748925631E+02  0.62980967271E+02  0.88201866846E+02  0.00000000000E+00 0.  1.
         11    1    1    2    0    0 -0.13058839728E+02  0.23747531924E+02  0.11467732862E+03  0.11783619252E+03  0.00000000000E+00 0. -1.
</event>
<event>
 7    1  0.2723366E-009  0.9784243E+02  0.7561462E-02  0.1284900E+00
         -2   -1    0    0    0  501 -0.00000000000E+00  0.00000000000E+00  0.19117111316E+03  0.19117111316E+03  0.00000000000E+00 0.  1.
          2   -1    0    0  501    0  0.00000000000E+00 -0.00000000000E+00 -0.12798063383E+03  0.12798063383E+03  0.00000000000E+00 0. -1.
         25    2    1    2    0    0 -0.27941770404E+01  0.55428494574E+01 -0.80305685150E+02  0.14877899430E+03  0.12509058907E+03 0.  0.
          5    1    3    3  502    0 -0.55236799289E+02  0.10562556043E+02 -0.47736243595E+01  0.56594447390E+02  0.41800000000E+01 0.  1.
         -5    1    3    3    0  502  0.52442622248E+02 -0.50197065860E+01 -0.75532060790E+02  0.92184546914E+02  0.41800000000E+01 0.  1.
        -11    1    1    2    0    0 -0.40157841822E+02 -0.14263752045E+02  0.42075143800E+02  0.59886764882E+02  0.00000000000E+00 0. -1.
         11    1    1    2    0    0  0.42952018862E+02  0.87209025877E+01  0.10142102068E+03  0.11048598781E+03  0.00000000000E+00 0.  1.
</event>
<event>
 7    1  0.2723366E-009  0.6239574E+02  0.7561462E-02  0.1388044E+00
         -1   -1    0    0    0  501 -0.00000000000E+00  0.00000000000E+00  0.12320018698E+02  0.12320018698E+02  0.00000000000E+00 0.  1.
          1   -1    0    0  501    0  0.00000000000E+00 -0.00000000000E+00 -0.20858538160E+04  0.20858538160E+04  0.00000000000E+00 0. -1.
         25    2    1    2    0    0  0.34231954577E+02 -0.32832116348E+02 -0.18151819816E+04  0.18201053819E+04  0.12509276603E+03 0.  0.
          5    1    3    3  502    0  0.11796506245E+02 -0.72447294317E+01 -0.20452152138E+02  0.25048085580E+02  0.41800000000E+01 0.  1.
         -5    1    3    3    0  502  0.22435448333E+02 -0.25587386916E+02 -0.17947298295E+04  0.17950572963E+04  0.41800000000E+01 0.  1.
        -11    1    1    2    0    0  0.66752490240E+01  0.34464283405E+02 -0.30305312104E+02  0.46376262483E+02  0.00000000000E+00 0.  1.
         11    1    1    2    0    0 -0.40907203601E+02 -0.16321670577E+01 -0.22804650356E+03  0.23169219033E+03  0.00000000000E+00 0. -1.
</event>
<event>
 7    1  0.2948528E-009  0.1397077E+03  0.7561462E-02  0.1213723E+00
         -2   -1    0    0    0  501 -0.00000000000E+00  0.00000000000E+00  0.36029307078E+02  0.36029307078E+02  0.00000000000E+00 0. -1.
          2   -1    0    0  501    0  0.00000000000E+00 -0.00000000000E+00 -0.76221652696E+03  0.76221652696E+03  0.00000000000E+00 0.  1.
         25    2    1    2    0    0 -0.10504852659E+03 -0.65390801626E+02 -0.35086680280E+03  0.39251215241E+03  0.12508847512E+03 0.  0.
          5    1    3    3  502    0 -0.10239316357E+03 -0.58051675760E+02 -0.14659085530E+03  0.18804443162E+03  0.41800000000E+01 0.  1.
         -5    1    3    3    0  502 -0.26553630253E+01 -0.73391258663E+01 -0.20427594750E+03  0.20446772080E+03  0.41800000000E+01 0.  1.
        -11    1    1    2    0    0  0.71776895831E+02 -0.79816377480E+01 -0.15091908628E+03  0.16730869648E+03  0.00000000000E+00 0.  1.
         11    1    1    2    0    0  0.33271630762E+02  0.73372439374E+02 -0.22440133080E+03  0.23842498514E+03  0.00000000000E+00 0. -1.
</event>
<event>
 7    1  0.2723366E-009  0.1069371E+03  0.7561462E-02  0.1266349E+00
         -2   -1    0    0    0  501 -0.00000000000E+00  0.00000000000E+00  0.11004758708E+03  0.11004758708E+03  0.00000000000E+00 0.  1.
          2   -1    0    0  501    0  0.00000000000E+00 -0.00000000000E+00 -0.11428228148E+03  0.11428228148E+03  0.00000000000E+00 0. -1.
         25    2    1    2    0    0 -0.16718905852E+02  0.42349404111E+01 -0.20970025046E+02  0.12800381456E+03  0.12509107905E+03 0.  0.
          5    1    3    3  502    0 -0.30556536913E+02  0.60517484773E+02 -0.73480931796E+01  0.68319358785E+02  0.41800000000E+01 0. -1.
         -5    1    3    3    0  502  0.13837631061E+02 -0.56282544362E+02 -0.13621931866E+02  0.59684455774E+02  0.41800000000E+01 0. -1.
        -11    1    1    2    0    0 -0.62572750670E+01  0.38669624002E+02  0.25682598164E+02  0.46841105454E+02  0.00000000000E+00 0.  1.
         11    1    1    2    0    0  0.22976180918E+02 -0.42904564413E+02 -0.89472675151E+01  0.49484948551E+02  0.00000000000E+00 0. -1.
</event>
<event>
 7    1  0.2723366E-009  0.1162568E+03  0.7561462E-02  0.1249403E+00
         -2   -1    0    0    0  501 -0.00000000000E+00  0.00000000000E+00  0.25606599174E+02  0.25606599174E+02  0.00000000000E+00 0.  1.
          2   -1    0    0  501    0  0.00000000000E+00 -0.00000000000E+00 -0.14772613813E+04  0.14772613813E+04  0.00000000000E+00 0. -1.
         25    2    1    2    0    0  0.58761523199E+02  0.26850907931E+02 -0.13325661021E+04  0.13399825847E+04  0.12508806118E+03 0.  0.
          5    1    3    3  502    0 -0.10697493054E+02  0.47800635862E+02 -0.23895116474E+03  0.24395587444E+03  0.41800000000E+01 0. -1.
         -5    1    3    3    0  502  0.69459016252E+02 -0.20949727931E+02 -0.10936149373E+04  0.10960267102E+04  0.41800000000E+01 0. -1.
        -11    1    1    2    0    0  0.21999793546E+02 -0.19828059754E+02 -0.25627980489E+02  0.39165498255E+02  0.00000000000E+00 0.  1.
         11    1    1    2    0    0 -0.80761316744E+02 -0.70228481772E+01 -0.93460699581E+02  0.12371989753E+03  0.00000000000E+00 0. -1.
</event>
<event>
 7    1  0.2723366E-009  0.1430414E+03  0.7561462E-02  0.1209294E+00
          1   -1    0    0  501    0  0.00000000000E+00  0.00000000000E+00  0.36681673231E+03  0.36681673231E+03  0.00000000000E+00 0. -1.
         -1   -1    0    0    0  501 -0.00000000000E+00 -0.00000000000E+00 -0.79047573855E+02  0.79047573855E+02  0.00000000000E+00 0.  1.
         25    2    1    2    0    0  0.28803509787E+02 -0.12718437858E+03  0.12810628832E+03  0.22150267964E+03  0.12508680047E+03 0.  0.
          5    1    3    3  502    0  0.10337156507E+02 -0.42600688929E+02 -0.21190401588E+02  0.48869019034E+02  0.41800000000E+01 0. -1.
         -5    1    3    3    0  502  0.18466353280E+02 -0.84583689651E+02  0.14929668991E+03  0.17263366061E+03  0.41800000000E+01 0. -1.
        -11    1    1    2    0    0  0.16864849402E+02  0.10166716463E+03  0.87259387557E+02  0.13503642555E+03  0.00000000000E+00 0.  1.
         11    1    1    2    0    0 -0.45668359189E+02  0.25517213952E+02  0.72403482582E+02  0.89325200973E+02  0.00000000000E+00 0. -1.
</event>
<event>
 7    1  0.2723366E-009  0.9952987E+02  0.7561462E-02  0.1281288E+00
         -2   -1    0    0    0  501 -0.00000000000E+00  0.00000000000E+00  0.14017079423E+03  0.14017079423E+03  0.00000000000E+00 0. -1.
          2   -1    0    0  501    0  0.00000000000E+00 -0.00000000000E+00 -0.10794297056E+03  0.10794297056E+03  0.00000000000E+00 0.  1.
         25    2    1    2    0    0 -0.29267431858E+02  0.35822145829E+02  0.50307097032E+02  0.14254552788E+03  0.12509442356E+03 0.  0.
          5    1    3    3  502    0  0.37026563509E+02  0.93159867220E+01  0.59104065972E+02  0.70487708349E+02  0.41800000000E+01 0.  1.
         -5    1    3    3    0  502 -0.66293995367E+02  0.26506159107E+02 -0.87969689401E+01  0.72057819526E+02  0.41800000000E+01 0.  1.
        -11    1    1    2    0    0  0.42875416524E+02  0.76743117064E+01  0.18308764530E+02  0.47248357230E+02  0.00000000000E+00 0. -1.
         11    1    1    2    0    0 -0.13607984666E+02 -0.43496457535E+02 -0.36388037895E+02  0.58319879686E+02  0.00000000000E+00 0.  1.
</event>
<event>
 7    1  0.2723366E-009  0.1187402E+03  0.7561462E-02  0.1245190E+00
         -2   -1    0    0    0  501 -0.00000000000E+00  0.00000000000E+00  0.53385842372E+02  0.53385842372E+02  0.00000000000E+00 0. -1.
          2   -1    0    0  501    0  0.00000000000E+00 -0.00000000000E+00 -0.35106783137E+03  0.35106783137E+03  0.00000000000E+00 0.  1.
         25    2    1    2    0    0  0.37621465311E+02 -0.49042848251E+02 -0.24601960333E+03  0.28283193834E+03  0.12509070510E+03 0.  0.
          5    1    3    3  502    0  0.73028263038E+02 -0.34471477159E+01 -0.87637067431E+02  0.11420480733E+03  0.41800000000E+01 0.  1.
         -5    1    3    3    0  502 -0.35406797727E+02 -0.45595700535E+02 -0.15838253590E+03  0.16862713100E+03  0.41800000000E+01 0.  1.
        -11    1    1    2    0    0  0.24008495153E+02 -0.48594677741E+01 -0.26223935151E+02  0.35884774506E+02  0.00000000000E+00 0.  1.
         11    1    1    2    0    0 -0.61629960465E+02  0.53902316025E+02 -0.25438450516E+02  0.85736960901E+02  0.00000000000E+00 0. -1.
</event>
<event>
 7    1  0.2723366E-009  0.1456097E+03  0.7561462E-02  0.1205974E+00
          1   -1    0    0  501    0  0.00000000000E+00  0.00000000000E+00  0.14328841558E+03  0.14328841558E+03  0.00000000000E+00 0. -1.
         -1   -1    0    0    0  501 -0.00000000000E+00 -0.00000000000E+00 -0.18439414171E+03  0.18439414171E+03  0.00000000000E+00 0.  1.
         25    2    1    2    0    0  0.10984815210E+03  0.53037241353E+02 -0.12530425812E+02  0.17516923736E+03  0.12509070571E+03 0.  0.
          5    1    3    3  502    0  0.13094887417E+03  0.58183301700E+02  0.98649994203E+01  0.14369305779E+03  0.41800000000E+01 0. -1.
         -5    1    3    3    0  502 -0.21100722069E+02 -0.51460603469E+01 -0.22395425232E+02  0.31476179569E+02  0.41800000000E+01 0. -1.
        -11    1    1    2    0    0 -0.88780186827E+02 -0.55243099302E+02  0.13474689048E+02  0.10542907018E+03  0.00000000000E+00 0. -1.
         11    1    1    2    0    0 -0.21067965274E+02  0.22058579494E+01 -0.42049989360E+02  0.47084249758E+02  0.00000000000E+00 0.  1.
</event>
<event>
 7    1  0.2723366E-009  0.9470573E+02  0.7561462E-02  0.1291840E+00
          3   -1    0    0  501    0  0.00000000000E+00  0.00000000000E+00  0.11687644900E+03  0.11687644900E+03  0.00000000000E+00 0.  1.
         -3   -1    0    0    0  501 -0.00000000000E+00 -0.00000000000E+00 -0.29909582183E+03  0.29909582183E+03  0.00000000000E+00 0. -1.
         25    2    1    2    0    0 -0.73283243423E+02  0.12200406272E+02 -0.24275108358E+03  0.28301024348E+03  0.12508967045E+03 0.  0.
          5    1    3    3  502    0  0.39301054341E+01 -0.15918354078E+02  0.82804453673E+01  0.18838203225E+02  0.41800000000E+01 0. -1.
         -5    1    3    3    0  502 -0.77213348857E+02  0.28118760350E+02 -0.25103152894E+03  0.26417204025E+03  0.41800000000E+01 0. -1.
        -11    1    1    2    0    0  0.64431292694E+02 -0.29434240747E+02  0.15213037231E+01  0.70852525513E+02  0.00000000000E+00 0. -1.
         11    1    1    2    0    0  0.88519507291E+01  0.17233834475E+02  0.59010407021E+02  0.62109501843E+02  0.00000000000E+00 0.  1.
</event>
<event>
 7    1  0.3641869E-009  0.1087125E+03  0.7561462E-02  0.1262973E+00
          1   -1    0    0  501    0  0.00000000000E+00  0.00000000000E+00  0.38332600100E+03  0.38332600100E+03  0.00000000000E+00 0. -1.
         -1   -1    0    0    0  501 -0.00000000000E+00 -0.00000000000E+00 -0.51364275804E+02  0.51364275804E+02  0.00000000000E+00 0.  1.
         25    2    1    2    0    0 -0.88325378371E+02 -0.44361613346E+01  0.19053697354E+03  0.24448484338E+03  0.12508976124E+03 0.  0.
          5    1    3    3  502    0 -0.84308159115E+02 -0.33606919956E+01  0.39368561591E+02  0.93201480599E+02  0.41800000000E+01 0.  1.
         -5    1    3    3    0  502 -0.40172192560E+01 -0.10754693390E+01  0.15116841195E+03  0.15128336278E+03  0.41800000000E+01 0.  1.
        -11    1    1    2    0    0  0.13418698274E+02 -0.38457663685E+02  0.49550996648E+02  0.64143235250E+02  0.00000000000E+00 0. -1.
         11    1    1    2    0    0  0.74906680097E+02  0.42893825020E+02  0.91873755006E+02  0.12606219817E+03  0.00000000000E+00 0.  1.
</event>
<event>
 7    1  0.2723366E-009  0.1174399E+03  0.7561462E-02  0.1247381E+00
         -1   -1    0    0    0  501 -0.00000000000E+00  0.00000000000E+00  0.18295437857E+03  0.18295437857E+03  0.00000000000E+00 0.  1.
          1   -1    0    0  501    0  0.00000000000E+00 -0.00000000000E+00 -0.12637627648E+03  0.12637627648E+03  0.00000000000E+00 0. -1.
         25    2    1    2    0    0  0.39639339469E+02 -0.74883654944E+02  0.97295783929E+02  0.17969757347E+03  0.12508360935E+03 0.  0.
          5    1    3    3  502    0 -0.29929269039E+02 -0.13482191370E+01  0.67696156941E+02  0.74147291958E+02  0.41800000000E+01 0.  1.
         -5    1    3    3    0  502  0.69568608509E+02 -0.73535435807E+02  0.29599626987E+02  0.10555028151E+03  0.41800000000E+01 0.  1.
        -11    1    1    2    0    0 -0.46129840637E+02  0.23963473597E+02  0.14772505108E+02  0.54041069301E+02  0.00000000000E+00 0.  1.
         11    1    1    2    0    0  0.64905011679E+01  0.50920181347E+02 -0.55490186949E+02  0.75592012286E+02  0.00000000000E+00 0. -1.
</event>
<event>
 7    1  0.2723366E-009  0.1103791E+03  0.7561462E-02  0.1259870E+00
          2   -1    0    0  501    0  0.00000000000E+00  0.00000000000E+00  0.81078046140E+02  0.81078046140E+02  0.00000000000E+00 0. -1.
         -2   -1    0    0    0  501 -0.00000000000E+00 -0.00000000000E+00 -0.27996263505E+03  0.27996263505E+03  0.00000000000E+00 0.  1.
         25    2    1    2    0    0 -0.50052654865E+02 -0.68653181616E+02 -0.17870965693E+03  0.23410093461E+03  0.12509028140E+03 0.  0.
          5    1    3    3  502    0 -0.36536662296E+02 -0.13207722452E+02 -0.17212128177E+03  0.17650093388E+03  0.41800000000E+01 0. -1.
         -5    1    3    3    0  502 -0.13515992569E+02 -0.55445459165E+02 -0.65883751651E+01  0.57600000733E+02  0.41800000000E+01 0. -1.
        -11    1    1    2    0    0 -0.10732146632E+02  0.62444747761E+02 -0.28253106390E+01  0.63423243961E+02  0.00000000000E+00 0.  1.
         11    1    1    2    0    0  0.60784801497E+02  0.62084338548E+01 -0.17349621343E+02  0.63516502617E+02  0.00000000000E+00 0. -1.
</event>
<event>
 7    1  0.2723366E-009  0.1654609E+03  0.7561462E-02  0.1182666E+00
         -3   -1    0    0    0  501 -0.00000000000E+00  0.00000000000E+00  0.47228663035E+03  0.47228663035E+03  0.00000000000E+00 0.  1.
          3   -1    0    0  501    0  0.00000000000E+00 -0.00000000000E+00 -0.66648822153E+02  0.66648822153E+02  0.00000000000E+00 0. -1.
         25    2    1    2    0    0  0.11080747278E+03  0.72230162047E+02  0.14493393388E+03  0.23269751789E+03  0.12508715886E+03 0.  0.
          5    1    3    3  502    0  0.10184418138E+03 -0.27093600865E+01  0.10813105563E+03  0.14862494914E+03  0.41800000000E+01 0. -1.
         -5    1    3    3    0  502  0.89632913928E+01  0.74939522133E+02  0.36802878249E+02  0.84072568758E+02  0.41800000000E+01 0. -1.
        -11    1    1    2    0    0 -0.72907910809E+02 -0.12693673379E+01  0.17011473556E+03  0.18508429973E+03  0.00000000000E+00 0.  1.
         11    1    1    2    0    0 -0.37899561968E+02 -0.70960794709E+02  0.90589138754E+02  0.12115363487E+03  0.00000000000E+00 0. -1.
</event>
<event>
 7    1  0.2723366E-009  0.1025793E+03  0.7561462E-02  0.1274964E+00
         -1   -1    0    0    0  501 -0.00000000000E+00  0.00000000000E+00  0.27418697417E+03  0.27418697417E+03  0.00000000000E+00 0.  1.
          1   -1    0    0  501    0  0.00000000000E+00 -0.00000000000E+00 -0.54804108395E+02  0.54804108395E+02  0.00000000000E+00 0. -1.
         25    2    1    2    0    0  0.52542005328E+02 -0.71542428323E+01  0.14861290833E+03  0.20135802561E+03  0.12508961763E+03 0.  0.
          5    1    3    3  502    0  0.24289534833E+02 -0.58566500812E+02  0.12037868235E+03  0.13611949193E+03  0.41800000000E+01 0. -1.
         -5    1    3    3    0  502  0.28252470495E+02  0.51412257979E+02  0.28234225986E+02  0.65238533680E+02  0.41800000000E+01 0. -1.
        -11    1    1    2    0    0 -0.44930866179E+02  0.33073757332E+02  0.81331505762E+02  0.98627937164E+02  0.00000000000E+00 0.  1.
         11    1    1    2    0    0 -0.76111391495E+01 -0.25919514500E+02 -0.10561548323E+02  0.29005119790E+02  0.00000000000E+00 0. -1.
</event>
<event>
 7    1  0.2723366E-009  0.1027372E+03  0.7561462E-02  0.1274643E+00
          2   -1    0    0  501    0  0.00000000000E+00  0.00000000000E+00  0.12186467308E+03  0.12186467308E+03  0.00000000000E+00 0.  1.
         -2   -1    0    0    0  501 -0.00000000000E+00 -0.00000000000E+00 -0.10203032753E+03  0.10203032753E+03  0.00000000000E+00 0. -1.
         25    2    1    2    0    0 -0.18975193417E+02 -0.20181332145E+02 -0.71857787359E+01  0.12832434235E+03  0.12509259487E+03 0.  0.
          5    1    3    3  502    0 -0.35664024563E+02  0.41253814253E+02 -0.27702056383E+02  0.61308043243E+02  0.41800000000E+01 0.  1.
         -5    1    3    3    0  502  0.16688831146E+02 -0.61435146398E+02  0.20516277647E+02  0.67016299110E+02  0.41800000000E+01 0.  1.
        -11    1    1    2    0    0  0.14379562899E+02 -0.31747152291E+02  0.25909143561E+02  0.43427378781E+02  0.00000000000E+00 0.  1.
         11    1    1    2    0    0  0.45956305174E+01  0.51928484435E+02  0.11109807274E+01  0.52143279469E+02  0.00000000000E+00 0. -1.
</event>
<event>
 7    1  0.2723366E-009  0.1254630E+03  0.7561462E-02  0.1234347E+00
          1   -1    0    0  501    0  0.00000000000E+00  0.00000000000E+00  0.34908719817E+02  0.34908719817E+02  0.00000000000E+00 0. -1.
         -1   -1    0    0    0  501 -0.00000000000E+00 -0.00000000000E+00 -0.49053515102E+03  0.49053515102E+03  0.00000000000E+00 0.  1.
         25    2    1    2    0    0  0.49745869073E+02  0.51533968974E+02 -0.27631693457E+03  0.31165406189E+03  0.12508718765E+03 0.  0.
          5    1    3    3  502    0  0.12800085092E+02  0.88881441866E+02 -0.19542674700E+03  0.21511122409E+03  0.41800000000E+01 0.  1.
         -5    1    3    3    0  502  0.36945783981E+02 -0.37347472892E+02 -0.80890187566E+02  0.96542837797E+02  0.41800000000E+01 0.  1.
        -11    1    1    2    0    0  0.11342037171E+02  0.14476665015E+02 -0.74965411384E+01  0.19859853126E+02  0.00000000000E+00 0. -1.
         11    1    1    2    0    0 -0.61087906244E+02 -0.66010633989E+02 -0.17181295550E+03  0.19392995583E+03  0.00000000000E+00 0.  1.
</event>
<event>
 7    1  0.2723366E-009  0.1006609E+03  0.7561462E-02  0.1278912E+00
          1   -1    0    0  501    0  0.00000000000E+00  0.00000000000E+00  0.22112375620E+03  0.22112375620E+03  0.00000000000E+00 0. -1.
         -1   -1    0    0    0  501 -0.00000000000E+00 -0.00000000000E+00 -0.57203323814E+02  0.57203323814E+02  0.00000000000E+00 0.  1.
         25    2    1    2    0    0  0.60491541056E+01 -0.21431952427E+02  0.69466655316E+02  0.14480665709E+03  0.12508969137E+03 0.  0.
          5    1    3    3  502    0  0.57472114462E+02  0.18677368184E+02  0.43075513400E+02  0.74329403856E+02  0.41800000000E+01 0.  1.
         -5    1    3    3    0  502 -0.51422960356E+02 -0.40109320611E+02  0.26391141916E+02  0.70477253233E+02  0.41800000000E+01 0.  1.
        -11    1    1    2    0    0 -0.38759299207E+02  0.59686854024E+01  0.83100379087E+01  0.40086970583E+02  0.00000000000E+00 0. -1.
         11    1    1    2    0    0  0.32710145102E+02  0.15463267025E+02  0.86143739157E+02  0.93433452337E+02  0.00000000000E+00 0.  1.
</event>
<event>
 7    1  0.2723366E-009  0.8108909E+02  0.7561462E-02  0.1325989E+00
          2   -1    0    0  501    0  0.00000000000E+00  0.00000000000E+00  0.70670356833E+02  0.70670356833E+02  0.00000000000E+00 0. -1.
         -2   -1    0    0    0  501 -0.00000000000E+00 -0.00000000000E+00 -0.21595124290E+03  0.21595124290E+03  0.00000000000E+00 0.  1.
         25    2    1    2    0    0  0.41253835153E+02 -0.18728905636E+02 -0.35683386546E+02  0.13774649447E+03  0.12509253312E+03 0.  0.
          5    1    3    3  502    0 -0.75269445974E+01  0.37620225744E+01 -0.72103693683E+02  0.72713291437E+02  0.41800000000E+01 0.  1.
         -5    1    3    3    0  502  0.48780779751E+02 -0.22490928210E+02  0.36420307138E+02  0.65033203034E+02  0.41800000000E+01 0.  1.
        -11    1    1    2    0    0 -0.16871540548E+02 -0.35577511596E+02 -0.30112926692E+02  0.49570117669E+02  0.00000000000E+00 0. -1.
         11    1    1    2    0    0 -0.24382294606E+02  0.54306417232E+02 -0.79484572833E+02  0.99304987595E+02  0.00000000000E+00 0.  1.
</event>
<event>
 7    1  0.3266902E-009  0.1022326E+03  0.7561462E-02  0.1275670E+00
          2   -1    0    0  501    0  0.00000000000E+00  0.00000000000E+00  0.89114523057E+03  0.89114523057E+03  0.00000000000E+00 0. -1.
         -2   -1    0    0    0  501 -0.00000000000E+00 -0.00000000000E+00 -0.18922504566E+02  0.18922504566E+02  0.00000000000E+00 0.  1.
         25    2    1    2    0    0 -0.11440195592E+02 -0.33109910611E+02  0.70060047320E+03  0.71254164307E+03  0.12508967107E+03 0.  0.
          5    1    3    3  502    0  0.46469943372E+02  0.14320461583E+02  0.17717476670E+03  0.18377405043E+03  0.41800000000E+01 0.  1.
         -5    1    3    3    0  502 -0.57910138964E+02 -0.47430372194E+02  0.52342570650E+03  0.52876759264E+03  0.41800000000E+01 0.  1.
        -11    1    1    2    0    0 -0.43819103160E+01 -0.22473465425E+02  0.84234892954E+01  0.24396986661E+02  0.00000000000E+00 0.  1.
         11    1    1    2    0    0  0.15822105908E+02  0.55583376037E+02  0.16319876351E+03  0.17312910541E+03  0.00000000000E+00 0. -1.
</event>
<event>
 7    1  0.2723366E-009  0.9025835E+02  0.7561462E-02  0.1302227E+00
         -1   -1    0    0    0  501 -0.00000000000E+00  0.00000000000E+00  0.20024432030E+03  0.20024432030E+03  0.00000000000E+00 0.  1.
          1   -1    0    0  501    0  0.00000000000E+00 -0.00000000000E+00 -0.68323574247E+02  0.68323574247E+02  0.00000000000E+00 0. -1.
         25    2    1    2    0    0  0.32430205643E+02 -0.18602339294E+02  0.50212863661E+02  0.13988107132E+03  0.12509043597E+03 0.  0.
          5    1    3    3  502    0  0.57633015299E+02 -0.43193386521E+02  0.68934203992E+02  0.99782914227E+02  0.41800000000E+01 0. -1.
         -5    1    3    3    0  502 -0.25202809656E+02  0.24591047228E+02 -0.18721340331E+02  0.40098157091E+02  0.41800000000E+01 0. -1.
        -11    1    1    2    0    0 -0.28980252388E+02  0.41024196073E+02  0.91183080502E+02  0.10410184370E+03  0.00000000000E+00 0.  1.
         11    1    1    2    0    0 -0.34499532553E+01 -0.22421856780E+02 -0.94751981138E+01  0.24584979524E+02  0.00000000000E+00 0. -1.
</event>
<event>
 7    1  0.2723366E-009  0.8246341E+02  0.7561462E-02  0.1322203E+00
          1   -1    0    0  501    0  0.00000000000E+00  0.00000000000E+00  0.17885635755E+03  0.17885635755E+03  0.00000000000E+00 0. -1.
         -1   -1    0    0    0  501 -0.00000000000E+00 -0.00000000000E+00 -0.62260164224E+02  0.62260164224E+02  0.00000000000E+00 0.  1.
         25    2    1    2    0    0 -0.23839013977E+01 -0.93183219477E+01  0.32327728697E+02  0.12955773213E+03  0.12509040651E+03 0.  0.
          5    1    3    3  502    0  0.54883895271E+02 -0.64263080844E+01 -0.12313772180E+02  0.56768307893E+02  0.41800000000E+01 0.  1.
         -5    1    3    3    0  502 -0.57267796669E+02 -0.28920138633E+01  0.44641500877E+02  0.72789424232E+02  0.41800000000E+01 0.  1.
        -11    1    1    2    0    0 -0.13631314274E+01 -0.21213015841E+02 -0.62324666387E+00  0.21265902397E+02  0.00000000000E+00 0.  1.
         11    1    1    2    0    0  0.37470328251E+01  0.30531337789E+02  0.84891711296E+02  0.90292887255E+02  0.00000000000E+00 0. -1.
</event>
<event>
 7    1  0.2723366E-009  0.1470011E+03  0.7561462E-02  0.1204207E+00
         -2   -1    0    0    0  501 -0.00000000000E+00  0.00000000000E+00  0.12276324227E+03  0.12276324227E+03  0.00000000000E+00 0.  1.
          2   -1    0    0  501    0  0.00000000000E+00 -0.00000000000E+00 -0.31291145789E+03  0.31291145789E+03  0.00000000000E+00 0. -1.
         25    2    1    2    0    0  0.73911863059E+02 -0.11081451134E+03 -0.20711779426E+03  0.27620149710E+03  0.12508663748E+03 0.  0.
          5    1    3    3  502    0  0.71335012664E+01 -0.34263937664E+01 -0.12509409197E+03  0.12541383999E+03  0.41800000000E+01 0.  1.
         -5    1    3    3    0  502  0.66778361792E+02 -0.10738811758E+03 -0.82023702292E+02  0.15078765711E+03  0.41800000000E+01 0.  1.
        -11    1    1    2    0    0 -0.31318811424E+02  0.11161417038E+03  0.14039592559E+02  0.11677200494E+03  0.00000000000E+00 0.  1.
         11    1    1    2    0    0 -0.42593051634E+02 -0.79965903890E+00  0.29299860762E+01  0.42701198116E+02  0.00000000000E+00 0. -1.
</event>
<event>
 7    1  0.2723366E-009  0.7286976E+02  0.7561462E-02  0.1350598E+00
          1   -1    0    0  501    0  0.00000000000E+00  0.00000000000E+00  0.40957813457E+03  0.40957813457E+03  0.00000000000E+00 0. -1.
         -1   -1    0    0    0  501 -0.00000000000E+00 -0.00000000000E+00 -0.34794469666E+02  0.34794469666E+02  0.00000000000E+00 0.  1.
         25    2    1    2    0    0  0.85205967086E+01  0.18154695664E+02  0.12618595589E+03  0.17880928496E+03  0.12509065266E+03 0.  0.
          5    1    3    3  502    0  0.34240844758E+02 -0.45765896880E+01 -0.11654921854E+02  0.36697278187E+02  0.41800000000E+01 0. -1.
         -5    1    3    3    0  502 -0.25720248050E+02  0.22731285352E+02  0.13784087774E+03  0.14211200678E+03  0.41800000000E+01 0. -1.
        -11    1    1    2    0    0  0.32779970876E+02 -0.61361918481E+01  0.37742148414E+02  0.50365157678E+02  0.00000000000E+00 0.  1.
         11    1    1    2    0    0 -0.41300567585E+02 -0.12018503816E+02  0.21085556060E+03  0.21519816160E+03  0.00000000000E+00 0. -1.
</event>
<event>
 7    1  0.2723366E-009  0.1339246E+03  0.7561462E-02  0.1221746E+00
          4   -1    0    0  501    0  0.00000000000E+00  0.00000000000E+00  0.26556549720E+03  0.26556549720E+03  0.00000000000E+00 0.  1.
         -4   -1    0    0    0  501 -0.00000000000E+00 -0.00000000000E+00 -0.71410913579E+02  0.71410913579E+02  0.00000000000E+00 0. -1.
         25    2    1    2    0    0  0.16332541793E+02  0.77492591191E+02  0.69644795725E+02  0.16361403919E+03  0.12508917873E+03 0.  0.
          5    1    3    3  502    0 -0.26905149913E+02 -0.24333897228E+02  0.24952406768E+02  0.44228052746E+02  0.41800000000E+01 0. -1.
         -5    1    3    3    0  502  0.43237691706E+02  0.10182648842E+03  0.44692388957E+02  0.11938598644E+03  0.41800000000E+01 0. -1.
        -11    1    1    2    0    0 -0.44340693936E+02 -0.71500132352E+01  0.45680441190E+02  0.64061864907E+02  0.00000000000E+00 0.  1.
         11    1    1    2    0    0  0.28008152143E+02 -0.70342577956E+02  0.78829346707E+02  0.10930050669E+03  0.00000000000E+00 0. -1.
</event>
<event>
 7    1  0.2723366E-009  0.7809271E+02  0.7561462E-02  0.1334553E+00
         -1   -1    0    0    0  501 -0.00000000000E+00  0.00000000000E+00  0.23441124091E+03  0.23441124091E+03  0.00000000000E+00 0.  1.
          1   -1    0    0  501    0  0.00000000000E+00 -0.00000000000E+00 -0.67628124086E+02  0.67628124086E+02  0.00000000000E+00 0. -1.
         25    2    1    2    0    0  0.23317674134E+02 -0.40494101718E+02  0.41692376755E+02  0.13988963760E+03  0.12508944891E+03 0.  0.
          5    1    3    3  502    0  0.43641030584E+01 -0.31848242411E+02 -0.42276553127E+02  0.53274152123E+02  0.41800000000E+01 0. -1.
         -5    1    3    3    0  502  0.18953571075E+02 -0.86458593070E+01  0.83968929882E+02  0.86615485481E+02  0.41800000000E+01 0. -1.
        -11    1    1    2    0    0 -0.52918248156E+02  0.69691579556E+00  0.73646975824E+02  0.90690152319E+02  0.00000000000E+00 0.  1.
         11    1    1    2    0    0  0.29600574023E+02  0.39797185922E+02  0.51443764243E+02  0.71459575070E+02  0.00000000000E+00 0. -1.
</event>
<event>
 7    1  0.2860541E-009  0.1087606E+03  0.7561462E-02  0.1262882E+00
         -2   -1    0    0    0  501 -0.00000000000E+00  0.00000000000E+00  0.50909500885E+02  0.50909500885E+02  0.00000000000E+00 0.  1.
          2   -1    0    0  501    0  0.00000000000E+00 -0.00000000000E+00 -0.40699090103E+03  0.40699090103E+03  0.00000000000E+00 0. -1.
         25    2    1    2    0    0 -0.10709577376E+02 -0.78772169418E+02 -0.27379746763E+03  0.31133954443E+03  0.12509000328E+03 0.  0.
          5    1    3    3  502    0  0.30972412436E+02  0.59728451157E+01 -0.13787182053E+02  0.34677427814E+02  0.41800000000E+01 0. -1.
         -5    1    3    3    0  502 -0.41681989811E+02 -0.84745014533E+02 -0.26001028558E+03  0.27666211661E+03  0.41800000000E+01 0. -1.
        -11    1    1    2    0    0  0.23225969067E+02  0.18733339341E+02 -0.79782794323E+02  0.85180267151E+02  0.00000000000E+00 0. -1.
         11    1    1    2    0    0 -0.12516391692E+02  0.60038830077E+02 -0.25011381940E+01  0.61380590338E+02  0.00000000000E+00 0.  1.
</event>
<event>
 7    1  0.2723366E-009  0.9996741E+02  0.7561462E-02  0.1280364E+00
         -2   -1    0    0    0  501 -0.00000000000E+00  0.00000000000E+00  0.36555898054E+03  0.36555898054E+03  0.00000000000E+00 0.  1.
          2   -1    0    0  501    0  0.00000000000E+00 -0.00000000000E+00 -0.50920757737E+02  0.50920757737E+02  0.00000000000E+00 0. -1.
         25    2    1    2    0    0  0.32861660561E+02 -0.20059549272E+02  0.64629124295E+02  0.14596690411E+03  0.12508852519E+03 0.  0.
          5    1    3    3  502    0  0.47513563178E+02  0.22343063461E+02 -0.14745082582E+02  0.54695895925E+02  0.41800000000E+01 0. -1.
         -5    1    3    3    0  502 -0.14651902617E+02 -0.42402612733E+02  0.79374206877E+02  0.91271008180E+02  0.41800000000E+01 0. -1.
        -11    1    1    2    0    0  0.30413774265E+02 -0.10186291478E+02  0.61130732172E+02  0.69034227851E+02  0.00000000000E+00 0.  1.
         11    1    1    2    0    0 -0.63275434825E+02  0.30245840750E+02  0.18887836633E+03  0.20147860632E+03  0.00000000000E+00 0. -1.
</event>
<event>
 7    1  0.2723366E-009  0.9239078E+02  0.7561462E-02  0.1297163E+00
          2   -1    0    0  501    0  0.00000000000E+00  0.00000000000E+00  0.51373326525E+02  0.51373326525E+02  0.00000000000E+00 0. -1.
         -2   -1    0    0    0  501 -0.00000000000E+00 -0.00000000000E+00 -0.24588732152E+03  0.24588732152E+03  0.00000000000E+00 0.  1.
         25    2    1    2    0    0  0.18775524245E+02  0.21670935878E+01 -0.83093758732E+02  0.15134986117E+03  0.12507993896E+03 0.  0.
          5    1    3    3  502    0  0.45798373801E+02  0.35604150420E+02 -0.52186992247E+00  0.58162628192E+02  0.41800000000E+01 0.  1.
         -5    1    3    3    0  502 -0.27022849556E+02 -0.33437056832E+02 -0.82571888810E+02  0.93187232974E+02  0.41800000000E+01 0.  1.
        -11    1    1    2    0    0 -0.33097007451E+02  0.32211707187E+02 -0.26653946637E+02  0.53323905084E+02  0.00000000000E+00 0. -1.
         11    1    1    2    0    0  0.14321483205E+02 -0.34378800774E+02 -0.84766289630E+02  0.92586881801E+02  0.00000000000E+00 0.  1.
</event>
<event>
 7    1  0.2723366E-009  0.1265875E+03  0.7561462E-02  0.1232609E+00
         -2   -1    0    0    0  501 -0.00000000000E+00  0.00000000000E+00  0.14378544499E+02  0.14378544499E+02  0.00000000000E+00 0.  1.
          2   -1    0    0  501    0  0.00000000000E+00 -0.00000000000E+00 -0.17938508109E+04  0.17938508109E+04  0.00000000000E+00 0. -1.
         25    2    1    2    0    0 -0.97527575810E+02 -0.54390598272E+02 -0.11700170327E+04  0.11819720763E+04  0.12509263438E+03 0.  0.
          5    1    3    3  502    0 -0.50028080387E+02 -0.41280939206E+02 -0.10520921876E+04  0.10540978931E+04  0.41800000000E+01 0. -1.
         -5    1    3    3    0  502 -0.47499495424E+02 -0.13109659066E+02 -0.11792484511E+03  0.12787418317E+03  0.41800000000E+01 0. -1.
        -11    1    1    2    0    0  0.57054508932E+02  0.74254274107E+02 -0.48329072006E+03  0.49227922392E+03  0.00000000000E+00 0. -1.
         11    1    1    2    0    0  0.40473066878E+02 -0.19863675834E+02 -0.12616451367E+03  0.13397805518E+03  0.00000000000E+00 0.  1.
</event>
<event>
 7    1  0.2723366E-009  0.1033103E+03  0.7561462E-02  0.1273485E+00
          1   -1    0    0  501    0  0.00000000000E+00  0.00000000000E+00  0.60452465373E+03  0.60452465373E+03  0.00000000000E+00 0. -1.
         -1   -1    0    0    0  501 -0.00000000000E+00 -0.00000000000E+00 -0.35825565898E+02  0.35825565898E+02  0.00000000000E+00 0.  1.
         25    2    1    2    0    0 -0.35737703008E+02 -0.69350744786E+01  0.50905705544E+03  0.52546339749E+03  0.12508963880E+03 0.  0.
          5    1    3    3  502    0 -0.19588303313E+02  0.49573452057E+02  0.37811004661E+03  0.38187158643E+03  0.41800000000E+01 0. -1.
         -5    1    3    3    0  502 -0.16149399695E+02 -0.56508526536E+02  0.13094700883E+03  0.14359181105E+03  0.41800000000E+01 0. -1.
        -11    1    1    2    0    0  0.64186471461E+02 -0.25751611416E+01  0.54932945845E+02  0.84523151342E+02  0.00000000000E+00 0. -1.
         11    1    1    2    0    0 -0.28448768453E+02  0.95102356201E+01  0.47090865461E+01  0.30363670795E+02  0.00000000000E+00 0.  1.
</event>
<event>
 7    1  0.2723366E-009  0.1046886E+03  0.7561462E-02  0.1270734E+00
          4   -1    0    0  501    0  0.00000000000E+00  0.00000000000E+00  0.38019719570E+02  0.38019719570E+02  0.00000000000E+00 0. -1.
         -4   -1    0    0    0  501 -0.00000000000E+00 -0.00000000000E+00 -0.42542797688E+03  0.42542797688E+03  0.00000000000E+00 0.  1.
         25    2    1    2    0    0 -0.15050903390E+02  0.12676041225E+02 -0.99750733976E+02  0.16119857606E+03  0.12509020857E+03 0.  0.
          5    1    3    3  502    0 -0.44494548659E+02  0.53979508833E+02 -0.33553146700E+02  0.77697093174E+02  0.41800000000E+01 0.  1.
         -5    1    3    3    0  502  0.29443645270E+02 -0.41303467607E+02 -0.66197587276E+02  0.83501482887E+02  0.41800000000E+01 0.  1.
        -11    1    1    2    0    0 -0.68944103417E+01  0.35130108569E+02 -0.73908215016E+02  0.82122357911E+02  0.00000000000E+00 0. -1.
         11    1    1    2    0    0  0.21945313731E+02 -0.47806149794E+02 -0.21374930832E+03  0.22012676248E+03  0.00000000000E+00 0.  1.
</event>
<event>
 7    1  0.2723366E-009  0.8488243E+02  0.7561462E-02  0.1315740E+00
          1   -1    0    0  501    0  0.00000000000E+00  0.00000000000E+00  0.28940169509E+03  0.28940169509E+03  0.00000000000E+00 0. -1.
         -1   -1    0    0    0  501 -0.00000000000E+00 -0.00000000000E+00 -0.41604559111E+02  0.41604559111E+02  0.00000000000E+00 0.  1.
         25    2    1    2    0    0 -0.83103470558E+01 -0.13258809933E+02  0.10804908083E+03  0.16603211421E+03  0.12508877316E+03 0.  0.
          5    1    3    3  502    0 -0.93552768622E+01  0.33891698553E+02  0.11300923509E+03  0.11842604465E+03  0.41800000000E+01 0. -1.
         -5    1    3    3    0  502  0.10449298064E+01 -0.47150508486E+02 -0.49601542527E+01  0.47606069560E+02  0.41800000000E+01 0. -1.
        -11    1    1    2    0    0  0.46544623631E+02  0.14517473241E+02  0.68118938648E+02  0.83769617528E+02  0.00000000000E+00 0. -1.
         11    1    1    2    0    0 -0.38234276575E+02 -0.12586633083E+01  0.71629116495E+02  0.81204522463E+02  0.00000000000E+00 0.  1.
</event>
<event>
 7    1  0.2723366E-009  0.9238369E+02  0.7561462E-02  0.1297180E+00
         -2   -1    0    0    0  501 -0.00000000000E+00  0.00000000000E+00  0.23858898464E+03  0.23858898464E+03  0.00000000000E+00 0.  1.
          2   -1    0    0  501    0  0.00000000000E+00 -0.00000000000E+00 -0.63187347400E+02  0.63187347400E+02  0.00000000000E+00 0. -1.
         25    2    1    2    0    0 -0.18797743982E+02  0.35584233318E+01  0.16656133018E+03  0.20917502889E+03  0.12508196690E+03 0.  0.
          5    1    3    3  502    0 -0.72408985734E+02  0.53964765367E+01  0.96195027961E+02  0.12059493761E+03  0.41800000000E+01 0.  1.
         -5    1    3    3    0  502  0.53611241752E+02 -0.18380532049E+01  0.70366302223E+02  0.88580091275E+02  0.41800000000E+01 0.  1.
        -11    1    1    2    0    0  0.16152301379E+02 -0.28709951580E+02 -0.31115859085E+02  0.45313958623E+02  0.00000000000E+00 0. -1.
         11    1    1    2    0    0  0.26454426033E+01  0.25151528248E+02  0.39956166146E+02  0.47287344531E+02  0.00000000000E+00 0.  1.
</event>
<event>
 7    1  0.2723366E-009  0.1160740E+03  0.7561462E-02  0.1249718E+00
         -4   -1    0    0    0  501 -0.00000000000E+00  0.00000000000E+00  0.18986560704E+02  0.18986560704E+02  0.00000000000E+00 0.  1.
          4   -1    0    0  501    0  0.00000000000E+00 -0.00000000000E+00 -0.72236920061E+03  0.72236920061E+03  0.00000000000E+00 0. -1.
         25    2    1    2    0    0  0.23709636454E+01 -0.40921478392E+02 -0.38084554577E+03  0.40295308072E+03  0.12509063379E+03 0.  0.
          5    1    3    3  502    0  0.10649124790E+02  0.44361717875E+02 -0.12810557839E+03  0.13605101060E+03  0.41800000000E+01 0. -1.
         -5    1    3    3    0  502 -0.82781611444E+01 -0.85283196267E+02 -0.25273996739E+03  0.26690207012E+03  0.41800000000E+01 0. -1.
        -11    1    1    2    0    0  0.38574637790E+02 -0.51443566389E+01 -0.94894858744E+02  0.10256462013E+03  0.00000000000E+00 0.  1.
         11    1    1    2    0    0 -0.40945601435E+02  0.46065835031E+02 -0.22764223539E+03  0.23583806047E+03  0.00000000000E+00 0. -1.
</event>
<event>
 7    1  0.2723366E-009  0.8258738E+02  0.7561462E-02  0.1321865E+00
          2   -1    0    0  501    0  0.00000000000E+00  0.00000000000E+00  0.51477637406E+03  0.51477637406E+03  0.00000000000E+00 0. -1.
         -2   -1    0    0    0  501 -0.00000000000E+00 -0.00000000000E+00 -0.27387468181E+02  0.27387468181E+02  0.00000000000E+00 0.  1.
         25    2    1    2    0    0 -0.35977151688E+02 -0.70111157156E+01  0.34945277294E+03  0.37297212210E+03  0.12508977641E+03 0.  0.
          5    1    3    3  502    0 -0.15033530249E+01 -0.37063207264E+02  0.31054929219E+03  0.31278471299E+03  0.41800000000E+01 0. -1.
         -5    1    3    3    0  502 -0.34473798663E+02  0.30052091548E+02  0.38903480755E+02  0.60187409111E+02  0.41800000000E+01 0. -1.
        -11    1    1    2    0    0  0.58751965687E+02  0.32789215697E+01  0.46817686387E+02  0.75196014238E+02  0.00000000000E+00 0.  1.
         11    1    1    2    0    0 -0.22774813999E+02  0.37321941459E+01  0.91118446550E+02  0.93995705899E+02  0.00000000000E+00 0. -1.
</event>
<event>
 7    1  0.2723366E-009  0.1141926E+03  0.7561462E-02  0.1252997E+00
         -2   -1    0    0    0  501 -0.00000000000E+00  0.00000000000E+00  0.16505244602E+03  0.16505244602E+03  0.00000000000E+00 0.  1.
          2   -1    0    0  501    0  0.00000000000E+00 -0.00000000000E+00 -0.97806855431E+02  0.97806855431E+02  0.00000000000E+00 0. -1.
         25    2    1    2    0    0 -0.65408582916E+02 -0.53627128883E+01  0.32633155073E+02  0.14498029752E+03  0.12508925793E+03 0.  0.
          5    1    3    3  502    0 -0.89820457302E+02  0.32803605681E+02  0.20361834108E+02  0.97856363022E+02  0.41800000000E+01 0.  1.
         -5    1    3    3    0  502  0.24411874386E+02 -0.38166318570E+02  0.12271320965E+02  0.47123934497E+02  0.41800000000E+01 0.  1.
        -11    1    1    2    0    0  0.26934573160E+02  0.30902543839E+02 -0.20618200354E+02  0.45886257560E+02  0.00000000000E+00 0. -1.
         11    1    1    2    0    0  0.38474009756E+02 -0.25539830951E+02  0.55230635871E+02  0.71992746374E+02  0.00000000000E+00 0.  1.
</event>
<event>
 7    1  0.2723366E-009  0.1143425E+03  0.7561462E-02  0.1252733E+00
          4   -1    0    0  501    0  0.00000000000E+00  0.00000000000E+00  0.27858258455E+03  0.27858258455E+03  0.00000000000E+00 0. -1.
         -4   -1    0    0    0  501 -0.00000000000E+00 -0.00000000000E+00 -0.17892941702E+03  0.17892941702E+03  0.00000000000E+00 0.  1.
         25    2    1    2    0    0 -0.46643787181E+02 -0.64924997326E+02  0.23396714947E+03  0.27708809231E+03  0.12508511385E+03 0.  0.
          5    1    3    3  502    0  0.77775330645E+01  0.22963729755E+02  0.12274741408E+03  0.12518874937E+03  0.41800000000E+01 0. -1.
         -5    1    3    3    0  502 -0.54421320245E+02 -0.87888727080E+02  0.11121973539E+03  0.15189934294E+03  0.41800000000E+01 0. -1.
        -11    1    1    2    0    0  0.37554187510E+02  0.76906026826E+02 -0.59799702205E+02  0.10440717574E+03  0.00000000000E+00 0. -1.
         11    1    1    2    0    0  0.90895996709E+01 -0.11981029500E+02 -0.74514279744E+02  0.76016733525E+02  0.00000000000E+00 0.  1.
</event>
<event>
 7    1  0.2723366E-009  0.1351068E+03  0.7561462E-02  0.1220069E+00
          1   -1    0    0  501    0  0.00000000000E+00  0.00000000000E+00  0.89444084575E+03  0.89444084575E+03  0.00000000000E+00 0. -1.
         -1   -1    0    0    0  501 -0.00000000000E+00 -0.00000000000E+00 -0.21445756013E+02  0.21445756013E+02  0.00000000000E+00 0.  1.
         25    2    1    2    0    0 -0.59476963303E+02 -0.67294296586E+02  0.42395144254E+03  0.45105022337E+03  0.12508176070E+03 0.  0.
          5    1    3    3  502    0 -0.98405927351E+02 -0.45327003204E+02  0.31815398854E+03  0.33612155030E+03  0.41800000000E+01 0.  1.
         -5    1    3    3    0  502  0.38928964048E+02 -0.21967293382E+02  0.10579745400E+03  0.11492867307E+03  0.41800000000E+01 0.  1.
        -11    1    1    2    0    0  0.11543998670E+02  0.67984368170E+02  0.20995468031E+03  0.22098892734E+03  0.00000000000E+00 0. -1.
         11    1    1    2    0    0  0.47932964633E+02 -0.69007158435E+00  0.23908896689E+03  0.24384745105E+03  0.00000000000E+00 0.  1.
</event>
<event>
 7    1  0.2723366E-009  0.1064860E+03  0.7561462E-02  0.1267219E+00
          2   -1    0    0  501    0  0.00000000000E+00  0.00000000000E+00  0.76114066335E+02  0.76114066335E+02  0.00000000000E+00 0.  1.
         -2   -1    0    0    0  501 -0.00000000000E+00 -0.00000000000E+00 -0.17794312477E+03  0.17794312477E+03  0.00000000000E+00 0. -1.
         25    2    1    2    0    0  0.31525363664E+02 -0.29896321163E+02 -0.68488765549E+02  0.14908556255E+03  0.12509258724E+03 0.  0.
          5    1    3    3  502    0 -0.78864282381E+00 -0.71380656875E+02 -0.64306109559E+02  0.96169476759E+02  0.41800000000E+01 0. -1.
         -5    1    3    3    0  502  0.32314006488E+02  0.41484335712E+02 -0.41826559899E+01  0.52916085795E+02  0.41800000000E+01 0. -1.
        -11    1    1    2    0    0 -0.31933482287E+02 -0.20739237515E+02  0.88147395338E+01  0.39084049135E+02  0.00000000000E+00 0.  1.
         11    1    1    2    0    0  0.40811862356E+00  0.50635558678E+02 -0.42155032424E+02  0.65887579422E+02  0.00000000000E+00 0. -1.
</event>
<event>
 7    1  0.2723366E-009  0.7848804E+02  0.7561462E-02  0.1333398E+00
          4   -1    0    0  501    0  0.00000000000E+00  0.00000000000E+00  0.57222699652E+02  0.57222699652E+02  0.00000000000E+00 0. -1.
         -4   -1    0    0    0  501 -0.00000000000E+00 -0.00000000000E+00 -0.28386206505E+03  0.28386206505E+03  0.00000000000E+00 0.  1.
         25    2    1    2    0    0 -0.61980342548E+02  0.19300434502E+02 -0.11628869597E+03  0.18271445724E+03  0.12508973755E+03 0.  0.
          5    1    3    3  502    0 -0.30330016691E+02 -0.19219970382E+02 -0.12657643051E+03  0.13163731361E+03  0.41800000000E+01 0.  1.
         -5    1    3    3    0  502 -0.31650325857E+02  0.38520404884E+02  0.10287734541E+02  0.51077143629E+02  0.41800000000E+01 0.  1.
        -11    1    1    2    0    0  0.11775720265E+02  0.74251414624E+01  0.15155332192E+02  0.20578736777E+02  0.00000000000E+00 0. -1.
         11    1    1    2    0    0  0.50204622283E+02 -0.26725575964E+02 -0.12550600162E+03  0.13779157069E+03  0.00000000000E+00 0.  1.
</event>
<event>
 7    1  0.2723366E-009  0.1809176E+03  0.7561462E-02  0.1166918E+00
          4   -1    0    0  501    0  0.00000000000E+00  0.00000000000E+00  0.40163698378E+03  0.40163698378E+03  0.00000000000E+00 0.  1.
         -4   -1    0    0    0  501 -0.00000000000E+00 -0.00000000000E+00 -0.89767022930E+02  0.89767022930E+02  0.00000000000E+00 0. -1.
         25    2    1    2    0    0 -0.13663969192E+03 -0.63093125752E+02  0.11552196100E+03  0.22725434412E+03  0.12509222807E+03 0.  0.
          5    1    3    3  502    0 -0.21931312829E+02  0.29966225119E+02  0.57344660137E+02  0.68445887944E+02  0.41800000000E+01 0. -1.
         -5    1    3    3    0  502 -0.11470837909E+03 -0.93059350872E+02  0.58177300861E+02  0.15880845618E+03  0.41800000000E+01 0. -1.
        -11    1    1    2    0    0  0.67329745772E+02  0.80786303775E+02  0.11731263404E+03  0.15754991479E+03  0.00000000000E+00 0.  1.
         11    1    1    2    0    0  0.69309946144E+02 -0.17693178023E+02  0.79035365806E+02  0.10659974780E+03  0.00000000000E+00 0. -1.
</event>
<event>
 7    1  0.2723366E-009  0.7129652E+02  0.7561462E-02  0.1355739E+00
         -2   -1    0    0    0  501 -0.00000000000E+00  0.00000000000E+00  0.32708355508E+02  0.32708355508E+02  0.00000000000E+00 0.  1.
          2   -1    0    0  501    0  0.00000000000E+00 -0.00000000000E+00 -0.41133345704E+03  0.41133345704E+03  0.00000000000E+00 0. -1.
         25    2    1    2    0    0  0.78814214800E+01 -0.35532746548E+02 -0.24338091903E+03  0.27605378160E+03  0.12508687262E+03 0.  0.
          5    1    3    3  502    0 -0.32241319570E+02 -0.16492121599E+02 -0.91130399867E+01  0.37576756915E+02  0.41800000000E+01 0. -1.
         -5    1    3    3    0  502  0.40122741050E+02 -0.19040624949E+02 -0.23426787905E+03  0.23847702468E+03  0.41800000000E+01 0. -1.
        -11    1    1    2    0    0  0.17003001112E+02  0.32213575701E+02 -0.67265731130E+01  0.37041372708E+02  0.00000000000E+00 0.  1.
         11    1    1    2    0    0 -0.24884422592E+02  0.33191708473E+01 -0.12851760938E+03  0.13094665824E+03  0.00000000000E+00 0. -1.
</event>
<event>
 7    1  0.2723366E-009  0.1221062E+03  0.7561462E-02  0.1239662E+00
          1   -1    0    0  501    0  0.00000000000E+00  0.00000000000E+00  0.12352342992E+03  0.12352342992E+03  0.00000000000E+00 0. -1.
         -1   -1    0    0    0  501 -0.00000000000E+00 -0.00000000000E+00 -0.14559524898E+03  0.14559524898E+03  0.00000000000E+00 0.  1.
         25    2    1    2    0    0 -0.74826091480E+02  0.51240695585E+01 -0.34891216274E+02  0.14996576557E+03  0.12508850393E+03 0.  0.
          5    1    3    3  502    0 -0.94231957680E+02 -0.18853129917E+02  0.84985845201E+01  0.96565007610E+02  0.41800000000E+01 0. -1.
         -5    1    3    3    0  502  0.19405866200E+02  0.23977199475E+02 -0.43389800794E+02  0.53400757959E+02  0.41800000000E+01 0. -1.
        -11    1    1    2    0    0  0.77024520365E+02 -0.36644356426E+02  0.17886764636E+02  0.87152291676E+02  0.00000000000E+00 0. -1.
         11    1    1    2    0    0 -0.21984288850E+01  0.31520286868E+02 -0.50673674161E+01  0.32000621655E+02  0.00000000000E+00 0.  1.
</event>
<event>
 7    1  0.2723366E-009  0.1890037E+03  0.7561462E-02  0.1159363E+00
         -1   -1    0    0    0  501 -0.00000000000E+00  0.00000000000E+00  0.22759384232E+02  0.22759384232E+02  0.00000000000E+00 0.  1.
          1   -1    0    0  501    0  0.00000000000E+00 -0.00000000000E+00 -0.21841322402E+04  0.21841322402E+04  0.00000000000E+00 0. -1.
         25    2    1    2    0    0 -0.47843687132E+02  0.16736586069E+03 -0.15489256394E+04  0.15636876020E+04  0.12509168936E+03 0.  0.
          5    1    3    3  502    0 -0.37151149751E+02  0.43594269968E+02 -0.96354263709E+03  0.96525258570E+03  0.41800000000E+01 0.  1.
         -5    1    3    3    0  502 -0.10692537380E+02  0.12377159072E+03 -0.58538300226E+03  0.59843501633E+03  0.41800000000E+01 0.  1.
        -11    1    1    2    0    0  0.74152338196E+02 -0.10459073932E+03 -0.41508524063E+03  0.43443474654E+03  0.00000000000E+00 0.  1.
         11    1    1    2    0    0 -0.26308651064E+02 -0.62775121368E+02 -0.19736197601E+03  0.20876927590E+03  0.00000000000E+00 0. -1.
</event>
<event>
 7    1  0.2723366E-009  0.1266118E+03  0.7561462E-02  0.1232572E+00
          2   -1    0    0  501    0  0.00000000000E+00  0.00000000000E+00  0.77167865906E+03  0.77167865906E+03  0.00000000000E+00 0. -1.
         -2   -1    0    0    0  501 -0.00000000000E+00 -0.00000000000E+00 -0.33931784761E+02  0.33931784761E+02  0.00000000000E+00 0.  1.
         25    2    1    2    0    0  0.67720487513E+02  0.13369918521E+02  0.15334839591E+03  0.20959006055E+03  0.12508974300E+03 0.  0.
          5    1    3    3  502    0 -0.26287929412E+02  0.32929111779E+02  0.72664289404E+02  0.84100850114E+02  0.41800000000E+01 0. -1.
         -5    1    3    3    0  502  0.94008416925E+02 -0.19559193258E+02  0.80684106509E+02  0.12548921044E+03  0.41800000000E+01 0. -1.
        -11    1    1    2    0    0 -0.21011851627E+02  0.39181555827E+02  0.17098259225E+03  0.17666844393E+03  0.00000000000E+00 0. -1.
         11    1    1    2    0    0 -0.46708635886E+02 -0.52551474347E+02  0.41341588614E+03  0.41935193934E+03  0.00000000000E+00 0.  1.
</event>
<event>
 7    1  0.2723366E-009  0.1140956E+03  0.7561462E-02  0.1253168E+00
         -1   -1    0    0    0  501 -0.00000000000E+00  0.00000000000E+00  0.10147430577E+03  0.10147430577E+03  0.00000000000E+00 0.  1.
          1   -1    0    0  501    0  0.00000000000E+00 -0.00000000000E+00 -0.27699084617E+03  0.27699084617E+03  0.00000000000E+00 0. -1.
         25    2    1    2    0    0  0.43811618662E+02 -0.33050691442E+02  0.37329583637E+02  0.14160365907E+03  0.12508514026E+03 0.  0.
          5    1    3    3  502    0  0.36022234701E+02 -0.74116732426E+02  0.51506486961E+02  0.97269121603E+02  0.41800000000E+01 0.  1.
         -5    1    3    3    0  502  0.77893839602E+01  0.41066040984E+02 -0.14176903323E+02  0.44334537467E+02  0.41800000000E+01 0.  1.
        -11    1    1    2    0    0 -0.68761477904E+02  0.37509021871E+02 -0.15347443392E+03  0.17230632441E+03  0.00000000000E+00 0. -1.
         11    1    1    2    0    0  0.24949859243E+02 -0.44583304282E+01 -0.59371690116E+02  0.64555168450E+02  0.00000000000E+00 0.  1.
</event>
<event>
 7    1  0.2723366E-009  0.1390620E+03  0.7561462E-02  0.1214597E+00
          1   -1    0    0  501    0  0.00000000000E+00  0.00000000000E+00  0.23291956738E+03  0.23291956738E+03  0.00000000000E+00 0. -1.
         -1   -1    0    0    0  501 -0.00000000000E+00 -0.00000000000E+00 -0.12448191936E+03  0.12448191936E+03  0.00000000000E+00 0.  1.
         25    2    1    2    0    0 -0.91551815006E+02 -0.46485517615E+02  0.14538557148E+03  0.21754863291E+03  0.12509118718E+03 0.  0.
          5    1    3    3  502    0 -0.17407878638E+02  0.42391035235E+02  0.41460332414E+02  0.61939209479E+02  0.41800000000E+01 0.  1.
         -5    1    3    3    0  502 -0.74143936368E+02 -0.88876552850E+02  0.10392523906E+03  0.15560942343E+03  0.41800000000E+01 0.  1.
        -11    1    1    2    0    0 -0.30838240790E+01  0.16838840675E+02  0.19334629645E+02  0.25824105595E+02  0.00000000000E+00 0. -1.
         11    1    1    2    0    0  0.94635639085E+02  0.29646676939E+02 -0.56282553102E+02  0.11402874823E+03  0.00000000000E+00 0.  1.
</event>
<event>
 7    1  0.2723366E-009  0.1475541E+03  0.7561462E-02  0.1203511E+00
          2   -1    0    0  501    0  0.00000000000E+00  0.00000000000E+00  0.43751935051E+03  0.43751935051E+03  0.00000000000E+00 0. -1.
         -2   -1    0    0    0  501 -0.00000000000E+00 -0.00000000000E+00 -0.62948892060E+02  0.62948892060E+02  0.00000000000E+00 0.  1.
         25    2    1    2    0    0  0.10194006688E+03 -0.72309880989E+02  0.18728502525E+03  0.25757235477E+03  0.12508933262E+03 0.  0.
          5    1    3    3  502    0  0.11948779445E+03 -0.80838851794E+02  0.12096039936E+03  0.18831129439E+03  0.41800000000E+01 0.  1.
         -5    1    3    3    0  502 -0.17547727565E+02  0.85289708051E+01  0.66324625888E+02  0.69261060379E+02  0.41800000000E+01 0.  1.
        -11    1    1    2    0    0 -0.78892228251E+02  0.73399003979E+02  0.19121792358E+03  0.21948961653E+03  0.00000000000E+00 0. -1.
         11    1    1    2    0    0 -0.23047838632E+02 -0.10891229899E+01 -0.39324903801E+01  0.23406271277E+02  0.00000000000E+00 0.  1.
</event>
<event>
 7    1  0.2723366E-009  0.1717633E+03  0.7561462E-02  0.1176021E+00
          2   -1    0    0  501    0  0.00000000000E+00  0.00000000000E+00  0.11312434733E+04  0.11312434733E+04  0.00000000000E+00 0. -1.
         -2   -1    0    0    0  501 -0.00000000000E+00 -0.00000000000E+00 -0.28174427438E+02  0.28174427438E+02  0.00000000000E+00 0.  1.
         25    2    1    2    0    0  0.12675581036E+03  0.40982940742E+02  0.42875447398E+03  0.46607413738E+03  0.12509222872E+03 0.  0.
          5    1    3    3  502    0 -0.13122938794E+02  0.40279644300E+02  0.11018241330E+03  0.11811984536E+03  0.41800000000E+01 0.  1.
         -5    1    3    3    0  502  0.13987874915E+03  0.70329644270E+00  0.31857206067E+03  0.34795429202E+03  0.41800000000E+01 0.  1.
        -11    1    1    2    0    0 -0.10579527097E+03  0.96302236089E+01  0.46482672052E+03  0.47681155678E+03  0.00000000000E+00 0.  1.
         11    1    1    2    0    0 -0.20960539389E+02 -0.50613164351E+02  0.20948785132E+03  0.21653220654E+03  0.00000000000E+00 0. -1.
</event>
<event>
 7    1  0.2723366E-009  0.6583702E+02  0.7561462E-02  0.1374850E+00
          2   -1    0    0  501    0  0.00000000000E+00  0.00000000000E+00  0.61942230250E+03  0.61942230250E+03  0.00000000000E+00 0.  1.
         -2   -1    0    0    0  501 -0.00000000000E+00 -0.00000000000E+00 -0.28418479584E+02  0.28418479584E+02  0.00000000000E+00 0. -1.
         25    2    1    2    0    0  0.12606460979E+02 -0.10008311951E+01  0.51278258314E+03  0.52797005273E+03  0.12508586844E+03 0.  0.
          5    1    3    3  502    0  0.53132280833E+02 -0.91627514151E+01  0.10530107539E+03  0.11837560626E+03  0.41800000000E+01 0. -1.
         -5    1    3    3    0  502 -0.40525819853E+02  0.81619202200E+01  0.40748150775E+03  0.40959444646E+03  0.41800000000E+01 0. -1.
        -11    1    1    2    0    0 -0.16659862253E+02  0.14416014236E+02  0.95279831382E+02  0.97793756165E+02  0.00000000000E+00 0.  1.
         11    1    1    2    0    0  0.40534012736E+01 -0.13415183041E+02 -0.17058591603E+02  0.22076973194E+02  0.00000000000E+00 0. -1.
</event>
<event>
 7    1  0.2723366E-009  0.1581700E+03  0.7561462E-02  0.1190778E+00
          2   -1    0    0  501    0  0.00000000000E+00  0.00000000000E+00  0.19278688695E+04  0.19278688695E+04  0.00000000000E+00 0.  1.
         -2   -1    0    0    0  501 -0.00000000000E+00 -0.00000000000E+00 -0.18585797098E+02  0.18585797098E+02  0.00000000000E+00 0. -1.
         25    2    1    2    0    0  0.27345396085E+02 -0.15119398241E+03  0.10809846290E+04  0.10989915661E+04  0.12508918047E+03 0.  0.
          5    1    3    3  502    0  0.57530444180E+01 -0.10193591362E+03  0.31607424699E+03  0.33218132099E+03  0.41800000000E+01 0.  1.
         -5    1    3    3    0  502  0.21592351667E+02 -0.49258068792E+02  0.76491038204E+03  0.76681024507E+03  0.41800000000E+01 0.  1.
        -11    1    1    2    0    0 -0.20763896173E+02  0.19925096385E+02  0.46434126389E+02  0.54628535984E+02  0.00000000000E+00 0. -1.
         11    1    1    2    0    0 -0.65814999119E+01  0.13126888602E+03  0.78186431699E+03  0.79283456456E+03  0.00000000000E+00 0.  1.
</event>
<event>
 7    1  0.2723366E-009  0.7625159E+02  0.7561462E-02  0.1340039E+00
         -2   -1    0    0    0  501 -0.00000000000E+00  0.00000000000E+00  0.36105256901E+02  0.36105256901E+02  0.00000000000E+00 0.  1.
          2   -1    0    0  501    0  0.00000000000E+00 -0.00000000000E+00 -0.52484457979E+03  0.52484457979E+03  0.00000000000E+00 0. -1.
         25    2    1    2    0    0 -0.30150956513E+02 -0.43854730882E+02 -0.40601962499E+03  0.42817284193E+03  0.12509088335E+03 0.  0.
          5    1    3    3  502    0 -0.24779127056E+02 -0.68437348014E+02 -0.11582741047E+03  0.13686174468E+03  0.41800000000E+01 0. -1.
         -5    1    3    3    0  502 -0.53718294570E+01  0.24582617133E+02 -0.29019221452E+03  0.29131109726E+03  0.41800000000E+01 0. -1.
        -11    1    1    2    0    0  0.11887034766E+02  0.96332330822E+01  0.18717875183E+02  0.24175599817E+02  0.00000000000E+00 0.  1.
         11    1    1    2    0    0  0.18263921747E+02  0.34221497799E+02 -0.10143757308E+03  0.10860139494E+03  0.00000000000E+00 0. -1.
</event>
<event>
 7    1  0.2723366E-009  0.1286244E+03  0.7561462E-02  0.1229511E+00
          4   -1    0    0  501    0  0.00000000000E+00  0.00000000000E+00  0.38009334113E+02  0.38009334113E+02  0.00000000000E+00 0. -1.
         -4   -1    0    0    0  501 -0.00000000000E+00 -0.00000000000E+00 -0.67949336589E+03  0.67949336589E+03  0.00000000000E+00 0.  1.
         25    2    1    2    0    0  0.87734661825E+02 -0.81094856337E+02 -0.31972413629E+03  0.36351757225E+03  0.12509098849E+03 0.  0.
          5    1    3    3  502    0  0.49138135103E+02 -0.48734411389E+02 -0.30215903777E+03  0.31001154121E+03  0.41800000000E+01 0. -1.
         -5    1    3    3    0  502  0.38596526723E+02 -0.32360444948E+02 -0.17565098516E+02  0.53506031045E+02  0.41800000000E+01 0. -1.
        -11    1    1    2    0    0 -0.28194924900E+02  0.71769896650E+02 -0.24218874196E+03  0.25416777645E+03  0.00000000000E+00 0. -1.
         11    1    1    2    0    0 -0.59539736925E+02  0.93249596870E+01 -0.79571153535E+02  0.99817351303E+02  0.00000000000E+00 0.  1.
</event>
<event>
 7    1  0.2723366E-009  0.9904655E+02  0.7561462E-02  0.1282314E+00
         -1   -1    0    0    0  501 -0.00000000000E+00  0.00000000000E+00  0.31294180608E+02  0.31294180608E+02  0.00000000000E+00 0.  1.
          1   -1    0    0  501    0  0.00000000000E+00 -0.00000000000E+00 -0.50753866173E+03  0.50753866173E+03  0.00000000000E+00 0. -1.
         25    2    1    2    0    0 -0.45262140876E+02  0.77940358084E+01 -0.21194113364E+03  0.25035278032E+03  0.12509221436E+03 0.  0.
          5    1    3    3  502    0 -0.59252231347E+02 -0.10240359861E+02 -0.21815671116E+03  0.22633054348E+03  0.41800000000E+01 0.  1.
         -5    1    3    3    0  502  0.13990090470E+02  0.18034395669E+02  0.62155775227E+01  0.24022236833E+02  0.41800000000E+01 0.  1.
        -11    1    1    2    0    0 -0.22584700625E+02  0.29530836215E+02 -0.68852737120E+02  0.78248568030E+02  0.00000000000E+00 0.  1.
         11    1    1    2    0    0  0.67846841501E+02 -0.37324872024E+02 -0.19545061036E+03  0.21023149399E+03  0.00000000000E+00 0. -1.
</event>
<event>
 7    1  0.2723366E-009  0.1016386E+03  0.7561462E-02  0.1276888E+00
          1   -1    0    0  501    0  0.00000000000E+00  0.00000000000E+00  0.51521045846E+03  0.51521045846E+03  0.00000000000E+00 0. -1.
         -1   -1    0    0    0  501 -0.00000000000E+00 -0.00000000000E+00 -0.29748455061E+02  0.29748455061E+02  0.00000000000E+00 0.  1.
         25    2    1    2    0    0 -0.16051261760E+02 -0.46770245079E+02  0.33360846574E+03  0.35970443847E+03  0.12509027065E+03 0.  0.
          5    1    3    3  502    0  0.26196878454E+02 -0.68280926383E+02  0.11786539172E+03  0.13877422063E+03  0.41800000000E+01 0.  1.
         -5    1    3    3    0  502 -0.42248140215E+02  0.21510681304E+02  0.21574307403E+03  0.22093021784E+03  0.41800000000E+01 0.  1.
        -11    1    1    2    0    0  0.24193735104E+02  0.61229859223E+02  0.15496530214E+03  0.16837065464E+03  0.00000000000E+00 0. -1.
         11    1    1    2    0    0 -0.81424733437E+01 -0.14459614145E+02 -0.31117644815E+01  0.16883820407E+02  0.00000000000E+00 0.  1.
</event>
<event>
 7    1  0.2723366E-009  0.7789665E+02  0.7561462E-02  0.1335129E+00
          2   -1    0    0  501    0  0.00000000000E+00  0.00000000000E+00  0.47848111873E+03  0.47848111873E+03  0.00000000000E+00 0. -1.
         -2   -1    0    0    0  501 -0.00000000000E+00 -0.00000000000E+00 -0.28165119789E+02  0.28165119789E+02  0.00000000000E+00 0.  1.
         25    2    1    2    0    0 -0.88878425570E+01  0.38293408227E+02  0.27608961225E+03  0.30564353056E+03  0.12508842839E+03 0.  0.
          5    1    3    3  502    0 -0.26971867178E+02 -0.14856537802E+02  0.85292654214E+01  0.32224510906E+02  0.41800000000E+01 0. -1.
         -5    1    3    3    0  502  0.18084024621E+02  0.53149946030E+02  0.26756034683E+03  0.27341901965E+03  0.41800000000E+01 0. -1.
        -11    1    1    2    0    0  0.32347167733E+02 -0.28077561638E+02  0.24993138106E+02  0.49591790452E+02  0.00000000000E+00 0.  1.
         11    1    1    2    0    0 -0.23459325176E+02 -0.10215846590E+02  0.14923324858E+03  0.15141091751E+03  0.00000000000E+00 0. -1.
</event>
<event>
 7    1  0.2723366E-009  0.1362871E+03  0.7561462E-02  0.1218414E+00
          2   -1    0    0  501    0  0.00000000000E+00  0.00000000000E+00  0.11545430669E+04  0.11545430669E+04  0.00000000000E+00 0. -1.
         -2   -1    0    0    0  501 -0.00000000000E+00 -0.00000000000E+00 -0.22395540626E+02  0.22395540626E+02  0.00000000000E+00 0.  1.
         25    2    1    2    0    0 -0.44037980060E+02  0.10399811928E+03  0.76170522631E+03  0.78012678923E+03  0.12509197811E+03 0.  0.
          5    1    3    3  502    0 -0.54091662841E+02  0.40123267424E+02  0.14392820423E+03  0.15896095417E+03  0.41800000000E+01 0. -1.
         -5    1    3    3    0  502  0.10053682782E+02  0.63874851860E+02  0.61777702208E+03  0.62116583506E+03  0.41800000000E+01 0. -1.
        -11    1    1    2    0    0  0.53035454079E+02 -0.11467052038E+03  0.34958274908E+03  0.37171250461E+03  0.00000000000E+00 0.  1.
         11    1    1    2    0    0 -0.89974740192E+01  0.10672401096E+02  0.20859550866E+02  0.25099313660E+02  0.00000000000E+00 0. -1.
</event>
<event>
 7    1  0.2723366E-009  0.9256775E+02  0.7561462E-02  0.1296750E+00
          2   -1    0    0  501    0  0.00000000000E+00  0.00000000000E+00  0.66363453411E+02  0.66363453411E+02  0.00000000000E+00 0. -1.
         -2   -1    0    0    0  501 -0.00000000000E+00 -0.00000000000E+00 -0.23975473233E+03  0.23975473233E+03  0.00000000000E+00 0.  1.
         25    2    1    2    0    0 -0.20047826767E+02  0.59232587901E+02 -0.10598193134E+03  0.17546977223E+03  0.12508819436E+03 0.  0.
          5    1    3    3  502    0  0.14747829955E+02  0.63991410535E+02 -0.12045444741E+03  0.13725576640E+03  0.41800000000E+01 0. -1.
         -5    1    3    3    0  502 -0.34795656722E+02 -0.47588226342E+01  0.14472516073E+02  0.38214005824E+02  0.41800000000E+01 0. -1.
        -11    1    1    2    0    0 -0.18515274640E+02 -0.31239280781E+02 -0.74108617403E+02  0.82527542264E+02  0.00000000000E+00 0.  1.
         11    1    1    2    0    0  0.38563101407E+02 -0.27993307120E+02  0.66992698216E+01  0.48120871249E+02  0.00000000000E+00 0. -1.
</event>
<event>
 7    1  0.2723366E-009  0.9759439E+02  0.7561462E-02  0.1285438E+00
         -1   -1    0    0    0  501 -0.00000000000E+00  0.00000000000E+00  0.48688847237E+02  0.48688847237E+02  0.00000000000E+00 0.  1.
          1   -1    0    0  501    0  0.00000000000E+00 -0.00000000000E+00 -0.30180413322E+03  0.30180413322E+03  0.00000000000E+00 0. -1.
         25    2    1    2    0    0 -0.27551139733E+02 -0.27960114639E+02 -0.84878516183E+02  0.15617942875E+03  0.12508724213E+03 0.  0.
          5    1    3    3  502    0  0.30464360283E+02 -0.49860099678E+02 -0.10946619902E+02  0.59593688212E+02  0.41800000000E+01 0. -1.
         -5    1    3    3    0  502 -0.58015500016E+02  0.21899985039E+02 -0.73931896281E+02  0.96585740534E+02  0.41800000000E+01 0. -1.
        -11    1    1    2    0    0  0.46704418869E+02  0.91117585425E+01 -0.15888981322E+03  0.16586229117E+03  0.00000000000E+00 0. -1.
         11    1    1    2    0    0 -0.19153279136E+02  0.18848356097E+02 -0.93469565780E+01  0.28451260543E+02  0.00000000000E+00 0.  1.
</event>
<event>
 7    1  0.2723366E-009  0.1471875E+03  0.7561462E-02  0.1203972E+00
          1   -1    0    0  501    0  0.00000000000E+00  0.00000000000E+00  0.47340958965E+02  0.47340958965E+02  0.00000000000E+00 0. -1.
         -1   -1    0    0    0  501 -0.00000000000E+00 -0.00000000000E+00 -0.55745335501E+03  0.55745335501E+03  0.00000000000E+00 0.  1.
         25    2    1    2    0    0  0.42131895827E+02  0.10597714488E+03 -0.19806148972E+03  0.26054080426E+03  0.12508758968E+03 0.  0.
          5    1    3    3  502    0 -0.13260548758E+02 -0.23219867232E+02 -0.20059910950E+02  0.33687932779E+02  0.41800000000E+01 0.  1.
         -5    1    3    3    0  502  0.55392444586E+02  0.12919701211E+03 -0.17800157877E+03  0.22685287148E+03  0.41800000000E+01 0.  1.
        -11    1    1    2    0    0 -0.53179550812E+02 -0.63698467104E+02 -0.27407004730E+03  0.28635633424E+03  0.00000000000E+00 0.  1.
         11    1    1    2    0    0  0.11047654984E+02 -0.42278677771E+02 -0.37980859025E+02  0.57897175466E+02  0.00000000000E+00 0. -1.
</event>
<event>
 7    1  0.2723366E-009  0.1476861E+03  0.7561462E-02  0.1203345E+00
          1   -1    0    0  501    0  0.00000000000E+00  0.00000000000E+00  0.93149052766E+02  0.93149052766E+02  0.00000000000E+00 0. -1.
         -1   -1    0    0    0  501 -0.00000000000E+00 -0.00000000000E+00 -0.34654876330E+03  0.34654876330E+03  0.00000000000E+00 0.  1.
         25    2    1    2    0    0 -0.10023001762E+03  0.72783529915E+02 -0.22991461812E+03  0.28957144473E+03  0.12508953320E+03 0.  0.
          5    1    3    3  502    0 -0.27100789433E+02 -0.32292468009E+02 -0.29139790094E+02  0.51418440707E+02  0.41800000000E+01 0. -1.
         -5    1    3    3    0  502 -0.73129228185E+02  0.10507599792E+03 -0.20077482802E+03  0.23815300402E+03  0.41800000000E+01 0. -1.
        -11    1    1    2    0    0  0.71486297961E+02 -0.60544634245E+02  0.20770417370E+02  0.95954956984E+02  0.00000000000E+00 0. -1.
         11    1    1    2    0    0  0.28743719657E+02 -0.12238895671E+02 -0.44255509782E+02  0.54171414353E+02  0.00000000000E+00 0.  1.
</event>
<event>
 7    1  0.2723366E-009  0.1245666E+03  0.7561462E-02  0.1235748E+00
         -2   -1    0    0    0  501 -0.00000000000E+00  0.00000000000E+00  0.10346239681E+03  0.10346239681E+03  0.00000000000E+00 0.  1.
          2   -1    0    0  501    0  0.00000000000E+00 -0.00000000000E+00 -0.17951751969E+03  0.17951751969E+03  0.00000000000E+00 0. -1.
         25    2    1    2    0    0  0.76947176200E+02  0.19391461595E+02 -0.22262661799E+02  0.14979943856E+03  0.12508936396E+03 0.  0.
          5    1    3    3  502    0  0.15671572250E+02  0.56339904293E+02  0.25220501654E+02  0.63822637803E+02  0.41800000000E+01 0.  1.
         -5    1    3    3    0  502  0.61275603950E+02 -0.36948442697E+02 -0.47483163453E+02  0.85976800759E+02  0.41800000000E+01 0.  1.
        -11    1    1    2    0    0  0.11212095464E+02 -0.28087443011E+02 -0.27234383683E+02  0.40697999879E+02  0.00000000000E+00 0. -1.
         11    1    1    2    0    0 -0.88159271664E+02  0.86959814155E+01 -0.26558077396E+02  0.92482478060E+02  0.00000000000E+00 0.  1.
</event>
<event>
 7    1  0.2723366E-009  0.1410065E+03  0.7561462E-02  0.1211981E+00
         -1   -1    0    0    0  501 -0.00000000000E+00  0.00000000000E+00  0.11441044838E+03  0.11441044838E+03  0.00000000000E+00 0.  1.
          1   -1    0    0  501    0  0.00000000000E+00 -0.00000000000E+00 -0.19828314626E+03  0.19828314626E+03  0.00000000000E+00 0. -1.
         25    2    1    2    0    0  0.10549056972E+03 -0.15837398156E+02 -0.75330053770E+02  0.18083383332E+03  0.12508866771E+03 0.  0.
          5    1    3    3  502    0  0.12179595603E+03  0.21101918592E+02 -0.53684414527E+02  0.13482965043E+03  0.41800000000E+01 0.  1.
         -5    1    3    3    0  502 -0.16305386307E+02 -0.36939316748E+02 -0.21645639243E+02  0.46004182883E+02  0.41800000000E+01 0.  1.
        -11    1    1    2    0    0 -0.26832542833E+02 -0.17789122747E+02 -0.29631212048E+02  0.43754393727E+02  0.00000000000E+00 0. -1.
         11    1    1    2    0    0 -0.78658026886E+02  0.33626520903E+02  0.21088567940E+02  0.88105367597E+02  0.00000000000E+00 0.  1.
</event>
<event>
 7    1  0.2723366E-009  0.2723424E+03  0.7561462E-02  0.1099946E+00
          1   -1    0    0  501    0  0.00000000000E+00  0.00000000000E+00  0.10025707199E+04  0.10025707199E+04  0.00000000000E+00 0. -1.
         -1   -1    0    0    0  501 -0.00000000000E+00 -0.00000000000E+00 -0.78558388190E+02  0.78558388190E+02  0.00000000000E+00 0.  1.
         25    2    1    2    0    0 -0.24268646400E+03 -0.88305096166E+02  0.49336428416E+03  0.57074613824E+03  0.12509327563E+03 0.  0.
          5    1    3    3  502    0 -0.23683357004E+03 -0.43599671434E+02  0.39850204518E+03  0.46563120993E+03  0.41800000000E+01 0.  1.
         -5    1    3    3    0  502 -0.58528939587E+01 -0.44705424732E+02  0.94862238983E+02  0.10511492831E+03  0.41800000000E+01 0.  1.
        -11    1    1    2    0    0  0.22336602203E+03  0.77567387755E+02  0.32189509393E+03  0.39940647333E+03  0.00000000000E+00 0.  1.
         11    1    1    2    0    0  0.19320441971E+02  0.10737708411E+02  0.10875295362E+03  0.11097649652E+03  0.00000000000E+00 0. -1.
</event>
<event>
 7    1  0.2723366E-009  0.2293235E+03  0.7561462E-02  0.1127117E+00
          1   -1    0    0  501    0  0.00000000000E+00  0.00000000000E+00  0.12649481895E+03  0.12649481895E+03  0.00000000000E+00 0. -1.
         -1   -1    0    0    0  501 -0.00000000000E+00 -0.00000000000E+00 -0.47128603222E+03  0.47128603222E+03  0.00000000000E+00 0.  1.
         25    2    1    2    0    0 -0.14092457599E+03 -0.16371237790E+03 -0.24154522383E+03  0.34735491248E+03  0.12509940556E+03 0.  0.
          5    1    3    3  502    0 -0.64917336628E+02 -0.79710147025E+01 -0.11629737062E+03  0.13349287802E+03  0.41800000000E+01 0.  1.
         -5    1    3    3    0  502 -0.76007239363E+02 -0.15574136320E+03 -0.12524785322E+03  0.21386203446E+03  0.41800000000E+01 0.  1.
        -11    1    1    2    0    0  0.55989507348E+01  0.26336374895E+02 -0.38562034727E+02  0.47031727740E+02  0.00000000000E+00 0.  1.
         11    1    1    2    0    0  0.13532562526E+03  0.13737600301E+03 -0.64683954707E+02  0.20339421096E+03  0.00000000000E+00 0. -1.
</event>
<event>
 7    1  0.2723366E-009  0.1300383E+03  0.7561462E-02  0.1227399E+00
          1   -1    0    0  501    0  0.00000000000E+00  0.00000000000E+00  0.27635282393E+03  0.27635282393E+03  0.00000000000E+00 0. -1.
         -1   -1    0    0    0  501 -0.00000000000E+00 -0.00000000000E+00 -0.76906554276E+02  0.76906554276E+02  0.00000000000E+00 0.  1.
         25    2    1    2    0    0  0.71613208024E+02 -0.65641483823E+02  0.12108977060E+03  0.19936882124E+03  0.12509171985E+03 0.  0.
          5    1    3    3  502    0  0.41093751273E+02  0.34216872637E+02  0.35892272981E+02  0.64538503442E+02  0.41800000000E+01 0.  1.
         -5    1    3    3    0  502  0.30519456751E+02 -0.99858356460E+02  0.85197497624E+02  0.13483031779E+03  0.41800000000E+01 0.  1.
        -11    1    1    2    0    0 -0.30866825047E+02  0.49025981512E+02 -0.65059216017E+01  0.58297811001E+02  0.00000000000E+00 0.  1.
         11    1    1    2    0    0 -0.40746382977E+02  0.16615502311E+02  0.84862420647E+02  0.95592745964E+02  0.00000000000E+00 0. -1.
</event>
<event>
 7    1  0.2723366E-009  0.1723892E+03  0.7561462E-02  0.1175379E+00
          2   -1    0    0  501    0  0.00000000000E+00  0.00000000000E+00  0.16105111235E+03  0.16105111235E+03  0.00000000000E+00 0.  1.
         -2   -1    0    0    0  501 -0.00000000000E+00 -0.00000000000E+00 -0.22607277583E+03  0.22607277583E+03  0.00000000000E+00 0. -1.
         25    2    1    2    0    0  0.12572066309E+03 -0.88985616109E+02 -0.45693678659E+01  0.19847818413E+03  0.12509430622E+03 0.  0.
          5    1    3    3  502    0  0.99487027343E+02 -0.10262844629E+03 -0.43451366469E+02  0.14945153142E+03  0.41800000000E+01 0.  1.
         -5    1    3    3    0  502  0.26233635749E+02  0.13642830178E+02  0.38881998603E+02  0.49026652702E+02  0.41800000000E+01 0.  1.
        -11    1    1    2    0    0 -0.12208978390E+03  0.10157399865E+03 -0.68833028730E+02  0.17309297611E+03  0.00000000000E+00 0.  1.
         11    1    1    2    0    0 -0.36308791868E+01 -0.12588382541E+02  0.83807331184E+01  0.15552727937E+02  0.00000000000E+00 0. -1.
</event>
<event>
 7    1  0.2723366E-009  0.1203182E+03  0.7561462E-02  0.1242573E+00
         -1   -1    0    0    0  501 -0.00000000000E+00  0.00000000000E+00  0.14053196991E+03  0.14053196991E+03  0.00000000000E+00 0. -1.
          1   -1    0    0  501    0  0.00000000000E+00 -0.00000000000E+00 -0.13825603740E+03  0.13825603740E+03  0.00000000000E+00 0.  1.
         25    2    1    2    0    0 -0.27293809539E+02  0.80334204591E+02  0.32121174679E+02  0.15452584285E+03  0.12509168549E+03 0.  0.
          5    1    3    3  502    0 -0.61457704230E+02  0.57846945455E+02 -0.21270352961E+02  0.87139077473E+02  0.41800000000E+01 0.  1.
         -5    1    3    3    0  502  0.34163894691E+02  0.22487259135E+02  0.53391527641E+02  0.67386765375E+02  0.41800000000E+01 0.  1.
        -11    1    1    2    0    0 -0.44767686732E+01  0.14410645244E+02  0.83921007633E+01  0.17266600978E+02  0.00000000000E+00 0. -1.
         11    1    1    2    0    0  0.31770578213E+02 -0.94744849834E+02 -0.38237342942E+02  0.10699556348E+03  0.00000000000E+00 0.  1.
</event>
<event>
 7    1  0.2723366E-009  0.1092892E+03  0.7561462E-02  0.1261892E+00
         -4   -1    0    0    0  501 -0.00000000000E+00  0.00000000000E+00  0.44107386593E+02  0.44107386593E+02  0.00000000000E+00 0.  1.
          4   -1    0    0  501    0  0.00000000000E+00 -0.00000000000E+00 -0.50918064629E+03  0.50918064629E+03  0.00000000000E+00 0. -1.
         25    2    1    2    0    0  0.34828102748E+02  0.29817098376E+02 -0.41754621931E+03  0.43828443409E+03  0.12508534610E+03 0.  0.
          5    1    3    3  502    0  0.81870788415E+02  0.16049756721E+02 -0.24414079449E+03  0.25803608395E+03  0.41800000000E+01 0.  1.
         -5    1    3    3    0  502 -0.47042685666E+02  0.13767341655E+02 -0.17340542482E+03  0.18024835014E+03  0.41800000000E+01 0.  1.
        -11    1    1    2    0    0  0.16840665989E+02  0.10905572000E+02  0.14367173420E+02  0.24677017722E+02  0.00000000000E+00 0.  1.
         11    1    1    2    0    0 -0.51668768737E+02 -0.40722670376E+02 -0.61894213808E+02  0.90326581073E+02  0.00000000000E+00 0. -1.
</event>
<event>
 7    1  0.2723366E-009  0.3239365E+03  0.7561462E-02  0.1073852E+00
          1   -1    0    0  501    0  0.00000000000E+00  0.00000000000E+00  0.12008146047E+04  0.12008146047E+04  0.00000000000E+00 0. -1.
         -1   -1    0    0    0  501 -0.00000000000E+00 -0.00000000000E+00 -0.95465404214E+02  0.95465404214E+02  0.00000000000E+00 0.  1.
         25    2    1    2    0    0  0.12098037420E+03 -0.29382525707E+03  0.48848595617E+03  0.59601697978E+03  0.12509267834E+03 0.  0.
          5    1    3    3  502    0  0.99976109772E+01 -0.34938952767E+02  0.56545516808E+01  0.37015253618E+02  0.41800000000E+01 0.  1.
         -5    1    3    3    0  502  0.11098276322E+03 -0.25888630430E+03  0.48283140449E+03  0.55900172616E+03  0.41800000000E+01 0.  1.
        -11    1    1    2    0    0 -0.10983570773E+03  0.15310429862E+03  0.31566099776E+03  0.36762300588E+03  0.00000000000E+00 0.  1.
         11    1    1    2    0    0 -0.11144666469E+02  0.14072095845E+03  0.30120224656E+03  0.33264002325E+03  0.00000000000E+00 0. -1.
</event>
<event>
 7    1  0.2723366E-009  0.1680981E+03  0.7561462E-02  0.1179846E+00
         -2   -1    0    0    0  501 -0.00000000000E+00  0.00000000000E+00  0.67438320189E+03  0.67438320189E+03  0.00000000000E+00 0.  1.
          2   -1    0    0  501    0  0.00000000000E+00 -0.00000000000E+00 -0.44434394958E+02  0.44434394958E+02  0.00000000000E+00 0. -1.
         25    2    1    2    0    0 -0.12949616931E+03 -0.10180793020E+02  0.26962741836E+03  0.32437632787E+03  0.12509256949E+03 0.  0.
          5    1    3    3  502    0  0.13319446142E+02  0.28954528586E+02  0.45135879934E+02  0.55412024224E+02  0.41800000000E+01 0.  1.
         -5    1    3    3    0  502 -0.14281561545E+03 -0.39135321606E+02  0.22449153843E+03  0.26896430365E+03  0.41800000000E+01 0.  1.
        -11    1    1    2    0    0  0.78489561697E+02 -0.36689339916E+02  0.24552956665E+03  0.26036798394E+03  0.00000000000E+00 0.  1.
         11    1    1    2    0    0  0.51006607609E+02  0.46870132936E+02  0.11479182192E+03  0.13407328504E+03  0.00000000000E+00 0. -1.
</event>
<event>
 7    1  0.2723366E-009  0.1265568E+03  0.7561462E-02  0.1232656E+00
         -3   -1    0    0    0  501 -0.00000000000E+00  0.00000000000E+00  0.26456371272E+03  0.26456371272E+03  0.00000000000E+00 0.  1.
          3   -1    0    0  501    0  0.00000000000E+00 -0.00000000000E+00 -0.14104249577E+03  0.14104249577E+03  0.00000000000E+00 0. -1.
         25    2    1    2    0    0 -0.10571836273E+03 -0.63783262205E+02 -0.41380864317E+02  0.18056704291E+03  0.12508958509E+03 0.  0.
          5    1    3    3  502    0 -0.41711303437E+02 -0.26654394729E+02 -0.82133181855E+02  0.95987611463E+02  0.41800000000E+01 0.  1.
         -5    1    3    3    0  502 -0.64007059289E+02 -0.37128867475E+02  0.40752317538E+02  0.84579431444E+02  0.41800000000E+01 0.  1.
        -11    1    1    2    0    0  0.59573701225E+02  0.13517596137E+02  0.13939477942E+03  0.15219282444E+03  0.00000000000E+00 0.  1.
         11    1    1    2    0    0  0.46144661500E+02  0.50265666068E+02  0.25507301845E+02  0.72846341141E+02  0.00000000000E+00 0. -1.
</event>
<event>
 7    1  0.2723366E-009  0.1130664E+03  0.7561462E-02  0.1254994E+00
         -1   -1    0    0    0  501 -0.00000000000E+00  0.00000000000E+00  0.83160920009E+02  0.83160920009E+02  0.00000000000E+00 0.  1.
          1   -1    0    0  501    0  0.00000000000E+00 -0.00000000000E+00 -0.19776131351E+03  0.19776131351E+03  0.00000000000E+00 0. -1.
         25    2    1    2    0    0  0.56048440707E+01  0.46271815063E+02 -0.12128835646E+02  0.13404216595E+03  0.12509076086E+03 0.  0.
          5    1    3    3  502    0  0.49847063020E+01 -0.42214424292E+02  0.73456075682E+01  0.43339765410E+02  0.41800000000E+01 0.  1.
         -5    1    3    3    0  502  0.62013776876E+00  0.88486239355E+02 -0.19474443215E+02  0.90702400545E+02  0.41800000000E+01 0.  1.
        -11    1    1    2    0    0 -0.40902634458E+02 -0.60971116819E+01 -0.14298469290E+02  0.43756673783E+02  0.00000000000E+00 0.  1.
         11    1    1    2    0    0  0.35297790387E+02 -0.40174703381E+02 -0.88173088561E+02  0.10312339378E+03  0.00000000000E+00 0. -1.
</event>
<event>
 7    1  0.2723366E-009  0.1248361E+03  0.7561462E-02  0.1235326E+00
          1   -1    0    0  501    0  0.00000000000E+00  0.00000000000E+00  0.23660768774E+03  0.23660768774E+03  0.00000000000E+00 0. -1.
         -1   -1    0    0    0  501 -0.00000000000E+00 -0.00000000000E+00 -0.11045889134E+03  0.11045889134E+03  0.00000000000E+00 0.  1.
         25    2    1    2    0    0 -0.11007190058E+03 -0.20261785846E+02  0.22038345120E+02  0.16929247658E+03  0.12509152932E+03 0.  0.
          5    1    3    3  502    0  0.77679673653E+00 -0.18152287342E+02  0.51273487117E+02  0.54557784321E+02  0.41800000000E+01 0. -1.
         -5    1    3    3    0  502 -0.11084869732E+03 -0.21094985043E+01 -0.29235141997E+02  0.11473469226E+03  0.41800000000E+01 0. -1.
        -11    1    1    2    0    0  0.82570360107E+02  0.34051490889E+02  0.11457777229E+03  0.14527709490E+03  0.00000000000E+00 0. -1.
         11    1    1    2    0    0  0.27501540475E+02 -0.13789705043E+02 -0.10467321005E+02  0.32497007596E+02  0.00000000000E+00 0.  1.
</event>
<event>
 7    1  0.2723366E-009  0.1052671E+03  0.7561462E-02  0.1269594E+00
          2   -1    0    0  501    0  0.00000000000E+00  0.00000000000E+00  0.13672670722E+02  0.13672670722E+02  0.00000000000E+00 0. -1.
         -2   -1    0    0    0  501 -0.00000000000E+00 -0.00000000000E+00 -0.15148302558E+04  0.15148302558E+04  0.00000000000E+00 0.  1.
         25    2    1    2    0    0 -0.26230967213E+02 -0.68822808956E+01 -0.12846353347E+04  0.12909960096E+04  0.12508926467E+03 0.  0.
          5    1    3    3  502    0  0.46273922467E+02 -0.24713262393E+02 -0.59245673477E+03  0.59478943855E+03  0.41800000000E+01 0.  1.
         -5    1    3    3    0  502 -0.72504889680E+02  0.17830981497E+02 -0.69217859997E+03  0.69620657106E+03  0.41800000000E+01 0.  1.
        -11    1    1    2    0    0  0.71854187798E+01  0.42303354290E+02 -0.48581505537E+02  0.64817950504E+02  0.00000000000E+00 0. -1.
         11    1    1    2    0    0  0.19045548433E+02 -0.35421073394E+02 -0.16794074484E+03  0.17268896645E+03  0.00000000000E+00 0.  1.
</event>
<event>
 7    1  0.2723366E-009  0.1023892E+03  0.7561462E-02  0.1275351E+00
         -1   -1    0    0    0  501 -0.00000000000E+00  0.00000000000E+00  0.41140486819E+03  0.41140486819E+03  0.00000000000E+00 0.  1.
          1   -1    0    0  501    0  0.00000000000E+00 -0.00000000000E+00 -0.49160069013E+02  0.49160069013E+02  0.00000000000E+00 0. -1.
         25    2    1    2    0    0  0.17280467613E+02 -0.50465091639E+02  0.31264113780E+03  0.34093712581E+03  0.12509317599E+03 0.  0.
          5    1    3    3  502    0 -0.52224308013E+02 -0.34379465673E+02  0.11828275732E+03  0.13385667367E+03  0.41800000000E+01 0. -1.
         -5    1    3    3    0  502  0.69504775626E+02 -0.16085625967E+02  0.19435838048E+03  0.20708045214E+03  0.41800000000E+01 0. -1.
        -11    1    1    2    0    0  0.14788386394E+02  0.63105355687E+01 -0.23455611658E+02  0.28437386476E+02  0.00000000000E+00 0. -1.
         11    1    1    2    0    0 -0.32068854007E+02  0.44154556071E+02  0.73059273042E+02  0.91190424917E+02  0.00000000000E+00 0.  1.
</event>
<event>
 7    1  0.2723366E-009  0.8437811E+02  0.7561462E-02  0.1317067E+00
          4   -1    0    0  501    0  0.00000000000E+00  0.00000000000E+00  0.86041331168E+02  0.86041331168E+02  0.00000000000E+00 0. -1.
         -4   -1    0    0    0  501 -0.00000000000E+00 -0.00000000000E+00 -0.20147399418E+03  0.20147399418E+03  0.00000000000E+00 0.  1.
         25    2    1    2    0    0 -0.57995405130E+02 -0.18084670899E+01 -0.10796430052E+02  0.13831774611E+03  0.12509395835E+03 0.  0.
          5    1    3    3  502    0 -0.47686950944E+02 -0.22980801303E+02  0.50031169157E+02  0.72957198453E+02  0.41800000000E+01 0.  1.
         -5    1    3    3    0  502 -0.10308454186E+02  0.21172334213E+02 -0.60827599210E+02  0.65360547652E+02  0.41800000000E+01 0.  1.
        -11    1    1    2    0    0  0.86167806776E+00 -0.27509171092E+02 -0.72170879636E+02  0.77240746052E+02  0.00000000000E+00 0.  1.
         11    1    1    2    0    0  0.57133727063E+02  0.29317638182E+02 -0.32465353325E+02  0.71956833193E+02  0.00000000000E+00 0. -1.
</event>
<event>
 7    1  0.2723366E-009  0.1577800E+03  0.7561462E-02  0.1191226E+00
         -2   -1    0    0    0  501 -0.00000000000E+00  0.00000000000E+00  0.16068175665E+02  0.16068175665E+02  0.00000000000E+00 0.  1.
          2   -1    0    0  501    0  0.00000000000E+00 -0.00000000000E+00 -0.19373913197E+04  0.19373913197E+04  0.00000000000E+00 0. -1.
         25    2    1    2    0    0 -0.83765469329E+02  0.82283555537E+02 -0.14398852898E+04  0.14500709339E+04  0.12509527618E+03 0.  0.
          5    1    3    3  502    0  0.29389350799E+02  0.35355324405E+02 -0.52210339068E+03  0.52414039709E+03  0.41800000000E+01 0. -1.
         -5    1    3    3    0  502 -0.11315482013E+03  0.46928231132E+02 -0.91778189914E+03  0.92593053680E+03  0.41800000000E+01 0. -1.
        -11    1    1    2    0    0  0.58338755344E+02  0.24171531334E+01 -0.20462364896E+03  0.21279119041E+03  0.00000000000E+00 0. -1.
         11    1    1    2    0    0  0.25426713985E+02 -0.84700708670E+02 -0.27681420526E+03  0.29059737106E+03  0.00000000000E+00 0.  1.
</event>
<event>
 7    1  0.2723366E-009  0.1313307E+03  0.7561462E-02  0.1225495E+00
          1   -1    0    0  501    0  0.00000000000E+00  0.00000000000E+00  0.10830440277E+04  0.10830440277E+04  0.00000000000E+00 0. -1.
         -1   -1    0    0    0  501 -0.00000000000E+00 -0.00000000000E+00 -0.18825125135E+02  0.18825125135E+02  0.00000000000E+00 0.  1.
         25    2    1    2    0    0  0.84009764836E+01 -0.79195833422E+02  0.75943712278E+03  0.77378003371E+03  0.12509292811E+03 0.  0.
          5    1    3    3  502    0 -0.22517300122E+02  0.24298956777E+02  0.29730563829E+03  0.29917483695E+03  0.41800000000E+01 0.  1.
         -5    1    3    3    0  502  0.30918276605E+02 -0.10349479020E+03  0.46213148449E+03  0.47460519675E+03  0.41800000000E+01 0.  1.
        -11    1    1    2    0    0 -0.49385749468E+02  0.32882562232E+02  0.16030548133E+03  0.17093291811E+03  0.00000000000E+00 0. -1.
         11    1    1    2    0    0  0.40984772985E+02  0.46313271190E+02  0.14447629848E+03  0.15715620104E+03  0.00000000000E+00 0.  1.
</event>
<event>
 7    1  0.3314788E-009  0.1882181E+03  0.7561462E-02  0.1160078E+00
         -1   -1    0    0    0  501 -0.00000000000E+00  0.00000000000E+00  0.49786155293E+02  0.49786155293E+02  0.00000000000E+00 0.  1.
          1   -1    0    0  501    0  0.00000000000E+00 -0.00000000000E+00 -0.83480404428E+03  0.83480404428E+03  0.00000000000E+00 0. -1.
         25    2    1    2    0    0  0.13288753512E+03  0.96022634079E+02 -0.52469339955E+03  0.56376544894E+03  0.12509546210E+03 0.  0.
          5    1    3    3  502    0  0.66885864043E+02  0.11849689042E+03 -0.35946906914E+03  0.38438355313E+03  0.41800000000E+01 0.  1.
         -5    1    3    3    0  502  0.66001671081E+02 -0.22474256345E+02 -0.16522433042E+03  0.17938189581E+03  0.41800000000E+01 0.  1.
        -11    1    1    2    0    0 -0.69701813882E+02 -0.78298738045E+02 -0.22026927747E+03  0.24394177550E+03  0.00000000000E+00 0. -1.
         11    1    1    2    0    0 -0.63185721242E+02 -0.17723896034E+02 -0.40055211964E+02  0.76882975131E+02  0.00000000000E+00 0.  1.
</event>
<event>
 7    1  0.2723366E-009  0.1303987E+03  0.7561462E-02  0.1226865E+00
         -1   -1    0    0    0  501 -0.00000000000E+00  0.00000000000E+00  0.12683846989E+03  0.12683846989E+03  0.00000000000E+00 0.  1.
          1   -1    0    0  501    0  0.00000000000E+00 -0.00000000000E+00 -0.16677091598E+03  0.16677091598E+03  0.00000000000E+00 0. -1.
         25    2    1    2    0    0 -0.18283670921E+02 -0.70597049288E+02  0.39222678586E+02  0.15001225723E+03  0.12508806023E+03 0.  0.
          5    1    3    3  502    0  0.21437974285E+01 -0.10428711515E+03  0.21380715048E+02  0.10655986876E+03  0.41800000000E+01 0.  1.
         -5    1    3    3    0  502 -0.20427468350E+02  0.33690065861E+02  0.17841963538E+02  0.43452388470E+02  0.41800000000E+01 0.  1.
        -11    1    1    2    0    0 -0.36383618292E+02  0.16761519511E+02 -0.43037707348E+02  0.58795922223E+02  0.00000000000E+00 0. -1.
         11    1    1    2    0    0  0.54667289213E+02  0.53835529777E+02 -0.36117417329E+02  0.84801206423E+02  0.00000000000E+00 0.  1.
</event>
<event>
 7    1  0.2723366E-009  0.8388083E+02  0.7561462E-02  0.1318385E+00
          2   -1    0    0  501    0  0.00000000000E+00  0.00000000000E+00  0.33535545662E+03  0.33535545662E+03  0.00000000000E+00 0. -1.
         -2   -1    0    0    0  501 -0.00000000000E+00 -0.00000000000E+00 -0.46205271676E+02  0.46205271676E+02  0.00000000000E+00 0.  1.
         25    2    1    2    0    0 -0.27003337864E+02  0.36306572270E+02  0.21839777309E+03  0.25571990596E+03  0.12509090921E+03 0.  0.
          5    1    3    3  502    0  0.24052828143E+02  0.24913030353E+02  0.41362139710E+01  0.35125180271E+02  0.41800000000E+01 0.  1.
         -5    1    3    3    0  502 -0.51056166007E+02  0.11393541918E+02  0.21426155912E+03  0.22059472569E+03  0.41800000000E+01 0.  1.
        -11    1    1    2    0    0  0.48608030706E+02 -0.32480414665E+02  0.82374995866E+02  0.10101167225E+03  0.00000000000E+00 0. -1.
         11    1    1    2    0    0 -0.21604692842E+02 -0.38261576049E+01 -0.11622584018E+02  0.24829150087E+02  0.00000000000E+00 0.  1.
</event>
<event>
 7    1  0.2723366E-009  0.1100432E+03  0.7561462E-02  0.1260490E+00
          2   -1    0    0  501    0  0.00000000000E+00  0.00000000000E+00  0.45053791824E+02  0.45053791824E+02  0.00000000000E+00 0. -1.
         -2   -1    0    0    0  501 -0.00000000000E+00 -0.00000000000E+00 -0.31507048277E+03  0.31507048277E+03  0.00000000000E+00 0.  1.
         25    2    1    2    0    0  0.23154873905E+01 -0.41429501132E+02 -0.11309524534E+03  0.17365339949E+03  0.12507279316E+03 0.  0.
          5    1    3    3  502    0  0.30913567169E+02 -0.73055370679E+02 -0.40028065843E+02  0.88951977355E+02  0.41800000000E+01 0.  1.
         -5    1    3    3    0  502 -0.28598079779E+02  0.31625869547E+02 -0.73067179499E+02  0.84701422134E+02  0.41800000000E+01 0.  1.
        -11    1    1    2    0    0  0.39015390414E+02 -0.37894493594E+00 -0.85382017187E+02  0.93874560704E+02  0.00000000000E+00 0. -1.
         11    1    1    2    0    0 -0.41330877804E+02  0.41808446068E+02 -0.71539428420E+02  0.92596314405E+02  0.00000000000E+00 0.  1.
</event>
<event>
 7    1  0.2723366E-009  0.1967404E+03  0.7561462E-02  0.1152519E+00
          1   -1    0    0  501    0  0.00000000000E+00  0.00000000000E+00  0.80061473395E+02  0.80061473395E+02  0.00000000000E+00 0. -1.
         -1   -1    0    0    0  501 -0.00000000000E+00 -0.00000000000E+00 -0.66579532305E+03  0.66579532305E+03  0.00000000000E+00 0.  1.
         25    2    1    2    0    0 -0.44052226240E+02  0.17606095721E+03 -0.45288435103E+03  0.50367637780E+03  0.12509036274E+03 0.  0.
          5    1    3    3  502    0  0.34886233103E+02  0.68229994650E+02 -0.24293243296E+03  0.25476660066E+03  0.41800000000E+01 0.  1.
         -5    1    3    3    0  502 -0.78938459343E+02  0.10783096256E+03 -0.20995191808E+03  0.24890977714E+03  0.41800000000E+01 0.  1.
        -11    1    1    2    0    0  0.33122508621E+02 -0.16130343198E+03 -0.14561336374E+03  0.21981617194E+03  0.00000000000E+00 0.  1.
         11    1    1    2    0    0  0.10929717619E+02 -0.14757525227E+02  0.12763865115E+02  0.22364246707E+02  0.00000000000E+00 0. -1.
</event>
<event>
 7    1  0.2723366E-009  0.1219928E+03  0.7561462E-02  0.1239845E+00
         -2   -1    0    0    0  501 -0.00000000000E+00  0.00000000000E+00  0.43622221080E+02  0.43622221080E+02  0.00000000000E+00 0. -1.
          2   -1    0    0  501    0  0.00000000000E+00 -0.00000000000E+00 -0.74608065008E+03  0.74608065008E+03  0.00000000000E+00 0.  1.
         25    2    1    2    0    0  0.83194538518E+02 -0.48362996226E+02 -0.13754284431E+03  0.20934601698E+03  0.12508960853E+03 0.  0.
          5    1    3    3  502    0 -0.83723657656E+01  0.72921162843E+01  0.17311482722E+02  0.20986455214E+02  0.41800000000E+01 0. -1.
         -5    1    3    3    0  502  0.91566904284E+02 -0.55655112510E+02 -0.15485432703E+03  0.18835956177E+03  0.41800000000E+01 0. -1.
        -11    1    1    2    0    0 -0.36200756552E+02  0.65522574250E+02 -0.42993587076E+03  0.43640411946E+03  0.00000000000E+00 0.  1.
         11    1    1    2    0    0 -0.46993781966E+02 -0.17159578024E+02 -0.13497971393E+03  0.14395273472E+03  0.00000000000E+00 0. -1.
</event>
<event>
 7    1  0.2723366E-009  0.1019659E+03  0.7561462E-02  0.1276215E+00
         -1   -1    0    0    0  501 -0.00000000000E+00  0.00000000000E+00  0.11753943011E+03  0.11753943011E+03  0.00000000000E+00 0.  1.
          1   -1    0    0  501    0  0.00000000000E+00 -0.00000000000E+00 -0.11810138550E+03  0.11810138550E+03  0.00000000000E+00 0. -1.
         25    2    1    2    0    0 -0.38859246430E+02 -0.19530796920E+02  0.55060142795E+01  0.13255174285E+03  0.12509258682E+03 0.  0.
          5    1    3    3  502    0  0.12027920851E+02  0.39972730265E+02 -0.24520089839E+02  0.48592152149E+02  0.41800000000E+01 0. -1.
         -5    1    3    3    0  502 -0.50887167281E+02 -0.59503527184E+02  0.30026104118E+02  0.83959590696E+02  0.41800000000E+01 0. -1.
        -11    1    1    2    0    0  0.35393641063E+01  0.41714415118E+02  0.27039841116E+02  0.49837461156E+02  0.00000000000E+00 0.  1.
         11    1    1    2    0    0  0.35319882323E+02 -0.22183618198E+02 -0.33107810785E+02  0.53251611607E+02  0.00000000000E+00 0. -1.
</event>
<event>
 7    1  0.2723366E-009  0.1409511E+03  0.7561462E-02  0.1212055E+00
         -1   -1    0    0    0  501 -0.00000000000E+00  0.00000000000E+00  0.39955162014E+03  0.39955162014E+03  0.00000000000E+00 0. -1.
          1   -1    0    0  501    0  0.00000000000E+00 -0.00000000000E+00 -0.78146290531E+02  0.78146290531E+02  0.00000000000E+00 0.  1.
         25    2    1    2    0    0  0.10308320190E+03  0.42581154058E+02  0.57621923720E+02  0.17722199521E+03  0.12509215922E+03 0.  0.
          5    1    3    3  502    0 -0.52045845859E+01  0.29629034752E+02  0.60878144561E+02  0.68033729034E+02  0.41800000000E+01 0. -1.
         -5    1    3    3    0  502  0.10828778648E+03  0.12952119306E+02 -0.32562208410E+01  0.10918826618E+03  0.41800000000E+01 0. -1.
        -11    1    1    2    0    0 -0.83985911752E+02  0.11747456420E+02  0.17781286164E+03  0.19700012657E+03  0.00000000000E+00 0. -1.
         11    1    1    2    0    0 -0.19097290147E+02 -0.54328610478E+02  0.85970544247E+02  0.10347578889E+03  0.00000000000E+00 0.  1.
</event>
<event>
 7    1  0.2723366E-009  0.1145938E+03  0.7561462E-02  0.1252292E+00
         -1   -1    0    0    0  501 -0.00000000000E+00  0.00000000000E+00  0.26105203147E+02  0.26105203147E+02  0.00000000000E+00 0.  1.
          1   -1    0    0  501    0  0.00000000000E+00 -0.00000000000E+00 -0.69351928793E+03  0.69351928793E+03  0.00000000000E+00 0. -1.
         25    2    1    2    0    0 -0.22961839344E+02  0.75446970955E+02 -0.32952598856E+03  0.36118384694E+03  0.12508757997E+03 0.  0.
          5    1    3    3  502    0 -0.67949515225E+02  0.11148706682E+02 -0.14255891863E+03  0.15837281320E+03  0.41800000000E+01 0. -1.
         -5    1    3    3    0  502  0.44987675881E+02  0.64298264274E+02 -0.18696706993E+03  0.20281103374E+03  0.41800000000E+01 0. -1.
        -11    1    1    2    0    0  0.26688024925E+02 -0.59024194779E+02 -0.33518242456E+03  0.34138448116E+03  0.00000000000E+00 0. -1.
         11    1    1    2    0    0 -0.37261855810E+01 -0.16422776176E+02 -0.27056716677E+01  0.17056162977E+02  0.00000000000E+00 0.  1.
</event>
<event>
 7    1  0.2723366E-009  0.1482694E+03  0.7561462E-02  0.1202616E+00
         -3   -1    0    0    0  501 -0.00000000000E+00  0.00000000000E+00  0.50263993061E+03  0.50263993061E+03  0.00000000000E+00 0. -1.
          3   -1    0    0  501    0  0.00000000000E+00 -0.00000000000E+00 -0.52731363431E+02  0.52731363431E+02  0.00000000000E+00 0.  1.
         25    2    1    2    0    0 -0.10264672056E+03 -0.56423665085E+02  0.29109509511E+03  0.33779264170E+03  0.12509010820E+03 0.  0.
          5    1    3    3  502    0 -0.12047900332E+03 -0.44523621034E+02  0.16160441132E+03  0.20647276147E+03  0.41800000000E+01 0. -1.
         -5    1    3    3    0  502  0.17832282756E+02 -0.11900044051E+02  0.12949068378E+03  0.13131988023E+03  0.41800000000E+01 0. -1.
        -11    1    1    2    0    0  0.50553502001E+02 -0.19436951443E+02  0.40183808449E+02  0.67440270665E+02  0.00000000000E+00 0.  1.
         11    1    1    2    0    0  0.52093218563E+02  0.75860616528E+02  0.11862966363E+03  0.15013838168E+03  0.00000000000E+00 0. -1.
</event>
<event>
 7    1  0.2723366E-009  0.1120547E+03  0.7561462E-02  0.1256812E+00
         -4   -1    0    0    0  501 -0.00000000000E+00  0.00000000000E+00  0.37263958804E+02  0.37263958804E+02  0.00000000000E+00 0.  1.
          4   -1    0    0  501    0  0.00000000000E+00 -0.00000000000E+00 -0.41039264685E+03  0.41039264685E+03  0.00000000000E+00 0. -1.
         25    2    1    2    0    0  0.37969951375E+02  0.42760820907E+02 -0.19575389024E+03  0.23924364744E+03  0.12509089610E+03 0.  0.
          5    1    3    3  502    0 -0.40482302372E+02 -0.75903252259E+01 -0.84046810067E+02  0.93689746103E+02  0.41800000000E+01 0. -1.
         -5    1    3    3    0  502  0.78452253747E+02  0.50351146133E+02 -0.11170708017E+03  0.14555390134E+03  0.41800000000E+01 0. -1.
        -11    1    1    2    0    0 -0.48473868065E+02 -0.33274488922E+01 -0.15378257829E+03  0.16127575511E+03  0.00000000000E+00 0. -1.
         11    1    1    2    0    0  0.10503916690E+02 -0.39433372015E+02 -0.23592219516E+02  0.47137203099E+02  0.00000000000E+00 0.  1.
</event>
<event>
 7    1  0.2723366E-009  0.1013910E+03  0.7561462E-02  0.1277398E+00
          1   -1    0    0  501    0  0.00000000000E+00  0.00000000000E+00  0.54224722377E+03  0.54224722377E+03  0.00000000000E+00 0. -1.
         -1   -1    0    0    0  501 -0.00000000000E+00 -0.00000000000E+00 -0.26555972894E+02  0.26555972894E+02  0.00000000000E+00 0.  1.
         25    2    1    2    0    0 -0.28053167516E+02  0.44065795446E+02  0.27032608241E+03  0.30241229133E+03  0.12509287981E+03 0.  0.
          5    1    3    3  502    0 -0.33456114661E+02 -0.16973150421E+02  0.16387058475E+02  0.41151033145E+02  0.41800000000E+01 0.  1.
         -5    1    3    3    0  502  0.54029471456E+01  0.61038945868E+02  0.25393902394E+03  0.26126125818E+03  0.41800000000E+01 0.  1.
        -11    1    1    2    0    0 -0.19769005652E+02 -0.51549688768E+02  0.12443757637E+03  0.13613557363E+03  0.00000000000E+00 0.  1.
         11    1    1    2    0    0  0.47822173168E+02  0.74838933221E+01  0.12092759210E+03  0.13025533170E+03  0.00000000000E+00 0. -1.
</event>
<event>
 7    1  0.2723366E-009  0.1007526E+03  0.7561462E-02  0.1278721E+00
         -1   -1    0    0    0  501 -0.00000000000E+00  0.00000000000E+00  0.20652436790E+03  0.20652436790E+03  0.00000000000E+00 0.  1.
          1   -1    0    0  501    0  0.00000000000E+00 -0.00000000000E+00 -0.59949426611E+02  0.59949426611E+02  0.00000000000E+00 0. -1.
         25    2    1    2    0    0 -0.17508857401E+02  0.18568551091E+02  0.89568606582E+02  0.15595388094E+03  0.12509087305E+03 0.  0.
          5    1    3    3  502    0 -0.36493818256E+02  0.66450135330E+02  0.55703098077E+02  0.94168608313E+02  0.41800000000E+01 0. -1.
         -5    1    3    3    0  502  0.18984960855E+02 -0.47881584239E+02  0.33865508505E+02  0.61785272632E+02  0.41800000000E+01 0. -1.
        -11    1    1    2    0    0 -0.18028403557E+02  0.16161000281E+02 -0.10754556684E+02  0.26492673597E+02  0.00000000000E+00 0. -1.
         11    1    1    2    0    0  0.35537260958E+02 -0.34729551371E+02  0.67760891392E+02  0.84027239970E+02  0.00000000000E+00 0.  1.
</event>
<event>
 7    1  0.2723366E-009  0.1644158E+03  0.7561462E-02  0.1183800E+00
         -2   -1    0    0    0  501 -0.00000000000E+00  0.00000000000E+00  0.50817581867E+02  0.50817581867E+02  0.00000000000E+00 0. -1.
          2   -1    0    0  501    0  0.00000000000E+00 -0.00000000000E+00 -0.11709801877E+04  0.11709801877E+04  0.00000000000E+00 0.  1.
         25    2    1    2    0    0 -0.12164430958E+03  0.11309827778E+02 -0.99930495254E+03  0.10144867582E+04  0.12509094334E+03 0.  0.
          5    1    3    3  502    0  0.17005171990E+02  0.13281406392E+02 -0.44234203805E+02  0.49393408633E+02  0.41800000000E+01 0. -1.
         -5    1    3    3    0  502 -0.13864948157E+03 -0.19715786143E+01 -0.95507074873E+03  0.96509334955E+03  0.41800000000E+01 0. -1.
        -11    1    1    2    0    0  0.69048453867E+02  0.51547404656E+02 -0.68228524176E+02  0.10990885051E+03  0.00000000000E+00 0.  1.
         11    1    1    2    0    0  0.52595855715E+02 -0.62857232434E+02 -0.52629129071E+02  0.97402160830E+02  0.00000000000E+00 0. -1.
</event>
<event>
 7    1  0.2723366E-009  0.1477407E+03  0.7561462E-02  0.1203277E+00
         -2   -1    0    0    0  501 -0.00000000000E+00  0.00000000000E+00  0.61705909679E+03  0.61705909679E+03  0.00000000000E+00 0.  1.
          2   -1    0    0  501    0  0.00000000000E+00 -0.00000000000E+00 -0.92124744413E+02  0.92124744413E+02  0.00000000000E+00 0. -1.
         25    2    1    2    0    0  0.12154466644E+03  0.26063031687E+02  0.14146821025E+02  0.17690981959E+03  0.12507823217E+03 0.  0.
          5    1    3    3  502    0  0.87060948833E+02  0.54072397900E+02  0.55021020390E+02  0.11639681315E+03  0.41800000000E+01 0.  1.
         -5    1    3    3    0  502  0.34483717602E+02 -0.28009366212E+02 -0.40874199364E+02  0.60513006445E+02  0.41800000000E+01 0.  1.
        -11    1    1    2    0    0 -0.20411015931E+02  0.27183587558E+02  0.88862806582E+02  0.95142815796E+02  0.00000000000E+00 0.  1.
         11    1    1    2    0    0 -0.10113365051E+03 -0.53246619245E+02  0.42192472477E+03  0.43713120582E+03  0.00000000000E+00 0. -1.
</event>
<event>
 7    1  0.2723366E-009  0.1630026E+03  0.7561462E-02  0.1185348E+00
         -1   -1    0    0    0  501 -0.00000000000E+00  0.00000000000E+00  0.34835550152E+02  0.34835550152E+02  0.00000000000E+00 0.  1.
          1   -1    0    0  501    0  0.00000000000E+00 -0.00000000000E+00 -0.79785540623E+03  0.79785540623E+03  0.00000000000E+00 0. -1.
         25    2    1    2    0    0  0.11799625928E+03 -0.39268613279E+02 -0.37441017887E+03  0.41388060522E+03  0.12509609163E+03 0.  0.
          5    1    3    3  502    0 -0.18461417659E+02  0.19994118083E+02 -0.61247776267E+02  0.67151702864E+02  0.41800000000E+01 0.  1.
         -5    1    3    3    0  502  0.13645767694E+03 -0.59262731362E+02 -0.31316240261E+03  0.34672890236E+03  0.41800000000E+01 0.  1.
        -11    1    1    2    0    0 -0.20357010346E+02  0.47478673288E+02 -0.81913829325E+02  0.96842695760E+02  0.00000000000E+00 0.  1.
         11    1    1    2    0    0 -0.97639248933E+02 -0.82100600087E+01 -0.30669584789E+03  0.32196765541E+03  0.00000000000E+00 0. -1.
</event>
<event>
 7    1  0.2723366E-009  0.8277565E+02  0.7561462E-02  0.1321354E+00
         -3   -1    0    0    0  501 -0.00000000000E+00  0.00000000000E+00  0.43569730203E+02  0.43569730203E+02  0.00000000000E+00 0.  1.
          3   -1    0    0  501    0  0.00000000000E+00 -0.00000000000E+00 -0.42120743188E+03  0.42120743188E+03  0.00000000000E+00 0. -1.
         25    2    1    2    0    0 -0.79390148150E+02  0.10048672269E+02 -0.21285058745E+03  0.25953075173E+03  0.12508823716E+03 0.  0.
          5    1    3    3  502    0 -0.46819748151E+02  0.10246585876E+02 -0.22060457681E+03  0.22578957693E+03  0.41800000000E+01 0.  1.
         -5    1    3    3    0  502 -0.32570399999E+02 -0.19791360684E+00  0.77539893580E+01  0.33741174800E+02  0.41800000000E+01 0.  1.
        -11    1    1    2    0    0  0.33264998392E+02  0.93666227807E+01 -0.14872475474E+03  0.15268708659E+03  0.00000000000E+00 0. -1.
         11    1    1    2    0    0  0.46125149758E+02 -0.19415295050E+02 -0.16062359484E+02  0.52559323761E+02  0.00000000000E+00 0.  1.
</event>
<event>
 7    1  0.2723366E-009  0.9746831E+02  0.7561462E-02  0.1285712E+00
          2   -1    0    0  501    0  0.00000000000E+00  0.00000000000E+00  0.41076082803E+03  0.41076082803E+03  0.00000000000E+00 0. -1.
         -2   -1    0    0    0  501 -0.00000000000E+00 -0.00000000000E+00 -0.38132730847E+02  0.38132730847E+02  0.00000000000E+00 0.  1.
         25    2    1    2    0    0  0.19753279358E+02 -0.11247722293E+02  0.31890221822E+03  0.34331155294E+03  0.12508994480E+03 0.  0.
          5    1    3    3  502    0 -0.95554562614E+01  0.54176504845E+02  0.13017222797E+03  0.14138133454E+03  0.41800000000E+01 0. -1.
         -5    1    3    3    0  502  0.29308735619E+02 -0.65424227138E+02  0.18872999026E+03  0.20193021840E+03  0.41800000000E+01 0. -1.
        -11    1    1    2    0    0  0.73854533038E+01  0.32597949133E+02 -0.84369586404E+01  0.34472503235E+02  0.00000000000E+00 0.  1.
         11    1    1    2    0    0 -0.27138732662E+02 -0.21350226840E+02  0.62162837601E+02  0.71109502707E+02  0.00000000000E+00 0. -1.
</event>
<event>
 7    1  0.2723366E-009  0.1132566E+03  0.7561462E-02  0.1254655E+00
          1   -1    0    0  501    0  0.00000000000E+00  0.00000000000E+00  0.10700053221E+03  0.10700053221E+03  0.00000000000E+00 0. -1.
         -1   -1    0    0    0  501 -0.00000000000E+00 -0.00000000000E+00 -0.14071503853E+03  0.14071503853E+03  0.00000000000E+00 0.  1.
         25    2    1    2    0    0 -0.12501788715E-01  0.51402669984E+02  0.76521014665E+01  0.13545753873E+03  0.12509178832E+03 0.  0.
          5    1    3    3  502    0  0.40036627218E+02 -0.18055104842E+02  0.28482944999E+02  0.52513511458E+02  0.41800000000E+01 0. -1.
         -5    1    3    3    0  502 -0.40049129006E+02  0.69457774825E+02 -0.20830843532E+02  0.82944027272E+02  0.41800000000E+01 0. -1.
        -11    1    1    2    0    0  0.43426351714E+02 -0.16686051073E+02 -0.30470800177E+02  0.55612426552E+02  0.00000000000E+00 0.  1.
         11    1    1    2    0    0 -0.43413849925E+02 -0.34716618911E+02 -0.10895807612E+02  0.56645605456E+02  0.00000000000E+00 0. -1.
</event>
<event>
 7    1  0.2723366E-009  0.1627324E+03  0.7561462E-02  0.1185646E+00
         -1   -1    0    0    0  501 -0.00000000000E+00  0.00000000000E+00  0.16868801296E+02  0.16868801296E+02  0.00000000000E+00 0.  1.
          1   -1    0    0  501    0  0.00000000000E+00 -0.00000000000E+00 -0.19206696304E+04  0.19206696304E+04  0.00000000000E+00 0. -1.
         25    2    1    2    0    0 -0.12165359418E+03 -0.39217039324E+02 -0.13797594562E+04  0.13913020339E+04  0.12509044501E+03 0.  0.
          5    1    3    3  502    0  0.18578298581E+02 -0.23812762317E+02 -0.43397013904E+03  0.43503994622E+03  0.41800000000E+01 0. -1.
         -5    1    3    3    0  502 -0.14023189276E+03 -0.15404277007E+02 -0.94578931714E+03  0.95626208767E+03  0.41800000000E+01 0. -1.
        -11    1    1    2    0    0  0.59871721017E+02 -0.24858844295E+02 -0.20447481042E+03  0.21450532211E+03  0.00000000000E+00 0.  1.
         11    1    1    2    0    0  0.61781873163E+02  0.64075883619E+02 -0.31956656249E+03  0.33173107569E+03  0.00000000000E+00 0. -1.
</event>
<event>
 7    1  0.2723366E-009  0.9502629E+02  0.7561462E-02  0.1291117E+00
         -4   -1    0    0    0  501 -0.00000000000E+00  0.00000000000E+00  0.11666176268E+03  0.11666176268E+03  0.00000000000E+00 0.  1.
          4   -1    0    0  501    0  0.00000000000E+00 -0.00000000000E+00 -0.14648907878E+03  0.14648907878E+03  0.00000000000E+00 0. -1.
         25    2    1    2    0    0  0.35324304389E+02 -0.11317143236E+02  0.46453993651E+02  0.13850053118E+03  0.12509412216E+03 0.  0.
          5    1    3    3  502    0 -0.22620153402E+02 -0.23443177600E+02  0.67876644371E+02  0.75405339115E+02  0.41800000000E+01 0.  1.
         -5    1    3    3    0  502  0.57944457792E+02  0.12126034364E+02 -0.21422650720E+02  0.63095192068E+02  0.41800000000E+01 0.  1.
        -11    1    1    2    0    0  0.70904241883E+01 -0.34619470784E+02 -0.20459317620E+02  0.40833387687E+02  0.00000000000E+00 0.  1.
         11    1    1    2    0    0 -0.42414728578E+02  0.45936614020E+02 -0.55821992125E+02  0.83816922592E+02  0.00000000000E+00 0. -1.
</event>
<event>
 7    1  0.2723366E-009  0.1937889E+03  0.7561462E-02  0.1155088E+00
         -1   -1    0    0    0  501 -0.00000000000E+00  0.00000000000E+00  0.74278901059E+02  0.74278901059E+02  0.00000000000E+00 0.  1.
          1   -1    0    0  501    0  0.00000000000E+00 -0.00000000000E+00 -0.83551834673E+03  0.83551834673E+03  0.00000000000E+00 0. -1.
         25    2    1    2    0    0  0.10672573491E+03 -0.14550327991E+03 -0.63373786421E+03  0.67069564447E+03  0.12508948806E+03 0.  0.
          5    1    3    3  502    0  0.11981133606E+03 -0.10073851959E+03 -0.35429749103E+03  0.38735925202E+03  0.41800000000E+01 0.  1.
         -5    1    3    3    0  502 -0.13085601143E+02 -0.44764760325E+02 -0.27944037318E+03  0.28333639245E+03  0.41800000000E+01 0.  1.
        -11    1    1    2    0    0 -0.30210833690E+02  0.71917095387E+02 -0.67130008777E+01  0.78293214661E+02  0.00000000000E+00 0.  1.
         11    1    1    2    0    0 -0.76514901222E+02  0.73586184526E+02 -0.12078858058E+03  0.16080838865E+03  0.00000000000E+00 0. -1.
</event>
<event>
 7    1  0.2723366E-009  0.1075036E+03  0.7561462E-02  0.1265264E+00
         -2   -1    0    0    0  501 -0.00000000000E+00  0.00000000000E+00  0.11296443247E+03  0.11296443247E+03  0.00000000000E+00 0.  1.
          2   -1    0    0  501    0  0.00000000000E+00 -0.00000000000E+00 -0.12185533138E+03  0.12185533138E+03  0.00000000000E+00 0. -1.
         25    2    1    2    0    0 -0.31859132349E+02  0.30308423831E+02 -0.75704364868E+01  0.13280869302E+03  0.12508889864E+03 0.  0.
          5    1    3    3  502    0 -0.24496561114E+02  0.78847398307E+02  0.16218704844E+01  0.82686737692E+02  0.41800000000E+01 0.  1.
         -5    1    3    3    0  502 -0.73625712352E+01 -0.48538974476E+02 -0.91923069712E+01  0.50121955328E+02  0.41800000000E+01 0.  1.
        -11    1    1    2    0    0  0.54547398029E+02 -0.23331168838E+02  0.26894884941E+02  0.65139058230E+02  0.00000000000E+00 0.  1.
         11    1    1    2    0    0 -0.22688265680E+02 -0.69772549924E+01 -0.28215347366E+02  0.36872012608E+02  0.00000000000E+00 0. -1.
</event>
<event>
 7    1  0.2723366E-009  0.1295577E+03  0.7561462E-02  0.1228113E+00
          3   -1    0    0  501    0  0.00000000000E+00  0.00000000000E+00  0.43902099808E+03  0.43902099808E+03  0.00000000000E+00 0. -1.
         -3   -1    0    0    0  501 -0.00000000000E+00 -0.00000000000E+00 -0.39334578728E+02  0.39334578728E+02  0.00000000000E+00 0.  1.
         25    2    1    2    0    0  0.47304338090E+02  0.51376450677E+02  0.18179820851E+03  0.23146045376E+03  0.12508442329E+03 0.  0.
          5    1    3    3  502    0 -0.35067436994E+02  0.49121979229E+02  0.70180663638E+02  0.92657929663E+02  0.41800000000E+01 0. -1.
         -5    1    3    3    0  502  0.82371775084E+02  0.22544714475E+01  0.11161754487E+03  0.13880252409E+03  0.41800000000E+01 0. -1.
        -11    1    1    2    0    0 -0.74189764616E+02 -0.49436924329E+02  0.16642072997E+03  0.18879615998E+03  0.00000000000E+00 0.  1.
         11    1    1    2    0    0  0.26885426526E+02 -0.19395263477E+01  0.51467480874E+02  0.58098963067E+02  0.00000000000E+00 0. -1.
</event>
<event>
 7    1  0.2723366E-009  0.1212489E+03  0.7561462E-02  0.1241051E+00
         -1   -1    0    0    0  501 -0.00000000000E+00  0.00000000000E+00  0.70318888748E+02  0.70318888748E+02  0.00000000000E+00 0.  1.
          1   -1    0    0  501    0  0.00000000000E+00 -0.00000000000E+00 -0.26044526441E+03  0.26044526441E+03  0.00000000000E+00 0. -1.
         25    2    1    2    0    0  0.62092688931E+02 -0.21660297170E+02 -0.15944321827E+03  0.21306158254E+03  0.12509367533E+03 0.  0.
          5    1    3    3  502    0  0.15925034937E+02 -0.65545586929E+02 -0.12086237201E+03  0.13847388227E+03  0.41800000000E+01 0. -1.
         -5    1    3    3    0  502  0.46167653994E+02  0.43885289759E+02 -0.38580846261E+02  0.74587700264E+02  0.41800000000E+01 0. -1.
        -11    1    1    2    0    0 -0.82656689403E+02  0.20742184665E+01 -0.33400344026E+02  0.89174063866E+02  0.00000000000E+00 0.  1.
         11    1    1    2    0    0  0.20564000472E+02  0.19586078703E+02  0.27171866366E+01  0.28528506754E+02  0.00000000000E+00 0. -1.
</event>
<event>
 7    1  0.2723366E-009  0.9667891E+02  0.7561462E-02  0.1287439E+00
         -1   -1    0    0    0  501 -0.00000000000E+00  0.00000000000E+00  0.19991486346E+03  0.19991486346E+03  0.00000000000E+00 0.  1.
          1   -1    0    0  501    0  0.00000000000E+00 -0.00000000000E+00 -0.61785259712E+02  0.61785259712E+02  0.00000000000E+00 0. -1.
         25    2    1    2    0    0  0.12394816432E+02  0.23132965138E+02  0.76225752491E+02  0.14882576404E+03  0.12509986870E+03 0.  0.
          5    1    3    3  502    0 -0.31549075626E+02  0.44592678902E+02  0.82822785202E+02  0.99302252407E+02  0.41800000000E+01 0. -1.
         -5    1    3    3    0  502  0.43943892059E+02 -0.21459713764E+02 -0.65970327111E+01  0.49523511635E+02  0.41800000000E+01 0. -1.
        -11    1    1    2    0    0  0.32635758478E+02 -0.29525065020E+02  0.48428597890E+02  0.65438148579E+02  0.00000000000E+00 0.  1.
         11    1    1    2    0    0 -0.45030574911E+02  0.63920998829E+01  0.13475253363E+02  0.47436210545E+02  0.00000000000E+00 0. -1.
</event>
<event>
 7    1  0.2723366E-009  0.1052636E+03  0.7561462E-02  0.1269601E+00
          1   -1    0    0  501    0  0.00000000000E+00  0.00000000000E+00  0.57888963196E+03  0.57888963196E+03  0.00000000000E+00 0. -1.
         -1   -1    0    0    0  501 -0.00000000000E+00 -0.00000000000E+00 -0.28736671007E+02  0.28736671007E+02  0.00000000000E+00 0.  1.
         25    2    1    2    0    0 -0.35706761152E+02 -0.50454668521E+02  0.37507588655E+03  0.40019005355E+03  0.12509800928E+03 0.  0.
          5    1    3    3  502    0 -0.78097721545E+02 -0.21924026278E+02  0.28706978758E+03  0.29833949182E+03  0.41800000000E+01 0. -1.
         -5    1    3    3    0  502  0.42390960394E+02 -0.28530642242E+02  0.88006098969E+02  0.10185056173E+03  0.41800000000E+01 0. -1.
        -11    1    1    2    0    0 -0.59999844129E+01  0.31773322821E+02  0.15355482782E+03  0.15692236616E+03  0.00000000000E+00 0. -1.
         11    1    1    2    0    0  0.41706745564E+02  0.18681345700E+02  0.21522246585E+02  0.50513883248E+02  0.00000000000E+00 0.  1.
</event>
<event>
 7    1  0.2723366E-009  0.1049005E+03  0.7561462E-02  0.1270316E+00
         -2   -1    0    0    0  501 -0.00000000000E+00  0.00000000000E+00  0.12748582684E+03  0.12748582684E+03  0.00000000000E+00 0.  1.
          2   -1    0    0  501    0  0.00000000000E+00 -0.00000000000E+00 -0.14957634659E+03  0.14957634659E+03  0.00000000000E+00 0. -1.
         25    2    1    2    0    0 -0.34573102780E+02 -0.71635921371E+02  0.29228565903E+02  0.15108665850E+03  0.12508343074E+03 0.  0.
          5    1    3    3  502    0 -0.41840284941E+02 -0.88353065466E+02  0.60216406006E+02  0.11489282647E+03  0.41800000000E+01 0. -1.
         -5    1    3    3    0  502  0.72671821601E+01  0.16717144095E+02 -0.30987840104E+02  0.36193832037E+02  0.41800000000E+01 0. -1.
        -11    1    1    2    0    0  0.59650451849E+01  0.63121278478E+02 -0.67012845759E+02  0.92252908125E+02  0.00000000000E+00 0. -1.
         11    1    1    2    0    0  0.28608057596E+02  0.85146428930E+01  0.15693760112E+02  0.33722606801E+02  0.00000000000E+00 0.  1.
</event>
<event>
 7    1  0.2723366E-009  0.1122259E+03  0.7561462E-02  0.1256503E+00
          1   -1    0    0  501    0  0.00000000000E+00  0.00000000000E+00  0.50914842731E+03  0.50914842731E+03  0.00000000000E+00 0. -1.
         -1   -1    0    0    0  501 -0.00000000000E+00 -0.00000000000E+00 -0.34375325842E+02  0.34375325842E+02  0.00000000000E+00 0.  1.
         25    2    1    2    0    0  0.40698177311E+01  0.77995968628E+02  0.23255164292E+03  0.27537412283E+03  0.12510278318E+03 0.  0.
          5    1    3    3  502    0 -0.28056714874E+02  0.10103154363E+03  0.19061005641E+03  0.21758726540E+03  0.41800000000E+01 0. -1.
         -5    1    3    3    0  502  0.32126532605E+02 -0.23035574999E+02  0.41941586509E+02  0.57786857430E+02  0.41800000000E+01 0. -1.
        -11    1    1    2    0    0 -0.83401120436E+01 -0.20849081302E+02  0.35983257161E+01  0.22741803095E+02  0.00000000000E+00 0.  1.
         11    1    1    2    0    0  0.42702943125E+01 -0.57146887326E+02  0.23862313283E+03  0.24540782723E+03  0.00000000000E+00 0. -1.
</event>
<event>
 7    1  0.2723366E-009  0.1280918E+03  0.7561462E-02  0.1230315E+00
         -1   -1    0    0    0  501 -0.00000000000E+00  0.00000000000E+00  0.28804383596E+03  0.28804383596E+03  0.00000000000E+00 0.  1.
          1   -1    0    0  501    0  0.00000000000E+00 -0.00000000000E+00 -0.67918909241E+02  0.67918909241E+02  0.00000000000E+00 0. -1.
         25    2    1    2    0    0  0.69574379268E+02  0.29987849251E+02  0.17673959881E+03  0.22939420281E+03  0.12507977111E+03 0.  0.
          5    1    3    3  502    0  0.10383710900E+03  0.18838386434E+02  0.10458638816E+03  0.14863651973E+03  0.41800000000E+01 0.  1.
         -5    1    3    3    0  502 -0.34262729728E+02  0.11149462817E+02  0.72153210650E+02  0.80757683081E+02  0.41800000000E+01 0.  1.
        -11    1    1    2    0    0  0.11347482039E+02 -0.31372997917E+02  0.29333736742E+02  0.44424075209E+02  0.00000000000E+00 0.  1.
         11    1    1    2    0    0 -0.80921861307E+02  0.13851486667E+01  0.14051591166E+02  0.82144467182E+02  0.00000000000E+00 0. -1.
</event>
<event>
 7    1  0.2723366E-009  0.1306913E+03  0.7561462E-02  0.1226434E+00
          2   -1    0    0  501    0  0.00000000000E+00  0.00000000000E+00  0.77702119387E+03  0.77702119387E+03  0.00000000000E+00 0. -1.
         -2   -1    0    0    0  501 -0.00000000000E+00 -0.00000000000E+00 -0.24814084322E+02  0.24814084322E+02  0.00000000000E+00 0.  1.
         25    2    1    2    0    0  0.12555173377E+02  0.85959692652E+02  0.42906388016E+03  0.45529556604E+03  0.12510610719E+03 0.  0.
          5    1    3    3  502    0  0.35563589101E+01 -0.32666252035E+02  0.10184472890E+03  0.10709599859E+03  0.41800000000E+01 0. -1.
         -5    1    3    3    0  502  0.89988144672E+01  0.11862594469E+03  0.32721915126E+03  0.34819956745E+03  0.41800000000E+01 0. -1.
        -11    1    1    2    0    0 -0.39583689915E+02 -0.58955369876E+02  0.11682695736E+03  0.13671555182E+03  0.00000000000E+00 0.  1.
         11    1    1    2    0    0  0.27028516537E+02 -0.27004322776E+02  0.20631627203E+03  0.20982416033E+03  0.00000000000E+00 0. -1.
</event>
<event>
 7    1  0.2723366E-009  0.1676527E+03  0.7561462E-02  0.1180318E+00
         -1   -1    0    0    0  501 -0.00000000000E+00  0.00000000000E+00  0.26425079373E+03  0.26425079373E+03  0.00000000000E+00 0.  1.
          1   -1    0    0  501    0  0.00000000000E+00 -0.00000000000E+00 -0.15541051417E+03  0.15541051417E+03  0.00000000000E+00 0. -1.
         25    2    1    2    0    0  0.16412480662E+03  0.33272470022E+01  0.10288427659E+03  0.23060974864E+03  0.12509060346E+03 0.  0.
          5    1    3    3  502    0  0.13682403205E+03  0.15521369571E+02  0.13045012426E+03  0.18972726736E+03  0.41800000000E+01 0. -1.
         -5    1    3    3    0  502  0.27300774577E+02 -0.12194122569E+02 -0.27565847670E+02  0.40882481278E+02  0.41800000000E+01 0. -1.
        -11    1    1    2    0    0 -0.57145832833E+02 -0.16704323684E+02  0.44741929964E+02  0.74474968525E+02  0.00000000000E+00 0.  1.
         11    1    1    2    0    0 -0.10697897379E+03  0.13377076682E+02 -0.38785926996E+02  0.11457659075E+03  0.00000000000E+00 0. -1.
</event>
<event>
 7    1  0.2723366E-009  0.1467067E+03  0.7561462E-02  0.1204579E+00
         -1   -1    0    0    0  501 -0.00000000000E+00  0.00000000000E+00  0.66914812989E+02  0.66914812989E+02  0.00000000000E+00 0.  1.
          1   -1    0    0  501    0  0.00000000000E+00 -0.00000000000E+00 -0.34051970883E+03  0.34051970883E+03  0.00000000000E+00 0. -1.
         25    2    1    2    0    0 -0.10157026961E+03  0.18199486319E+02 -0.17112383872E+03  0.23575119508E+03  0.12509003490E+03 0.  0.
          5    1    3    3  502    0 -0.51356496328E+02 -0.52827827646E+02 -0.93325135594E+02  0.11897614224E+03  0.41800000000E+01 0.  1.
         -5    1    3    3    0  502 -0.50213773283E+02  0.71027313966E+02 -0.77798703130E+02  0.11677505284E+03  0.41800000000E+01 0.  1.
        -11    1    1    2    0    0  0.62162178948E+02 -0.51667620311E+02 -0.84520472957E+02  0.11695037336E+03  0.00000000000E+00 0. -1.
         11    1    1    2    0    0  0.39408090663E+02  0.33468133992E+02 -0.17960584165E+02  0.54732953384E+02  0.00000000000E+00 0.  1.
</event>
<event>
 7    1  0.2723366E-009  0.1348085E+03  0.7561462E-02  0.1220490E+00
         -2   -1    0    0    0  501 -0.00000000000E+00  0.00000000000E+00  0.62119848529E+02  0.62119848529E+02  0.00000000000E+00 0.  1.
          2   -1    0    0  501    0  0.00000000000E+00 -0.00000000000E+00 -0.44133089546E+03  0.44133089546E+03  0.00000000000E+00 0. -1.
         25    2    1    2    0    0 -0.99867969505E+02 -0.70654198691E+02 -0.24380086135E+03  0.30008363179E+03  0.12508276839E+03 0.  0.
          5    1    3    3  502    0 -0.81961199117E+02 -0.50235091383E+02 -0.25333895468E+03  0.27099686516E+03  0.41800000000E+01 0. -1.
         -5    1    3    3    0  502 -0.17906770388E+02 -0.20419107308E+02  0.95380933264E+01  0.29086766635E+02  0.41800000000E+01 0. -1.
        -11    1    1    2    0    0  0.54178785203E+02  0.82515751965E+02 -0.11603218895E+03  0.15234060182E+03  0.00000000000E+00 0. -1.
         11    1    1    2    0    0  0.45689184303E+02 -0.11861553273E+02 -0.19377996621E+02  0.51026510378E+02  0.00000000000E+00 0.  1.
</event>
<event>
 7    1  0.2723366E-009  0.1784288E+03  0.7561462E-02  0.1169332E+00
         -2   -1    0    0    0  501 -0.00000000000E+00  0.00000000000E+00  0.79543312333E+03  0.79543312333E+03  0.00000000000E+00 0. -1.
          2   -1    0    0  501    0  0.00000000000E+00 -0.00000000000E+00 -0.43412983613E+02  0.43412983613E+02  0.00000000000E+00 0.  1.
         25    2    1    2    0    0  0.13841923355E+03  0.29288879294E+02  0.50715360322E+03  0.54117431107E+03  0.12508850881E+03 0.  0.
          5    1    3    3  502    0  0.15000964466E+03  0.54797026773E+02  0.41188026642E+03  0.44177871599E+03  0.41800000000E+01 0.  1.
         -5    1    3    3    0  502 -0.11590411101E+02 -0.25508147480E+02  0.95273336795E+02  0.99395595081E+02  0.41800000000E+01 0.  1.
        -11    1    1    2    0    0 -0.11250559294E+03  0.18874695711E+02  0.17585873403E+03  0.20961883722E+03  0.00000000000E+00 0.  1.
         11    1    1    2    0    0 -0.25913640617E+02 -0.48163575005E+02  0.69007802468E+02  0.88052958660E+02  0.00000000000E+00 0. -1.
</event>
<event>
 7    1  0.2814562E-009  0.1669958E+03  0.7561462E-02  0.1181017E+00
         -2   -1    0    0    0  501 -0.00000000000E+00  0.00000000000E+00  0.47372188890E+02  0.47372188890E+02  0.00000000000E+00 0.  1.
          2   -1    0    0  501    0  0.00000000000E+00 -0.00000000000E+00 -0.11143017334E+04  0.11143017334E+04  0.00000000000E+00 0. -1.
         25    2    1    2    0    0 -0.15771804455E+03 -0.94216217404E-02 -0.87164309954E+03  0.89458572754E+03  0.12508776625E+03 0.  0.
          5    1    3    3  502    0 -0.11532594868E+03 -0.33788173026E+02 -0.34923725596E+03  0.36935869886E+03  0.41800000000E+01 0.  1.
         -5    1    3    3    0  502 -0.42392095870E+02  0.33778751404E+02 -0.52240584359E+03  0.52522702868E+03  0.41800000000E+01 0.  1.
        -11    1    1    2    0    0  0.15821168416E+02 -0.70213668501E+01 -0.86327544388E+02  0.88045748804E+02  0.00000000000E+00 0. -1.
         11    1    1    2    0    0  0.14189687613E+03  0.70307884719E+01 -0.10895890062E+03  0.17904244599E+03  0.00000000000E+00 0.  1.
</event>
<event>
 7    1  0.2723366E-009  0.7289691E+02  0.7561462E-02  0.1350510E+00
          2   -1    0    0  501    0  0.00000000000E+00  0.00000000000E+00  0.19690901327E+03  0.19690901327E+03  0.00000000000E+00 0. -1.
         -2   -1    0    0    0  501 -0.00000000000E+00 -0.00000000000E+00 -0.62844444293E+02  0.62844444293E+02  0.00000000000E+00 0.  1.
         25    2    1    2    0    0 -0.23732068105E+01 -0.24335524030E+02  0.65444489201E+02  0.14327663966E+03  0.12508942587E+03 0.  0.
          5    1    3    3  502    0  0.20305612873E+02 -0.39592375067E+01 -0.33534823825E+02  0.39623860044E+02  0.41800000000E+01 0.  1.
         -5    1    3    3    0  502 -0.22678819683E+02 -0.20376286523E+02  0.98979313027E+02  0.10365277961E+03  0.41800000000E+01 0.  1.
        -11    1    1    2    0    0 -0.14629324016E+02  0.56051161421E+02  0.38572885781E+02  0.69596101437E+02  0.00000000000E+00 0. -1.
         11    1    1    2    0    0  0.17002530826E+02 -0.31715637391E+02  0.30047193998E+02  0.46880716471E+02  0.00000000000E+00 0.  1.
</event>
<event>
 7    1  0.2723366E-009  0.1116837E+03  0.7561462E-02  0.1257483E+00
         -2   -1    0    0    0  501 -0.00000000000E+00  0.00000000000E+00  0.59531161115E+02  0.59531161115E+02  0.00000000000E+00 0.  1.
          2   -1    0    0  501    0  0.00000000000E+00 -0.00000000000E+00 -0.31533516192E+03  0.31533516192E+03  0.00000000000E+00 0. -1.
         25    2    1    2    0    0 -0.67615882866E+02 -0.31995146102E+01 -0.20411870753E+03  0.24878406751E+03  0.12508765317E+03 0.  0.
          5    1    3    3  502    0  0.38347999067E+01 -0.34110515409E+02 -0.14986319759E+03  0.15380079111E+03  0.41800000000E+01 0. -1.
         -5    1    3    3    0  502 -0.71450682772E+02  0.30911000799E+02 -0.54255509935E+02  0.94983276409E+02  0.41800000000E+01 0. -1.
        -11    1    1    2    0    0  0.16288696441E+02 -0.40349466932E+02 -0.37157777238E+02  0.57219765140E+02  0.00000000000E+00 0.  1.
         11    1    1    2    0    0  0.51327186424E+02  0.43548981542E+02 -0.14527516044E+02  0.68862490385E+02  0.00000000000E+00 0. -1.
</event>
<event>
 7    1  0.2723366E-009  0.6887707E+02  0.7561462E-02  0.1363954E+00
         -2   -1    0    0    0  501 -0.00000000000E+00  0.00000000000E+00  0.30032982185E+02  0.30032982185E+02  0.00000000000E+00 0.  1.
          2   -1    0    0  501    0  0.00000000000E+00 -0.00000000000E+00 -0.41012312314E+03  0.41012312314E+03  0.00000000000E+00 0. -1.
         25    2    1    2    0    0 -0.36914822810E+01 -0.70173141475E+01 -0.24803045265E+03  0.27790287678E+03  0.12509210103E+03 0.  0.
          5    1    3    3  502    0  0.99278878668E+01 -0.24844962594E+02  0.16989968208E+01  0.27132897265E+02  0.41800000000E+01 0. -1.
         -5    1    3    3    0  502 -0.13619370148E+02  0.17827648446E+02 -0.24972944947E+03  0.25076997951E+03  0.41800000000E+01 0. -1.
        -11    1    1    2    0    0  0.19019435686E+02  0.43937955105E+02 -0.10049727212E+03  0.11131929095E+03  0.00000000000E+00 0. -1.
         11    1    1    2    0    0 -0.15327953405E+02 -0.36920640957E+02 -0.31562416185E+02  0.50933937603E+02  0.00000000000E+00 0.  1.
</event>
<event>
 7    1  0.2723366E-009  0.1041259E+03  0.7561462E-02  0.1271852E+00
          2   -1    0    0  501    0  0.00000000000E+00  0.00000000000E+00  0.69165325140E+03  0.69165325140E+03  0.00000000000E+00 0. -1.
         -2   -1    0    0    0  501 -0.00000000000E+00 -0.00000000000E+00 -0.22893484771E+02  0.22893484771E+02  0.00000000000E+00 0.  1.
         25    2    1    2    0    0 -0.52326687338E+02  0.33488212194E+02  0.47063035139E+03  0.49091735475E+03  0.12508948392E+03 0.  0.
          5    1    3    3  502    0 -0.85423133989E+02 -0.85685066077E+01  0.29486847165E+03  0.30714071547E+03  0.41800000000E+01 0.  1.
         -5    1    3    3    0  502  0.33096446651E+02  0.42056718802E+02  0.17576187973E+03  0.18377663928E+03  0.41800000000E+01 0.  1.
        -11    1    1    2    0    0  0.29495839146E+02 -0.17858769007E+01  0.95634786341E+01  0.31058879677E+02  0.00000000000E+00 0.  1.
         11    1    1    2    0    0  0.22830848192E+02 -0.31702335293E+02  0.18856593661E+03  0.19257050174E+03  0.00000000000E+00 0. -1.
</event>
<event>
 7    1  0.2723366E-009  0.1320774E+03  0.7561462E-02  0.1224405E+00
         -2   -1    0    0    0  501 -0.00000000000E+00  0.00000000000E+00  0.12633869193E+03  0.12633869193E+03  0.00000000000E+00 0.  1.
          2   -1    0    0  501    0  0.00000000000E+00 -0.00000000000E+00 -0.21372586885E+03  0.21372586885E+03  0.00000000000E+00 0. -1.
         25    2    1    2    0    0  0.11843238318E+03  0.12340548085E+02 -0.25972173010E+02  0.17464436247E+03  0.12509029163E+03 0.  0.
          5    1    3    3  502    0  0.63333035666E+02  0.22337699206E+02 -0.74527451636E+02  0.10040846408E+03  0.41800000000E+01 0. -1.
         -5    1    3    3    0  502  0.55099347516E+02 -0.99971511207E+01  0.48555278626E+02  0.74235898390E+02  0.41800000000E+01 0. -1.
        -11    1    1    2    0    0 -0.56092269378E+00  0.18791380487E+02 -0.36398128684E+02  0.40966503227E+02  0.00000000000E+00 0. -1.
         11    1    1    2    0    0 -0.11787146049E+03 -0.31131928573E+02 -0.25016875221E+02  0.12445369508E+03  0.00000000000E+00 0.  1.
</event>
<event>
 7    1  0.2723366E-009  0.9437092E+02  0.7561462E-02  0.1292599E+00
         -2   -1    0    0    0  501 -0.00000000000E+00  0.00000000000E+00  0.27831357980E+03  0.27831357980E+03  0.00000000000E+00 0.  1.
          2   -1    0    0  501    0  0.00000000000E+00 -0.00000000000E+00 -0.64290998396E+02  0.64290998396E+02  0.00000000000E+00 0. -1.
         25    2    1    2    0    0  0.29688187278E+02 -0.12383469723E+02  0.27545085686E+02  0.13206416976E+03  0.12508986531E+03 0.  0.
          5    1    3    3  502    0 -0.38200431499E+02  0.29389813661E+02  0.26499606660E+01  0.48451303443E+02  0.41800000000E+01 0.  1.
         -5    1    3    3    0  502  0.67888618777E+02 -0.41773283384E+02  0.24895125020E+02  0.83612866318E+02  0.41800000000E+01 0.  1.
        -11    1    1    2    0    0 -0.15272485990E+02  0.32432611461E+02  0.18193394742E+03  0.18543215563E+03  0.00000000000E+00 0.  1.
         11    1    1    2    0    0 -0.14415701288E+02 -0.20049141738E+02  0.45435482932E+01  0.25108252810E+02  0.00000000000E+00 0. -1.
</event>
<event>
 7    1  0.2723366E-009  0.1092344E+03  0.7561462E-02  0.1261994E+00
         -2   -1    0    0    0  501 -0.00000000000E+00  0.00000000000E+00  0.15755608123E+02  0.15755608123E+02  0.00000000000E+00 0.  1.
          2   -1    0    0  501    0  0.00000000000E+00 -0.00000000000E+00 -0.10385513310E+04  0.10385513310E+04  0.00000000000E+00 0. -1.
         25    2    1    2    0    0 -0.20515116352E+02 -0.53513472591E+02 -0.71689443148E+03  0.72997830881E+03  0.12508454621E+03 0.  0.
          5    1    3    3  502    0 -0.50510586113E+02 -0.66643507271E+02 -0.29096831572E+03  0.30277501470E+03  0.41800000000E+01 0.  1.
         -5    1    3    3    0  502  0.29995469762E+02  0.13130034680E+02 -0.42592611576E+03  0.42720329411E+03  0.41800000000E+01 0.  1.
        -11    1    1    2    0    0  0.52101704896E+02  0.45435265978E+02 -0.25221943668E+03  0.26152169181E+03  0.00000000000E+00 0. -1.
         11    1    1    2    0    0 -0.31586588544E+02  0.80782066126E+01 -0.53681854694E+02  0.62806938480E+02  0.00000000000E+00 0.  1.
</event>
<event>
 7    1  0.2723366E-009  0.1168943E+03  0.7561462E-02  0.1248310E+00
         -2   -1    0    0    0  501 -0.00000000000E+00  0.00000000000E+00  0.20381348881E+03  0.20381348881E+03  0.00000000000E+00 0.  1.
          2   -1    0    0  501    0  0.00000000000E+00 -0.00000000000E+00 -0.69381298019E+02  0.69381298019E+02  0.00000000000E+00 0. -1.
         25    2    1    2    0    0  0.46249459000E+02 -0.10243807356E+02  0.83957168221E+02  0.15792517017E+03  0.12509038825E+03 0.  0.
          5    1    3    3  502    0  0.67264328045E+02  0.39354970855E+02  0.61717887758E+02  0.99498108664E+02  0.41800000000E+01 0.  1.
         -5    1    3    3    0  502 -0.21014869045E+02 -0.49598778211E+02  0.22239280463E+02  0.58427061508E+02  0.41800000000E+01 0.  1.
        -11    1    1    2    0    0  0.49047622725E+00  0.44036813729E+02  0.32909838930E+02  0.54977622981E+02  0.00000000000E+00 0.  1.
         11    1    1    2    0    0 -0.46739935227E+02 -0.33793006373E+02  0.17565183636E+02  0.60291993672E+02  0.00000000000E+00 0. -1.
</event>
<event>
 7    1  0.2723366E-009  0.1907964E+03  0.7561462E-02  0.1157745E+00
          2   -1    0    0  501    0  0.00000000000E+00  0.00000000000E+00  0.20300844105E+03  0.20300844105E+03  0.00000000000E+00 0. -1.
         -2   -1    0    0    0  501 -0.00000000000E+00 -0.00000000000E+00 -0.19420687526E+03  0.19420687526E+03  0.00000000000E+00 0.  1.
         25    2    1    2    0    0  0.59972917589E+02 -0.15249408128E+03 -0.41260594448E+02  0.21024285777E+03  0.12509367257E+03 0.  0.
          5    1    3    3  502    0  0.15745776918E+02 -0.15713370832E+03 -0.15634184755E+02  0.15874769892E+03  0.41800000000E+01 0. -1.
         -5    1    3    3    0  502  0.44227140671E+02  0.46396270333E+01 -0.25626409694E+02  0.51495158848E+02  0.41800000000E+01 0. -1.
        -11    1    1    2    0    0 -0.42860728650E+02  0.23605173031E+02  0.42400372946E+01  0.49114398810E+02  0.00000000000E+00 0.  1.
         11    1    1    2    0    0 -0.17112188939E+02  0.12888890825E+03  0.45822122946E+02  0.13785805973E+03  0.00000000000E+00 0. -1.
</event>
<event>
 7    1  0.2723366E-009  0.1067548E+03  0.7561462E-02  0.1266700E+00
          1   -1    0    0  501    0  0.00000000000E+00  0.00000000000E+00  0.17442611912E+03  0.17442611912E+03  0.00000000000E+00 0. -1.
         -1   -1    0    0    0  501 -0.00000000000E+00 -0.00000000000E+00 -0.75540071713E+02  0.75540071713E+02  0.00000000000E+00 0.  1.
         25    2    1    2    0    0 -0.49395292580E+01  0.34424185437E+02  0.73441797516E+02  0.14916652003E+03  0.12509008587E+03 0.  0.
          5    1    3    3  502    0  0.50755433452E+02  0.37862444744E+02  0.94499588763E+01  0.64159589070E+02  0.41800000000E+01 0. -1.
         -5    1    3    3    0  502 -0.55694962710E+02 -0.34382593064E+01  0.63991838640E+02  0.85006930958E+02  0.41800000000E+01 0. -1.
        -11    1    1    2    0    0 -0.41197810218E+02 -0.12811529342E+02 -0.14901635907E+01  0.43169612441E+02  0.00000000000E+00 0. -1.
         11    1    1    2    0    0  0.46137339476E+02 -0.21612656096E+02  0.26934413481E+02  0.57630058363E+02  0.00000000000E+00 0.  1.
</event>
<event>
 7    1  0.2723366E-009  0.9937801E+02  0.7561462E-02  0.1281609E+00
          1   -1    0    0  501    0  0.00000000000E+00  0.00000000000E+00  0.87730026891E+02  0.87730026891E+02  0.00000000000E+00 0. -1.
         -1   -1    0    0    0  501 -0.00000000000E+00 -0.00000000000E+00 -0.23597125766E+03  0.23597125766E+03  0.00000000000E+00 0.  1.
         25    2    1    2    0    0 -0.16782810397E+02 -0.78742905141E+02 -0.26042066871E+02  0.15102436550E+03  0.12509221356E+03 0.  0.
          5    1    3    3  502    0 -0.28526039208E+02 -0.84159340050E+02 -0.64730373181E+02  0.11001828504E+03  0.41800000000E+01 0. -1.
         -5    1    3    3    0  502  0.11743228811E+02  0.54164349090E+01  0.38688306310E+02  0.41006080466E+02  0.41800000000E+01 0. -1.
        -11    1    1    2    0    0 -0.18254125219E+02  0.40000565907E+02 -0.48605955939E+01  0.44236678785E+02  0.00000000000E+00 0. -1.
         11    1    1    2    0    0  0.35036935617E+02  0.38742339234E+02 -0.11733856831E+03  0.12844024026E+03  0.00000000000E+00 0.  1.
</event>
<event>
 7    1  0.2723366E-009  0.1374390E+03  0.7561462E-02  0.1216817E+00
         -1   -1    0    0    0  501 -0.00000000000E+00  0.00000000000E+00  0.10618456359E+02  0.10618456359E+02  0.00000000000E+00 0.  1.
          1   -1    0    0  501    0  0.00000000000E+00 -0.00000000000E+00 -0.20636648137E+04  0.20636648137E+04  0.00000000000E+00 0. -1.
         25    2    1    2    0    0  0.22025289458E+02  0.86119048914E+02 -0.14510631302E+04  0.14591549676E+04  0.12508959856E+03 0.  0.
          5    1    3    3  502    0  0.24497942082E+01  0.11398315278E+03 -0.93151325902E+03  0.93847353971E+03  0.41800000000E+01 0.  1.
         -5    1    3    3    0  502  0.19575495250E+02 -0.27864103866E+02 -0.51954987117E+03  0.52068142787E+03  0.41800000000E+01 0.  1.
        -11    1    1    2    0    0 -0.35070347113E+02 -0.10086927149E+03 -0.50647264744E+03  0.51760900474E+03  0.00000000000E+00 0. -1.
         11    1    1    2    0    0  0.13045057655E+02  0.14750222573E+02 -0.95510579718E+02  0.97519297748E+02  0.00000000000E+00 0.  1.
</event>
<event>
 7    1  0.2723366E-009  0.1024428E+03  0.7561462E-02  0.1275241E+00
         -2   -1    0    0    0  501 -0.00000000000E+00  0.00000000000E+00  0.57913946647E+01  0.57913946647E+01  0.00000000000E+00 0.  1.
          2   -1    0    0  501    0  0.00000000000E+00 -0.00000000000E+00 -0.26164942286E+04  0.26164942286E+04  0.00000000000E+00 0. -1.
         25    2    1    2    0    0 -0.28786055699E+02 -0.44505282871E+01 -0.21075332331E+04  0.21114425284E+04  0.12507908703E+03 0.  0.
          5    1    3    3  502    0  0.41070891889E+02  0.15254659408E+02 -0.41048214699E+03  0.41283481951E+03  0.41800000000E+01 0. -1.
         -5    1    3    3    0  502 -0.69856947588E+02 -0.19705187695E+02 -0.16970510861E+04  0.16986077089E+04  0.41800000000E+01 0. -1.
        -11    1    1    2    0    0 -0.28623635420E+02 -0.73697332752E+01 -0.17592081465E+03  0.17838654237E+03  0.00000000000E+00 0.  1.
         11    1    1    2    0    0  0.57409691119E+02  0.11820261562E+02 -0.32724878617E+03  0.33245655245E+03  0.00000000000E+00 0. -1.
</event>
<event>
 7    1  0.2723366E-009  0.8883814E+02  0.7561462E-02  0.1305690E+00
          2   -1    0    0  501    0  0.00000000000E+00  0.00000000000E+00  0.66181954676E+03  0.66181954676E+03  0.00000000000E+00 0. -1.
         -2   -1    0    0    0  501 -0.00000000000E+00 -0.00000000000E+00 -0.19959886361E+02  0.19959886361E+02  0.00000000000E+00 0.  1.
         25    2    1    2    0    0  0.25983274246E+02  0.95814433093E+01  0.44013912084E+03  0.45840586757E+03  0.12508620679E+03 0.  0.
          5    1    3    3  502    0 -0.25627236323E+02 -0.21390975739E+02  0.33879179349E+03  0.34045804561E+03  0.41800000000E+01 0. -1.
         -5    1    3    3    0  502  0.51610510569E+02  0.30972419049E+02  0.10134732735E+03  0.11794782195E+03  0.41800000000E+01 0. -1.
        -11    1    1    2    0    0  0.17180191881E+02 -0.31053364059E+02  0.14330435967E+03  0.14763336314E+03  0.00000000000E+00 0.  1.
         11    1    1    2    0    0 -0.43163466127E+02  0.21471920750E+02  0.58416179891E+02  0.75740202415E+02  0.00000000000E+00 0. -1.
</event>
<event>
 7    1  0.2723366E-009  0.1057716E+03  0.7561462E-02  0.1268607E+00
          3   -1    0    0  501    0  0.00000000000E+00  0.00000000000E+00  0.31007067442E+03  0.31007067442E+03  0.00000000000E+00 0. -1.
         -3   -1    0    0    0  501 -0.00000000000E+00 -0.00000000000E+00 -0.66094803123E+02  0.66094803123E+02  0.00000000000E+00 0.  1.
         25    2    1    2    0    0 -0.14801841925E+02 -0.38605994410E+02  0.22343368060E+02  0.13362876667E+03  0.12509158187E+03 0.  0.
          5    1    3    3  502    0  0.48345772331E+02  0.10318454838E+02  0.20320428405E+02  0.53611346029E+02  0.41800000000E+01 0.  1.
         -5    1    3    3    0  502 -0.63147614256E+02 -0.48924449249E+02  0.20229396542E+01  0.80017420636E+02  0.41800000000E+01 0.  1.
        -11    1    1    2    0    0  0.33326139250E+02 -0.57985181462E+01  0.16403964917E+03  0.16749107698E+03  0.00000000000E+00 0. -1.
         11    1    1    2    0    0 -0.18524297326E+02  0.44404512556E+02  0.57592854072E+02  0.75045633897E+02  0.00000000000E+00 0.  1.
</event>
<event>
 7    1  0.2723366E-009  0.1899900E+03  0.7561462E-02  0.1158470E+00
         -1   -1    0    0    0  501 -0.00000000000E+00  0.00000000000E+00  0.26968150295E+03  0.26968150295E+03  0.00000000000E+00 0.  1.
          1   -1    0    0  501    0  0.00000000000E+00 -0.00000000000E+00 -0.16218466230E+03  0.16218466230E+03  0.00000000000E+00 0. -1.
         25    2    1    2    0    0  0.15865635317E+03  0.57035366790E+02 -0.27779135041E+01  0.20995232098E+03  0.12508952320E+03 0.  0.
          5    1    3    3  502    0  0.12498078421E+02  0.62129956351E+02  0.23501676468E+01  0.63555716724E+02  0.41800000000E+01 0. -1.
         -5    1    3    3    0  502  0.14615827475E+03 -0.50945895608E+01 -0.51280811509E+01  0.14639660425E+03  0.41800000000E+01 0.  1.
        -11    1    1    2    0    0 -0.11148162898E+03 -0.51028810565E+02  0.26278907395E+02  0.12539008766E+03  0.00000000000E+00 0. -1.
         11    1    1    2    0    0 -0.47174724186E+02 -0.60065562244E+01  0.83995846752E+02  0.96523756617E+02  0.00000000000E+00 0.  1.
</event>
<event>
 7    1  0.2723366E-009  0.1380659E+03  0.7561462E-02  0.1215955E+00
         -1   -1    0    0    0  501 -0.00000000000E+00  0.00000000000E+00  0.97977015579E+03  0.97977015579E+03  0.00000000000E+00 0.  1.
          1   -1    0    0  501    0  0.00000000000E+00 -0.00000000000E+00 -0.21721473087E+02  0.21721473087E+02  0.00000000000E+00 0. -1.
         25    2    1    2    0    0  0.93745834316E+02  0.49524107736E+02  0.48646189065E+03  0.51335649201E+03  0.12509515632E+03 0.  0.
          5    1    3    3  502    0 -0.77907076361E+01  0.55752147997E+02  0.11371608547E+03  0.12695596728E+03  0.41800000000E+01 0.  1.
         -5    1    3    3    0  502  0.10153654195E+03 -0.62280402607E+01  0.37274580517E+03  0.38640052473E+03  0.41800000000E+01 0.  1.
        -11    1    1    2    0    0 -0.28286995392E+02 -0.43827956945E+02  0.12623189078E+03  0.13658526336E+03  0.00000000000E+00 0. -1.
         11    1    1    2    0    0 -0.65458838924E+02 -0.56961507912E+01  0.34535490127E+03  0.35154987350E+03  0.00000000000E+00 0.  1.
</event>
<event>
 7    1  0.2723366E-009  0.2635397E+03  0.7561462E-02  0.1105035E+00
         -1   -1    0    0    0  501 -0.00000000000E+00  0.00000000000E+00  0.32743367070E+02  0.32743367070E+02  0.00000000000E+00 0.  1.
          1   -1    0    0  501    0  0.00000000000E+00 -0.00000000000E+00 -0.26906006703E+04  0.26906006703E+04  0.00000000000E+00 0. -1.
         25    2    1    2    0    0  0.24196552943E+03 -0.89665650699E+01 -0.19660851103E+04  0.19848842975E+04  0.12508915528E+03 0.  0.
          5    1    3    3  502    0  0.62458375329E+02 -0.59102240482E+02 -0.61001667635E+03  0.61606163759E+03  0.41800000000E+01 0. -1.
         -5    1    3    3    0  502  0.17950715410E+03  0.50135675412E+02 -0.13560684339E+04  0.13688226599E+04  0.41800000000E+01 0. -1.
        -11    1    1    2    0    0 -0.47360208741E+02 -0.30046926480E+02 -0.21105880105E+03  0.21838412182E+03  0.00000000000E+00 0.  1.
         11    1    1    2    0    0 -0.19460532069E+03  0.39013491550E+02 -0.48071339188E+03  0.52007561805E+03  0.00000000000E+00 0. -1.
</event>
<event>
 7    1  0.2723366E-009  0.1659770E+03  0.7561462E-02  0.1182109E+00
         -4   -1    0    0    0  501 -0.00000000000E+00  0.00000000000E+00  0.62871599631E+03  0.62871599631E+03  0.00000000000E+00 0.  1.
          4   -1    0    0  501    0  0.00000000000E+00 -0.00000000000E+00 -0.68949353007E+02  0.68949353007E+02  0.00000000000E+00 0. -1.
         25    2    1    2    0    0 -0.13246643497E+03  0.51111486076E+02  0.11436739007E+03  0.22110458374E+03  0.12509035390E+03 0.  0.
          5    1    3    3  502    0 -0.68112037823E+02  0.81788110084E+02  0.10413030379E+03  0.14896018668E+03  0.41800000000E+01 0.  1.
         -5    1    3    3    0  502 -0.64354397143E+02 -0.30676624008E+02  0.10237086283E+02  0.72144397064E+02  0.41800000000E+01 0.  1.
        -11    1    1    2    0    0  0.30810264267E+02 -0.41817032603E+02  0.67816544297E+02  0.85422598183E+02  0.00000000000E+00 0. -1.
         11    1    1    2    0    0  0.10165617070E+03 -0.92944534733E+01  0.37758270893E+03  0.39113816739E+03  0.00000000000E+00 0.  1.
</event>
<event>
 7    1  0.2723366E-009  0.1942916E+03  0.7561462E-02  0.1154647E+00
          1   -1    0    0  501    0  0.00000000000E+00  0.00000000000E+00  0.21620672985E+02  0.21620672985E+02  0.00000000000E+00 0. -1.
         -1   -1    0    0    0  501 -0.00000000000E+00 -0.00000000000E+00 -0.20531230802E+04  0.20531230802E+04  0.00000000000E+00 0.  1.
         25    2    1    2    0    0 -0.11537110626E+03  0.13832531745E+03 -0.10951010277E+04  0.11168425999E+04  0.12508695591E+03 0.  0.
          5    1    3    3  502    0 -0.13527614139E+03  0.11683820095E+03 -0.77407402858E+03  0.79445507976E+03  0.41800000000E+01 0. -1.
         -5    1    3    3    0  502  0.19905035128E+02  0.21487116505E+02 -0.32102699912E+03  0.32238752017E+03  0.41800000000E+01 0. -1.
        -11    1    1    2    0    0  0.99083203850E+02 -0.11584235805E+03 -0.89603517156E+03  0.90890921542E+03  0.00000000000E+00 0.  1.
         11    1    1    2    0    0  0.16287902409E+02 -0.22482959401E+02 -0.40366207965E+02  0.48991937845E+02  0.00000000000E+00 0. -1.
</event>
<event>
 7    1  0.2723366E-009  0.1045116E+03  0.7561462E-02  0.1271085E+00
         -2   -1    0    0    0  501 -0.00000000000E+00  0.00000000000E+00  0.22925804925E+02  0.22925804925E+02  0.00000000000E+00 0.  1.
          2   -1    0    0  501    0  0.00000000000E+00 -0.00000000000E+00 -0.91091565005E+03  0.91091565005E+03  0.00000000000E+00 0. -1.
         25    2    1    2    0    0 -0.65321041617E+02 -0.34799711501E+02 -0.28361629607E+03  0.31868946728E+03  0.12508762832E+03 0.  0.
          5    1    3    3  502    0 -0.15992210971E+02  0.16513595965E+02 -0.22549048802E+03  0.22669777734E+03  0.41800000000E+01 0. -1.
         -5    1    3    3    0  502 -0.49328830646E+02 -0.51313307466E+02 -0.58125808045E+02  0.91991689934E+02  0.41800000000E+01 0. -1.
        -11    1    1    2    0    0 -0.17010997170E+02  0.26658478905E+02 -0.18747908480E+03  0.19012747239E+03  0.00000000000E+00 0.  1.
         11    1    1    2    0    0  0.82332038787E+02  0.81412325960E+01 -0.41689446426E+03  0.42502451530E+03  0.00000000000E+00 0. -1.
</event>
<event>
 7    1  0.2723366E-009  0.8898622E+02  0.7561462E-02  0.1305325E+00
         -1   -1    0    0    0  501 -0.00000000000E+00  0.00000000000E+00  0.26645427814E+02  0.26645427814E+02  0.00000000000E+00 0.  1.
          1   -1    0    0  501    0  0.00000000000E+00 -0.00000000000E+00 -0.70409475855E+03  0.70409475855E+03  0.00000000000E+00 0. -1.
         25    2    1    2    0    0 -0.23525230429E+02 -0.12908617337E+02 -0.57931764180E+03  0.59327611454E+03  0.12509016393E+03 0.  0.
          5    1    3    3  502    0 -0.66534209701E+02  0.20066981335E+02 -0.39585129655E+03  0.40192686671E+03  0.41800000000E+01 0. -1.
         -5    1    3    3    0  502  0.43008979272E+02 -0.32975598672E+02 -0.18346634525E+03  0.19134924783E+03  0.41800000000E+01 0. -1.
        -11    1    1    2    0    0  0.27278050446E+02 -0.11279626763E+02  0.63161641343E+01  0.30186353630E+02  0.00000000000E+00 0.  1.
         11    1    1    2    0    0 -0.37528200173E+01  0.24188244100E+02 -0.10444785307E+03  0.10727771820E+03  0.00000000000E+00 0. -1.
</event>
<event>
 7    1  0.2723366E-009  0.9508413E+02  0.7561462E-02  0.1290987E+00
          1   -1    0    0  501    0  0.00000000000E+00  0.00000000000E+00  0.57572632341E+02  0.57572632341E+02  0.00000000000E+00 0. -1.
         -1   -1    0    0    0  501 -0.00000000000E+00 -0.00000000000E+00 -0.25930311050E+03  0.25930311050E+03  0.00000000000E+00 0.  1.
         25    2    1    2    0    0  0.54911892581E+02 -0.10348108231E+02 -0.12851541215E+03  0.18784616527E+03  0.12509025285E+03 0.  0.
          5    1    3    3  502    0  0.36821414728E+02  0.51770722472E+02 -0.31173625107E+02  0.70889291083E+02  0.41800000000E+01 0. -1.
         -5    1    3    3    0  502  0.18090477853E+02 -0.62118830704E+02 -0.97341787038E+02  0.11695687419E+03  0.41800000000E+01 0. -1.
        -11    1    1    2    0    0 -0.21206436766E+02 -0.87340673851E+01  0.18503435120E+02  0.29468186314E+02  0.00000000000E+00 0.  1.
         11    1    1    2    0    0 -0.33705455815E+02  0.19082175616E+02 -0.91718501136E+02  0.99561391254E+02  0.00000000000E+00 0. -1.
</event>
<event>
 7    1  0.2723366E-009  0.1064174E+03  0.7561462E-02  0.1267352E+00
         -2   -1    0    0    0  501 -0.00000000000E+00  0.00000000000E+00  0.54097071654E+02  0.54097071654E+02  0.00000000000E+00 0.  1.
          2   -1    0    0  501    0  0.00000000000E+00 -0.00000000000E+00 -0.29737336737E+03  0.29737336737E+03  0.00000000000E+00 0. -1.
         25    2    1    2    0    0 -0.57540153997E+02 -0.21080950506E+02 -0.16294510323E+03  0.21436750329E+03  0.12508814493E+03 0.  0.
          5    1    3    3  502    0 -0.85088124622E+02  0.65602146164E+01 -0.15072963914E+03  0.17326258074E+03  0.41800000000E+01 0.  1.
         -5    1    3    3    0  502  0.27547970626E+02 -0.27641165122E+02 -0.12215464089E+02  0.41104922549E+02  0.41800000000E+01 0.  1.
        -11    1    1    2    0    0 -0.59566715196E+01  0.23854170424E+02 -0.68069297572E+02  0.72373563227E+02  0.00000000000E+00 0. -1.
         11    1    1    2    0    0  0.63496825516E+02 -0.27732199188E+01 -0.12261894918E+02  0.64729372516E+02  0.00000000000E+00 0.  1.
</event>
<event>
 7    1  0.2723366E-009  0.1394181E+03  0.7561462E-02  0.1214114E+00
          2   -1    0    0  501    0  0.00000000000E+00  0.00000000000E+00  0.24675715193E+03  0.24675715193E+03  0.00000000000E+00 0. -1.
         -2   -1    0    0    0  501 -0.00000000000E+00 -0.00000000000E+00 -0.11693502061E+03  0.11693502061E+03  0.00000000000E+00 0.  1.
         25    2    1    2    0    0  0.32711610425E+02  0.11993277267E+03  0.10850358055E+03  0.20706319046E+03  0.12509283926E+03 0.  0.
          5    1    3    3  502    0 -0.30513018024E+02  0.42834131204E+02  0.91800382741E+02  0.10588007242E+03  0.41800000000E+01 0.  1.
         -5    1    3    3    0  502  0.63224628448E+02  0.77098641462E+02  0.16703197812E+02  0.10118311803E+03  0.41800000000E+01 0.  1.
        -11    1    1    2    0    0 -0.34333241210E+02 -0.90290244891E+02  0.55459568944E+02  0.11138610130E+03  0.00000000000E+00 0. -1.
         11    1    1    2    0    0  0.16216307854E+01 -0.29642527775E+02 -0.34141018183E+02  0.45242880787E+02  0.00000000000E+00 0.  1.
</event>
<event>
 7    1  0.2723366E-009  0.1424956E+03  0.7561462E-02  0.1210010E+00
         -1   -1    0    0    0  501 -0.00000000000E+00  0.00000000000E+00  0.71321843488E+03  0.71321843488E+03  0.00000000000E+00 0.  1.
          1   -1    0    0  501    0  0.00000000000E+00 -0.00000000000E+00 -0.36066457592E+02  0.36066457592E+02  0.00000000000E+00 0. -1.
         25    2    1    2    0    0 -0.72138490494E+02  0.92262165714E+02  0.36201228468E+03  0.40052487112E+03  0.12510399309E+03 0.  0.
          5    1    3    3  502    0  0.40332061073E+01  0.60015435587E+02  0.51940947802E+02  0.79582998930E+02  0.41800000000E+01 0. -1.
         -5    1    3    3    0  502 -0.76171696601E+02  0.32246730127E+02  0.31007133688E+03  0.32094187219E+03  0.41800000000E+01 0. -1.
        -11    1    1    2    0    0  0.69377574475E+02 -0.23786041397E+02  0.10776374036E+03  0.13035354748E+03  0.00000000000E+00 0. -1.
         11    1    1    2    0    0  0.27609160182E+01 -0.68476124317E+02  0.20737595225E+03  0.21840647387E+03  0.00000000000E+00 0.  1.
</event>
<event>
 7    1  0.2723366E-009  0.3327095E+03  0.7561462E-02  0.1069944E+00
         -2   -1    0    0    0  501 -0.00000000000E+00  0.00000000000E+00  0.18909412535E+03  0.18909412535E+03  0.00000000000E+00 0.  1.
          2   -1    0    0  501    0  0.00000000000E+00 -0.00000000000E+00 -0.62922024705E+03  0.62922024705E+03  0.00000000000E+00 0. -1.
         25    2    1    2    0    0  0.31639424940E+03  0.40286307462E+02 -0.30985980534E+03  0.46194070177E+03  0.12509118821E+03 0.  0.
          5    1    3    3  502    0 -0.98234433154E+01 -0.69571017259E+00 -0.87360961540E+00  0.10734041409E+02  0.41800000000E+01 0.  1.
         -5    1    3    3    0  502  0.32621769272E+03  0.40982017634E+02 -0.30898619572E+03  0.45120666036E+03  0.41800000000E+01 0.  1.
        -11    1    1    2    0    0 -0.10223326729E+03 -0.45000782349E+02 -0.13804692009E+02  0.11254901543E+03  0.00000000000E+00 0.  1.
         11    1    1    2    0    0 -0.21416098211E+03  0.47144748875E+01 -0.11646162435E+03  0.24382465519E+03  0.00000000000E+00 0. -1.
</event>
<event>
 7    1  0.2723366E-009  0.1068639E+03  0.7561462E-02  0.1266490E+00
         -1   -1    0    0    0  501 -0.00000000000E+00  0.00000000000E+00  0.31884503059E+02  0.31884503059E+02  0.00000000000E+00 0.  1.
          1   -1    0    0  501    0  0.00000000000E+00 -0.00000000000E+00 -0.38765810174E+03  0.38765810174E+03  0.00000000000E+00 0. -1.
         25    2    1    2    0    0 -0.26113421319E+02 -0.79518828784E+01 -0.23177447225E+03  0.26479006654E+03  0.12509688301E+03 0.  0.
          5    1    3    3  502    0 -0.11759907472E+02 -0.65797730835E+02 -0.10340476097E+03  0.12319762091E+03  0.41800000000E+01 0. -1.
         -5    1    3    3    0  502 -0.14353513847E+02  0.57845847957E+02 -0.12836971128E+03  0.14159244563E+03  0.41800000000E+01 0. -1.
        -11    1    1    2    0    0  0.46789632323E+02  0.30938121262E+02 -0.52388368411E+02  0.76752707997E+02  0.00000000000E+00 0.  1.
         11    1    1    2    0    0 -0.20676211004E+02 -0.22986238383E+02 -0.71610758025E+02  0.77999830265E+02  0.00000000000E+00 0. -1.
</event>
<event>
 7    1  0.2723366E-009  0.2849371E+03  0.7561462E-02  0.1093023E+00
         -1   -1    0    0    0  501 -0.00000000000E+00  0.00000000000E+00  0.91700461709E+02  0.91700461709E+02  0.00000000000E+00 0.  1.
          1   -1    0    0  501    0  0.00000000000E+00 -0.00000000000E+00 -0.89021090004E+03  0.89021090004E+03  0.00000000000E+00 0. -1.
         25    2    1    2    0    0 -0.17111728407E+03 -0.19997804835E+03 -0.41237840063E+03  0.50495127123E+03  0.12508995277E+03 0.  0.
          5    1    3    3  502    0 -0.94043359524E+02 -0.19141073843E+03 -0.31432746575E+03  0.37987030995E+03  0.41800000000E+01 0. -1.
         -5    1    3    3    0  502 -0.77073924548E+02 -0.85673099215E+01 -0.98050934875E+02  0.12508096128E+03  0.41800000000E+01 0. -1.
        -11    1    1    2    0    0  0.13010670039E+03  0.81485195019E+02 -0.19155738077E+03  0.24548283162E+03  0.00000000000E+00 0.  1.
         11    1    1    2    0    0  0.41010583685E+02  0.11849285334E+03 -0.19457465693E+03  0.23147725889E+03  0.00000000000E+00 0. -1.
</event>
<event>
 7    1  0.2723366E-009  0.1054442E+03  0.7561462E-02  0.1269247E+00
          2   -1    0    0  501    0  0.00000000000E+00  0.00000000000E+00  0.62385953071E+03  0.62385953071E+03  0.00000000000E+00 0.  1.
         -2   -1    0    0    0  501 -0.00000000000E+00 -0.00000000000E+00 -0.31875634517E+02  0.31875634517E+02  0.00000000000E+00 0. -1.
         25    2    1    2    0    0  0.76510919991E+02 -0.25820093042E+02  0.23163148928E+03  0.27535607113E+03  0.12508885243E+03 0.  0.
          5    1    3    3  502    0  0.62827802680E+01 -0.21150531459E+02  0.19426627656E+03  0.19555990621E+03  0.41800000000E+01 0.  1.
         -5    1    3    3    0  502  0.70228139723E+02 -0.46695615825E+01  0.37365212715E+02  0.79796164917E+02  0.41800000000E+01 0.  1.
        -11    1    1    2    0    0  0.54024970257E+01 -0.22284936018E+02  0.11531245436E+03  0.11757026613E+03  0.00000000000E+00 0.  1.
         11    1    1    2    0    0 -0.81913417016E+02  0.48105029059E+02  0.24503995255E+03  0.26280882796E+03  0.00000000000E+00 0. -1.
</event>
<event>
 7    1  0.2723366E-009  0.7456976E+02  0.7561462E-02  0.1345209E+00
          2   -1    0    0  501    0  0.00000000000E+00  0.00000000000E+00  0.19558873622E+03  0.19558873622E+03  0.00000000000E+00 0. -1.
         -2   -1    0    0    0  501 -0.00000000000E+00 -0.00000000000E+00 -0.63659474887E+02  0.63659474887E+02  0.00000000000E+00 0.  1.
         25    2    1    2    0    0 -0.34177044869E+01 -0.21413617996E+02  0.11481390005E+03  0.17116780877E+03  0.12508382539E+03 0.  0.
          5    1    3    3  502    0 -0.11336872310E+02  0.24213694519E+02 -0.16616060761E+02  0.31755212977E+02  0.41800000000E+01 0.  1.
         -5    1    3    3    0  502  0.79191678231E+01 -0.45627312515E+02  0.13142996081E+03  0.13941259579E+03  0.41800000000E+01 0.  1.
        -11    1    1    2    0    0  0.35018026667E+02 -0.37048781814E+01  0.29412942249E+02  0.45881472140E+02  0.00000000000E+00 0.  1.
         11    1    1    2    0    0 -0.31600322180E+02  0.25118496177E+02 -0.12297580968E+02  0.42198930197E+02  0.00000000000E+00 0. -1.
</event>
<event>
 7    1  0.2723366E-009  0.1241273E+03  0.7561462E-02  0.1236439E+00
          1   -1    0    0  501    0  0.00000000000E+00  0.00000000000E+00  0.10778683742E+03  0.10778683742E+03  0.00000000000E+00 0. -1.
         -1   -1    0    0    0  501 -0.00000000000E+00 -0.00000000000E+00 -0.16453751595E+03  0.16453751595E+03  0.00000000000E+00 0.  1.
         25    2    1    2    0    0 -0.36817793504E+02  0.65904093606E+02 -0.26492055553E+02  0.14848984552E+03  0.12509398764E+03 0.  0.
          5    1    3    3  502    0  0.18536068198E+01  0.88060784552E+02 -0.46234304165E+02  0.99565159146E+02  0.41800000000E+01 0. -1.
         -5    1    3    3    0  502 -0.38671400324E+02 -0.22156690946E+02  0.19742248611E+02  0.48924686375E+02  0.41800000000E+01 0. -1.
        -11    1    1    2    0    0  0.64561296115E+02 -0.57140258929E+02 -0.37238492044E+02  0.93914191879E+02  0.00000000000E+00 0.  1.
         11    1    1    2    0    0 -0.27743502611E+02 -0.87638346775E+01  0.69798690657E+01  0.29920315967E+02  0.00000000000E+00 0. -1.
</event>
<event>
 7    1  0.3892928E-009  0.1826208E+03  0.7561462E-02  0.1165290E+00
          2   -1    0    0  501    0  0.00000000000E+00  0.00000000000E+00  0.18873697744E+03  0.18873697744E+03  0.00000000000E+00 0. -1.
         -2   -1    0    0    0  501 -0.00000000000E+00 -0.00000000000E+00 -0.20568192354E+03  0.20568192354E+03  0.00000000000E+00 0.  1.
         25    2    1    2    0    0  0.64577383646E+02 -0.14610204251E+03 -0.45996682773E+02  0.20803466932E+03  0.12508670397E+03 0.  0.
          5    1    3    3  502    0  0.79931548511E+02 -0.55597729428E+02 -0.60931992068E+02  0.11493624329E+03  0.41800000000E+01 0. -1.
         -5    1    3    3    0  502 -0.15354164865E+02 -0.90504313082E+02  0.14935309295E+02  0.93098426028E+02  0.41800000000E+01 0. -1.
        -11    1    1    2    0    0  0.29360912417E+01  0.84340012035E+02 -0.13513757584E+02  0.85466250098E+02  0.00000000000E+00 0.  1.
         11    1    1    2    0    0 -0.67513474888E+02  0.61762030476E+02  0.42565494260E+02  0.10091798156E+03  0.00000000000E+00 0. -1.
</event>
<event>
 7    1  0.2723366E-009  0.9558641E+02  0.7561462E-02  0.1289861E+00
         -2   -1    0    0    0  501 -0.00000000000E+00  0.00000000000E+00  0.21752034849E+02  0.21752034849E+02  0.00000000000E+00 0.  1.
          2   -1    0    0  501    0  0.00000000000E+00 -0.00000000000E+00 -0.75890105717E+03  0.75890105717E+03  0.00000000000E+00 0. -1.
         25    2    1    2    0    0 -0.38982852519E+02 -0.20307150907E+02 -0.56513811802E+03  0.58048305881E+03  0.12508975160E+03 0.  0.
          5    1    3    3  502    0  0.25294583855E+02  0.11598324978E+01 -0.41400044765E+03  0.41479513527E+03  0.41800000000E+01 0.  1.
         -5    1    3    3    0  502 -0.64277436374E+02 -0.21466983405E+02 -0.15113767037E+03  0.16568792354E+03  0.41800000000E+01 0.  1.
        -11    1    1    2    0    0 -0.10445589814E+02  0.42257669547E+02 -0.10755611869E+03  0.11603077027E+03  0.00000000000E+00 0.  1.
         11    1    1    2    0    0  0.49428442334E+02 -0.21950518639E+02 -0.64454785612E+02  0.84139262942E+02  0.00000000000E+00 0. -1.
</event>
<event>
 7    1  0.2723366E-009  0.8385408E+02  0.7561462E-02  0.1318457E+00
         -1   -1    0    0    0  501 -0.00000000000E+00  0.00000000000E+00  0.17987100073E+03  0.17987100073E+03  0.00000000000E+00 0.  1.
          1   -1    0    0  501    0  0.00000000000E+00 -0.00000000000E+00 -0.87632547451E+02  0.87632547451E+02  0.00000000000E+00 0. -1.
         25    2    1    2    0    0 -0.26385149191E+02 -0.24226466024E+01 -0.11100695393E+02  0.12835968526E+03  0.12510370917E+03 0.  0.
          5    1    3    3  502    0  0.22806793870E+02  0.20536107015E+02  0.42080208844E+02  0.52250338892E+02  0.41800000000E+01 0. -1.
         -5    1    3    3    0  502 -0.49191943061E+02 -0.22958753618E+02 -0.53180904237E+02  0.76109346372E+02  0.41800000000E+01 0. -1.
        -11    1    1    2    0    0 -0.18147152748E+02  0.26149445956E+02  0.10567730379E+02  0.33537883088E+02  0.00000000000E+00 0. -1.
         11    1    1    2    0    0  0.44532301939E+02 -0.23726799354E+02  0.92771418293E+02  0.10560597983E+03  0.00000000000E+00 0.  1.
</event>
<event>
 7    1  0.2723366E-009  0.9751409E+02  0.7561462E-02  0.1285612E+00
          1   -1    0    0  501    0  0.00000000000E+00  0.00000000000E+00  0.87192694757E+02  0.87192694757E+02  0.00000000000E+00 0. -1.
         -1   -1    0    0    0  501 -0.00000000000E+00 -0.00000000000E+00 -0.32254209844E+03  0.32254209844E+03  0.00000000000E+00 0.  1.
         25    2    1    2    0    0  0.78324650321E+02  0.55564109566E+02 -0.22991414566E+02  0.15938022629E+03  0.12510527675E+03 0.  0.
          5    1    3    3  502    0  0.28015057777E+02  0.32319122386E+02  0.51094864117E+02  0.66764711286E+02  0.41800000000E+01 0.  1.
         -5    1    3    3    0  502  0.50309592544E+02  0.23244987180E+02 -0.74086278683E+02  0.92615515007E+02  0.41800000000E+01 0.  1.
        -11    1    1    2    0    0 -0.43415964395E+02 -0.36379246990E+02 -0.20115242959E+03  0.20897534664E+03  0.00000000000E+00 0.  1.
         11    1    1    2    0    0 -0.34908685926E+02 -0.19184862575E+02 -0.11205559533E+02  0.41379220263E+02  0.00000000000E+00 0. -1.
</event>
<event>
 7    1  0.2723366E-009  0.1464213E+03  0.7561462E-02  0.1204941E+00
         -1   -1    0    0    0  501 -0.00000000000E+00  0.00000000000E+00  0.20732556581E+02  0.20732556581E+02  0.00000000000E+00 0. -1.
          1   -1    0    0  501    0  0.00000000000E+00 -0.00000000000E+00 -0.13095516809E+04  0.13095516809E+04  0.00000000000E+00 0.  1.
         25    2    1    2    0    0  0.72962695256E+02  0.84432806628E+02 -0.90825905775E+03  0.92359917810E+03  0.12509385306E+03 0.  0.
          5    1    3    3  502    0  0.51918393855E+02  0.10857083459E+03 -0.50960223720E+03  0.52363637985E+03  0.41800000000E+01 0. -1.
         -5    1    3    3    0  502  0.21044301401E+02 -0.24138027960E+02 -0.39865682054E+03  0.39996279825E+03  0.41800000000E+01 0. -1.
        -11    1    1    2    0    0 -0.41243988266E+02  0.83442954798E+01 -0.15754346117E+03  0.16306635456E+03  0.00000000000E+00 0. -1.
         11    1    1    2    0    0 -0.31718706990E+02 -0.92777102108E+02 -0.22301660539E+03  0.24361870480E+03  0.00000000000E+00 0.  1.
</event>
<event>
 7    1  0.2723366E-009  0.2524015E+03  0.7561462E-02  0.1111796E+00
         -2   -1    0    0    0  501 -0.00000000000E+00  0.00000000000E+00  0.11782515215E+03  0.11782515215E+03  0.00000000000E+00 0.  1.
          2   -1    0    0  501    0  0.00000000000E+00 -0.00000000000E+00 -0.57212413217E+03  0.57212413217E+03  0.00000000000E+00 0. -1.
         25    2    1    2    0    0 -0.16140608289E+02  0.23515126120E+03 -0.21815799071E+03  0.34466927506E+03  0.12508942954E+03 0.  0.
          5    1    3    3  502    0  0.31953159280E+02  0.20882960270E+03 -0.18184642741E+03  0.27877661831E+03  0.41800000000E+01 0.  1.
         -5    1    3    3    0  502 -0.48093767569E+02  0.26321658491E+02 -0.36311563304E+02  0.65892656756E+02  0.41800000000E+01 0.  1.
        -11    1    1    2    0    0  0.25690141382E+02 -0.10823942697E+03 -0.55540365315E+02  0.12434021511E+03  0.00000000000E+00 0.  1.
         11    1    1    2    0    0 -0.95495330924E+01 -0.12691183423E+03 -0.18060062399E+03  0.22093979414E+03  0.00000000000E+00 0. -1.
</event>
<event>
 7    1  0.2723366E-009  0.1217997E+03  0.7561462E-02  0.1240157E+00
          2   -1    0    0  501    0  0.00000000000E+00  0.00000000000E+00  0.13797477701E+03  0.13797477701E+03  0.00000000000E+00 0. -1.
         -2   -1    0    0    0  501 -0.00000000000E+00 -0.00000000000E+00 -0.14397761453E+03  0.14397761453E+03  0.00000000000E+00 0.  1.
         25    2    1    2    0    0 -0.77632101004E+02  0.32870946329E+02  0.21696837997E+02  0.15239738059E+03  0.12508783559E+03 0.  0.
          5    1    3    3  502    0  0.19502448331E+02 -0.80230593240E+01 -0.28408630749E+02  0.35626362049E+02  0.41800000000E+01 0. -1.
         -5    1    3    3    0  502 -0.97134549335E+02  0.40894005653E+02  0.50105468745E+02  0.11677101854E+03  0.41800000000E+01 0. -1.
        -11    1    1    2    0    0  0.33453408954E+01  0.23271420929E+02 -0.27840314176E+02  0.36439448832E+02  0.00000000000E+00 0.  1.
         11    1    1    2    0    0  0.74286760109E+02 -0.56142367258E+02  0.14063865915E+00  0.93115562115E+02  0.00000000000E+00 0. -1.
</event>
<event>
 7    1  0.2723366E-009  0.8558076E+02  0.7561462E-02  0.1313921E+00
         -1   -1    0    0    0  501 -0.00000000000E+00  0.00000000000E+00  0.17308567173E+02  0.17308567173E+02  0.00000000000E+00 0.  1.
          1   -1    0    0  501    0  0.00000000000E+00 -0.00000000000E+00 -0.73869786705E+03  0.73869786705E+03  0.00000000000E+00 0. -1.
         25    2    1    2    0    0  0.15234482709E+02  0.17237084435E+02 -0.50479957272E+03  0.52057615586E+03  0.12509084252E+03 0.  0.
          5    1    3    3  502    0  0.30326045417E+02 -0.21758960409E+02 -0.44977389013E+03  0.45133928040E+03  0.41800000000E+01 0.  1.
         -5    1    3    3    0  502 -0.15091562707E+02  0.38996044844E+02 -0.55025682592E+02  0.69236875457E+02  0.41800000000E+01 0.  1.
        -11    1    1    2    0    0  0.13977061924E+02 -0.47503412034E+02 -0.13142956506E+03  0.14044807932E+03  0.00000000000E+00 0. -1.
         11    1    1    2    0    0 -0.29211544634E+02  0.30266327599E+02 -0.85160162099E+02  0.94982199042E+02  0.00000000000E+00 0.  1.
</event>
<event>
 7    1  0.2723366E-009  0.1272068E+03  0.7561462E-02  0.1231660E+00
          2   -1    0    0  501    0  0.00000000000E+00  0.00000000000E+00  0.68409686657E+03  0.68409686657E+03  0.00000000000E+00 0. -1.
         -2   -1    0    0    0  501 -0.00000000000E+00 -0.00000000000E+00 -0.30606888451E+02  0.30606888451E+02  0.00000000000E+00 0.  1.
         25    2    1    2    0    0  0.22040557349E+01  0.84226533268E+02  0.24382851223E+03  0.28670752099E+03  0.12509953018E+03 0.  0.
          5    1    3    3  502    0  0.26736129749E+02 -0.14042216269E+02  0.13325894171E+03  0.13670194738E+03  0.41800000000E+01 0. -1.
         -5    1    3    3    0  502 -0.24532074015E+02  0.98268749537E+02  0.11056957052E+03  0.15000557362E+03  0.41800000000E+01 0. -1.
        -11    1    1    2    0    0  0.22425423570E+02 -0.93565085995E+02  0.29280532661E+03  0.30820818326E+03  0.00000000000E+00 0. -1.
         11    1    1    2    0    0 -0.24629479305E+02  0.93385527265E+01  0.11685613929E+03  0.11978805077E+03  0.00000000000E+00 0.  1.
</event>
<event>
 7    1  0.2723366E-009  0.8798077E+02  0.7561462E-02  0.1307817E+00
         -2   -1    0    0    0  501 -0.00000000000E+00  0.00000000000E+00  0.18793500385E+03  0.18793500385E+03  0.00000000000E+00 0. -1.
          2   -1    0    0  501    0  0.00000000000E+00 -0.00000000000E+00 -0.66273614092E+02  0.66273614092E+02  0.00000000000E+00 0.  1.
         25    2    1    2    0    0  0.17915465890E+02 -0.19840832457E+02  0.83130218880E+02  0.15255572849E+03  0.12509194400E+03 0.  0.
          5    1    3    3  502    0 -0.23139021112E+02 -0.33648635465E+02 -0.16184906259E+02  0.44125599795E+02  0.41800000000E+01 0. -1.
         -5    1    3    3    0  502  0.41054487003E+02  0.13807803008E+02  0.99315125139E+02  0.10843012869E+03  0.41800000000E+01 0. -1.
        -11    1    1    2    0    0 -0.28993127640E+02 -0.29182444155E+02  0.29420476112E+02  0.50574508519E+02  0.00000000000E+00 0. -1.
         11    1    1    2    0    0  0.11077661750E+02  0.49023276612E+02  0.91106947627E+01  0.51078380932E+02  0.00000000000E+00 0.  1.
</event>
<event>
 7    1  0.2723366E-009  0.1487147E+03  0.7561462E-02  0.1202061E+00
         -1   -1    0    0    0  501 -0.00000000000E+00  0.00000000000E+00  0.27147520481E+03  0.27147520481E+03  0.00000000000E+00 0.  1.
          1   -1    0    0  501    0  0.00000000000E+00 -0.00000000000E+00 -0.85881474326E+02  0.85881474326E+02  0.00000000000E+00 0. -1.
         25    2    1    2    0    0  0.26399138149E+02  0.99816209441E+02  0.13519611806E+03  0.21114994879E+03  0.12508445296E+03 0.  0.
          5    1    3    3  502    0  0.37184149369E+02 -0.18906002131E+02  0.45759773368E+02  0.62060673051E+02  0.41800000000E+01 0. -1.
         -5    1    3    3    0  502 -0.10785011220E+02  0.11872221157E+03  0.89436344690E+02  0.14908927573E+03  0.41800000000E+01 0. -1.
        -11    1    1    2    0    0 -0.54446271772E+02 -0.32774986930E+02  0.14640748681E+02  0.65214628727E+02  0.00000000000E+00 0.  1.
         11    1    1    2    0    0  0.28047133623E+02 -0.67041222511E+02  0.35756863743E+02  0.80992101621E+02  0.00000000000E+00 0. -1.
</event>
<event>
 7    1  0.2723366E-009  0.1139756E+03  0.7561462E-02  0.1253380E+00
         -2   -1    0    0    0  501 -0.00000000000E+00  0.00000000000E+00  0.20192305877E+03  0.20192305877E+03  0.00000000000E+00 0.  1.
          2   -1    0    0  501    0  0.00000000000E+00 -0.00000000000E+00 -0.10123484103E+03  0.10123484103E+03  0.00000000000E+00 0. -1.
         25    2    1    2    0    0 -0.39475989444E+02 -0.38443015562E+02  0.73843666576E+02  0.15536002694E+03  0.12509049401E+03 0.  0.
          5    1    3    3  502    0 -0.22705964040E+02  0.19955413295E+02 -0.24872582373E+02  0.39368732221E+02  0.41800000000E+01 0. -1.
         -5    1    3    3    0  502 -0.16770025404E+02 -0.58398428858E+02  0.98716248949E+02  0.11599129472E+03  0.41800000000E+01 0. -1.
        -11    1    1    2    0    0 -0.30455447583E+02  0.56607772994E+02  0.38026036369E+02  0.74685699386E+02  0.00000000000E+00 0.  1.
         11    1    1    2    0    0  0.69931437027E+02 -0.18164757432E+02 -0.11181485208E+02  0.73112173464E+02  0.00000000000E+00 0. -1.
</event>
<event>
 7    1  0.2723366E-009  0.3144257E+03  0.7561462E-02  0.1078244E+00
          1   -1    0    0  501    0  0.00000000000E+00  0.00000000000E+00  0.54701669649E+03  0.54701669649E+03  0.00000000000E+00 0. -1.
         -1   -1    0    0    0  501 -0.00000000000E+00 -0.00000000000E+00 -0.20295695498E+03  0.20295695498E+03  0.00000000000E+00 0.  1.
         25    2    1    2    0    0 -0.22601656871E+02 -0.30655434570E+03  0.22944257773E+03  0.40345706456E+03  0.12508918701E+03 0.  0.
          5    1    3    3  502    0 -0.41951180971E+02 -0.25453157243E+03  0.12860237739E+03  0.28827463784E+03  0.41800000000E+01 0.  1.
         -5    1    3    3    0  502  0.19349524101E+02 -0.52022773272E+02  0.10084020034E+03  0.11518242673E+03  0.41800000000E+01 0.  1.
        -11    1    1    2    0    0  0.40772408901E+02  0.10225033094E+03  0.85428415480E+02  0.13933963427E+03  0.00000000000E+00 0. -1.
         11    1    1    2    0    0 -0.18170752031E+02  0.20430401476E+03  0.29188748301E+02  0.20717695264E+03  0.00000000000E+00 0.  1.
</event>
<event>
 7    1  0.2723366E-009  0.1049357E+03  0.7561462E-02  0.1270246E+00
         -2   -1    0    0    0  501 -0.00000000000E+00  0.00000000000E+00  0.18310227608E+03  0.18310227608E+03  0.00000000000E+00 0. -1.
          2   -1    0    0  501    0  0.00000000000E+00 -0.00000000000E+00 -0.19158365290E+03  0.19158365290E+03  0.00000000000E+00 0.  1.
         25    2    1    2    0    0 -0.72565604661E+02  0.34782292656E+01 -0.13893921106E+03  0.20057284132E+03  0.12508994862E+03 0.  0.
          5    1    3    3  502    0 -0.95029977472E+02 -0.27193035409E+02 -0.12599467146E+03  0.16019452996E+03  0.41800000000E+01 0. -1.
         -5    1    3    3    0  502  0.22464372811E+02  0.30671264675E+02 -0.12944539600E+02  0.40378311356E+02  0.41800000000E+01 0. -1.
        -11    1    1    2    0    0  0.34484163196E+02 -0.29017880256E+01 -0.35599504218E+01  0.34788663844E+02  0.00000000000E+00 0.  1.
         11    1    1    2    0    0  0.38081441465E+02 -0.57644124002E+00  0.13401778466E+03  0.13932442382E+03  0.00000000000E+00 0. -1.
</event>
<event>
 7    1  0.2723366E-009  0.1056094E+03  0.7561462E-02  0.1268924E+00
          2   -1    0    0  501    0  0.00000000000E+00  0.00000000000E+00  0.31579170554E+02  0.31579170554E+02  0.00000000000E+00 0. -1.
         -2   -1    0    0    0  501 -0.00000000000E+00 -0.00000000000E+00 -0.43200096775E+03  0.43200096775E+03  0.00000000000E+00 0.  1.
         25    2    1    2    0    0 -0.24684635467E+02  0.36173924600E+02 -0.23674552970E+03  0.27131739013E+03  0.12508715485E+03 0.  0.
          5    1    3    3  502    0  0.24837116093E+02  0.67218499669E+02 -0.15418638008E+03  0.17007680982E+03  0.41800000000E+01 0.  1.
         -5    1    3    3    0  502 -0.49521751560E+02 -0.31044575068E+02 -0.82559149611E+02  0.10124058032E+03  0.41800000000E+01 0.  1.
        -11    1    1    2    0    0  0.34953312037E+02  0.76902440169E+01 -0.13307161868E+03  0.13780032501E+03  0.00000000000E+00 0.  1.
         11    1    1    2    0    0 -0.10268676569E+02 -0.43864168617E+02 -0.30604648824E+02  0.54462423161E+02  0.00000000000E+00 0. -1.
</event>
<event>
 7    1  0.2723366E-009  0.2673912E+03  0.7561462E-02  0.1102782E+00
         -2   -1    0    0    0  501 -0.00000000000E+00  0.00000000000E+00  0.26871981248E+03  0.26871981248E+03  0.00000000000E+00 0.  1.
          2   -1    0    0  501    0  0.00000000000E+00 -0.00000000000E+00 -0.29621008402E+03  0.29621008402E+03  0.00000000000E+00 0. -1.
         25    2    1    2    0    0  0.25574968122E+03 -0.45835799250E+02 -0.27610956279E+02  0.28968640949E+03  0.12508809295E+03 0.  0.
          5    1    3    3  502    0  0.10740349983E+03 -0.55834626584E+02 -0.63383186829E+02  0.13670376028E+03  0.41800000000E+01 0. -1.
         -5    1    3    3    0  502  0.14834618139E+03  0.99988273338E+01  0.35772230550E+02  0.15298264921E+03  0.41800000000E+01 0. -1.
        -11    1    1    2    0    0 -0.16619957365E+03  0.54606761592E+02 -0.35437305054E+02  0.17849369536E+03  0.00000000000E+00 0.  1.
         11    1    1    2    0    0 -0.89550107573E+02 -0.87709623411E+01  0.35557989785E+02  0.96749791649E+02  0.00000000000E+00 0. -1.
</event>
<event>
 7    1  0.2723366E-009  0.1386812E+03  0.7561462E-02  0.1215115E+00
          1   -1    0    0  501    0  0.00000000000E+00  0.00000000000E+00  0.14174342520E+04  0.14174342520E+04  0.00000000000E+00 0. -1.
         -1   -1    0    0    0  501 -0.00000000000E+00 -0.00000000000E+00 -0.18771916254E+02  0.18771916254E+02  0.00000000000E+00 0.  1.
         25    2    1    2    0    0  0.89005044474E+02 -0.28273763451E+02  0.10856099563E+04  0.10967760511E+04  0.12508966918E+03 0.  0.
          5    1    3    3  502    0  0.32474680533E+02 -0.69328349458E+02  0.75229833106E+03  0.75619526330E+03  0.41800000000E+01 0.  1.
         -5    1    3    3    0  502  0.56530363942E+02  0.41054586007E+02  0.33331162528E+03  0.34058078782E+03  0.41800000000E+01 0.  1.
        -11    1    1    2    0    0 -0.89871177524E+02 -0.11778053520E+02  0.20312678097E+03  0.22243210254E+03  0.00000000000E+00 0.  1.
         11    1    1    2    0    0  0.86613304965E+00  0.40051816972E+02  0.10992559839E+03  0.11699801456E+03  0.00000000000E+00 0. -1.
</event>
<event>
 7    1  0.2723366E-009  0.1077939E+03  0.7561462E-02  0.1264711E+00
         -1   -1    0    0    0  501 -0.00000000000E+00  0.00000000000E+00  0.16434421144E+02  0.16434421144E+02  0.00000000000E+00 0. -1.
          1   -1    0    0  501    0  0.00000000000E+00 -0.00000000000E+00 -0.78533123600E+03  0.78533123600E+03  0.00000000000E+00 0.  1.
         25    2    1    2    0    0  0.24136855434E+02 -0.11985165904E+02 -0.34144135013E+03  0.36463125601E+03  0.12509006870E+03 0.  0.
          5    1    3    3  502    0  0.30487502330E+02  0.52766929011E+02 -0.13588702417E+03  0.14898520844E+03  0.41800000000E+01 0.  1.
         -5    1    3    3    0  502 -0.63506468961E+01 -0.64752094915E+02 -0.20555432596E+03  0.21564604757E+03  0.41800000000E+01 0.  1.
        -11    1    1    2    0    0 -0.46560527024E+02  0.34177389891E+02 -0.31886828689E+03  0.32405703362E+03  0.00000000000E+00 0.  1.
         11    1    1    2    0    0  0.22423671590E+02 -0.22192223987E+02 -0.10858717783E+03  0.11307736751E+03  0.00000000000E+00 0. -1.
</event>
<event>
 7    1  0.2723366E-009  0.6793729E+02  0.7561462E-02  0.1367251E+00
         -1   -1    0    0    0  501 -0.00000000000E+00  0.00000000000E+00  0.19523145494E+02  0.19523145494E+02  0.00000000000E+00 0.  1.
          1   -1    0    0  501    0  0.00000000000E+00 -0.00000000000E+00 -0.82334010370E+03  0.82334010370E+03  0.00000000000E+00 0. -1.
         25    2    1    2    0    0  0.33424167863E+01 -0.57151129256E+01 -0.66418840013E+03  0.67589736375E+03  0.12508869329E+03 0.  0.
          5    1    3    3  502    0  0.20525844018E+02  0.12310885107E+02 -0.20715566656E+02  0.31929222769E+02  0.41800000000E+01 0.  1.
         -5    1    3    3    0  502 -0.17183427232E+02 -0.18025998033E+02 -0.64347283347E+03  0.64396814098E+03  0.41800000000E+01 0.  1.
        -11    1    1    2    0    0 -0.43587452753E+02 -0.69422030099E+01 -0.43421797551E+02  0.61915367419E+02  0.00000000000E+00 0.  1.
         11    1    1    2    0    0  0.40245035967E+02  0.12657315935E+02 -0.96206760524E+02  0.10505051802E+03  0.00000000000E+00 0. -1.
</event>
<event>
 7    1  0.2723366E-009  0.1078452E+03  0.7561462E-02  0.1264613E+00
          2   -1    0    0  501    0  0.00000000000E+00  0.00000000000E+00  0.36560904450E+03  0.36560904450E+03  0.00000000000E+00 0. -1.
         -2   -1    0    0    0  501 -0.00000000000E+00 -0.00000000000E+00 -0.36301502026E+02  0.36301502026E+02  0.00000000000E+00 0.  1.
         25    2    1    2    0    0 -0.22884839256E+02  0.22178486733E+02  0.14294607988E+03  0.19260548754E+03  0.12509073082E+03 0.  0.
          5    1    3    3  502    0  0.43976177367E+02 -0.14452187740E+02  0.84545754207E+02  0.96479152467E+02  0.41800000000E+01 0.  1.
         -5    1    3    3    0  502 -0.66861016622E+02  0.36630674473E+02  0.58400325677E+02  0.96126335077E+02  0.41800000000E+01 0.  1.
        -11    1    1    2    0    0  0.14940444167E+02 -0.56081943895E+02  0.13803450335E+03  0.14973952523E+03  0.00000000000E+00 0.  1.
         11    1    1    2    0    0  0.79443950892E+01  0.33903457162E+02  0.48326959239E+02  0.59565533744E+02  0.00000000000E+00 0. -1.
</event>
<event>
 7    1  0.2723366E-009  0.2770352E+03  0.7561462E-02  0.1097319E+00
         -2   -1    0    0    0  501 -0.00000000000E+00  0.00000000000E+00  0.18448170610E+03  0.18448170610E+03  0.00000000000E+00 0.  1.
          2   -1    0    0  501    0  0.00000000000E+00 -0.00000000000E+00 -0.46201595903E+03  0.46201595903E+03  0.00000000000E+00 0. -1.
         25    2    1    2    0    0  0.26383985698E+03  0.12346674249E+01 -0.73635123355E+02  0.30113625184E+03  0.12509163140E+03 0.  0.
          5    1    3    3  502    0 -0.73910577577E+01 -0.12590895671E+02  0.84620909890E+01  0.17384986985E+02  0.41800000000E+01 0.  1.
         -5    1    3    3    0  502  0.27123091473E+03  0.13825563096E+02 -0.82097214344E+02  0.28375126485E+03  0.41800000000E+01 0.  1.
        -11    1    1    2    0    0 -0.15662988606E+03  0.20230190990E+02 -0.70699170387E+02  0.17303339137E+03  0.00000000000E+00 0. -1.
         11    1    1    2    0    0 -0.10720997091E+03 -0.21464858415E+02 -0.13319995918E+03  0.17232802191E+03  0.00000000000E+00 0.  1.
</event>
<event>
 7    1  0.2723366E-009  0.8556147E+02  0.7561462E-02  0.1313971E+00
         -1   -1    0    0    0  501 -0.00000000000E+00  0.00000000000E+00  0.15536189524E+04  0.15536189524E+04  0.00000000000E+00 0.  1.
          1   -1    0    0  501    0  0.00000000000E+00 -0.00000000000E+00 -0.14332409273E+02  0.14332409273E+02  0.00000000000E+00 0. -1.
         25    2    1    2    0    0 -0.59734901921E+01  0.32347012546E+02  0.13373646796E+04  0.13436047614E+04  0.12508979564E+03 0.  0.
          5    1    3    3  502    0  0.76604909774E+01 -0.18554612200E+02  0.11094772654E+04  0.11096667210E+04  0.41800000000E+01 0. -1.
         -5    1    3    3    0  502 -0.13633981169E+02  0.50901624746E+02  0.22788741414E+03  0.23393804044E+03  0.41800000000E+01 0. -1.
        -11    1    1    2    0    0 -0.37916456546E+02  0.72984000650E+01  0.77985880796E+02  0.87021387739E+02  0.00000000000E+00 0.  1.
         11    1    1    2    0    0  0.43889946738E+02 -0.39645412611E+02  0.12393598276E+03  0.13732521250E+03  0.00000000000E+00 0. -1.
</event>
<event>
 7    1  0.2723366E-009  0.1219669E+03  0.7561462E-02  0.1239887E+00
         -1   -1    0    0    0  501 -0.00000000000E+00  0.00000000000E+00  0.84916932323E+02  0.84916932323E+02  0.00000000000E+00 0.  1.
          1   -1    0    0  501    0  0.00000000000E+00 -0.00000000000E+00 -0.19755254993E+03  0.19755254993E+03  0.00000000000E+00 0. -1.
         25    2    1    2    0    0 -0.10723402289E+02  0.78066449599E+02 -0.45885048263E+02  0.15479697039E+03  0.12508917811E+03 0.  0.
          5    1    3    3  502    0  0.44372055176E+02  0.66482319912E+02  0.30331028146E+01  0.80096505880E+02  0.41800000000E+01 0. -1.
         -5    1    3    3    0  502 -0.55095457465E+02  0.11584129687E+02 -0.48918151077E+02  0.74700464515E+02  0.41800000000E+01 0. -1.
        -11    1    1    2    0    0  0.35488850931E+02 -0.12958623217E+02 -0.33460404227E+02  0.50467644160E+02  0.00000000000E+00 0. -1.
         11    1    1    2    0    0 -0.24765448642E+02 -0.65107826382E+02 -0.33290165116E+02  0.77204867697E+02  0.00000000000E+00 0.  1.
</event>
<event>
 7    1  0.2723366E-009  0.5311164E+02  0.7561462E-02  0.1429246E+00
          2   -1    0    0  501    0  0.00000000000E+00  0.00000000000E+00  0.16860832884E+03  0.16860832884E+03  0.00000000000E+00 0. -1.
         -2   -1    0    0    0  501 -0.00000000000E+00 -0.00000000000E+00 -0.85017563937E+02  0.85017563937E+02  0.00000000000E+00 0.  1.
         25    2    1    2    0    0  0.39393518121E+02  0.31528138121E+02  0.49658915887E+02  0.14373708431E+03  0.12509383964E+03 0.  0.
          5    1    3    3  502    0  0.18884264339E+02  0.14997332851E+02  0.91168927173E+02  0.94396933817E+02  0.41800000000E+01 0. -1.
         -5    1    3    3    0  502  0.20509253782E+02  0.16530805270E+02 -0.41510011286E+02  0.49340150491E+02  0.41800000000E+01 0. -1.
        -11    1    1    2    0    0 -0.18939623335E+02 -0.28760923871E+02 -0.28142047981E+02  0.44473305910E+02  0.00000000000E+00 0.  1.
         11    1    1    2    0    0 -0.20453894787E+02 -0.27672142497E+01  0.62073896995E+02  0.65415502557E+02  0.00000000000E+00 0. -1.
</event>
<event>
 7    1  0.2723366E-009  0.1729703E+03  0.7561462E-02  0.1174785E+00
          1   -1    0    0  501    0  0.00000000000E+00  0.00000000000E+00  0.74907780362E+03  0.74907780362E+03  0.00000000000E+00 0. -1.
         -1   -1    0    0    0  501 -0.00000000000E+00 -0.00000000000E+00 -0.57983012821E+02  0.57983012821E+02  0.00000000000E+00 0.  1.
         25    2    1    2    0    0 -0.87234981961E+02 -0.14339735489E+03  0.47069588711E+03  0.51514567691E+03  0.12509079435E+03 0.  0.
          5    1    3    3  502    0 -0.34987617350E+02 -0.15566353428E+02  0.19312451255E+02  0.43091622160E+02  0.41800000000E+01 0. -1.
         -5    1    3    3    0  502 -0.52247364611E+02 -0.12783100146E+03  0.45138343586E+03  0.47205405475E+03  0.41800000000E+01 0. -1.
        -11    1    1    2    0    0  0.58379553992E+01  0.24385491876E+02  0.10291772446E+03  0.10592823960E+03  0.00000000000E+00 0. -1.
         11    1    1    2    0    0  0.81397026562E+02  0.11901186301E+03  0.11748117923E+03  0.18598689992E+03  0.00000000000E+00 0.  1.
</event>
<event>
 7    1  0.2723366E-009  0.7905815E+02  0.7561462E-02  0.1331746E+00
          3   -1    0    0  501    0  0.00000000000E+00  0.00000000000E+00  0.26802666205E+03  0.26802666205E+03  0.00000000000E+00 0. -1.
         -3   -1    0    0    0  501 -0.00000000000E+00 -0.00000000000E+00 -0.41830068762E+02  0.41830068762E+02  0.00000000000E+00 0.  1.
         25    2    1    2    0    0 -0.53065275851E+01  0.33947962234E+01  0.16421136047E+03  0.20652663950E+03  0.12509275775E+03 0.  0.
          5    1    3    3  502    0  0.46489438914E+02 -0.36783234289E+02  0.82838088281E+02  0.10195045623E+03  0.41800000000E+01 0.  1.
         -5    1    3    3    0  502 -0.51795966499E+02  0.40178030512E+02  0.81373272188E+02  0.10457618327E+03  0.41800000000E+01 0.  1.
        -11    1    1    2    0    0 -0.12029905213E+02 -0.87298368141E+01  0.77835384413E+02  0.79241881205E+02  0.00000000000E+00 0. -1.
         11    1    1    2    0    0  0.17336432798E+02  0.53350405907E+01 -0.15850151597E+02  0.24088210102E+02  0.00000000000E+00 0.  1.
</event>
<event>
 7    1  0.2723366E-009  0.2102582E+03  0.7561462E-02  0.1141362E+00
         -4   -1    0    0    0  501 -0.00000000000E+00  0.00000000000E+00  0.41567765209E+02  0.41567765209E+02  0.00000000000E+00 0.  1.
          4   -1    0    0  501    0  0.00000000000E+00 -0.00000000000E+00 -0.14462548022E+04  0.14462548022E+04  0.00000000000E+00 0. -1.
         25    2    1    2    0    0  0.19976441377E+03 -0.11539116806E+02 -0.45358176040E+03  0.51129614534E+03  0.12509341568E+03 0.  0.
          5    1    3    3  502    0  0.84548304989E+02 -0.13705957835E+02 -0.33535792624E+03  0.34614835006E+03  0.41800000000E+01 0.  1.
         -5    1    3    3    0  502  0.11521610878E+03  0.21668410289E+01 -0.11822383415E+03  0.16514779527E+03  0.41800000000E+01 0.  1.
        -11    1    1    2    0    0 -0.13670413596E+03 -0.34955504851E+02 -0.67066047608E+03  0.68534325873E+03  0.00000000000E+00 0.  1.
         11    1    1    2    0    0 -0.63060277804E+02  0.46494621657E+02 -0.28044480050E+03  0.29118316333E+03  0.00000000000E+00 0. -1.
</event>
<event>
 7    1  0.2723366E-009  0.7367382E+02  0.7561462E-02  0.1348028E+00
         -1   -1    0    0    0  501 -0.00000000000E+00  0.00000000000E+00  0.81085628367E+02  0.81085628367E+02  0.00000000000E+00 0.  1.
          1   -1    0    0  501    0  0.00000000000E+00 -0.00000000000E+00 -0.24675129416E+03  0.24675129416E+03  0.00000000000E+00 0. -1.
         25    2    1    2    0    0 -0.62905473598E+02  0.24581725628E+02 -0.21384253530E+02  0.14375764693E+03  0.12509042692E+03 0.  0.
          5    1    3    3  502    0 -0.29685989101E+02  0.29738505445E+02 -0.71634983667E+02  0.83154554535E+02  0.41800000000E+01 0. -1.
         -5    1    3    3    0  502 -0.33219484497E+02 -0.51567798166E+01  0.50250730137E+02  0.60603092393E+02  0.41800000000E+01 0. -1.
        -11    1    1    2    0    0  0.16263620866E+02 -0.17801899976E+02  0.74171551972E+01  0.25227508748E+02  0.00000000000E+00 0.  1.
         11    1    1    2    0    0  0.46641852732E+02 -0.67798256523E+01 -0.15169856746E+03  0.15885176685E+03  0.00000000000E+00 0. -1.
</event>
<event>
 7    1  0.2723366E-009  0.1068582E+03  0.7561462E-02  0.1266501E+00
          2   -1    0    0  501    0  0.00000000000E+00  0.00000000000E+00  0.29103349010E+03  0.29103349010E+03  0.00000000000E+00 0. -1.
         -2   -1    0    0    0  501 -0.00000000000E+00 -0.00000000000E+00 -0.50159536738E+02  0.50159536738E+02  0.00000000000E+00 0.  1.
         25    2    1    2    0    0 -0.32449555307E+02  0.39271125059E+02  0.15312203359E+03  0.20417593370E+03  0.12508501041E+03 0.  0.
          5    1    3    3  502    0  0.33878367364E+02  0.29386710876E+02  0.10104783047E+02  0.46161689654E+02  0.41800000000E+01 0.  1.
         -5    1    3    3    0  502 -0.66327922671E+02  0.98844141830E+01  0.14301725054E+03  0.15801424405E+03  0.41800000000E+01 0.  1.
        -11    1    1    2    0    0 -0.23578631882E+02 -0.38860310113E+02  0.21598887756E+02  0.50324820276E+02  0.00000000000E+00 0. -1.
         11    1    1    2    0    0  0.56028187190E+02 -0.41081494609E+00  0.66153032022E+02  0.86692272864E+02  0.00000000000E+00 0.  1.
</event>
<event>
 7    1  0.2723366E-009  0.1458413E+03  0.7561462E-02  0.1205678E+00
         -2   -1    0    0    0  501 -0.00000000000E+00  0.00000000000E+00  0.12336965019E+03  0.12336965019E+03  0.00000000000E+00 0.  1.
          2   -1    0    0  501    0  0.00000000000E+00 -0.00000000000E+00 -0.23643143181E+03  0.23643143181E+03  0.00000000000E+00 0. -1.
         25    2    1    2    0    0 -0.86859755255E+02  0.98185443321E+02 -0.49056959450E+02  0.18772137882E+03  0.12509089669E+03 0.  0.
          5    1    3    3  502    0 -0.93333657274E+02  0.56499086231E+02 -0.79900575915E+02  0.13529557553E+03  0.41800000000E+01 0. -1.
         -5    1    3    3    0  502  0.64739020194E+01  0.41686357090E+02  0.30843616465E+02  0.52425803298E+02  0.41800000000E+01 0. -1.
        -11    1    1    2    0    0 -0.64795660726E+01 -0.82500603528E+01  0.16459206970E+02  0.19518036951E+02  0.00000000000E+00 0.  1.
         11    1    1    2    0    0  0.93339321328E+02 -0.89935382968E+02 -0.80464029142E+02  0.15256166622E+03  0.00000000000E+00 0. -1.
</event>
<event>
 7    1  0.2723366E-009  0.2127151E+03  0.7561462E-02  0.1139434E+00
         -2   -1    0    0    0  501 -0.00000000000E+00  0.00000000000E+00  0.61196101484E+02  0.61196101484E+02  0.00000000000E+00 0.  1.
          2   -1    0    0  501    0  0.00000000000E+00 -0.00000000000E+00 -0.88959760319E+03  0.88959760319E+03  0.00000000000E+00 0. -1.
         25    2    1    2    0    0 -0.16483870251E+03 -0.11213251820E+03 -0.32516997494E+03  0.40140781620E+03  0.12508885970E+03 0.  0.
          5    1    3    3  502    0 -0.13119632739E+03 -0.13212184329E+03 -0.30453638971E+03  0.35697134739E+03  0.41800000000E+01 0.  1.
         -5    1    3    3    0  502 -0.33642375117E+02  0.19989325091E+02 -0.20633585224E+02  0.44436468810E+02  0.41800000000E+01 0.  1.
        -11    1    1    2    0    0  0.62941520613E+02  0.50946767963E+02 -0.98229723418E+02  0.12730391489E+03  0.00000000000E+00 0.  1.
         11    1    1    2    0    0  0.10189718190E+03  0.61185750240E+02 -0.40500180335E+03  0.42208197358E+03  0.00000000000E+00 0. -1.
</event>
<event>
 7    1  0.2723366E-009  0.1025859E+03  0.7561462E-02  0.1274950E+00
         -2   -1    0    0    0  501 -0.00000000000E+00  0.00000000000E+00  0.15898146675E+02  0.15898146675E+02  0.00000000000E+00 0. -1.
          2   -1    0    0  501    0  0.00000000000E+00 -0.00000000000E+00 -0.91652352982E+03  0.91652352982E+03  0.00000000000E+00 0.  1.
         25    2    1    2    0    0 -0.12725089711E+01  0.32511359968E+02 -0.70358814248E+03  0.71536137194E+03  0.12508801071E+03 0.  0.
          5    1    3    3  502    0 -0.51312274087E+02 -0.47260118087E+01 -0.15892700714E+03  0.16712435686E+03  0.41800000000E+01 0.  1.
         -5    1    3    3    0  502  0.50039765116E+02  0.37237371777E+02 -0.54466113534E+03  0.54823701508E+03  0.41800000000E+01 0.  1.
        -11    1    1    2    0    0 -0.39939056937E+02 -0.29470205469E+02 -0.10245811802E+03  0.11384764920E+03  0.00000000000E+00 0. -1.
         11    1    1    2    0    0  0.41211565908E+02 -0.30411544997E+01 -0.94579122644E+02  0.10321265535E+03  0.00000000000E+00 0.  1.
</event>
<event>
 7    1  0.2723366E-009  0.1016696E+03  0.7561462E-02  0.1276824E+00
         -1   -1    0    0    0  501 -0.00000000000E+00  0.00000000000E+00  0.36995596858E+02  0.36995596858E+02  0.00000000000E+00 0.  1.
          1   -1    0    0  501    0  0.00000000000E+00 -0.00000000000E+00 -0.36558096228E+03  0.36558096228E+03  0.00000000000E+00 0. -1.
         25    2    1    2    0    0 -0.77349967459E+01 -0.22381763126E+02 -0.25195383136E+03  0.28229746927E+03  0.12510137698E+03 0.  0.
          5    1    3    3  502    0 -0.15055215732E+02  0.44911895111E+02 -0.48863022391E+02  0.68182147226E+02  0.41800000000E+01 0. -1.
         -5    1    3    3    0  502  0.73202189863E+01 -0.67293658237E+02 -0.20309080897E+03  0.21411532204E+03  0.41800000000E+01 0. -1.
        -11    1    1    2    0    0  0.22686589512E+02  0.50922529718E+02 -0.29180250661E+02  0.62922749505E+02  0.00000000000E+00 0.  1.
         11    1    1    2    0    0 -0.14951592766E+02 -0.28540766592E+02 -0.47451283406E+02  0.57356340372E+02  0.00000000000E+00 0. -1.
</event>
<event>
 7    1  0.2723366E-009  0.8917743E+02  0.7561462E-02  0.1304856E+00
         -1   -1    0    0    0  501 -0.00000000000E+00  0.00000000000E+00  0.23329571015E+03  0.23329571015E+03  0.00000000000E+00 0.  1.
          1   -1    0    0  501    0  0.00000000000E+00 -0.00000000000E+00 -0.55157908203E+02  0.55157908203E+02  0.00000000000E+00 0. -1.
         25    2    1    2    0    0  0.11671382328E+02  0.12609991202E+02  0.13621685499E+03  0.18573548236E+03  0.12508958701E+03 0.  0.
          5    1    3    3  502    0 -0.28506562921E+02 -0.26439381355E+02  0.12152674441E+03  0.12766317802E+03  0.41800000000E+01 0.  1.
         -5    1    3    3    0  502  0.40177945248E+02  0.39049372557E+02  0.14690110579E+02  0.58072304331E+02  0.41800000000E+01 0.  1.
        -11    1    1    2    0    0 -0.14237084917E+02 -0.46730057380E+02  0.47398327280E+02  0.68066102273E+02  0.00000000000E+00 0. -1.
         11    1    1    2    0    0  0.25657025894E+01  0.34120066178E+02 -0.54773803276E+01  0.34652033721E+02  0.00000000000E+00 0.  1.
</event>
<event>
 7    1  0.2723366E-009  0.1115759E+03  0.7561462E-02  0.1257679E+00
          1   -1    0    0  501    0  0.00000000000E+00  0.00000000000E+00  0.85213001259E+03  0.85213001259E+03  0.00000000000E+00 0. -1.
         -1   -1    0    0    0  501 -0.00000000000E+00 -0.00000000000E+00 -0.26232349649E+02  0.26232349649E+02  0.00000000000E+00 0.  1.
         25    2    1    2    0    0  0.50228569142E+02  0.71148400355E+02  0.58770451651E+03  0.60714984170E+03  0.12509727222E+03 0.  0.
          5    1    3    3  502    0  0.45003067404E+01  0.33752195153E+02  0.50087232260E+03  0.50204583395E+03  0.41800000000E+01 0. -1.
         -5    1    3    3    0  502  0.45728262402E+02  0.37396205202E+02  0.86832193905E+02  0.10510400775E+03  0.41800000000E+01 0. -1.
        -11    1    1    2    0    0 -0.84699166264E+01 -0.85158664691E+02  0.15306136204E+03  0.17536110803E+03  0.00000000000E+00 0. -1.
         11    1    1    2    0    0 -0.41758652516E+02  0.14010264337E+02  0.85131784398E+02  0.95851412517E+02  0.00000000000E+00 0.  1.
</event>
<event>
 7    1  0.2723366E-009  0.1433909E+03  0.7561462E-02  0.1208838E+00
         -3   -1    0    0    0  501 -0.00000000000E+00  0.00000000000E+00  0.23985055924E+03  0.23985055924E+03  0.00000000000E+00 0.  1.
          3   -1    0    0  501    0  0.00000000000E+00 -0.00000000000E+00 -0.10192578047E+03  0.10192578047E+03  0.00000000000E+00 0. -1.
         25    2    1    2    0    0 -0.10225008108E+03 -0.21089054669E+02  0.11805104231E+03  0.20120588619E+03  0.12509169732E+03 0.  0.
          5    1    3    3  502    0  0.15202257546E+02  0.18286436263E+02 -0.69965340958E+01  0.25138143827E+02  0.41800000000E+01 0.  1.
         -5    1    3    3    0  502 -0.11745233862E+03 -0.39375490932E+02  0.12504757641E+03  0.17606774236E+03  0.41800000000E+01 0.  1.
        -11    1    1    2    0    0  0.88666519350E+02  0.53493309622E+02  0.19826758574E+02  0.10543427424E+03  0.00000000000E+00 0.  1.
         11    1    1    2    0    0  0.13583561729E+02 -0.32404254953E+02  0.46977884080E-01  0.35136179292E+02  0.00000000000E+00 0. -1.
</event>
<event>
 7    1  0.2723366E-009  0.1004605E+03  0.7561462E-02  0.1279331E+00
         -1   -1    0    0    0  501 -0.00000000000E+00  0.00000000000E+00  0.28041247305E+02  0.28041247305E+02  0.00000000000E+00 0.  1.
          1   -1    0    0  501    0  0.00000000000E+00 -0.00000000000E+00 -0.47089989538E+03  0.47089989538E+03  0.00000000000E+00 0. -1.
         25    2    1    2    0    0 -0.26943782544E+02  0.26036653460E+02 -0.23893603381E+03  0.27228882716E+03  0.12508757893E+03 0.  0.
          5    1    3    3  502    0  0.39053457316E+02  0.34362570671E+02 -0.16349669784E+03  0.17162342904E+03  0.41800000000E+01 0. -1.
         -5    1    3    3    0  502 -0.65997239860E+02 -0.83259172107E+01 -0.75439335973E+02  0.10066539812E+03  0.41800000000E+01 0. -1.
        -11    1    1    2    0    0  0.43566260623E+02 -0.40920712718E+02 -0.19254047392E+03  0.20160445900E+03  0.00000000000E+00 0. -1.
         11    1    1    2    0    0 -0.16622478080E+02  0.14884059258E+02 -0.11382140347E+02  0.25047856523E+02  0.00000000000E+00 0.  1.
</event>
<event>
 7    1  0.2723366E-009  0.1117976E+03  0.7561462E-02  0.1257277E+00
          2   -1    0    0  501    0  0.00000000000E+00  0.00000000000E+00  0.24487840361E+03  0.24487840361E+03  0.00000000000E+00 0. -1.
         -2   -1    0    0    0  501 -0.00000000000E+00 -0.00000000000E+00 -0.98036448754E+02  0.98036448754E+02  0.00000000000E+00 0.  1.
         25    2    1    2    0    0  0.49409307432E+02 -0.76675745340E+01  0.18813045532E+03  0.23138848262E+03  0.12508992890E+03 0.  0.
          5    1    3    3  502    0  0.77649582949E+02  0.25741510509E+02  0.15841690528E+03  0.17834088531E+03  0.41800000000E+01 0. -1.
         -5    1    3    3    0  502 -0.28240275518E+02 -0.33409085043E+02  0.29713550042E+02  0.53047597314E+02  0.41800000000E+01 0. -1.
        -11    1    1    2    0    0  0.16283751181E+02  0.24965021950E+02 -0.30673173862E+02  0.42769807906E+02  0.00000000000E+00 0.  1.
         11    1    1    2    0    0 -0.65693058613E+02 -0.17297447416E+02 -0.10615326597E+02  0.68756561838E+02  0.00000000000E+00 0. -1.
</event>
<event>
 7    1  0.2723366E-009  0.8287065E+02  0.7561462E-02  0.1321097E+00
         -2   -1    0    0    0  501 -0.00000000000E+00  0.00000000000E+00  0.19688502486E+02  0.19688502486E+02  0.00000000000E+00 0.  1.
          2   -1    0    0  501    0  0.00000000000E+00 -0.00000000000E+00 -0.74822388238E+03  0.74822388238E+03  0.00000000000E+00 0. -1.
         25    2    1    2    0    0 -0.19000915062E+02 -0.15722019774E+02 -0.53847769777E+03  0.55336655555E+03  0.12509235437E+03 0.  0.
          5    1    3    3  502    0 -0.17296417138E+01 -0.37798046943E+02 -0.51544199175E+03  0.51684582156E+03  0.41800000000E+01 0.  1.
         -5    1    3    3    0  502 -0.17271273348E+02  0.22076027169E+02 -0.23035706027E+02  0.36520733985E+02  0.41800000000E+01 0.  1.
        -11    1    1    2    0    0  0.51284079815E+02 -0.16350594799E+02 -0.96103493594E+02  0.11015117010E+03  0.00000000000E+00 0. -1.
         11    1    1    2    0    0 -0.32283164753E+02  0.32072614573E+02 -0.93954188532E+02  0.10439465923E+03  0.00000000000E+00 0.  1.
</event>
<event>
 7    1  0.2723366E-009  0.1206985E+03  0.7561462E-02  0.1241949E+00
          2   -1    0    0  501    0  0.00000000000E+00  0.00000000000E+00  0.17309463845E+03  0.17309463845E+03  0.00000000000E+00 0. -1.
         -2   -1    0    0    0  501 -0.00000000000E+00 -0.00000000000E+00 -0.14873785376E+03  0.14873785376E+03  0.00000000000E+00 0.  1.
         25    2    1    2    0    0  0.74855475828E+01 -0.91164147144E+02 -0.61986253706E+02  0.16690204613E+03  0.12508821769E+03 0.  0.
          5    1    3    3  502    0  0.60180758806E+02 -0.45542326659E+02 -0.60900800818E+02  0.97068054417E+02  0.41800000000E+01 0.  1.
         -5    1    3    3    0  502 -0.52695211224E+02 -0.45621820485E+02 -0.10854528881E+01  0.69833991711E+02  0.41800000000E+01 0.  1.
        -11    1    1    2    0    0  0.10093485196E+02  0.17040573563E+02  0.75413468270E+02  0.77970832926E+02  0.00000000000E+00 0. -1.
         11    1    1    2    0    0 -0.17579032778E+02  0.74123573581E+02  0.10929570119E+02  0.76959613154E+02  0.00000000000E+00 0.  1.
</event>
<event>
 7    1  0.2723366E-009  0.2313749E+03  0.7561462E-02  0.1125676E+00
          2   -1    0    0  501    0  0.00000000000E+00  0.00000000000E+00  0.41841332697E+03  0.41841332697E+03  0.00000000000E+00 0. -1.
         -2   -1    0    0    0  501 -0.00000000000E+00 -0.00000000000E+00 -0.20455036389E+03  0.20455036389E+03  0.00000000000E+00 0.  1.
         25    2    1    2    0    0 -0.21272335044E+03 -0.74607175536E+02 -0.51051159767E+02  0.26281412437E+03  0.12509032173E+03 0.  0.
          5    1    3    3  502    0 -0.21366532717E+02 -0.29086789691E+02 -0.55136347690E+02  0.66030745047E+02  0.41800000000E+01 0. -1.
         -5    1    3    3    0  502 -0.19135681773E+03 -0.45520385844E+02  0.40851879224E+01  0.19678337932E+03  0.41800000000E+01 0. -1.
        -11    1    1    2    0    0  0.11607896665E+03  0.17417075882E+02  0.74307740686E+02  0.13892199738E+03  0.00000000000E+00 0.  1.
         11    1    1    2    0    0  0.96644383796E+02  0.57190099653E+02  0.19060638216E+03  0.22122756912E+03  0.00000000000E+00 0. -1.
</event>
<event>
 7    1  0.2723366E-009  0.1380868E+03  0.7561462E-02  0.1215927E+00
         -2   -1    0    0    0  501 -0.00000000000E+00  0.00000000000E+00  0.10258729901E+03  0.10258729901E+03  0.00000000000E+00 0.  1.
          2   -1    0    0  501    0  0.00000000000E+00 -0.00000000000E+00 -0.47689049129E+03  0.47689049129E+03  0.00000000000E+00 0. -1.
         25    2    1    2    0    0  0.45236161679E+02 -0.97248871018E+02 -0.40767984621E+03  0.43972048771E+03  0.12509035563E+03 0.  0.
          5    1    3    3  502    0  0.77585239905E+02 -0.20164831751E+02 -0.22129810117E+03  0.23540690702E+03  0.41800000000E+01 0.  1.
         -5    1    3    3    0  502 -0.32349078226E+02 -0.77084039267E+02 -0.18638174504E+03  0.20431358069E+03  0.41800000000E+01 0.  1.
        -11    1    1    2    0    0 -0.43852169274E+02  0.56945687021E+02  0.58130513779E+02  0.92439064537E+02  0.00000000000E+00 0.  1.
         11    1    1    2    0    0 -0.13839924046E+01  0.40303183997E+02 -0.24753859850E+02  0.47318238056E+02  0.00000000000E+00 0. -1.
</event>
<event>
 7    1  0.2723366E-009  0.9587049E+02  0.7561462E-02  0.1289227E+00
          1   -1    0    0  501    0  0.00000000000E+00  0.00000000000E+00  0.18333728196E+03  0.18333728196E+03  0.00000000000E+00 0. -1.
         -1   -1    0    0    0  501 -0.00000000000E+00 -0.00000000000E+00 -0.70967276664E+02  0.70967276664E+02  0.00000000000E+00 0.  1.
         25    2    1    2    0    0 -0.22439505278E+02  0.83903801577E+01  0.29259261826E+02  0.13066757247E+03  0.12507589782E+03 0.  0.
          5    1    3    3  502    0  0.35354235674E+02 -0.33469451975E+02 -0.88537469479E+01  0.49658709514E+02  0.41800000000E+01 0.  1.
         -5    1    3    3    0  502 -0.57793740953E+02  0.41859832132E+02  0.38113008774E+02  0.81008862955E+02  0.41800000000E+01 0.  1.
        -11    1    1    2    0    0 -0.13862509859E+02 -0.27185429070E+02 -0.55242523858E+00  0.30520843811E+02  0.00000000000E+00 0.  1.
         11    1    1    2    0    0  0.36302015137E+02  0.18795048912E+02  0.83663168711E+02  0.93116142346E+02  0.00000000000E+00 0. -1.
</event>
<event>
 7    1  0.2723366E-009  0.8481885E+02  0.7561462E-02  0.1315907E+00
         -2   -1    0    0    0  501 -0.00000000000E+00  0.00000000000E+00  0.45297355041E+02  0.45297355041E+02  0.00000000000E+00 0.  1.
          2   -1    0    0  501    0  0.00000000000E+00 -0.00000000000E+00 -0.28405621621E+03  0.28405621621E+03  0.00000000000E+00 0. -1.
         25    2    1    2    0    0 -0.34539961164E+02 -0.16050906836E+01 -0.15174327380E+03  0.19967307926E+03  0.12509089577E+03 0.  0.
          5    1    3    3  502    0 -0.30145041939E+02 -0.52476886165E+02 -0.13106896300E+03  0.14442677244E+03  0.41800000000E+01 0. -1.
         -5    1    3    3    0  502 -0.43949192253E+01  0.50871795481E+02 -0.20674310804E+02  0.55246306824E+02  0.41800000000E+01 0. -1.
        -11    1    1    2    0    0  0.34137695135E+02  0.19852530487E+02 -0.99844839613E+02  0.10737083958E+03  0.00000000000E+00 0. -1.
         11    1    1    2    0    0  0.40226602935E+00 -0.18247439803E+02  0.12829252246E+02  0.22309652407E+02  0.00000000000E+00 0.  1.
</event>
<event>
 7    1  0.2723366E-009  0.4844528E+02  0.7561462E-02  0.1453912E+00
          2   -1    0    0  501    0  0.00000000000E+00  0.00000000000E+00  0.85982271552E+03  0.85982271552E+03  0.00000000000E+00 0. -1.
         -2   -1    0    0    0  501 -0.00000000000E+00 -0.00000000000E+00 -0.12352958963E+02  0.12352958963E+02  0.00000000000E+00 0.  1.
         25    2    1    2    0    0  0.84652464228E+01 -0.62556331738E+01  0.65508437225E+03  0.66700376237E+03  0.12509073072E+03 0.  0.
          5    1    3    3  502    0  0.25854608885E+01  0.16474438023E+02  0.63659814811E+03  0.63683024919E+03  0.41800000000E+01 0.  1.
         -5    1    3    3    0  502  0.58797855343E+01 -0.22730071197E+02  0.18486224144E+02  0.30173513181E+02  0.41800000000E+01 0.  1.
        -11    1    1    2    0    0 -0.21068099928E+02  0.25356682406E+02  0.16997365163E+03  0.17314118062E+03  0.00000000000E+00 0. -1.
         11    1    1    2    0    0  0.12602853505E+02 -0.19101049232E+02  0.22411732673E+02  0.32030731487E+02  0.00000000000E+00 0.  1.
</event>
<event>
 7    1  0.2723366E-009  0.1287641E+03  0.7561462E-02  0.1229301E+00
         -2   -1    0    0    0  501 -0.00000000000E+00  0.00000000000E+00  0.10639148805E+03  0.10639148805E+03  0.00000000000E+00 0.  1.
          2   -1    0    0  501    0  0.00000000000E+00 -0.00000000000E+00 -0.29730735884E+03  0.29730735884E+03  0.00000000000E+00 0. -1.
         25    2    1    2    0    0  0.90100033983E+02 -0.37200980386E+01  0.21652922367E+02  0.15571412400E+03  0.12508470774E+03 0.  0.
          5    1    3    3  502    0  0.58897805437E+02  0.43320014557E+02  0.53568557686E+02  0.90733885176E+02  0.41800000000E+01 0. -1.
         -5    1    3    3    0  502  0.31202228546E+02 -0.47040112596E+02 -0.31915635319E+02  0.64980238820E+02  0.41800000000E+01 0. -1.
        -11    1    1    2    0    0 -0.58482152752E+00  0.33385287142E+02 -0.53617588569E+02  0.63164588321E+02  0.00000000000E+00 0.  1.
         11    1    1    2    0    0 -0.89515212456E+02 -0.29665189103E+02 -0.15895120459E+03  0.18482013458E+03  0.00000000000E+00 0. -1.
</event>
<event>
 7    1  0.2723366E-009  0.1466867E+03  0.7561462E-02  0.1204605E+00
         -2   -1    0    0    0  501 -0.00000000000E+00  0.00000000000E+00  0.12910391841E+03  0.12910391841E+03  0.00000000000E+00 0.  1.
          2   -1    0    0  501    0  0.00000000000E+00 -0.00000000000E+00 -0.19707468392E+03  0.19707468392E+03  0.00000000000E+00 0. -1.
         25    2    1    2    0    0 -0.24419276211E+02 -0.99617893148E+02  0.13718392060E+02  0.16234849545E+03  0.12509521977E+03 0.  0.
          5    1    3    3  502    0  0.43811505056E+02 -0.23150341319E+02 -0.21117679062E+02  0.54026058966E+02  0.41800000000E+01 0. -1.
         -5    1    3    3    0  502 -0.68230781267E+02 -0.76467551829E+02  0.34836071121E+02  0.10832243649E+03  0.41800000000E+01 0. -1.
        -11    1    1    2    0    0 -0.26304632780E+02  0.83971642385E+02 -0.41729863470E+02  0.97388664309E+02  0.00000000000E+00 0.  1.
         11    1    1    2    0    0  0.50723908991E+02  0.15646250763E+02 -0.39959294093E+02  0.66441442569E+02  0.00000000000E+00 0. -1.
</event>
<event>
 7    1  0.2723366E-009  0.8657608E+02  0.7561462E-02  0.1311362E+00
         -2   -1    0    0    0  501 -0.00000000000E+00  0.00000000000E+00  0.22471585334E+03  0.22471585334E+03  0.00000000000E+00 0.  1.
          2   -1    0    0  501    0  0.00000000000E+00 -0.00000000000E+00 -0.64353601266E+02  0.64353601266E+02  0.00000000000E+00 0. -1.
         25    2    1    2    0    0  0.12102323581E+02 -0.12110715717E+01  0.45833164084E+02  0.13377657801E+03  0.12509021130E+03 0.  0.
          5    1    3    3  502    0 -0.48776339432E+02 -0.33262243756E+01  0.53084884222E+02  0.72288812342E+02  0.41800000000E+01 0.  1.
         -5    1    3    3    0  502  0.60878663013E+02  0.21151528039E+01 -0.72517201373E+01  0.61487765666E+02  0.41800000000E+01 0.  1.
        -11    1    1    2    0    0  0.21165476959E+02  0.16085153602E+02  0.11581678636E+03  0.11882860592E+03  0.00000000000E+00 0.  1.
         11    1    1    2    0    0 -0.33267800539E+02 -0.14874082030E+02 -0.12876983742E+01  0.36464270678E+02  0.00000000000E+00 0. -1.
</event>
<event>
 7    1  0.2723366E-009  0.1796999E+03  0.7561462E-02  0.1168094E+00
         -1   -1    0    0    0  501 -0.00000000000E+00  0.00000000000E+00  0.72353361975E+02  0.72353361975E+02  0.00000000000E+00 0.  1.
          1   -1    0    0  501    0  0.00000000000E+00 -0.00000000000E+00 -0.54307578882E+03  0.54307578882E+03  0.00000000000E+00 0. -1.
         25    2    1    2    0    0 -0.13492006707E+03 -0.84346717198E+02 -0.31673069836E+03  0.37587721999E+03  0.12509019158E+03 0.  0.
          5    1    3    3  502    0 -0.78910706185E+02 -0.10883111407E+03 -0.25827482340E+03  0.29119489649E+03  0.41800000000E+01 0. -1.
         -5    1    3    3    0  502 -0.56009360883E+02  0.24484396873E+02 -0.58455874957E+02  0.84682323502E+02  0.41800000000E+01 0. -1.
        -11    1    1    2    0    0  0.12980518304E+01  0.11254875713E+02 -0.58939881202E+02  0.60018886710E+02  0.00000000000E+00 0. -1.
         11    1    1    2    0    0  0.13362201524E+03  0.73091841486E+02 -0.95051847286E+02  0.17953304409E+03  0.00000000000E+00 0.  1.
</event>
<event>
 7    1  0.2723366E-009  0.6920263E+02  0.7561462E-02  0.1362826E+00
          3   -1    0    0  501    0  0.00000000000E+00  0.00000000000E+00  0.63799174644E+02  0.63799174644E+02  0.00000000000E+00 0. -1.
         -3   -1    0    0    0  501 -0.00000000000E+00 -0.00000000000E+00 -0.23123964544E+03  0.23123964544E+03  0.00000000000E+00 0.  1.
         25    2    1    2    0    0  0.28319464325E+02 -0.44799791454E+02 -0.95678862161E+02  0.16617157614E+03  0.12509810022E+03 0.  0.
          5    1    3    3  502    0  0.23460632605E+02  0.92434000631E+01  0.23773008158E+02  0.34906590264E+02  0.41800000000E+01 0.  1.
         -5    1    3    3    0  502  0.48588317199E+01 -0.54043191518E+02 -0.11945187032E+03  0.13126498588E+03  0.41800000000E+01 0.  1.
        -11    1    1    2    0    0 -0.24903216681E+02  0.16398847947E+02 -0.90088154892E+02  0.94894510204E+02  0.00000000000E+00 0.  1.
         11    1    1    2    0    0 -0.34162476444E+01  0.28400943508E+02  0.18326546254E+02  0.33972733739E+02  0.00000000000E+00 0. -1.
</event>
<event>
 7    1  0.2723366E-009  0.1022438E+03  0.7561462E-02  0.1275647E+00
         -2   -1    0    0    0  501 -0.00000000000E+00  0.00000000000E+00  0.14806097063E+03  0.14806097063E+03  0.00000000000E+00 0.  1.
          2   -1    0    0  501    0  0.00000000000E+00 -0.00000000000E+00 -0.10104374768E+03  0.10104374768E+03  0.00000000000E+00 0. -1.
         25    2    1    2    0    0  0.33275939544E+01  0.38920266293E+02  0.65772855804E+02  0.14662586956E+03  0.12508883665E+03 0.  0.
          5    1    3    3  502    0  0.48799086543E+02  0.49749621914E+02  0.52084109436E+01  0.70006968743E+02  0.41800000000E+01 0.  1.
         -5    1    3    3    0  502 -0.45471492589E+02 -0.10829355622E+02  0.60564444860E+02  0.76618900819E+02  0.41800000000E+01 0.  1.
        -11    1    1    2    0    0 -0.19559723535E+02  0.19195257959E+02 -0.30503363317E+02  0.41006046951E+02  0.00000000000E+00 0. -1.
         11    1    1    2    0    0  0.16232129581E+02 -0.58115524252E+02  0.11747730457E+02  0.61472801796E+02  0.00000000000E+00 0.  1.
</event>
<event>
 7    1  0.2723366E-009  0.1110540E+03  0.7561462E-02  0.1258630E+00
         -1   -1    0    0    0  501 -0.00000000000E+00  0.00000000000E+00  0.16572659812E+03  0.16572659812E+03  0.00000000000E+00 0.  1.
          1   -1    0    0  501    0  0.00000000000E+00 -0.00000000000E+00 -0.78970825630E+02  0.78970825630E+02  0.00000000000E+00 0. -1.
         25    2    1    2    0    0  0.13454501912E+02  0.35410263791E+02  0.30832517811E+02  0.13428842300E+03  0.12509127065E+03 0.  0.
          5    1    3    3  502    0  0.27995993119E+02 -0.41036780247E+02 -0.16022145840E+01  0.49878176143E+02  0.41800000000E+01 0.  1.
         -5    1    3    3    0  502 -0.14541491207E+02  0.76447044038E+02  0.32434732395E+02  0.84410246856E+02  0.41800000000E+01 0.  1.
        -11    1    1    2    0    0 -0.24370374557E+01  0.28938248847E+02  0.10516915817E+02  0.30886354855E+02  0.00000000000E+00 0.  1.
         11    1    1    2    0    0 -0.11017464457E+02 -0.64348512638E+02  0.45406338866E+02  0.79522645901E+02  0.00000000000E+00 0. -1.
</event>
<event>
 7    1  0.2723366E-009  0.1312218E+03  0.7561462E-02  0.1225654E+00
          2   -1    0    0  501    0  0.00000000000E+00  0.00000000000E+00  0.30182288425E+03  0.30182288425E+03  0.00000000000E+00 0. -1.
         -2   -1    0    0    0  501 -0.00000000000E+00 -0.00000000000E+00 -0.67095679010E+02  0.67095679010E+02  0.00000000000E+00 0.  1.
         25    2    1    2    0    0  0.59049191781E+02  0.68953189854E+02  0.10913804918E+03  0.18921305592E+03  0.12509643205E+03 0.  0.
          5    1    3    3  502    0  0.62999958042E+02 -0.73161667766E+01  0.10543767246E+02  0.64429530787E+02  0.41800000000E+01 0. -1.
         -5    1    3    3    0  502 -0.39507662619E+01  0.76269356630E+02  0.98594281930E+02  0.12478352513E+03  0.41800000000E+01 0. -1.
        -11    1    1    2    0    0 -0.73658918969E+02 -0.76291797275E+02  0.84871174731E+02  0.13582779898E+03  0.00000000000E+00 0.  1.
         11    1    1    2    0    0  0.14609727189E+02  0.73386074211E+01  0.40717981335E+02  0.43877708366E+02  0.00000000000E+00 0. -1.
</event>
<event>
 7    1  0.2723366E-009  0.2026901E+03  0.7561462E-02  0.1147489E+00
          2   -1    0    0  501    0  0.00000000000E+00  0.00000000000E+00  0.10236188123E+03  0.10236188123E+03  0.00000000000E+00 0. -1.
         -2   -1    0    0    0  501 -0.00000000000E+00 -0.00000000000E+00 -0.46553372117E+03  0.46553372117E+03  0.00000000000E+00 0.  1.
         25    2    1    2    0    0  0.12674715406E+03 -0.13430158647E+03 -0.24004960266E+03  0.32767818827E+03  0.12508967241E+03 0.  0.
          5    1    3    3  502    0 -0.71558582606E+01 -0.71865975419E+02 -0.55164196286E+02  0.90975192675E+02  0.41800000000E+01 0. -1.
         -5    1    3    3    0  502  0.13390301232E+03 -0.62435611048E+02 -0.18488540637E+03  0.23670299559E+03  0.41800000000E+01 0. -1.
        -11    1    1    2    0    0 -0.10425131706E+03  0.10182402939E+03 -0.13532297579E+03  0.19886874527E+03  0.00000000000E+00 0.  1.
         11    1    1    2    0    0 -0.22495836999E+02  0.32477557080E+02  0.12200738515E+02  0.41348668860E+02  0.00000000000E+00 0. -1.
</event>
<event>
 7    1  0.2723366E-009  0.1749472E+03  0.7561462E-02  0.1172785E+00
          1   -1    0    0  501    0  0.00000000000E+00  0.00000000000E+00  0.11352760612E+04  0.11352760612E+04  0.00000000000E+00 0.  1.
         -1   -1    0    0    0  501 -0.00000000000E+00 -0.00000000000E+00 -0.77557616987E+02  0.77557616987E+02  0.00000000000E+00 0. -1.
         25    2    1    2    0    0 -0.70055166588E+02  0.14712088669E+03  0.84937227004E+02  0.22229226112E+03  0.12508890901E+03 0.  0.
          5    1    3    3  502    0 -0.39385435410E+02  0.10056248097E+03 -0.13666008038E+02  0.10894153146E+03  0.41800000000E+01 0. -1.
         -5    1    3    3    0  502 -0.30669731177E+02  0.46558405718E+02  0.98603235042E+02  0.11335072966E+03  0.41800000000E+01 0. -1.
        -11    1    1    2    0    0 -0.12347316749E+02 -0.76173589258E+02  0.35861245876E+03  0.36682116557E+03  0.00000000000E+00 0. -1.
         11    1    1    2    0    0  0.82402483337E+02 -0.70947297431E+02  0.61416875845E+03  0.62372025150E+03  0.00000000000E+00 0.  1.
</event>
<event>
 7    1  0.2723366E-009  0.1248437E+03  0.7561462E-02  0.1235314E+00
          2   -1    0    0  501    0  0.00000000000E+00  0.00000000000E+00  0.34603626584E+03  0.34603626584E+03  0.00000000000E+00 0.  1.
         -2   -1    0    0    0  501 -0.00000000000E+00 -0.00000000000E+00 -0.81484138049E+02  0.81484138049E+02  0.00000000000E+00 0. -1.
         25    2    1    2    0    0 -0.54818238755E+01 -0.15466236544E+02  0.22004386087E+03  0.25364506497E+03  0.12508902194E+03 0.  0.
          5    1    3    3  502    0 -0.61869680161E+02 -0.23340399663E+02  0.14440896037E+03  0.15888376826E+03  0.41800000000E+01 0.  1.
         -5    1    3    3    0  502  0.56387856285E+02  0.78741631187E+01  0.75634900499E+02  0.94761296713E+02  0.41800000000E+01 0.  1.
        -11    1    1    2    0    0 -0.11346901410E+02  0.69153480840E+02  0.80774524050E+02  0.10693680292E+03  0.00000000000E+00 0.  1.
         11    1    1    2    0    0  0.16828725285E+02 -0.53687244296E+02 -0.36266257131E+02  0.66938535995E+02  0.00000000000E+00 0. -1.
</event>
<event>
 7    1  0.2723366E-009  0.1113843E+03  0.7561462E-02  0.1258028E+00
         -2   -1    0    0    0  501 -0.00000000000E+00  0.00000000000E+00  0.26629850096E+02  0.26629850096E+02  0.00000000000E+00 0.  1.
          2   -1    0    0  501    0  0.00000000000E+00 -0.00000000000E+00 -0.48625594784E+03  0.48625594784E+03  0.00000000000E+00 0. -1.
         25    2    1    2    0    0 -0.13274286148E+02  0.15569163604E+02 -0.31119632138E+03  0.33602068066E+03  0.12509253320E+03 0.  0.
          5    1    3    3  502    0 -0.22348317202E+02 -0.52819945550E+02 -0.13366137574E+03  0.14550680292E+03  0.41800000000E+01 0. -1.
         -5    1    3    3    0  502  0.90740310542E+01  0.68389109153E+02 -0.17753494564E+03  0.19051387774E+03  0.41800000000E+01 0. -1.
        -11    1    1    2    0    0  0.50248170187E+02  0.99487435714E+01 -0.76947613595E+02  0.92438040566E+02  0.00000000000E+00 0.  1.
         11    1    1    2    0    0 -0.36973884039E+02 -0.25517907175E+02 -0.71482162765E+02  0.84427076706E+02  0.00000000000E+00 0. -1.
</event>
<event>
 7    1  0.2723366E-009  0.6865782E+02  0.7561462E-02  0.1364718E+00
          1   -1    0    0  501    0  0.00000000000E+00  0.00000000000E+00  0.44403372119E+03  0.44403372119E+03  0.00000000000E+00 0. -1.
         -1   -1    0    0    0  501 -0.00000000000E+00 -0.00000000000E+00 -0.29508061603E+02  0.29508061603E+02  0.00000000000E+00 0.  1.
         25    2    1    2    0    0  0.21204569465E+02 -0.31414672361E+02  0.23444419516E+03  0.26841684787E+03  0.12508800171E+03 0.  0.
          5    1    3    3  502    0 -0.11570781709E+02 -0.80881135310E+01  0.22677301171E+03  0.22725046052E+03  0.41800000000E+01 0.  1.
         -5    1    3    3    0  502  0.32775351174E+02 -0.23326558830E+02  0.76711834495E+01  0.41166387344E+02  0.41800000000E+01 0.  1.
        -11    1    1    2    0    0  0.16943693146E+02 -0.14606532036E+02  0.93759530125E+01  0.24255886099E+02  0.00000000000E+00 0.  1.
         11    1    1    2    0    0 -0.38148262611E+02  0.46021204397E+02  0.17070551142E+03  0.18086904883E+03  0.00000000000E+00 0. -1.
</event>
<event>
 7    1  0.2723366E-009  0.8257753E+02  0.7561462E-02  0.1321892E+00
         -2   -1    0    0    0  501 -0.00000000000E+00  0.00000000000E+00  0.18261058202E+02  0.18261058202E+02  0.00000000000E+00 0.  1.
          2   -1    0    0  501    0  0.00000000000E+00 -0.00000000000E+00 -0.77422225460E+03  0.77422225460E+03  0.00000000000E+00 0. -1.
         25    2    1    2    0    0  0.39759791480E+02 -0.70783873598E+02 -0.56544294427E+03  0.58477632496E+03  0.12508568757E+03 0.  0.
          5    1    3    3  502    0  0.24647268942E+02 -0.24256497986E+02 -0.50807001545E+03  0.50926268129E+03  0.41800000000E+01 0.  1.
         -5    1    3    3    0  502  0.15112522538E+02 -0.46527375612E+02 -0.57372928818E+02  0.75513643667E+02  0.41800000000E+01 0.  1.
        -11    1    1    2    0    0 -0.95546791769E+01  0.14931048284E+02 -0.27064130530E+02  0.32352670035E+02  0.00000000000E+00 0.  1.
         11    1    1    2    0    0 -0.30205112303E+02  0.55852825314E+02 -0.16345412160E+03  0.17535431781E+03  0.00000000000E+00 0. -1.
</event>
<event>
 7    1  0.2723366E-009  0.1550493E+03  0.7561462E-02  0.1194402E+00
          4   -1    0    0  501    0  0.00000000000E+00  0.00000000000E+00  0.54754876311E+03  0.54754876311E+03  0.00000000000E+00 0. -1.
         -4   -1    0    0    0  501 -0.00000000000E+00 -0.00000000000E+00 -0.46084320652E+02  0.46084320652E+02  0.00000000000E+00 0.  1.
         25    2    1    2    0    0  0.60962434339E+02  0.95802055026E+02  0.28668831619E+03  0.33276443606E+03  0.12509007601E+03 0.  0.
          5    1    3    3  502    0  0.88924968415E+02  0.25584476641E+02  0.17183876184E+03  0.19521333951E+03  0.41800000000E+01 0. -1.
         -5    1    3    3    0  502 -0.27962534076E+02  0.70217578386E+02  0.11484955435E+03  0.13755109655E+03  0.41800000000E+01 0. -1.
        -11    1    1    2    0    0 -0.81359305980E+02 -0.61975106014E+02  0.11691552996E+03  0.15533670391E+03  0.00000000000E+00 0.  1.
         11    1    1    2    0    0  0.20396871640E+02 -0.33826949012E+02  0.97860596305E+02  0.10553194380E+03  0.00000000000E+00 0. -1.
</event>
<event>
 7    1  0.2723366E-009  0.9879335E+02  0.7561462E-02  0.1282854E+00
         -1   -1    0    0    0  501 -0.00000000000E+00  0.00000000000E+00  0.89411566435E+02  0.89411566435E+02  0.00000000000E+00 0.  1.
          1   -1    0    0  501    0  0.00000000000E+00 -0.00000000000E+00 -0.18303863149E+03  0.18303863149E+03  0.00000000000E+00 0. -1.
         25    2    1    2    0    0  0.35604918189E+02 -0.50140839020E+02 -0.20499184148E+02  0.14089133403E+03  0.12509331524E+03 0.  0.
          5    1    3    3  502    0 -0.91023742294E+01  0.28986362615E+02  0.24629536819E+02  0.39333813928E+02  0.41800000000E+01 0.  1.
         -5    1    3    3    0  502  0.44707292418E+02 -0.79127201635E+02 -0.45128720967E+02  0.10155752011E+03  0.41800000000E+01 0.  1.
        -11    1    1    2    0    0 -0.18482760727E+02  0.55096372174E+02 -0.19111212208E+01  0.58145292631E+02  0.00000000000E+00 0.  1.
         11    1    1    2    0    0 -0.17122157462E+02 -0.49555331537E+01 -0.71216759686E+02  0.73413571260E+02  0.00000000000E+00 0. -1.
</event>
<event>
 7    1  0.2723366E-009  0.1016826E+03  0.7561462E-02  0.1276797E+00
         -1   -1    0    0    0  501 -0.00000000000E+00  0.00000000000E+00  0.73265685570E+02  0.73265685570E+02  0.00000000000E+00 0.  1.
          1   -1    0    0  501    0  0.00000000000E+00 -0.00000000000E+00 -0.24209312702E+03  0.24209312702E+03  0.00000000000E+00 0. -1.
         25    2    1    2    0    0  0.27107411167E+02  0.42990875071E+02 -0.23145427619E+02  0.13698663024E+03  0.12508636602E+03 0.  0.
          5    1    3    3  502    0 -0.18831135186E+02  0.50601832271E+02  0.33393361271E+02  0.63621899206E+02  0.41800000000E+01 0. -1.
         -5    1    3    3    0  502  0.45938546353E+02 -0.76109572000E+01 -0.56538788890E+02  0.73364731034E+02  0.41800000000E+01 0. -1.
        -11    1    1    2    0    0 -0.57208579294E+02 -0.44260819659E+02 -0.11029574492E+03  0.13189766127E+03  0.00000000000E+00 0. -1.
         11    1    1    2    0    0  0.30101168127E+02  0.12699445884E+01 -0.35386268908E+02  0.46474521075E+02  0.00000000000E+00 0.  1.
</event>
<event>
 7    1  0.2723366E-009  0.1035507E+03  0.7561462E-02  0.1273002E+00
          2   -1    0    0  501    0  0.00000000000E+00  0.00000000000E+00  0.11196857845E+04  0.11196857845E+04  0.00000000000E+00 0. -1.
         -2   -1    0    0    0  501 -0.00000000000E+00 -0.00000000000E+00 -0.19809061739E+02  0.19809061739E+02  0.00000000000E+00 0.  1.
         25    2    1    2    0    0 -0.35610289419E+02 -0.57440944579E+02  0.90485876618E+03  0.91596274832E+03  0.12510321643E+03 0.  0.
          5    1    3    3  502    0  0.58013721741E+01  0.14961239343E+02  0.15521994548E+02  0.22713417104E+02  0.41800000000E+01 0. -1.
         -5    1    3    3    0  502 -0.41411661593E+02 -0.72402183922E+02  0.88933677163E+03  0.89324933122E+03  0.41800000000E+01 0. -1.
        -11    1    1    2    0    0  0.56557122901E+02  0.13230038454E+02  0.12795413546E+03  0.14052047128E+03  0.00000000000E+00 0.  1.
         11    1    1    2    0    0 -0.20946833482E+02  0.44210906125E+02  0.67063821154E+02  0.83011626662E+02  0.00000000000E+00 0. -1.
</event>
<event>
 7    1  0.2723366E-009  0.1585998E+03  0.7561462E-02  0.1190287E+00
          3   -1    0    0  501    0  0.00000000000E+00  0.00000000000E+00  0.54108819275E+02  0.54108819275E+02  0.00000000000E+00 0. -1.
         -3   -1    0    0    0  501 -0.00000000000E+00 -0.00000000000E+00 -0.55442963691E+03  0.55442963691E+03  0.00000000000E+00 0.  1.
         25    2    1    2    0    0 -0.10304466006E+03 -0.66277150023E+02 -0.16713371839E+03  0.24205619198E+03  0.12508660068E+03 0.  0.
          5    1    3    3  502    0 -0.12181923438E+03 -0.20371983247E+02 -0.10301305987E+03  0.16088538302E+03  0.41800000000E+01 0.  1.
         -5    1    3    3    0  502  0.18774574318E+02 -0.45905166775E+02 -0.64120658521E+02  0.81170808957E+02  0.41800000000E+01 0.  1.
        -11    1    1    2    0    0  0.49271716236E+02  0.74630459794E+02 -0.14297864578E+03  0.16864252340E+03  0.00000000000E+00 0.  1.
         11    1    1    2    0    0  0.53772943828E+02 -0.83533097709E+01 -0.19020845347E+03  0.19783974081E+03  0.00000000000E+00 0. -1.
</event>
<event>
 7    1  0.2723366E-009  0.1996262E+03  0.7561462E-02  0.1150055E+00
          1   -1    0    0  501    0  0.00000000000E+00  0.00000000000E+00  0.11201157295E+03  0.11201157295E+03  0.00000000000E+00 0. -1.
         -1   -1    0    0    0  501 -0.00000000000E+00 -0.00000000000E+00 -0.44794247103E+03  0.44794247103E+03  0.00000000000E+00 0.  1.
         25    2    1    2    0    0 -0.18093544476E+03 -0.67129651009E+02 -0.18455200203E+03  0.29487478761E+03  0.12509066192E+03 0.  0.
          5    1    3    3  502    0 -0.10072408012E+03 -0.20416909030E+02 -0.18376068457E+02  0.10448608895E+03  0.41800000000E+01 0.  1.
         -5    1    3    3    0  502 -0.80211364639E+02 -0.46712741980E+02 -0.16617593358E+03  0.19038869867E+03  0.41800000000E+01 0.  1.
        -11    1    1    2    0    0  0.13946732484E+03  0.20315312092E+02 -0.14500875109E+03  0.20221618257E+03  0.00000000000E+00 0.  1.
         11    1    1    2    0    0  0.41468119927E+02  0.46814338917E+02 -0.63701449552E+01  0.62863073782E+02  0.00000000000E+00 0. -1.
</event>
<event>
 7    1  0.2723366E-009  0.1748959E+03  0.7561462E-02  0.1172836E+00
          2   -1    0    0  501    0  0.00000000000E+00  0.00000000000E+00  0.59400862244E+02  0.59400862244E+02  0.00000000000E+00 0. -1.
         -2   -1    0    0    0  501 -0.00000000000E+00 -0.00000000000E+00 -0.64207222480E+03  0.64207222480E+03  0.00000000000E+00 0.  1.
         25    2    1    2    0    0  0.66330140593E+02  0.13494983955E+03 -0.40582698653E+03  0.45050388572E+03  0.12508821411E+03 0.  0.
          5    1    3    3  502    0  0.49416441818E+02  0.16068695203E+02 -0.40763680218E+02  0.66176564677E+02  0.41800000000E+01 0.  1.
         -5    1    3    3    0  502  0.16913698775E+02  0.11888114434E+03 -0.36506330631E+03  0.38432732104E+03  0.41800000000E+01 0.  1.
        -11    1    1    2    0    0 -0.85988450114E+02 -0.73926743390E+02 -0.12243898678E+03  0.16688463808E+03  0.00000000000E+00 0.  1.
         11    1    1    2    0    0  0.19658309521E+02 -0.61023096158E+02 -0.54405389247E+02  0.84084563251E+02  0.00000000000E+00 0. -1.
</event>
<event>
 7    1  0.2723366E-009  0.1251569E+03  0.7561462E-02  0.1234824E+00
         -2   -1    0    0    0  501 -0.00000000000E+00  0.00000000000E+00  0.90386676828E+02  0.90386676828E+02  0.00000000000E+00 0. -1.
          2   -1    0    0  501    0  0.00000000000E+00 -0.00000000000E+00 -0.18508999661E+03  0.18508999661E+03  0.00000000000E+00 0.  1.
         25    2    1    2    0    0 -0.64989934965E+02  0.21411720216E+02 -0.41856186585E+02  0.14859765168E+03  0.12508864185E+03 0.  0.
          5    1    3    3  502    0 -0.74883376768E+02 -0.31902643173E+02 -0.26366467750E+01  0.81545834129E+02  0.41800000000E+01 0. -1.
         -5    1    3    3    0  502  0.98934418033E+01  0.53314363389E+02 -0.39219539810E+02  0.67051817553E+02  0.41800000000E+01 0. -1.
        -11    1    1    2    0    0  0.57385879099E+02  0.28405285800E+02 -0.21564653842E+02  0.67565032944E+02  0.00000000000E+00 0.  1.
         11    1    1    2    0    0  0.76040558660E+01 -0.49817006016E+02 -0.31282479353E+02  0.59313988809E+02  0.00000000000E+00 0. -1.
</event>
<event>
 7    1  0.2723366E-009  0.1292332E+03  0.7561462E-02  0.1228598E+00
          1   -1    0    0  501    0  0.00000000000E+00  0.00000000000E+00  0.93384697571E+02  0.93384697571E+02  0.00000000000E+00 0. -1.
         -1   -1    0    0    0  501 -0.00000000000E+00 -0.00000000000E+00 -0.18165177489E+03  0.18165177489E+03  0.00000000000E+00 0.  1.
         25    2    1    2    0    0 -0.66276209604E+02 -0.20984598777E+02 -0.33907270428E+02  0.14707646381E+03  0.12509553898E+03 0.  0.
          5    1    3    3  502    0 -0.79643747032E+02  0.33402361569E+02 -0.14604419308E+02  0.87690396641E+02  0.41800000000E+01 0.  1.
         -5    1    3    3    0  502  0.13367537428E+02 -0.54386960345E+02 -0.19302851120E+02  0.59386067170E+02  0.41800000000E+01 0.  1.
        -11    1    1    2    0    0  0.46085806437E+02 -0.33996421614E+02 -0.26963050030E+02  0.63298217230E+02  0.00000000000E+00 0.  1.
         11    1    1    2    0    0  0.20190403167E+02  0.54981020391E+02 -0.27396756860E+02  0.64661791421E+02  0.00000000000E+00 0. -1.
</event>
<event>
 7    1  0.2723366E-009  0.1232145E+03  0.7561462E-02  0.1237886E+00
         -1   -1    0    0    0  501 -0.00000000000E+00  0.00000000000E+00  0.50516226464E+02  0.50516226464E+02  0.00000000000E+00 0.  1.
          1   -1    0    0  501    0  0.00000000000E+00 -0.00000000000E+00 -0.47625450005E+03  0.47625450005E+03  0.00000000000E+00 0. -1.
         25    2    1    2    0    0  0.10250376293E+03  0.36026715692E+02 -0.18951054446E+03  0.25172784557E+03  0.12509083146E+03 0.  0.
          5    1    3    3  502    0  0.11370444063E+03  0.28634611886E+02 -0.20155469636E+03  0.23321751401E+03  0.41800000000E+01 0. -1.
         -5    1    3    3    0  502 -0.11200677699E+02  0.73921038056E+01  0.12044151898E+02  0.18510331562E+02  0.41800000000E+01 0. -1.
        -11    1    1    2    0    0 -0.20396857419E+02  0.79621205651E+01 -0.85921248696E+00  0.21912676755E+02  0.00000000000E+00 0.  1.
         11    1    1    2    0    0 -0.82106905510E+02 -0.43988836257E+02 -0.23536851664E+03  0.25313020419E+03  0.00000000000E+00 0. -1.
</event>
<event>
 7    1  0.2723366E-009  0.1292531E+03  0.7561462E-02  0.1228568E+00
          2   -1    0    0  501    0  0.00000000000E+00  0.00000000000E+00  0.39350663766E+03  0.39350663766E+03  0.00000000000E+00 0. -1.
         -2   -1    0    0    0  501 -0.00000000000E+00 -0.00000000000E+00 -0.48326499826E+02  0.48326499826E+02  0.00000000000E+00 0.  1.
         25    2    1    2    0    0  0.15023167870E+02 -0.84355993610E+02  0.21587477088E+03  0.26380020178E+03  0.12508797114E+03 0.  0.
          5    1    3    3  502    0 -0.17742165254E+02 -0.10295475045E+03  0.19306716914E+03  0.21956062777E+03  0.41800000000E+01 0.  1.
         -5    1    3    3    0  502  0.32765333124E+02  0.18598756843E+02  0.22807601748E+02  0.44239574007E+02  0.41800000000E+01 0.  1.
        -11    1    1    2    0    0 -0.36254643715E+02  0.84534637192E+01  0.70399773029E+02  0.79636601399E+02  0.00000000000E+00 0. -1.
         11    1    1    2    0    0  0.21231475844E+02  0.75902529890E+02  0.58905593920E+02  0.98396334309E+02  0.00000000000E+00 0.  1.
</event>
<event>
 7    1  0.2809171E-009  0.1187205E+03  0.7561462E-02  0.1245223E+00
          1   -1    0    0  501    0  0.00000000000E+00  0.00000000000E+00  0.79902411188E+02  0.79902411188E+02  0.00000000000E+00 0. -1.
         -1   -1    0    0    0  501 -0.00000000000E+00 -0.00000000000E+00 -0.22536237431E+03  0.22536237431E+03  0.00000000000E+00 0.  1.
         25    2    1    2    0    0  0.61862299082E+02  0.41448355856E+02 -0.50288376766E+02  0.15401748624E+03  0.12509018738E+03 0.  0.
          5    1    3    3  502    0  0.84502737909E+01 -0.37624845985E+02  0.11261459954E+02  0.40389714568E+02  0.41800000000E+01 0. -1.
         -5    1    3    3    0  502  0.53412025291E+02  0.79073201841E+02 -0.61549836720E+02  0.11362777167E+03  0.41800000000E+01 0. -1.
        -11    1    1    2    0    0 -0.37578131338E+02 -0.61213868587E+02 -0.96034088093E+02  0.11992414160E+03  0.00000000000E+00 0.  1.
         11    1    1    2    0    0 -0.24284167744E+02  0.19765512731E+02  0.86250173716E+00  0.31323157660E+02  0.00000000000E+00 0. -1.
</event>
<event>
 7    1  0.2723366E-009  0.1061072E+03  0.7561462E-02  0.1267953E+00
          2   -1    0    0  501    0  0.00000000000E+00  0.00000000000E+00  0.56608700906E+03  0.56608700906E+03  0.00000000000E+00 0. -1.
         -2   -1    0    0    0  501 -0.00000000000E+00 -0.00000000000E+00 -0.24560181017E+02  0.24560181017E+02  0.00000000000E+00 0.  1.
         25    2    1    2    0    0  0.22183181306E+02 -0.50868525404E+01  0.20263576283E+03  0.23922235623E+03  0.12509242079E+03 0.  0.
          5    1    3    3  502    0 -0.45219703801E+02  0.19458542350E+02  0.48852265060E+02  0.69480016435E+02  0.41800000000E+01 0. -1.
         -5    1    3    3    0  502  0.67402885107E+02 -0.24545394890E+02  0.15378349777E+03  0.16974233979E+03  0.41800000000E+01 0. -1.
        -11    1    1    2    0    0  0.27559465462E+02  0.25157126081E+02  0.17660323253E+03  0.18050237358E+03  0.00000000000E+00 0. -1.
         11    1    1    2    0    0 -0.49742646768E+02 -0.20070273540E+02  0.16228783268E+03  0.17092246027E+03  0.00000000000E+00 0.  1.
</event>
<event>
 7    1  0.2723366E-009  0.1975352E+03  0.7561462E-02  0.1151835E+00
         -2   -1    0    0    0  501 -0.00000000000E+00  0.00000000000E+00  0.79432937896E+02  0.79432937896E+02  0.00000000000E+00 0. -1.
          2   -1    0    0  501    0  0.00000000000E+00 -0.00000000000E+00 -0.53332273371E+03  0.53332273371E+03  0.00000000000E+00 0.  1.
         25    2    1    2    0    0  0.16717109819E+03  0.50576558438E+02 -0.16320581936E+03  0.26979220626E+03  0.12509009054E+03 0.  0.
          5    1    3    3  502    0  0.12392683068E+02  0.57257204667E+02 -0.57525092928E+02  0.82210551611E+02  0.41800000000E+01 0. -1.
         -5    1    3    3    0  502  0.15477841512E+03 -0.66806462289E+01 -0.10568072644E+03  0.18758165465E+03  0.41800000000E+01 0. -1.
        -11    1    1    2    0    0 -0.42652058604E+02  0.85741379962E+01 -0.82631255144E+02  0.93384357749E+02  0.00000000000E+00 0.  1.
         11    1    1    2    0    0 -0.12451903958E+03 -0.59150696434E+02 -0.20805272131E+03  0.24957910760E+03  0.00000000000E+00 0. -1.
</event>
<event>
 7    1  0.2723366E-009  0.1224805E+03  0.7561462E-02  0.1239060E+00
          2   -1    0    0  501    0  0.00000000000E+00  0.00000000000E+00  0.27674358078E+03  0.27674358078E+03  0.00000000000E+00 0. -1.
         -2   -1    0    0    0  501 -0.00000000000E+00 -0.00000000000E+00 -0.14040107381E+03  0.14040107381E+03  0.00000000000E+00 0.  1.
         25    2    1    2    0    0 -0.64379612276E+02 -0.39129232178E+02  0.22474212113E+03  0.26801633260E+03  0.12509157543E+03 0.  0.
          5    1    3    3  502    0 -0.91539309421E+02 -0.42572963020E+02  0.10743498994E+03  0.14748441210E+03  0.41800000000E+01 0. -1.
         -5    1    3    3    0  502  0.27159697145E+02  0.34437308419E+01  0.11730713119E+03  0.12053192049E+03  0.41800000000E+01 0. -1.
        -11    1    1    2    0    0  0.56020542051E+02  0.66880165373E+02 -0.81383657247E+02  0.11930866406E+03  0.00000000000E+00 0.  1.
         11    1    1    2    0    0  0.83590702253E+01 -0.27750933196E+02 -0.70159569151E+01  0.29819657941E+02  0.00000000000E+00 0. -1.
</event>
<event>
 7    1  0.2723366E-009  0.1424409E+03  0.7561462E-02  0.1210082E+00
         -2   -1    0    0    0  501 -0.00000000000E+00  0.00000000000E+00  0.15503037339E+03  0.15503037339E+03  0.00000000000E+00 0.  1.
          2   -1    0    0  501    0  0.00000000000E+00 -0.00000000000E+00 -0.13333805199E+03  0.13333805199E+03  0.00000000000E+00 0. -1.
         25    2    1    2    0    0  0.53419884749E+01  0.10330878727E+03  0.22479776483E+01  0.16233905118E+03  0.12509065419E+03 0.  0.
          5    1    3    3  502    0 -0.21567840124E+02  0.12535428036E+03  0.68029045215E+00  0.12726665913E+03  0.41800000000E+01 0.  1.
         -5    1    3    3    0  502  0.26909828599E+02 -0.22045493087E+02  0.15676871962E+01  0.35072392046E+02  0.41800000000E+01 0.  1.
        -11    1    1    2    0    0 -0.34495391732E+02 -0.71775870495E+02  0.19518144426E+01  0.79658754796E+02  0.00000000000E+00 0. -1.
         11    1    1    2    0    0  0.29153403257E+02 -0.31532916778E+02  0.17492529316E+02  0.46370619404E+02  0.00000000000E+00 0.  1.
</event>
<event>
 7    1  0.2773813E-009  0.2169482E+03  0.7561462E-02  0.1136179E+00
         -1   -1    0    0    0  501 -0.00000000000E+00  0.00000000000E+00  0.13922510067E+03  0.13922510067E+03  0.00000000000E+00 0.  1.
          1   -1    0    0  501    0  0.00000000000E+00 -0.00000000000E+00 -0.38013079291E+03  0.38013079291E+03  0.00000000000E+00 0. -1.
         25    2    1    2    0    0 -0.19857986175E+03 -0.39626168076E+02 -0.13601333950E+03  0.27413430904E+03  0.12508315706E+03 0.  0.
          5    1    3    3  502    0 -0.95116876264E+02  0.16337262766E+02 -0.31755933994E+01  0.96652382787E+02  0.41800000000E+01 0.  1.
         -5    1    3    3    0  502 -0.10346298549E+03 -0.55963430842E+02 -0.13283774610E+03  0.17748192625E+03  0.41800000000E+01 0.  1.
        -11    1    1    2    0    0  0.12158234235E+03 -0.18682066138E+02 -0.42072741281E+02  0.13000538883E+03  0.00000000000E+00 0. -1.
         11    1    1    2    0    0  0.76997519402E+02  0.58308234214E+02 -0.62819611457E+02  0.11521619571E+03  0.00000000000E+00 0.  1.
</event>
<event>
 7    1  0.2723366E-009  0.8674927E+02  0.7561462E-02  0.1310920E+00
         -2   -1    0    0    0  501 -0.00000000000E+00  0.00000000000E+00  0.39736174940E+02  0.39736174940E+02  0.00000000000E+00 0.  1.
          2   -1    0    0  501    0  0.00000000000E+00 -0.00000000000E+00 -0.79263722896E+03  0.79263722896E+03  0.00000000000E+00 0. -1.
         25    2    1    2    0    0 -0.20207519891E+02 -0.76928849514E+02 -0.66745508399E+03  0.68371813015E+03  0.12509116917E+03 0.  0.
          5    1    3    3  502    0 -0.32368508550E+02 -0.44072490671E+02 -0.62954568999E+03  0.63192986396E+03  0.41800000000E+01 0. -1.
         -5    1    3    3    0  502  0.12160988658E+02 -0.32856358843E+02 -0.37909393999E+02  0.51788266190E+02  0.41800000000E+01 0. -1.
        -11    1    1    2    0    0 -0.55280087368E+01  0.22475885590E+02  0.17750846676E+02  0.29168765338E+02  0.00000000000E+00 0.  1.
         11    1    1    2    0    0  0.25735528628E+02  0.54452963925E+02 -0.10319681670E+03  0.11948650841E+03  0.00000000000E+00 0. -1.
</event>
<event>
 7    1  0.2723366E-009  0.9159211E+02  0.7561462E-02  0.1299041E+00
         -1   -1    0    0    0  501 -0.00000000000E+00  0.00000000000E+00  0.15497849947E+03  0.15497849947E+03  0.00000000000E+00 0.  1.
          1   -1    0    0  501    0  0.00000000000E+00 -0.00000000000E+00 -0.85310962535E+02  0.85310962535E+02  0.00000000000E+00 0. -1.
         25    2    1    2    0    0  0.12603793607E+02  0.22606520438E+02  0.68496745709E+02  0.14494765793E+03  0.12509240180E+03 0.  0.
          5    1    3    3  502    0  0.56843594525E+01 -0.50611416367E+02  0.13026612464E+02  0.52735115827E+02  0.41800000000E+01 0. -1.
         -5    1    3    3    0  502  0.69194341542E+01  0.73217936804E+02  0.55470133246E+02  0.92212542104E+02  0.41800000000E+01 0. -1.
        -11    1    1    2    0    0  0.17535714412E+02 -0.22184348640E+02 -0.37085994128E+02  0.46637083581E+02  0.00000000000E+00 0. -1.
         11    1    1    2    0    0 -0.30139508018E+02 -0.42217179740E+00  0.38256785349E+02  0.48704720489E+02  0.00000000000E+00 0.  1.
</event>
<event>
 7    1  0.2723366E-009  0.8977609E+02  0.7561462E-02  0.1303395E+00
         -1   -1    0    0    0  501 -0.00000000000E+00  0.00000000000E+00  0.79750762321E+02  0.79750762321E+02  0.00000000000E+00 0.  1.
          1   -1    0    0  501    0  0.00000000000E+00 -0.00000000000E+00 -0.34157932786E+03  0.34157932786E+03  0.00000000000E+00 0. -1.
         25    2    1    2    0    0 -0.43733266835E+02 -0.28664174133E+02 -0.28524753599E+03  0.31582940034E+03  0.12509124599E+03 0.  0.
          5    1    3    3  502    0  0.37548970854E+02  0.68481678291E+01 -0.14363245285E+03  0.14867607920E+03  0.41800000000E+01 0. -1.
         -5    1    3    3    0  502 -0.81282237689E+02 -0.35512341962E+02 -0.14161508314E+03  0.16715332114E+03  0.41800000000E+01 0. -1.
        -11    1    1    2    0    0  0.19191293496E+02  0.11026994051E+02 -0.34025557832E+02  0.40591118852E+02  0.00000000000E+00 0. -1.
         11    1    1    2    0    0  0.24541973339E+02  0.17637180082E+02  0.57444528282E+02  0.64909570990E+02  0.00000000000E+00 0.  1.
</event>
<event>
 7    1  0.2723366E-009  0.1378281E+03  0.7561462E-02  0.1216282E+00
          1   -1    0    0  501    0  0.00000000000E+00  0.00000000000E+00  0.10252303023E+03  0.10252303023E+03  0.00000000000E+00 0. -1.
         -1   -1    0    0    0  501 -0.00000000000E+00 -0.00000000000E+00 -0.20957617933E+03  0.20957617933E+03  0.00000000000E+00 0.  1.
         25    2    1    2    0    0 -0.34705015858E+02  0.89687462832E+02 -0.81439052172E+02  0.17755868620E+03  0.12508592532E+03 0.  0.
          5    1    3    3  502    0 -0.61191215377E+02 -0.20928905706E+01 -0.40609729094E+02  0.73589180777E+02  0.41800000000E+01 0. -1.
         -5    1    3    3    0  502  0.26486199518E+02  0.91780353403E+02 -0.40829323078E+02  0.10396950543E+03  0.41800000000E+01 0. -1.
        -11    1    1    2    0    0  0.55334043784E+02 -0.75610713404E+02  0.64275690725E+01  0.93915653792E+02  0.00000000000E+00 0. -1.
         11    1    1    2    0    0 -0.20629027926E+02 -0.14076749428E+02 -0.32041666001E+02  0.40624869572E+02  0.00000000000E+00 0.  1.
</event>
<event>
 7    1  0.2723366E-009  0.1575122E+03  0.7561462E-02  0.1191534E+00
         -2   -1    0    0    0  501 -0.00000000000E+00  0.00000000000E+00  0.81958837303E+02  0.81958837303E+02  0.00000000000E+00 0.  1.
          2   -1    0    0  501    0  0.00000000000E+00 -0.00000000000E+00 -0.41178497787E+03  0.41178497787E+03  0.00000000000E+00 0. -1.
         25    2    1    2    0    0  0.26101306875E+02  0.14523775709E+03 -0.18507080013E+03  0.26772076329E+03  0.12509165333E+03 0.  0.
          5    1    3    3  502    0 -0.10209469693E+02  0.39756886887E+02 -0.14232149743E+03  0.14818139005E+03  0.41800000000E+01 0. -1.
         -5    1    3    3    0  502  0.36310776568E+02  0.10548087020E+03 -0.42749302694E+02  0.11953937324E+03  0.41800000000E+01 0. -1.
        -11    1    1    2    0    0  0.22976719711E+02 -0.47145636607E+02 -0.11971186979E+02  0.53795446066E+02  0.00000000000E+00 0.  1.
         11    1    1    2    0    0 -0.49078026586E+02 -0.98092120483E+02 -0.13278415346E+03  0.17222760581E+03  0.00000000000E+00 0. -1.
</event>
<event>
 7    1  0.2723366E-009  0.1008308E+03  0.7561462E-02  0.1278559E+00
          2   -1    0    0  501    0  0.00000000000E+00  0.00000000000E+00  0.48565645379E+02  0.48565645379E+02  0.00000000000E+00 0. -1.
         -2   -1    0    0    0  501 -0.00000000000E+00 -0.00000000000E+00 -0.24885902746E+03  0.24885902746E+03  0.00000000000E+00 0.  1.
         25    2    1    2    0    0 -0.16796932263E+02 -0.14176668131E+00 -0.13109195391E+03  0.18197368900E+03  0.12508863288E+03 0.  0.
          5    1    3    3  502    0  0.26790621280E+02  0.51576809729E+02 -0.55830420101E+02  0.80699522298E+02  0.41800000000E+01 0.  1.
         -5    1    3    3    0  502 -0.43587553542E+02 -0.51718576410E+02 -0.75261533806E+02  0.10127416670E+03  0.41800000000E+01 0.  1.
        -11    1    1    2    0    0  0.65986637801E+01 -0.36756740398E+02 -0.67487391647E+02  0.77130722541E+02  0.00000000000E+00 0.  1.
         11    1    1    2    0    0  0.10198268482E+02  0.36898507079E+02 -0.17140365218E+01  0.38320261297E+02  0.00000000000E+00 0. -1.
</event>
<event>
 7    1  0.2723366E-009  0.1634684E+03  0.7561462E-02  0.1184836E+00
         -1   -1    0    0    0  501 -0.00000000000E+00  0.00000000000E+00  0.21263408998E+03  0.21263408998E+03  0.00000000000E+00 0.  1.
          1   -1    0    0  501    0  0.00000000000E+00 -0.00000000000E+00 -0.14191663271E+03  0.14191663271E+03  0.00000000000E+00 0. -1.
         25    2    1    2    0    0  0.13084099026E+03 -0.33102364389E+02  0.28427562896E+02  0.18620112781E+03  0.12509037695E+03 0.  0.
          5    1    3    3  502    0 -0.18891647675E+01 -0.49493970012E+02  0.13887463745E+02  0.51609650845E+02  0.41800000000E+01 0.  1.
         -5    1    3    3    0  502  0.13273015503E+03  0.16391605623E+02  0.14540099151E+02  0.13459147697E+03  0.41800000000E+01 0.  1.
        -11    1    1    2    0    0 -0.60503990945E+02  0.40339356971E+02 -0.18574756774E+02  0.75053435833E+02  0.00000000000E+00 0. -1.
         11    1    1    2    0    0 -0.70336999318E+02 -0.72369925817E+01  0.60864651148E+02  0.93296159053E+02  0.00000000000E+00 0.  1.
</event>
<event>
 7    1  0.2723366E-009  0.9726458E+02  0.7561462E-02  0.1286156E+00
         -1   -1    0    0    0  501 -0.00000000000E+00  0.00000000000E+00  0.81540987582E+02  0.81540987582E+02  0.00000000000E+00 0.  1.
          1   -1    0    0  501    0  0.00000000000E+00 -0.00000000000E+00 -0.24778920879E+03  0.24778920879E+03  0.00000000000E+00 0. -1.
         25    2    1    2    0    0  0.36929806442E+02 -0.14461439358E+02  0.95300028304E+01  0.13157173071E+03  0.12508939018E+03 0.  0.
          5    1    3    3  502    0  0.39294327370E+02  0.45913262663E+02  0.30055186500E+02  0.67622913922E+02  0.41800000000E+01 0.  1.
         -5    1    3    3    0  502 -0.23645209278E+01 -0.60374702021E+02 -0.20525183669E+02  0.63948816784E+02  0.41800000000E+01 0.  1.
        -11    1    1    2    0    0 -0.26213084749E+02 -0.22721840217E+02 -0.14268300561E+03  0.14683953120E+03  0.00000000000E+00 0. -1.
         11    1    1    2    0    0 -0.10716721693E+02  0.37183279575E+02 -0.33095218433E+02  0.50918934464E+02  0.00000000000E+00 0.  1.
</event>
<event>
 7    1  0.2723366E-009  0.1049417E+03  0.7561462E-02  0.1270235E+00
          2   -1    0    0  501    0  0.00000000000E+00  0.00000000000E+00  0.15159676317E+03  0.15159676317E+03  0.00000000000E+00 0. -1.
         -2   -1    0    0    0  501 -0.00000000000E+00 -0.00000000000E+00 -0.88950325699E+02  0.88950325699E+02  0.00000000000E+00 0.  1.
         25    2    1    2    0    0 -0.31669092627E+02 -0.23359511499E+01  0.18413525673E+02  0.13036694194E+03  0.12509234000E+03 0.  0.
          5    1    3    3  502    0 -0.40072891283E+02 -0.48106183632E+02  0.44432519979E+02  0.76887988341E+02  0.41800000000E+01 0. -1.
         -5    1    3    3    0  502  0.84037986557E+01  0.45770232482E+02 -0.26018994306E+02  0.53478953599E+02  0.41800000000E+01 0. -1.
        -11    1    1    2    0    0  0.52940995643E+02  0.33521644536E+02  0.32858591863E+02  0.70754058055E+02  0.00000000000E+00 0.  1.
         11    1    1    2    0    0 -0.21271903016E+02 -0.31185693386E+02  0.11374319933E+02  0.39426088873E+02  0.00000000000E+00 0. -1.
</event>
<event>
 7    1  0.2723366E-009  0.1869996E+03  0.7561462E-02  0.1161196E+00
          2   -1    0    0  501    0  0.00000000000E+00  0.00000000000E+00  0.43115117196E+03  0.43115117196E+03  0.00000000000E+00 0. -1.
         -2   -1    0    0    0  501 -0.00000000000E+00 -0.00000000000E+00 -0.19313503728E+03  0.19313503728E+03  0.00000000000E+00 0.  1.
         25    2    1    2    0    0 -0.15191404331E+03  0.15333859319E+02  0.35813987772E+03  0.40893157397E+03  0.12509139211E+03 0.  0.
          5    1    3    3  502    0 -0.30234069118E+02 -0.50261820006E+02  0.97019417885E+02  0.11344861979E+03  0.41800000000E+01 0. -1.
         -5    1    3    3    0  502 -0.12167997420E+03  0.65595679325E+02  0.26112045984E+03  0.29548295418E+03  0.41800000000E+01 0. -1.
        -11    1    1    2    0    0  0.41015203348E+02 -0.46204563847E+02 -0.27610199990E+02  0.67671498945E+02  0.00000000000E+00 0. -1.
         11    1    1    2    0    0  0.11089883997E+03  0.30870704529E+02 -0.92513543058E+02  0.14768313632E+03  0.00000000000E+00 0.  1.
</event>
<event>
 7    1  0.2723366E-009  0.1225731E+03  0.7561462E-02  0.1238912E+00
          2   -1    0    0  501    0  0.00000000000E+00  0.00000000000E+00  0.57026380572E+03  0.57026380572E+03  0.00000000000E+00 0. -1.
         -2   -1    0    0    0  501 -0.00000000000E+00 -0.00000000000E+00 -0.47896479472E+02  0.47896479472E+02  0.00000000000E+00 0.  1.
         25    2    1    2    0    0 -0.16249788021E+02 -0.92761130406E+02  0.40926965117E+03  0.43819825628E+03  0.12508949399E+03 0.  0.
          5    1    3    3  502    0  0.43518596604E+02 -0.39055485955E+02  0.27892831511E+03  0.28502223879E+03  0.41800000000E+01 0.  1.
         -5    1    3    3    0  502 -0.59768384625E+02 -0.53705644451E+02  0.13034133607E+03  0.15317601749E+03  0.41800000000E+01 0.  1.
        -11    1    1    2    0    0 -0.95114623257E+01  0.72940228501E+02  0.12525662716E+03  0.14525827858E+03  0.00000000000E+00 0. -1.
         11    1    1    2    0    0  0.25761250347E+02  0.19820901905E+02 -0.12158952082E+02  0.34703750337E+02  0.00000000000E+00 0.  1.
</event>
<event>
 7    1  0.2723366E-009  0.1283557E+03  0.7561462E-02  0.1229916E+00
          2   -1    0    0  501    0  0.00000000000E+00  0.00000000000E+00  0.37547979460E+03  0.37547979460E+03  0.00000000000E+00 0.  1.
         -2   -1    0    0    0  501 -0.00000000000E+00 -0.00000000000E+00 -0.68549312805E+02  0.68549312805E+02  0.00000000000E+00 0. -1.
         25    2    1    2    0    0 -0.79699670706E+02 -0.71546553520E+02  0.17355817026E+03  0.23925013016E+03  0.12508892631E+03 0.  0.
          5    1    3    3  502    0 -0.83403898811E+02 -0.66693944686E+02  0.54508160119E+02  0.11997043183E+03  0.41800000000E+01 0. -1.
         -5    1    3    3    0  502  0.37042281043E+01 -0.48526088346E+01  0.11905001014E+03  0.11927969832E+03  0.41800000000E+01 0. -1.
        -11    1    1    2    0    0  0.87636763544E+02  0.19484776656E+02  0.12102401427E+03  0.15068732819E+03  0.00000000000E+00 0.  1.
         11    1    1    2    0    0 -0.79370928376E+01  0.52061776865E+02  0.12348297269E+02  0.54091649064E+02  0.00000000000E+00 0. -1.
</event>
<event>
 7    1  0.2723366E-009  0.1747245E+03  0.7561462E-02  0.1173009E+00
         -1   -1    0    0    0  501 -0.00000000000E+00  0.00000000000E+00  0.23975639177E+02  0.23975639177E+02  0.00000000000E+00 0.  1.
          1   -1    0    0  501    0  0.00000000000E+00 -0.00000000000E+00 -0.14357177973E+04  0.14357177973E+04  0.00000000000E+00 0. -1.
         25    2    1    2    0    0 -0.25150531575E+02  0.14502527932E+03 -0.84943004622E+03  0.87111638664E+03  0.12508986677E+03 0.  0.
          5    1    3    3  502    0 -0.23470032858E+02  0.16263208328E+03 -0.82157933536E+03  0.83786043805E+03  0.41800000000E+01 0.  1.
         -5    1    3    3    0  502 -0.16804987165E+01 -0.17606803953E+02 -0.27850710858E+02  0.33255948591E+02  0.41800000000E+01 0.  1.
        -11    1    1    2    0    0 -0.13152325848E+02 -0.12095230315E+03 -0.32577287350E+03  0.34775049737E+03  0.00000000000E+00 0.  1.
         11    1    1    2    0    0  0.38302857423E+02 -0.24072976170E+02 -0.23653923844E+03  0.24082655250E+03  0.00000000000E+00 0. -1.
</event>
<event>
 7    1  0.2723366E-009  0.8360726E+02  0.7561462E-02  0.1319115E+00
          1   -1    0    0  501    0  0.00000000000E+00  0.00000000000E+00  0.48835758846E+03  0.48835758846E+03  0.00000000000E+00 0. -1.
         -1   -1    0    0    0  501 -0.00000000000E+00 -0.00000000000E+00 -0.69165763235E+02  0.69165763235E+02  0.00000000000E+00 0.  1.
         25    2    1    2    0    0  0.89500830960E+01  0.25172789057E+02  0.44146879398E+03  0.45962561877E+03  0.12508892868E+03 0.  0.
          5    1    3    3  502    0  0.47122211837E+02  0.51173125672E+02  0.35221328367E+03  0.35904158705E+03  0.41800000000E+01 0.  1.
         -5    1    3    3    0  502 -0.38172128741E+02 -0.26000336615E+02  0.89255510309E+02  0.10058403172E+03  0.41800000000E+01 0.  1.
        -11    1    1    2    0    0  0.18315167458E+01  0.12157211453E+02  0.30197008326E+02  0.32603857989E+02  0.00000000000E+00 0. -1.
         11    1    1    2    0    0 -0.10781599842E+02 -0.37330000510E+02 -0.52473977080E+02  0.65293874933E+02  0.00000000000E+00 0.  1.
</event>
<event>
 7    1  0.2723366E-009  0.2202115E+03  0.7561462E-02  0.1133725E+00
          2   -1    0    0  501    0  0.00000000000E+00  0.00000000000E+00  0.45387657385E+03  0.45387657385E+03  0.00000000000E+00 0. -1.
         -2   -1    0    0    0  501 -0.00000000000E+00 -0.00000000000E+00 -0.15838400715E+03  0.15838400715E+03  0.00000000000E+00 0.  1.
         25    2    1    2    0    0 -0.83825746261E+02  0.18314706911E+03  0.31112897953E+03  0.39117610881E+03  0.12509157261E+03 0.  0.
          5    1    3    3  502    0 -0.10095597724E+03  0.17254302299E+03  0.31200955509E+03  0.37058148765E+03  0.41800000000E+01 0.  1.
         -5    1    3    3    0  502  0.17130230975E+02  0.10604046125E+02 -0.88057555711E+00  0.20594621161E+02  0.41800000000E+01 0.  1.
        -11    1    1    2    0    0  0.11268484701E+01 -0.10845049189E+03 -0.16096800895E+02  0.10964436136E+03  0.00000000000E+00 0. -1.
         11    1    1    2    0    0  0.82698897791E+02 -0.74696577223E+02  0.46038807243E+00  0.11144011083E+03  0.00000000000E+00 0.  1.
</event>
<event>
 7    1  0.2723366E-009  0.1052835E+03  0.7561462E-02  0.1269562E+00
         -2   -1    0    0    0  501 -0.00000000000E+00  0.00000000000E+00  0.20483064877E+02  0.20483064877E+02  0.00000000000E+00 0.  1.
          2   -1    0    0  501    0  0.00000000000E+00 -0.00000000000E+00 -0.95961959237E+03  0.95961959237E+03  0.00000000000E+00 0. -1.
         25    2    1    2    0    0 -0.76984893285E+02  0.43026516527E+02 -0.48502486229E+03  0.50860025577E+03  0.12508856149E+03 0.  0.
          5    1    3    3  502    0 -0.39731904413E+02  0.93322909782E+01 -0.43719125587E+03  0.43911203865E+03  0.41800000000E+01 0.  1.
         -5    1    3    3    0  502 -0.37252988873E+02  0.33694225549E+02 -0.47833606421E+02  0.69488217120E+02  0.41800000000E+01 0.  1.
        -11    1    1    2    0    0 -0.11783631995E+02  0.10241188471E+02 -0.20867383133E+02  0.26061151224E+02  0.00000000000E+00 0. -1.
         11    1    1    2    0    0  0.88768525281E+02 -0.53267704997E+02 -0.43324428207E+03  0.44544125025E+03  0.00000000000E+00 0.  1.
</event>
<event>
 7    1  0.3187886E-009  0.1811390E+03  0.7561462E-02  0.1166705E+00
          2   -1    0    0  501    0  0.00000000000E+00  0.00000000000E+00  0.81267420451E+03  0.81267420451E+03  0.00000000000E+00 0. -1.
         -2   -1    0    0    0  501 -0.00000000000E+00 -0.00000000000E+00 -0.47134856289E+02  0.47134856289E+02  0.00000000000E+00 0.  1.
         25    2    1    2    0    0 -0.82707762492E+02  0.13908336751E+03  0.42701281925E+03  0.47346768166E+03  0.12508773192E+03 0.  0.
          5    1    3    3  502    0 -0.15849567177E+02  0.12748459328E+03  0.33689421170E+03  0.36058107629E+03  0.41800000000E+01 0. -1.
         -5    1    3    3    0  502 -0.66858195315E+02  0.11598774233E+02  0.90118607552E+02  0.11288660537E+03  0.41800000000E+01 0. -1.
        -11    1    1    2    0    0  0.43308151183E+02 -0.39312478682E+02  0.44906347988E+02  0.73740402960E+02  0.00000000000E+00 0.  1.
         11    1    1    2    0    0  0.39399611309E+02 -0.99770888828E+02  0.29362018099E+03  0.31260097618E+03  0.00000000000E+00 0. -1.
</event>
<event>
 7    1  0.2723366E-009  0.1695833E+03  0.7561462E-02  0.1178283E+00
          1   -1    0    0  501    0  0.00000000000E+00  0.00000000000E+00  0.70459792284E+03  0.70459792284E+03  0.00000000000E+00 0. -1.
         -1   -1    0    0    0  501 -0.00000000000E+00 -0.00000000000E+00 -0.53094414459E+02  0.53094414459E+02  0.00000000000E+00 0.  1.
         25    2    1    2    0    0  0.80962061112E+02 -0.11591160465E+03  0.19678396399E+03  0.27269109469E+03  0.12508456823E+03 0.  0.
          5    1    3    3  502    0  0.47093318335E+02  0.92704450791E+01  0.99399717311E+02  0.11046039102E+03  0.41800000000E+01 0. -1.
         -5    1    3    3    0  502  0.33868742777E+02 -0.12518204973E+03  0.97384246679E+02  0.16223070367E+03  0.41800000000E+01 0. -1.
        -11    1    1    2    0    0 -0.90279611265E+02  0.69588599799E+02  0.37879979054E+03  0.39557839013E+03  0.00000000000E+00 0. -1.
         11    1    1    2    0    0  0.93175501527E+01  0.46323004848E+02  0.75919753851E+02  0.89422852469E+02  0.00000000000E+00 0.  1.
</event>
<event>
 7    1  0.2723366E-009  0.1582791E+03  0.7561462E-02  0.1190653E+00
         -1   -1    0    0    0  501 -0.00000000000E+00  0.00000000000E+00  0.48587781891E+02  0.48587781891E+02  0.00000000000E+00 0.  1.
          1   -1    0    0  501    0  0.00000000000E+00 -0.00000000000E+00 -0.56536969808E+03  0.56536969808E+03  0.00000000000E+00 0. -1.
         25    2    1    2    0    0  0.11918536973E+03 -0.32484522734E+02 -0.22275714073E+03  0.28377488867E+03  0.12508815738E+03 0.  0.
          5    1    3    3  502    0  0.13770932103E+03 -0.47366207873E+02 -0.15923592717E+03  0.21582624411E+03  0.41800000000E+01 0. -1.
         -5    1    3    3    0  502 -0.18523951298E+02  0.14881685138E+02 -0.63521213564E+02  0.67948644556E+02  0.41800000000E+01 0. -1.
        -11    1    1    2    0    0 -0.99308984617E+01 -0.22382578763E+02 -0.26703667360E+02  0.36231042309E+02  0.00000000000E+00 0.  1.
         11    1    1    2    0    0 -0.10925447127E+03  0.54867101498E+02 -0.26732110810E+03  0.29395154899E+03  0.00000000000E+00 0. -1.
</event>
<event>
 7    1  0.2723366E-009  0.1048674E+03  0.7561462E-02  0.1270381E+00
          3   -1    0    0  501    0  0.00000000000E+00  0.00000000000E+00  0.14046127232E+03  0.14046127232E+03  0.00000000000E+00 0. -1.
         -3   -1    0    0    0  501 -0.00000000000E+00 -0.00000000000E+00 -0.94135779733E+02  0.94135779733E+02  0.00000000000E+00 0.  1.
         25    2    1    2    0    0 -0.30561241865E+02  0.13637355234E+00  0.83999918448E+00  0.12876902324E+03  0.12508696034E+03 0.  0.
          5    1    3    3  502    0  0.15870630654E+02  0.50709734954E+02 -0.19953663169E+02  0.56911995311E+02  0.41800000000E+01 0.  1.
         -5    1    3    3    0  502 -0.46431872519E+02 -0.50573361402E+02  0.20793662354E+02  0.71857027931E+02  0.41800000000E+01 0.  1.
        -11    1    1    2    0    0  0.51380751304E+02 -0.23378550320E+02  0.48575189501E+02  0.74472056871E+02  0.00000000000E+00 0. -1.
         11    1    1    2    0    0 -0.20819509439E+02  0.23242176768E+02 -0.30896961001E+01  0.31355971938E+02  0.00000000000E+00 0.  1.
</event>
<event>
 7    1  0.2723366E-009  0.1126970E+03  0.7561462E-02  0.1255655E+00
          2   -1    0    0  501    0  0.00000000000E+00  0.00000000000E+00  0.24651125818E+03  0.24651125818E+03  0.00000000000E+00 0. -1.
         -2   -1    0    0    0  501 -0.00000000000E+00 -0.00000000000E+00 -0.57555295043E+02  0.57555295043E+02  0.00000000000E+00 0.  1.
         25    2    1    2    0    0 -0.44437917455E+02 -0.27467532294E+02  0.96833337899E+02  0.16660210421E+03  0.12510144667E+03 0.  0.
          5    1    3    3  502    0 -0.70926424358E+02 -0.57017214941E+02  0.46228136495E+02  0.10215690616E+03  0.41800000000E+01 0.  1.
         -5    1    3    3    0  502  0.26488506903E+02  0.29549682646E+02  0.50605201404E+02  0.64445198049E+02  0.41800000000E+01 0.  1.
        -11    1    1    2    0    0 -0.22861426400E+01  0.44575377201E+02  0.17862611164E+02  0.48075602736E+02  0.00000000000E+00 0.  1.
         11    1    1    2    0    0  0.46724060095E+02 -0.17107844907E+02  0.74260014076E+02  0.89388846282E+02  0.00000000000E+00 0. -1.
</event>
<event>
 7    1  0.2723366E-009  0.1254267E+03  0.7561462E-02  0.1234404E+00
         -2   -1    0    0    0  501 -0.00000000000E+00  0.00000000000E+00  0.14115776480E+03  0.14115776480E+03  0.00000000000E+00 0.  1.
          2   -1    0    0  501    0  0.00000000000E+00 -0.00000000000E+00 -0.15796852098E+03  0.15796852098E+03  0.00000000000E+00 0. -1.
         25    2    1    2    0    0  0.75235848952E+01 -0.88848670848E+02  0.39835283875E+02  0.15869710538E+03  0.12508889148E+03 0.  0.
          5    1    3    3  502    0 -0.72199135857E+01  0.28191415890E+02  0.27079724346E+02  0.39970826270E+02  0.41800000000E+01 0. -1.
         -5    1    3    3    0  502  0.14743498481E+02 -0.11704008674E+03  0.12755559530E+02  0.11872627911E+03  0.41800000000E+01 0. -1.
        -11    1    1    2    0    0  0.20386005017E+02  0.59583122396E+02 -0.73350317521E+02  0.96674747248E+02  0.00000000000E+00 0. -1.
         11    1    1    2    0    0 -0.27909589912E+02  0.29265548452E+02  0.16704277460E+02  0.43754433155E+02  0.00000000000E+00 0.  1.
</event>
<event>
 7    1  0.2723366E-009  0.1061323E+03  0.7561462E-02  0.1267905E+00
          2   -1    0    0  501    0  0.00000000000E+00  0.00000000000E+00  0.30058016161E+03  0.30058016161E+03  0.00000000000E+00 0. -1.
         -2   -1    0    0    0  501 -0.00000000000E+00 -0.00000000000E+00 -0.46929707207E+02  0.46929707207E+02  0.00000000000E+00 0.  1.
         25    2    1    2    0    0  0.35054261577E+02  0.20568065627E+02  0.11858904214E+03  0.17709514118E+03  0.12508989383E+03 0.  0.
          5    1    3    3  502    0 -0.29091771163E+02 -0.34702648102E+02  0.30014222180E+02  0.54487896525E+02  0.41800000000E+01 0. -1.
         -5    1    3    3    0  502  0.64146032740E+02  0.55270713729E+02  0.88574819957E+02  0.12260724466E+03  0.41800000000E+01 0. -1.
        -11    1    1    2    0    0 -0.35398078649E+02 -0.45181237111E+02  0.13400139423E+03  0.14577634175E+03  0.00000000000E+00 0. -1.
         11    1    1    2    0    0  0.34381707260E+00  0.24613171484E+02  0.10600180386E+01  0.24638385883E+02  0.00000000000E+00 0.  1.
</event>
<event>
 7    1  0.2723366E-009  0.9443467E+02  0.7561462E-02  0.1292454E+00
          2   -1    0    0  501    0  0.00000000000E+00  0.00000000000E+00  0.56705201965E+03  0.56705201965E+03  0.00000000000E+00 0. -1.
         -2   -1    0    0    0  501 -0.00000000000E+00 -0.00000000000E+00 -0.22349653361E+02  0.22349653361E+02  0.00000000000E+00 0.  1.
         25    2    1    2    0    0  0.31206809669E+02 -0.69556157403E+01  0.34268520594E+03  0.36620021544E+03  0.12508877589E+03 0.  0.
          5    1    3    3  502    0  0.71839269071E+02  0.14546684102E+01  0.12233049528E+03  0.14193385472E+03  0.41800000000E+01 0.  1.
         -5    1    3    3    0  502 -0.40632459402E+02 -0.84102841505E+01  0.22035471066E+03  0.22426636071E+03  0.41800000000E+01 0.  1.
        -11    1    1    2    0    0  0.18446274274E+02  0.16358073871E+02  0.14470911227E+03  0.14679434182E+03  0.00000000000E+00 0. -1.
         11    1    1    2    0    0 -0.49653083944E+02 -0.94024581302E+01  0.57308048067E+02  0.76407115750E+02  0.00000000000E+00 0.  1.
</event>
<event>
 7    1  0.2723366E-009  0.1037766E+03  0.7561462E-02  0.1272549E+00
         -1   -1    0    0    0  501 -0.00000000000E+00  0.00000000000E+00  0.56114945923E+03  0.56114945923E+03  0.00000000000E+00 0.  1.
          1   -1    0    0  501    0  0.00000000000E+00 -0.00000000000E+00 -0.23718701822E+02  0.23718701822E+02  0.00000000000E+00 0. -1.
         25    2    1    2    0    0  0.87089195059E+01  0.23371004990E+02  0.38110897203E+03  0.40188887501E+03  0.12509424502E+03 0.  0.
          5    1    3    3  502    0 -0.54872042324E+02  0.69597105232E+01  0.11377176543E+03  0.12657355809E+03  0.41800000000E+01 0.  1.
         -5    1    3    3    0  502  0.63580961830E+02  0.16411294467E+02  0.26733720660E+03  0.27531531692E+03  0.41800000000E+01 0.  1.
        -11    1    1    2    0    0  0.36301779269E+02 -0.19242888092E+02  0.36655246271E+02  0.55061011609E+02  0.00000000000E+00 0. -1.
         11    1    1    2    0    0 -0.45010698775E+02 -0.41281168986E+01  0.11966653910E+03  0.12791827443E+03  0.00000000000E+00 0.  1.
</event>
<event>
 7    1  0.2723366E-009  0.1701124E+03  0.7561462E-02  0.1177731E+00
         -1   -1    0    0    0  501 -0.00000000000E+00  0.00000000000E+00  0.26407250736E+02  0.26407250736E+02  0.00000000000E+00 0.  1.
          1   -1    0    0  501    0  0.00000000000E+00 -0.00000000000E+00 -0.22403802877E+04  0.22403802877E+04  0.00000000000E+00 0. -1.
         25    2    1    2    0    0  0.13513834310E+03 -0.26508616800E+02 -0.19267213400E+04  0.19356826773E+04  0.12508887437E+03 0.  0.
          5    1    3    3  502    0  0.79069279621E+02  0.45450124164E+02 -0.77832973514E+03  0.78366594526E+03  0.41800000000E+01 0. -1.
         -5    1    3    3    0  502  0.56069063482E+02 -0.71958740965E+02 -0.11483916049E+04  0.11520167320E+04  0.41800000000E+01 0. -1.
        -11    1    1    2    0    0 -0.42169446853E+02 -0.27257287913E+02 -0.50906184083E+02  0.71502878055E+02  0.00000000000E+00 0.  1.
         11    1    1    2    0    0 -0.92968896250E+02  0.53765904714E+02 -0.23634551284E+03  0.25960198308E+03  0.00000000000E+00 0. -1.
</event>
<event>
 7    1  0.2723366E-009  0.1889290E+03  0.7561462E-02  0.1159431E+00
         -1   -1    0    0    0  501 -0.00000000000E+00  0.00000000000E+00  0.35938617674E+03  0.35938617674E+03  0.00000000000E+00 0.  1.
          1   -1    0    0  501    0  0.00000000000E+00 -0.00000000000E+00 -0.11000440569E+03  0.11000440569E+03  0.00000000000E+00 0. -1.
         25    2    1    2    0    0  0.14825836361E+03  0.52412706694E+02  0.19508451612E+03  0.28006560854E+03  0.12510452610E+03 0.  0.
          5    1    3    3  502    0 -0.13087152672E+02  0.34781203377E+02  0.49151452340E+02  0.61760370307E+02  0.41800000000E+01 0.  1.
         -5    1    3    3    0  502  0.16134551628E+03  0.17631503318E+02  0.14593306378E+03  0.21830523823E+03  0.41800000000E+01 0.  1.
        -11    1    1    2    0    0 -0.10645394468E+03 -0.75345964489E+02  0.55233668174E+02  0.14163408772E+03  0.00000000000E+00 0. -1.
         11    1    1    2    0    0 -0.41804418930E+02  0.22933257794E+02 -0.93641324628E+00  0.47690886183E+02  0.00000000000E+00 0.  1.
</event>
<event>
 7    1  0.2723366E-009  0.1838617E+03  0.7561462E-02  0.1164117E+00
          3   -1    0    0  501    0  0.00000000000E+00  0.00000000000E+00  0.62169985449E+02  0.62169985449E+02  0.00000000000E+00 0. -1.
         -3   -1    0    0    0  501 -0.00000000000E+00 -0.00000000000E+00 -0.87931664467E+03  0.87931664467E+03  0.00000000000E+00 0.  1.
         25    2    1    2    0    0  0.91122006447E+02  0.14325451401E+03 -0.18373689598E+03  0.27970080016E+03  0.12509282484E+03 0.  0.
          5    1    3    3  502    0  0.40726732385E+02  0.16712874849E+02  0.75269467545E+01  0.44856596437E+02  0.41800000000E+01 0. -1.
         -5    1    3    3    0  502  0.50395274063E+02  0.12654163916E+03 -0.19126384273E+03  0.23484420373E+03  0.41800000000E+01 0. -1.
        -11    1    1    2    0    0 -0.75677644928E+02 -0.45581543154E+02 -0.37069242624E+03  0.38107434693E+03  0.00000000000E+00 0.  1.
         11    1    1    2    0    0 -0.15444361520E+02 -0.97672970852E+02 -0.26271733701E+03  0.28071148303E+03  0.00000000000E+00 0. -1.
</event>
<event>
 7    1  0.2723366E-009  0.9601801E+02  0.7561462E-02  0.1288900E+00
          2   -1    0    0  501    0  0.00000000000E+00  0.00000000000E+00  0.15465351431E+03  0.15465351431E+03  0.00000000000E+00 0. -1.
         -2   -1    0    0    0  501 -0.00000000000E+00 -0.00000000000E+00 -0.11414314103E+03  0.11414314103E+03  0.00000000000E+00 0.  1.
         25    2    1    2    0    0 -0.26742847290E+02 -0.30047108147E+02  0.89275879539E+02  0.15886218146E+03  0.12509596892E+03 0.  0.
          5    1    3    3  502    0  0.21428661019E+02  0.17746457114E+02  0.86343935995E+02  0.90812289566E+02  0.41800000000E+01 0. -1.
         -5    1    3    3    0  502 -0.48171508310E+02 -0.47793565261E+02  0.29319435436E+01  0.68049891889E+02  0.41800000000E+01 0. -1.
        -11    1    1    2    0    0 -0.28357325657E+02 -0.73832369841E+01 -0.37565958807E+01  0.29542547611E+02  0.00000000000E+00 0. -1.
         11    1    1    2    0    0  0.55100172947E+02  0.37430345131E+02 -0.45008910381E+02  0.80391926268E+02  0.00000000000E+00 0.  1.
</event>
<event>
 7    1  0.2723366E-009  0.1083287E+03  0.7561462E-02  0.1263697E+00
         -2   -1    0    0    0  501 -0.00000000000E+00  0.00000000000E+00  0.19347754464E+02  0.19347754464E+02  0.00000000000E+00 0.  1.
          2   -1    0    0  501    0  0.00000000000E+00 -0.00000000000E+00 -0.74332555314E+03  0.74332555314E+03  0.00000000000E+00 0. -1.
         25    2    1    2    0    0 -0.98355736087E+01  0.18867430390E+02 -0.55455916760E+03  0.56888957435E+03  0.12508700573E+03 0.  0.
          5    1    3    3  502    0 -0.58620377628E+02 -0.18792585488E+02 -0.21161328412E+03  0.22042496310E+03  0.41800000000E+01 0. -1.
         -5    1    3    3    0  502  0.48784804019E+02  0.37660015877E+02 -0.34294588348E+03  0.34846461125E+03  0.41800000000E+01 0. -1.
        -11    1    1    2    0    0  0.20770429189E+02 -0.53222515874E+02 -0.11644358599E+03  0.12970410804E+03  0.00000000000E+00 0. -1.
         11    1    1    2    0    0 -0.10934855580E+02  0.34355085484E+02 -0.52975045099E+02  0.64079625221E+02  0.00000000000E+00 0.  1.
</event>
<event>
 7    1  0.2723366E-009  0.1123817E+03  0.7561462E-02  0.1256222E+00
         -4   -1    0    0    0  501 -0.00000000000E+00  0.00000000000E+00  0.47780305762E+02  0.47780305762E+02  0.00000000000E+00 0.  1.
          4   -1    0    0  501    0  0.00000000000E+00 -0.00000000000E+00 -0.30658047148E+03  0.30658047148E+03  0.00000000000E+00 0. -1.
         25    2    1    2    0    0  0.52369493856E+02 -0.45769352362E+02 -0.15186102085E+03  0.20867778541E+03  0.12508897222E+03 0.  0.
          5    1    3    3  502    0  0.87769143935E+02 -0.55751011163E+02 -0.12651892240E+03  0.16381730067E+03  0.41800000000E+01 0. -1.
         -5    1    3    3    0  502 -0.35399650079E+02  0.99816588006E+01 -0.25342098442E+02  0.44860484745E+02  0.41800000000E+01 0. -1.
        -11    1    1    2    0    0 -0.16038390231E+02  0.44531391600E+02 -0.19876172133E+02  0.51335533676E+02  0.00000000000E+00 0.  1.
         11    1    1    2    0    0 -0.36331103625E+02  0.12379607618E+01 -0.87062972737E+02  0.94347458150E+02  0.00000000000E+00 0. -1.
</event>
<event>
 7    1  0.2723366E-009  0.1872088E+03  0.7561462E-02  0.1161003E+00
         -1   -1    0    0    0  501 -0.00000000000E+00  0.00000000000E+00  0.83801600952E+02  0.83801600952E+02  0.00000000000E+00 0.  1.
          1   -1    0    0  501    0  0.00000000000E+00 -0.00000000000E+00 -0.56270690248E+03  0.56270690248E+03  0.00000000000E+00 0. -1.
         25    2    1    2    0    0 -0.46472998458E+02  0.15666832031E+03 -0.38294993630E+03  0.43474290742E+03  0.12508413036E+03 0.  0.
          5    1    3    3  502    0 -0.88906386399E+02  0.11951785895E+03 -0.28643629108E+03  0.32288091520E+03  0.41800000000E+01 0. -1.
         -5    1    3    3    0  502  0.42433387941E+02  0.37150461360E+02 -0.96513645215E+02  0.11186199222E+03  0.41800000000E+01 0. -1.
        -11    1    1    2    0    0  0.45617390711E+02 -0.79381141343E+02 -0.40012921035E+01  0.91642360700E+02  0.00000000000E+00 0.  1.
         11    1    1    2    0    0  0.85560774670E+00 -0.77287178965E+02 -0.91954073127E+02  0.12012323531E+03  0.00000000000E+00 0. -1.
</event>
<event>
 7    1  0.2723366E-009  0.8502553E+02  0.7561462E-02  0.1315366E+00
          3   -1    0    0  501    0  0.00000000000E+00  0.00000000000E+00  0.44243113204E+02  0.44243113204E+02  0.00000000000E+00 0. -1.
         -3   -1    0    0    0  501 -0.00000000000E+00 -0.00000000000E+00 -0.42581888737E+03  0.42581888737E+03  0.00000000000E+00 0.  1.
         25    2    1    2    0    0 -0.57287614962E+02 -0.11378327234E+02 -0.34891609929E+03  0.37523487991E+03  0.12508970221E+03 0.  0.
          5    1    3    3  502    0 -0.13033771275E+02 -0.32306012868E+02 -0.15738430197E+02  0.38454235737E+02  0.41800000000E+01 0. -1.
         -5    1    3    3    0  502 -0.44253843687E+02  0.20927685633E+02 -0.33317766909E+03  0.33678064417E+03  0.41800000000E+01 0. -1.
        -11    1    1    2    0    0 -0.13206717167E+02 -0.37623905057E+01 -0.15506410134E+02  0.20712839397E+02  0.00000000000E+00 0.  1.
         11    1    1    2    0    0  0.70494332129E+02  0.15140717740E+02 -0.17153264738E+02  0.74114281263E+02  0.00000000000E+00 0. -1.
</event>
<event>
 7    1  0.2723366E-009  0.9458711E+02  0.7561462E-02  0.1292109E+00
         -3   -1    0    0    0  501 -0.00000000000E+00  0.00000000000E+00  0.48404697056E+03  0.48404697056E+03  0.00000000000E+00 0.  1.
          3   -1    0    0  501    0  0.00000000000E+00 -0.00000000000E+00 -0.30508139198E+02  0.30508139198E+02  0.00000000000E+00 0. -1.
         25    2    1    2    0    0 -0.12618173444E+02 -0.12078861893E+02  0.38130959902E+03  0.40168400147E+03  0.12509160455E+03 0.  0.
          5    1    3    3  502    0 -0.20928254999E+02 -0.67144097852E+02  0.21459746485E+03  0.22586692111E+03  0.41800000000E+01 0. -1.
         -5    1    3    3    0  502  0.83100815553E+01  0.55065235959E+02  0.16671213417E+03  0.17581708036E+03  0.41800000000E+01 0. -1.
        -11    1    1    2    0    0  0.30812775666E+01  0.36514276987E+02  0.77851821973E+02  0.86044714422E+02  0.00000000000E+00 0.  1.
         11    1    1    2    0    0  0.95368958769E+01 -0.24435415094E+02 -0.56225896274E+01  0.26826393867E+02  0.00000000000E+00 0. -1.
</event>
<event>
 7    1  0.2723366E-009  0.1076840E+03  0.7561462E-02  0.1264920E+00
          2   -1    0    0  501    0  0.00000000000E+00  0.00000000000E+00  0.66517641011E+03  0.66517641011E+03  0.00000000000E+00 0. -1.
         -2   -1    0    0    0  501 -0.00000000000E+00 -0.00000000000E+00 -0.21822693910E+02  0.21822693910E+02  0.00000000000E+00 0.  1.
         25    2    1    2    0    0 -0.32737588810E+01  0.43049014435E+02  0.42048601581E+03  0.44081764439E+03  0.12509105070E+03 0.  0.
          5    1    3    3  502    0 -0.87526520322E-01 -0.42481970615E+02  0.93396160031E+02  0.10268904809E+03  0.41800000000E+01 0.  1.
         -5    1    3    3    0  502 -0.31862323606E+01  0.85530985050E+02  0.32708985578E+03  0.33812859630E+03  0.41800000000E+01 0.  1.
        -11    1    1    2    0    0 -0.22071457574E+02 -0.54780619772E+02  0.20424712388E+03  0.21261456477E+03  0.00000000000E+00 0. -1.
         11    1    1    2    0    0  0.25345216455E+02  0.11731605336E+02  0.18620576507E+02  0.33566894857E+02  0.00000000000E+00 0.  1.
</event>
<event>
 7    1  0.2723366E-009  0.1518899E+03  0.7561462E-02  0.1198170E+00
          1   -1    0    0  501    0  0.00000000000E+00  0.00000000000E+00  0.10011860567E+03  0.10011860567E+03  0.00000000000E+00 0. -1.
         -1   -1    0    0    0  501 -0.00000000000E+00 -0.00000000000E+00 -0.42281818573E+03  0.42281818573E+03  0.00000000000E+00 0.  1.
         25    2    1    2    0    0 -0.23035072363E+02  0.12071828596E+03 -0.13433097604E+02  0.17587422200E+03  0.12509106575E+03 0.  0.
          5    1    3    3  502    0 -0.41962757553E+02  0.12458301733E+03  0.23854086580E+02  0.13367232726E+03  0.41800000000E+01 0.  1.
         -5    1    3    3    0  502  0.18927685190E+02 -0.38647313751E+01 -0.37287184183E+02  0.42201894739E+02  0.41800000000E+01 0.  1.
        -11    1    1    2    0    0  0.20093598253E+02  0.95071481734E+01 -0.20339777140E+02  0.30130467823E+02  0.00000000000E+00 0. -1.
         11    1    1    2    0    0  0.29414741102E+01 -0.13022543413E+03 -0.28892670531E+03  0.31693210157E+03  0.00000000000E+00 0.  1.
</event>
<event>
 7    1  0.2723366E-009  0.1352882E+03  0.7561462E-02  0.1219813E+00
          3   -1    0    0  501    0  0.00000000000E+00  0.00000000000E+00  0.14687602171E+03  0.14687602171E+03  0.00000000000E+00 0. -1.
         -3   -1    0    0    0  501 -0.00000000000E+00 -0.00000000000E+00 -0.17612324616E+03  0.17612324616E+03  0.00000000000E+00 0.  1.
         25    2    1    2    0    0 -0.11114720875E+03 -0.21433587712E+01  0.22916128991E+02  0.16890930320E+03  0.12508760027E+03 0.  0.
          5    1    3    3  502    0 -0.47971398171E+01  0.20070621173E+02 -0.38613345304E+02  0.43980736923E+02  0.41800000000E+01 0. -1.
         -5    1    3    3    0  502 -0.10635006893E+03 -0.22213979944E+02  0.61529474295E+02  0.12492856628E+03  0.41800000000E+01 0. -1.
        -11    1    1    2    0    0  0.12588646071E+03 -0.10152913284E+00 -0.57309328243E+02  0.13831764313E+03  0.00000000000E+00 0.  1.
         11    1    1    2    0    0 -0.14739251964E+02  0.22448879040E+01  0.51459748024E+01  0.15772321542E+02  0.00000000000E+00 0. -1.
</event>
<event>
 7    1  0.2723366E-009  0.1738271E+03  0.7561462E-02  0.1173915E+00
          1   -1    0    0  501    0  0.00000000000E+00  0.00000000000E+00  0.13250322990E+04  0.13250322990E+04  0.00000000000E+00 0. -1.
         -1   -1    0    0    0  501 -0.00000000000E+00 -0.00000000000E+00 -0.26909943983E+02  0.26909943983E+02  0.00000000000E+00 0.  1.
         25    2    1    2    0    0 -0.46101260178E+02 -0.14117102799E+03  0.52827214215E+03  0.56282800386E+03  0.12509724385E+03 0.  0.
          5    1    3    3  502    0  0.27852504751E+02 -0.47757816523E+02  0.30223758641E+03  0.30728098233E+03  0.41800000000E+01 0.  1.
         -5    1    3    3    0  502 -0.73953764929E+02 -0.93413211471E+02  0.22603455574E+03  0.25554702153E+03  0.41800000000E+01 0.  1.
        -11    1    1    2    0    0 -0.27343139846E+01  0.11955711692E+03  0.55326393080E+03  0.56604095064E+03  0.00000000000E+00 0.  1.
         11    1    1    2    0    0  0.48835574162E+02  0.21613911077E+02  0.21658628202E+03  0.22307328844E+03  0.00000000000E+00 0. -1.
</event>
<event>
 7    1  0.2723366E-009  0.1164728E+03  0.7561462E-02  0.1249032E+00
         -1   -1    0    0    0  501 -0.00000000000E+00  0.00000000000E+00  0.86439935795E+02  0.86439935795E+02  0.00000000000E+00 0.  1.
          1   -1    0    0  501    0  0.00000000000E+00 -0.00000000000E+00 -0.24150722807E+03  0.24150722807E+03  0.00000000000E+00 0. -1.
         25    2    1    2    0    0 -0.84154442833E+02 -0.57396173260E+01 -0.12829629173E+03  0.19804950232E+03  0.12509497769E+03 0.  0.
          5    1    3    3  502    0 -0.68936067915E+02  0.52657542072E+02 -0.96078572136E+02  0.12951278941E+03  0.41800000000E+01 0. -1.
         -5    1    3    3    0  502 -0.15218374918E+02 -0.58397159398E+02 -0.32217719590E+02  0.68536712910E+02  0.41800000000E+01 0. -1.
        -11    1    1    2    0    0  0.21118387468E+02 -0.48973723844E+01 -0.55669786390E+02  0.59741908760E+02  0.00000000000E+00 0. -1.
         11    1    1    2    0    0  0.63036055365E+02  0.10636989710E+02  0.28898785841E+02  0.70155752788E+02  0.00000000000E+00 0.  1.
</event>
<event>
 7    1  0.2723366E-009  0.1139196E+03  0.7561462E-02  0.1253479E+00
          1   -1    0    0  501    0  0.00000000000E+00  0.00000000000E+00  0.79840763020E+03  0.79840763020E+03  0.00000000000E+00 0. -1.
         -1   -1    0    0    0  501 -0.00000000000E+00 -0.00000000000E+00 -0.26246402214E+02  0.26246402214E+02  0.00000000000E+00 0.  1.
         25    2    1    2    0    0  0.14113092781E+02  0.71311899821E+02  0.53194517001E+03  0.55126937287E+03  0.12509073155E+03 0.  0.
          5    1    3    3  502    0 -0.10951316974E+02 -0.30656852658E+02  0.21153636611E+03  0.21406746728E+03  0.41800000000E+01 0. -1.
         -5    1    3    3    0  502  0.25064409754E+02  0.10196875248E+03  0.32040880390E+03  0.33720190559E+03  0.41800000000E+01 0. -1.
        -11    1    1    2    0    0  0.20213240179E+02 -0.22352112489E+02  0.48277490146E+01  0.30520471356E+02  0.00000000000E+00 0.  1.
         11    1    1    2    0    0 -0.34326332959E+02 -0.48959787332E+02  0.23538830895E+03  0.24286418818E+03  0.00000000000E+00 0. -1.
</event>
<event>
 7    1  0.2723366E-009  0.2690004E+03  0.7561462E-02  0.1101853E+00
         -2   -1    0    0    0  501 -0.00000000000E+00  0.00000000000E+00  0.13030169619E+03  0.13030169619E+03  0.00000000000E+00 0. -1.
          2   -1    0    0  501    0  0.00000000000E+00 -0.00000000000E+00 -0.67344437031E+03  0.67344437031E+03  0.00000000000E+00 0.  1.
         25    2    1    2    0    0 -0.21308850235E+03  0.14450355645E+03 -0.14470608539E+03  0.32074049827E+03  0.12508648377E+03 0.  0.
          5    1    3    3  502    0 -0.72177063711E+02  0.11710105239E+02 -0.96529290652E+02  0.12116943280E+03  0.41800000000E+01 0. -1.
         -5    1    3    3    0  502 -0.14091143863E+03  0.13279345121E+03 -0.48176794739E+02  0.19957106547E+03  0.41800000000E+01 0. -1.
        -11    1    1    2    0    0  0.19405760268E+03 -0.15588726074E+03 -0.37947365205E+03  0.45382754854E+03  0.00000000000E+00 0. -1.
         11    1    1    2    0    0  0.19030899669E+02  0.11383704291E+02 -0.18962936682E+02  0.29178019693E+02  0.00000000000E+00 0.  1.
</event>
<event>
 7    1  0.2723366E-009  0.9215438E+02  0.7561462E-02  0.1297717E+00
          1   -1    0    0  501    0  0.00000000000E+00  0.00000000000E+00  0.36738202282E+03  0.36738202282E+03  0.00000000000E+00 0. -1.
         -1   -1    0    0    0  501 -0.00000000000E+00 -0.00000000000E+00 -0.41420654806E+02  0.41420654806E+02  0.00000000000E+00 0.  1.
         25    2    1    2    0    0 -0.16347552422E+01 -0.24906616281E+02  0.95375449032E+02  0.15926942290E+03  0.12508901164E+03 0.  0.
          5    1    3    3  502    0 -0.22049716366E+01  0.37370044561E+02  0.88856203247E+02  0.96510514380E+02  0.41800000000E+01 0.  1.
         -5    1    3    3    0  502  0.57021639433E+00 -0.62276660842E+02  0.65192457852E+01  0.62758908515E+02  0.41800000000E+01 0.  1.
        -11    1    1    2    0    0 -0.27392738184E+01  0.54368203234E+02  0.85042013861E+02  0.10097301256E+03  0.00000000000E+00 0.  1.
         11    1    1    2    0    0  0.43740290606E+01 -0.29461586954E+02  0.14554390512E+03  0.14856024217E+03  0.00000000000E+00 0. -1.
</event>
<event>
 7    1  0.2723366E-009  0.2957449E+03  0.7561462E-02  0.1087387E+00
         -2   -1    0    0    0  501 -0.00000000000E+00  0.00000000000E+00  0.83889133162E+02  0.83889133162E+02  0.00000000000E+00 0.  1.
          2   -1    0    0  501    0  0.00000000000E+00 -0.00000000000E+00 -0.12724313843E+04  0.12724313843E+04  0.00000000000E+00 0. -1.
         25    2    1    2    0    0  0.14257841029E+03  0.23684264785E+03 -0.32292234217E+03  0.44311324576E+03  0.12508983403E+03 0.  0.
          5    1    3    3  502    0  0.99043050747E+02  0.23798014533E+03 -0.29210720442E+03  0.38960000866E+03  0.41800000000E+01 0. -1.
         -5    1    3    3    0  502  0.43535359540E+02 -0.11374974797E+01 -0.30815137749E+02  0.53513237103E+02  0.41800000000E+01 0. -1.
        -11    1    1    2    0    0 -0.64958278364E+02 -0.18633203155E+03 -0.62348818132E+03  0.65396996579E+03  0.00000000000E+00 0. -1.
         11    1    1    2    0    0 -0.77620131923E+02 -0.50510616306E+02 -0.24213172761E+03  0.25923730587E+03  0.00000000000E+00 0.  1.
</event>
<event>
 7    1  0.2723366E-009  0.2172970E+03  0.7561462E-02  0.1135914E+00
          2   -1    0    0  501    0  0.00000000000E+00  0.00000000000E+00  0.11492350839E+04  0.11492350839E+04  0.00000000000E+00 0.  1.
         -2   -1    0    0    0  501 -0.00000000000E+00 -0.00000000000E+00 -0.92645829043E+02  0.92645829043E+02  0.00000000000E+00 0. -1.
         25    2    1    2    0    0  0.13086141153E+03 -0.17299728193E+03  0.95146617798E+03  0.98386395073E+03  0.12509043583E+03 0.  0.
          5    1    3    3  502    0  0.15429416982E+02 -0.27857085681E+02  0.41486726359E+03  0.41610864318E+03  0.41800000000E+01 0.  1.
         -5    1    3    3    0  502  0.11543199455E+03 -0.14514019625E+03  0.53659891438E+03  0.56775530755E+03  0.41800000000E+01 0.  1.
        -11    1    1    2    0    0 -0.18639896356E+02  0.27861737768E+02 -0.17039836473E+02  0.37604231074E+02  0.00000000000E+00 0. -1.
         11    1    1    2    0    0 -0.11222151517E+03  0.14513554417E+03  0.12216291336E+03  0.22041273114E+03  0.00000000000E+00 0.  1.
</event>
<event>
 7    1  0.2723366E-009  0.1248070E+03  0.7561462E-02  0.1235371E+00
         -2   -1    0    0    0  501 -0.00000000000E+00  0.00000000000E+00  0.50285813032E+02  0.50285813032E+02  0.00000000000E+00 0. -1.
          2   -1    0    0  501    0  0.00000000000E+00 -0.00000000000E+00 -0.47889931311E+03  0.47889931311E+03  0.00000000000E+00 0.  1.
         25    2    1    2    0    0 -0.46159999256E+02 -0.45838828931E+02 -0.77552095578E+02  0.16090888177E+03  0.12508156113E+03 0.  0.
          5    1    3    3  502    0  0.42035052544E+02 -0.13788867248E+02 -0.10960387670E+02  0.45767685109E+02  0.41800000000E+01 0.  1.
         -5    1    3    3    0  502 -0.88195051799E+02 -0.32049961684E+02 -0.66591707907E+02  0.11514119666E+03  0.41800000000E+01 0.  1.
        -11    1    1    2    0    0  0.72227795785E+02  0.45133465818E+02 -0.27252054399E+03  0.28551940585E+03  0.00000000000E+00 0.  1.
         11    1    1    2    0    0 -0.26067796529E+02  0.70536311336E+00 -0.78540860509E+02  0.82756838524E+02  0.00000000000E+00 0. -1.
</event>
<event>
 7    1  0.2723366E-009  0.1363076E+03  0.7561462E-02  0.1218386E+00
          3   -1    0    0  501    0  0.00000000000E+00  0.00000000000E+00  0.42281480100E+02  0.42281480100E+02  0.00000000000E+00 0. -1.
         -3   -1    0    0    0  501 -0.00000000000E+00 -0.00000000000E+00 -0.98041150540E+03  0.98041150540E+03  0.00000000000E+00 0.  1.
         25    2    1    2    0    0  0.91401778721E+01  0.12805674352E+03 -0.77642039517E+03  0.79684340590E+03  0.12509480836E+03 0.  0.
          5    1    3    3  502    0  0.82804332318E+01  0.99050703139E+02 -0.24242551454E+03  0.26204428989E+03  0.41800000000E+01 0.  1.
         -5    1    3    3    0  502  0.85974464028E+00  0.29006040379E+02 -0.53399488064E+03  0.53479911601E+03  0.41800000000E+01 0.  1.
        -11    1    1    2    0    0 -0.36783193483E+02 -0.85369094524E+02 -0.14515167977E+03  0.17236558752E+03  0.00000000000E+00 0.  1.
         11    1    1    2    0    0  0.27643015611E+02 -0.42687648993E+02 -0.16557950366E+02  0.53483992081E+02  0.00000000000E+00 0. -1.
</event>
<event>
 7    1  0.2723366E-009  0.2780951E+03  0.7561462E-02  0.1096734E+00
          2   -1    0    0  501    0  0.00000000000E+00  0.00000000000E+00  0.13741877663E+04  0.13741877663E+04  0.00000000000E+00 0.  1.
         -2   -1    0    0    0  501 -0.00000000000E+00 -0.00000000000E+00 -0.63073987571E+02  0.63073987571E+02  0.00000000000E+00 0. -1.
         25    2    1    2    0    0 -0.20795954672E+03 -0.16114756765E+03  0.47057734436E+03  0.55344789903E+03  0.12508328538E+03 0.  0.
          5    1    3    3  502    0 -0.37293663691E+01  0.14496541288E+02  0.65082493224E+01  0.16848964125E+02  0.41800000000E+01 0. -1.
         -5    1    3    3    0  502 -0.20423018035E+03 -0.17564410894E+03  0.46406909504E+03  0.53659893491E+03  0.41800000000E+01 0. -1.
        -11    1    1    2    0    0  0.98416189598E+02  0.35674688265E+02  0.27465250150E+03  0.29392588579E+03  0.00000000000E+00 0. -1.
         11    1    1    2    0    0  0.10954335713E+03  0.12547287938E+03  0.56588393285E+03  0.58988796903E+03  0.00000000000E+00 0.  1.
</event>
<event>
 7    1  0.2723366E-009  0.9652365E+02  0.7561462E-02  0.1287781E+00
          2   -1    0    0  501    0  0.00000000000E+00  0.00000000000E+00  0.82651646014E+02  0.82651646014E+02  0.00000000000E+00 0. -1.
         -2   -1    0    0    0  501 -0.00000000000E+00 -0.00000000000E+00 -0.20924432922E+03  0.20924432922E+03  0.00000000000E+00 0.  1.
         25    2    1    2    0    0  0.69583628239E+02  0.39086107274E+01 -0.95836592842E+02  0.17230596381E+03  0.12509010384E+03 0.  0.
          5    1    3    3  502    0 -0.67298116025E+01 -0.25645189268E+02 -0.85620003715E+02  0.89728610448E+02  0.41800000000E+01 0.  1.
         -5    1    3    3    0  502  0.76313439841E+02  0.29553799995E+02 -0.10216589128E+02  0.82577353360E+02  0.41800000000E+01 0.  1.
        -11    1    1    2    0    0 -0.44877865208E+02  0.20674231038E+02 -0.57386907278E+02  0.75727826732E+02  0.00000000000E+00 0.  1.
         11    1    1    2    0    0 -0.24705763031E+02 -0.24582841765E+02  0.26630816917E+02  0.43862184691E+02  0.00000000000E+00 0. -1.
</event>
<event>
 7    1  0.2723366E-009  0.1734685E+03  0.7561462E-02  0.1174278E+00
          3   -1    0    0  501    0  0.00000000000E+00  0.00000000000E+00  0.33955706547E+03  0.33955706547E+03  0.00000000000E+00 0. -1.
         -3   -1    0    0    0  501 -0.00000000000E+00 -0.00000000000E+00 -0.11571765200E+03  0.11571765200E+03  0.00000000000E+00 0.  1.
         25    2    1    2    0    0 -0.88171516007E+02 -0.11128031581E+03  0.21870126115E+02  0.19047562570E+03  0.12508052066E+03 0.  0.
          5    1    3    3  502    0 -0.73733589853E+02 -0.13195162001E+03 -0.76776971848E+01  0.15140770036E+03  0.41800000000E+01 0.  1.
         -5    1    3    3    0  502 -0.14437926155E+02  0.20671304194E+02  0.29547823299E+02  0.39067925341E+02  0.41800000000E+01 0.  1.
        -11    1    1    2    0    0  0.31599841032E+02  0.10906526142E+03  0.12030999516E+03  0.16543360039E+03  0.00000000000E+00 0. -1.
         11    1    1    2    0    0  0.56571674975E+02  0.22150543969E+01  0.81659292194E+02  0.99365491380E+02  0.00000000000E+00 0.  1.
</event>
<event>
 7    1  0.2723366E-009  0.1867530E+03  0.7561462E-02  0.1161423E+00
          1   -1    0    0  501    0  0.00000000000E+00  0.00000000000E+00  0.49304835177E+03  0.49304835177E+03  0.00000000000E+00 0. -1.
         -1   -1    0    0    0  501 -0.00000000000E+00 -0.00000000000E+00 -0.86798437854E+02  0.86798437854E+02  0.00000000000E+00 0.  1.
         25    2    1    2    0    0 -0.74793709361E+02 -0.15726071366E+03  0.19635264947E+03  0.29073577992E+03  0.12509156547E+03 0.  0.
          5    1    3    3  502    0 -0.17673778228E+02  0.95055663122E+01  0.72282830925E+02  0.75133203541E+02  0.41800000000E+01 0.  1.
         -5    1    3    3    0  502 -0.57119931133E+02 -0.16676627997E+03  0.12406981854E+03  0.21560257638E+03  0.41800000000E+01 0.  1.
        -11    1    1    2    0    0  0.50584367485E+02  0.71610634582E+02  0.38036773081E+02  0.95570169643E+02  0.00000000000E+00 0.  1.
         11    1    1    2    0    0  0.24209341876E+02  0.85650079073E+02  0.17186049136E+03  0.19354084006E+03  0.00000000000E+00 0. -1.
</event>
<event>
 7    1  0.2723366E-009  0.1261320E+03  0.7561462E-02  0.1233311E+00
          2   -1    0    0  501    0  0.00000000000E+00  0.00000000000E+00  0.36793012984E+03  0.36793012984E+03  0.00000000000E+00 0. -1.
         -2   -1    0    0    0  501 -0.00000000000E+00 -0.00000000000E+00 -0.61142344053E+02  0.61142344053E+02  0.00000000000E+00 0.  1.
         25    2    1    2    0    0 -0.86276414168E+02  0.44334368130E+02  0.21799560131E+03  0.26940580189E+03  0.12509295768E+03 0.  0.
          5    1    3    3  502    0 -0.38262689024E+02  0.84090379415E+02  0.15623973646E+03  0.18155867627E+03  0.41800000000E+01 0. -1.
         -5    1    3    3    0  502 -0.48013725144E+02 -0.39756011285E+02  0.61755864854E+02  0.87847125618E+02  0.41800000000E+01 0. -1.
        -11    1    1    2    0    0  0.43362282175E+02 -0.17951700474E+02  0.97813704014E+02  0.10848996155E+03  0.00000000000E+00 0. -1.
         11    1    1    2    0    0  0.42914131994E+02 -0.26382667656E+02 -0.90215195388E+01  0.51176710447E+02  0.00000000000E+00 0.  1.
</event>
<event>
 7    1  0.2723366E-009  0.1093973E+03  0.7561462E-02  0.1261690E+00
         -2   -1    0    0    0  501 -0.00000000000E+00  0.00000000000E+00  0.13537368467E+02  0.13537368467E+02  0.00000000000E+00 0.  1.
          2   -1    0    0  501    0  0.00000000000E+00 -0.00000000000E+00 -0.10359428809E+04  0.10359428809E+04  0.00000000000E+00 0. -1.
         25    2    1    2    0    0 -0.46907065623E+02 -0.26658262481E+02 -0.63381779256E+03  0.64829282920E+03  0.12509061703E+03 0.  0.
          5    1    3    3  502    0  0.30039708961E+02 -0.29572569834E+02 -0.39658964205E+03  0.39884550591E+03  0.41800000000E+01 0. -1.
         -5    1    3    3    0  502 -0.76946774583E+02  0.29143073537E+01 -0.23722815051E+03  0.24944732329E+03  0.41800000000E+01 0. -1.
        -11    1    1    2    0    0 -0.22153528464E+02  0.20160130174E+02 -0.13506009540E+03  0.13834174729E+03  0.00000000000E+00 0. -1.
         11    1    1    2    0    0  0.69060594086E+02  0.64981323064E+01 -0.25352762443E+03  0.26284567283E+03  0.00000000000E+00 0.  1.
</event>
<event>
 7    1  0.2723366E-009  0.1190569E+03  0.7561462E-02  0.1244661E+00
         -1   -1    0    0    0  501 -0.00000000000E+00  0.00000000000E+00  0.39016219530E+03  0.39016219530E+03  0.00000000000E+00 0.  1.
          1   -1    0    0  501    0  0.00000000000E+00 -0.00000000000E+00 -0.53398528620E+02  0.53398528620E+02  0.00000000000E+00 0. -1.
         25    2    1    2    0    0 -0.58042323514E+02  0.32074963416E+02  0.29190558256E+03  0.32442876742E+03  0.12508973342E+03 0.  0.
          5    1    3    3  502    0 -0.37942776922E+02  0.75803603528E+02  0.12823201313E+03  0.15377503770E+03  0.41800000000E+01 0. -1.
         -5    1    3    3    0  502 -0.20099546592E+02 -0.43728640111E+02  0.16367356943E+03  0.17065372972E+03  0.41800000000E+01 0. -1.
        -11    1    1    2    0    0  0.55262788015E+02  0.15407023314E+02  0.42705479926E+02  0.71519998058E+02  0.00000000000E+00 0.  1.
         11    1    1    2    0    0  0.27795354996E+01 -0.47481986731E+02  0.21526041954E+01  0.47611958438E+02  0.00000000000E+00 0. -1.
</event>
<event>
 7    1  0.2723366E-009  0.2236750E+03  0.7561462E-02  0.1131172E+00
         -1   -1    0    0    0  501 -0.00000000000E+00  0.00000000000E+00  0.36675794537E+03  0.36675794537E+03  0.00000000000E+00 0.  1.
          1   -1    0    0  501    0  0.00000000000E+00 -0.00000000000E+00 -0.15491301218E+03  0.15491301218E+03  0.00000000000E+00 0. -1.
         25    2    1    2    0    0 -0.11549229123E+03 -0.17308872525E+03  0.79819644531E+02  0.25556900026E+03  0.12508461976E+03 0.  0.
          5    1    3    3  502    0 -0.30650385816E+02 -0.12212750662E+03  0.91667205784E+02  0.15580411754E+03  0.41800000000E+01 0. -1.
         -5    1    3    3    0  502 -0.84841905411E+02 -0.50961218630E+02 -0.11847561253E+02  0.99764882727E+02  0.41800000000E+01 0. -1.
        -11    1    1    2    0    0  0.11186544745E+03  0.10280647943E+03  0.54530667023E+02  0.16142070558E+03  0.00000000000E+00 0. -1.
         11    1    1    2    0    0  0.36268437791E+01  0.70282245824E+02  0.77494621638E+02  0.10468125170E+03  0.00000000000E+00 0.  1.
</event>
<event>
 7    1  0.2723366E-009  0.1214014E+03  0.7561462E-02  0.1240803E+00
         -2   -1    0    0    0  501 -0.00000000000E+00  0.00000000000E+00  0.67904889626E+02  0.67904889626E+02  0.00000000000E+00 0.  1.
          2   -1    0    0  501    0  0.00000000000E+00 -0.00000000000E+00 -0.29244096254E+03  0.29244096254E+03  0.00000000000E+00 0. -1.
         25    2    1    2    0    0 -0.60670310153E+02 -0.20944395963E+02 -0.20238929248E+03  0.24642989724E+03  0.12508682699E+03 0.  0.
          5    1    3    3  502    0  0.28070340905E+02  0.24269528535E+02 -0.82183771115E+02  0.90269588946E+02  0.41800000000E+01 0.  1.
         -5    1    3    3    0  502 -0.88740651059E+02 -0.45213924498E+02 -0.12020552137E+03  0.15616030829E+03  0.41800000000E+01 0.  1.
        -11    1    1    2    0    0 -0.12002243031E+02 -0.19283956997E+02  0.10039923099E+02  0.24833946345E+02  0.00000000000E+00 0.  1.
         11    1    1    2    0    0  0.72672553185E+02  0.40228352960E+02 -0.32186703526E+02  0.89082008577E+02  0.00000000000E+00 0. -1.
</event>
<event>
 7    1  0.2723366E-009  0.1247962E+03  0.7561462E-02  0.1235388E+00
          2   -1    0    0  501    0  0.00000000000E+00  0.00000000000E+00  0.30561339559E+03  0.30561339559E+03  0.00000000000E+00 0. -1.
         -2   -1    0    0    0  501 -0.00000000000E+00 -0.00000000000E+00 -0.82929139982E+02  0.82929139982E+02  0.00000000000E+00 0.  1.
         25    2    1    2    0    0  0.93780664155E+02 -0.61002663936E+02  0.16130611641E+03  0.23277383290E+03  0.12509139104E+03 0.  0.
          5    1    3    3  502    0  0.47030251778E+00 -0.17398211085E+02 -0.18357394292E+02  0.25639525320E+02  0.41800000000E+01 0.  1.
         -5    1    3    3    0  502  0.93310361638E+02 -0.43604452850E+02  0.17966351071E+03  0.20713430758E+03  0.41800000000E+01 0.  1.
        -11    1    1    2    0    0 -0.93025089020E+01  0.40671640236E+02 -0.10476056910E+02  0.43017051965E+02  0.00000000000E+00 0.  1.
         11    1    1    2    0    0 -0.84478155253E+02  0.20331023700E+02  0.71854196106E+02  0.11275165071E+03  0.00000000000E+00 0. -1.
</event>
<event>
 7    1  0.2723366E-009  0.1206558E+03  0.7561462E-02  0.1242019E+00
          1   -1    0    0  501    0  0.00000000000E+00  0.00000000000E+00  0.14511953875E+03  0.14511953875E+03  0.00000000000E+00 0. -1.
         -1   -1    0    0    0  501 -0.00000000000E+00 -0.00000000000E+00 -0.16715933943E+03  0.16715933943E+03  0.00000000000E+00 0.  1.
         25    2    1    2    0    0  0.51154299452E+01 -0.11159390368E+03 -0.18252523901E+02  0.16871404612E+03  0.12510758477E+03 0.  0.
          5    1    3    3  502    0 -0.21889087046E+02 -0.40361242381E+02  0.48805338888E+02  0.67138629136E+02  0.41800000000E+01 0. -1.
         -5    1    3    3    0  502  0.27004516991E+02 -0.71232661301E+02 -0.67057862790E+02  0.10157541699E+03  0.41800000000E+01 0. -1.
        -11    1    1    2    0    0  0.16326218456E+02  0.26218621614E+02 -0.38135474612E+02  0.49074188248E+02  0.00000000000E+00 0.  1.
         11    1    1    2    0    0 -0.21441648401E+02  0.85375282068E+02  0.34348197833E+02  0.94490643816E+02  0.00000000000E+00 0. -1.
</event>
<event>
 7    1  0.2723366E-009  0.1103945E+03  0.7561462E-02  0.1259841E+00
         -2   -1    0    0    0  501 -0.00000000000E+00  0.00000000000E+00  0.91357635361E+01  0.91357635361E+01  0.00000000000E+00 0. -1.
          2   -1    0    0  501    0  0.00000000000E+00 -0.00000000000E+00 -0.15195180088E+04  0.15195180088E+04  0.00000000000E+00 0.  1.
         25    2    1    2    0    0 -0.11701097802E+02 -0.42630745647E+02 -0.10146806142E+04  0.10233174275E+04  0.12509001780E+03 0.  0.
          5    1    3    3  502    0  0.49398340881E+01 -0.81458007317E+02 -0.47566300578E+03  0.48263089042E+03  0.41800000000E+01 0. -1.
         -5    1    3    3    0  502 -0.16640931891E+02  0.38827261670E+02 -0.53901760838E+03  0.54068653710E+03  0.41800000000E+01 0. -1.
        -11    1    1    2    0    0  0.45426205979E+02  0.43491069469E+02 -0.36337967243E+03  0.36878150665E+03  0.00000000000E+00 0.  1.
         11    1    1    2    0    0 -0.33725108176E+02 -0.86032382250E+00 -0.13232195872E+03  0.13655483821E+03  0.00000000000E+00 0. -1.
</event>
<event>
 7    1  0.2723366E-009  0.2426999E+03  0.7561462E-02  0.1118007E+00
          1   -1    0    0  501    0  0.00000000000E+00  0.00000000000E+00  0.84827494090E+02  0.84827494090E+02  0.00000000000E+00 0. -1.
         -1   -1    0    0    0  501 -0.00000000000E+00 -0.00000000000E+00 -0.75626327860E+03  0.75626327860E+03  0.00000000000E+00 0.  1.
         25    2    1    2    0    0 -0.61303530796E+01  0.22364972717E+03 -0.42504399215E+03  0.49635373920E+03  0.12509139647E+03 0.  0.
          5    1    3    3  502    0  0.49983089942E+02  0.14191285753E+03 -0.30869325164E+03  0.34343349344E+03  0.41800000000E+01 0.  1.
         -5    1    3    3    0  502 -0.56113443022E+02  0.81736869642E+02 -0.11635074051E+03  0.15292024576E+03  0.41800000000E+01 0.  1.
        -11    1    1    2    0    0 -0.31629706193E+02 -0.14496241166E+03 -0.18898944558E+03  0.24027390547E+03  0.00000000000E+00 0. -1.
         11    1    1    2    0    0  0.37760059272E+02 -0.78687315516E+02 -0.57402346780E+02  0.10446312802E+03  0.00000000000E+00 0.  1.
</event>
<event>
 7    1  0.2723366E-009  0.1114494E+03  0.7561462E-02  0.1257909E+00
         -1   -1    0    0    0  501 -0.00000000000E+00  0.00000000000E+00  0.18318476972E+03  0.18318476972E+03  0.00000000000E+00 0.  1.
          1   -1    0    0  501    0  0.00000000000E+00 -0.00000000000E+00 -0.10077769616E+03  0.10077769616E+03  0.00000000000E+00 0. -1.
         25    2    1    2    0    0 -0.46067774791E+01  0.30816947786E+02  0.12337194754E+03  0.17843329698E+03  0.12508755878E+03 0.  0.
          5    1    3    3  502    0  0.27415884643E+02 -0.40984203303E+02  0.38755997214E+02  0.62855670956E+02  0.41800000000E+01 0. -1.
         -5    1    3    3    0  502 -0.32022662122E+02  0.71801151089E+02  0.84615950331E+02  0.11557762602E+03  0.41800000000E+01 0. -1.
        -11    1    1    2    0    0  0.33277440265E+02  0.18176470186E+02 -0.28438996441E+02  0.47397770175E+02  0.00000000000E+00 0. -1.
         11    1    1    2    0    0 -0.28670662786E+02 -0.48993417972E+02 -0.12525877552E+02  0.58131398724E+02  0.00000000000E+00 0.  1.
</event>
<event>
 7    1  0.2723366E-009  0.1116068E+03  0.7561462E-02  0.1257623E+00
          2   -1    0    0  501    0  0.00000000000E+00  0.00000000000E+00  0.21404549449E+03  0.21404549449E+03  0.00000000000E+00 0. -1.
         -2   -1    0    0    0  501 -0.00000000000E+00 -0.00000000000E+00 -0.73582133672E+02  0.73582133672E+02  0.00000000000E+00 0.  1.
         25    2    1    2    0    0 -0.33096590668E+02  0.50047998719E+02  0.80143998627E+02  0.16023115790E+03  0.12510306534E+03 0.  0.
          5    1    3    3  502    0 -0.23289880378E+02 -0.25460223728E+02  0.76338805716E+02  0.83879241642E+02  0.41800000000E+01 0.  1.
         -5    1    3    3    0  502 -0.98067102899E+01  0.75508222446E+02  0.38051929111E+01  0.76351916262E+02  0.41800000000E+01 0.  1.
        -11    1    1    2    0    0  0.48336915485E+02 -0.71243059677E+02  0.45464998702E+02  0.97360654567E+02  0.00000000000E+00 0.  1.
         11    1    1    2    0    0 -0.15240324817E+02  0.21195060958E+02  0.14854363487E+02  0.30035815690E+02  0.00000000000E+00 0. -1.
</event>
<event>
 7    1  0.2723366E-009  0.1132998E+03  0.7561462E-02  0.1254578E+00
         -2   -1    0    0    0  501 -0.00000000000E+00  0.00000000000E+00  0.19773983946E+03  0.19773983946E+03  0.00000000000E+00 0.  1.
          2   -1    0    0  501    0  0.00000000000E+00 -0.00000000000E+00 -0.96131327362E+02  0.96131327362E+02  0.00000000000E+00 0. -1.
         25    2    1    2    0    0  0.26142031289E+02  0.73029605574E+02  0.10590500616E+03  0.18132553378E+03  0.12508536996E+03 0.  0.
          5    1    3    3  502    0  0.53065911224E+02  0.69778277620E+02  0.12140905413E+03  0.14980864390E+03  0.41800000000E+01 0. -1.
         -5    1    3    3    0  502 -0.26923879934E+02  0.32513279536E+01 -0.15504047968E+02  0.31516889878E+02  0.41800000000E+01 0. -1.
        -11    1    1    2    0    0  0.19288078958E+02  0.60339513892E+01  0.51944548491E+01  0.20866741970E+02  0.00000000000E+00 0.  1.
         11    1    1    2    0    0 -0.45430110247E+02 -0.79063556963E+02 -0.94909489177E+01  0.91678891071E+02  0.00000000000E+00 0. -1.
</event>
<event>
 7    1  0.2723366E-009  0.9933004E+02  0.7561462E-02  0.1281711E+00
          1   -1    0    0  501    0  0.00000000000E+00  0.00000000000E+00  0.16246734272E+04  0.16246734272E+04  0.00000000000E+00 0. -1.
         -1   -1    0    0    0  501 -0.00000000000E+00 -0.00000000000E+00 -0.13545824719E+02  0.13545824719E+02  0.00000000000E+00 0.  1.
         25    2    1    2    0    0 -0.10617886197E+02  0.54659790575E+02  0.13236668199E+04  0.13307298162E+04  0.12509021381E+03 0.  0.
          5    1    3    3  502    0 -0.21897082614E+02  0.69139152900E+02  0.12908880634E+04  0.12929304580E+04  0.41800000000E+01 0. -1.
         -5    1    3    3    0  502  0.11279196417E+02 -0.14479362325E+02  0.32778756507E+02  0.37799358239E+02  0.41800000000E+01 0. -1.
        -11    1    1    2    0    0  0.47206459874E+02 -0.79715772439E+01  0.10002819126E+03  0.11089470206E+03  0.00000000000E+00 0.  1.
         11    1    1    2    0    0 -0.36588573678E+02 -0.46688213331E+02  0.18743259135E+03  0.19659473363E+03  0.00000000000E+00 0. -1.
</event>
<event>
 7    1  0.2723366E-009  0.1353686E+03  0.7561462E-02  0.1219700E+00
          2   -1    0    0  501    0  0.00000000000E+00  0.00000000000E+00  0.20221678134E+03  0.20221678134E+03  0.00000000000E+00 0. -1.
         -2   -1    0    0    0  501 -0.00000000000E+00 -0.00000000000E+00 -0.21548958651E+03  0.21548958651E+03  0.00000000000E+00 0.  1.
         25    2    1    2    0    0  0.36253864677E+01 -0.12249290851E+03 -0.13612236564E+03  0.22179855952E+03  0.12509055326E+03 0.  0.
          5    1    3    3  502    0  0.30313143223E+02 -0.11648566857E+03 -0.14873838088E+03  0.19138541215E+03  0.41800000000E+01 0.  1.
         -5    1    3    3    0  502 -0.26687756755E+02 -0.60072399396E+01  0.12616015248E+02  0.30413147372E+02  0.41800000000E+01 0.  1.
        -11    1    1    2    0    0 -0.37554729398E+01  0.52821437526E+02  0.11397125588E+03  0.12567280933E+03  0.00000000000E+00 0.  1.
         11    1    1    2    0    0  0.13008647205E+00  0.69671470984E+02  0.88783045839E+01  0.70234998995E+02  0.00000000000E+00 0. -1.
</event>
<event>
 7    1  0.2723366E-009  0.1334672E+03  0.7561462E-02  0.1222400E+00
         -1   -1    0    0    0  501 -0.00000000000E+00  0.00000000000E+00  0.26640534454E+03  0.26640534454E+03  0.00000000000E+00 0.  1.
          1   -1    0    0  501    0  0.00000000000E+00 -0.00000000000E+00 -0.77394290146E+02  0.77394290146E+02  0.00000000000E+00 0. -1.
         25    2    1    2    0    0  0.27067227923E+02  0.82317641212E+02  0.15212843572E+03  0.21517256284E+03  0.12508933593E+03 0.  0.
          5    1    3    3  502    0  0.32475110883E+02 -0.27094322465E+02  0.40127543721E+02  0.58450212162E+02  0.41800000000E+01 0.  1.
         -5    1    3    3    0  502 -0.54078829602E+01  0.10941196368E+03  0.11200089200E+03  0.15672235068E+03  0.41800000000E+01 0.  1.
        -11    1    1    2    0    0 -0.53483919709E+02 -0.58147443326E+02  0.25869284138E+01  0.79046486522E+02  0.00000000000E+00 0. -1.
         11    1    1    2    0    0  0.26416691786E+02 -0.24170197886E+02  0.34295690268E+02  0.49580585331E+02  0.00000000000E+00 0.  1.
</event>
<event>
 7    1  0.2723366E-009  0.1892474E+03  0.7561462E-02  0.1159142E+00
         -1   -1    0    0    0  501 -0.00000000000E+00  0.00000000000E+00  0.50804083691E+03  0.50804083691E+03  0.00000000000E+00 0.  1.
          1   -1    0    0  501    0  0.00000000000E+00 -0.00000000000E+00 -0.89482235022E+02  0.89482235022E+02  0.00000000000E+00 0. -1.
         25    2    1    2    0    0 -0.16403394279E+03 -0.20881690631E+02  0.10683407867E+03  0.23324677802E+03  0.12508940683E+03 0.  0.
          5    1    3    3  502    0 -0.29050499571E+02 -0.53093101870E+02  0.46174122429E+01  0.60840791311E+02  0.41800000000E+01 0. -1.
         -5    1    3    3    0  502 -0.13498344321E+03  0.32211411240E+02  0.10221666643E+03  0.17240598671E+03  0.41800000000E+01 0. -1.
        -11    1    1    2    0    0  0.10904630214E+03  0.46233444453E+02  0.25562756391E+03  0.28173405692E+03  0.00000000000E+00 0.  1.
         11    1    1    2    0    0  0.54987640642E+02 -0.25351753823E+02  0.56096959309E+02  0.82542237000E+02  0.00000000000E+00 0. -1.
</event>
<event>
 7    1  0.2723366E-009  0.9225404E+02  0.7561462E-02  0.1297483E+00
         -1   -1    0    0    0  501 -0.00000000000E+00  0.00000000000E+00  0.11844419561E+02  0.11844419561E+02  0.00000000000E+00 0.  1.
          1   -1    0    0  501    0  0.00000000000E+00 -0.00000000000E+00 -0.94620514349E+03  0.94620514349E+03  0.00000000000E+00 0. -1.
         25    2    1    2    0    0 -0.37957040802E+02  0.23780220233E+02 -0.65401906109E+03  0.66738152075E+03  0.12510366161E+03 0.  0.
          5    1    3    3  502    0  0.23774733224E+02 -0.21171176619E+02 -0.41907804695E+03  0.42030624370E+03  0.41800000000E+01 0. -1.
         -5    1    3    3    0  502 -0.61731774026E+02  0.44951396852E+02 -0.23494101415E+03  0.24707527705E+03  0.41800000000E+01 0. -1.
        -11    1    1    2    0    0  0.22831047285E+02 -0.44649048435E+02 -0.16351363484E+03  0.17103070785E+03  0.00000000000E+00 0.  1.
         11    1    1    2    0    0  0.15125993517E+02  0.20868828202E+02 -0.11682802799E+03  0.11963733445E+03  0.00000000000E+00 0. -1.
</event>
<event>
 7    1  0.2723366E-009  0.8453639E+02  0.7561462E-02  0.1316649E+00
          2   -1    0    0  501    0  0.00000000000E+00  0.00000000000E+00  0.33899004921E+03  0.33899004921E+03  0.00000000000E+00 0. -1.
         -2   -1    0    0    0  501 -0.00000000000E+00 -0.00000000000E+00 -0.41595716545E+02  0.41595716545E+02  0.00000000000E+00 0.  1.
         25    2    1    2    0    0 -0.36236499102E+02 -0.13525902421E+02  0.19472564671E+03  0.23465110181E+03  0.12508808172E+03 0.  0.
          5    1    3    3  502    0 -0.43435289005E+02  0.30927274683E+02  0.17891974905E+03  0.18674279009E+03  0.41800000000E+01 0. -1.
         -5    1    3    3    0  502  0.71987899029E+01 -0.44453177104E+02  0.15805897667E+02  0.47908311719E+02  0.41800000000E+01 0. -1.
        -11    1    1    2    0    0  0.29384975578E+02  0.36229092761E+02  0.67569942954E+01  0.47134710394E+02  0.00000000000E+00 0.  1.
         11    1    1    2    0    0  0.68515235244E+01 -0.22703190340E+02  0.95911691658E+02  0.98799953557E+02  0.00000000000E+00 0. -1.
</event>
<event>
 7    1  0.2723366E-009  0.2470031E+03  0.7561462E-02  0.1115214E+00
         -2   -1    0    0    0  501 -0.00000000000E+00  0.00000000000E+00  0.20921318454E+03  0.20921318454E+03  0.00000000000E+00 0.  1.
          2   -1    0    0  501    0  0.00000000000E+00 -0.00000000000E+00 -0.32521466153E+03  0.32521466153E+03  0.00000000000E+00 0. -1.
         25    2    1    2    0    0  0.22932711175E+03 -0.24977869272E+02 -0.87641456914E+01  0.26256318760E+03  0.12509116315E+03 0.  0.
          5    1    3    3  502    0  0.87010774865E+02 -0.66154773824E+02  0.21026579132E+02  0.11138634778E+03  0.41800000000E+01 0.  1.
         -5    1    3    3    0  502  0.14231633688E+03  0.41176904553E+02 -0.29790724823E+02  0.15117683982E+03  0.41800000000E+01 0.  1.
        -11    1    1    2    0    0 -0.30290267389E+02  0.21849602356E+02  0.12717425330E+02  0.39454256154E+02  0.00000000000E+00 0.  1.
         11    1    1    2    0    0 -0.19903684436E+03  0.31282669157E+01 -0.11995475663E+03  0.23241040232E+03  0.00000000000E+00 0. -1.
</event>
<event>
 7    1  0.2723366E-009  0.1122037E+03  0.7561462E-02  0.1256543E+00
          1   -1    0    0  501    0  0.00000000000E+00  0.00000000000E+00  0.20788821431E+02  0.20788821431E+02  0.00000000000E+00 0. -1.
         -1   -1    0    0    0  501 -0.00000000000E+00 -0.00000000000E+00 -0.79135227002E+03  0.79135227002E+03  0.00000000000E+00 0.  1.
         25    2    1    2    0    0  0.48742232599E+02 -0.34591004375E+02 -0.32223068530E+03  0.35078779424E+03  0.12508844559E+03 0.  0.
          5    1    3    3  502    0  0.64821276972E+02  0.12084951376E+02 -0.81034869153E+02  0.10455604438E+03  0.41800000000E+01 0. -1.
         -5    1    3    3    0  502 -0.16079044374E+02 -0.46675955751E+02 -0.24119581615E+03  0.24623174986E+03  0.41800000000E+01 0. -1.
        -11    1    1    2    0    0  0.13224063974E+02  0.44154606968E+02 -0.19619700561E+03  0.20153850797E+03  0.00000000000E+00 0. -1.
         11    1    1    2    0    0 -0.61966296573E+02 -0.95636025924E+01 -0.25213575768E+03  0.25981478924E+03  0.00000000000E+00 0.  1.
</event>
<event>
 7    1  0.2723366E-009  0.1423021E+03  0.7561462E-02  0.1210264E+00
          1   -1    0    0  501    0  0.00000000000E+00  0.00000000000E+00  0.89083496765E+03  0.89083496765E+03  0.00000000000E+00 0. -1.
         -1   -1    0    0    0  501 -0.00000000000E+00 -0.00000000000E+00 -0.24215219667E+02  0.24215219667E+02  0.00000000000E+00 0.  1.
         25    2    1    2    0    0  0.42612214396E+02 -0.92302340098E+02  0.57270377956E+03  0.59495627177E+03  0.12509126028E+03 0.  0.
          5    1    3    3  502    0  0.62153724741E+02  0.11030434832E+01  0.28779622555E+03  0.29446297228E+03  0.41800000000E+01 0.  1.
         -5    1    3    3    0  502 -0.19541510344E+02 -0.93405383581E+02  0.28490755401E+03  0.30049329949E+03  0.41800000000E+01 0.  1.
        -11    1    1    2    0    0 -0.14264192997E+00  0.83385570875E+02  0.19308533203E+03  0.21032146639E+03  0.00000000000E+00 0. -1.
         11    1    1    2    0    0 -0.42469572466E+02  0.89167692234E+01  0.10083063639E+03  0.10977244916E+03  0.00000000000E+00 0.  1.
</event>
<event>
 7    1  0.2723366E-009  0.1356641E+03  0.7561462E-02  0.1219285E+00
          1   -1    0    0  501    0  0.00000000000E+00  0.00000000000E+00  0.19650514471E+03  0.19650514471E+03  0.00000000000E+00 0. -1.
         -1   -1    0    0    0  501 -0.00000000000E+00 -0.00000000000E+00 -0.97071269245E+02  0.97071269245E+02  0.00000000000E+00 0.  1.
         25    2    1    2    0    0 -0.59437789226E+02  0.57490721787E+02  0.68608758605E+02  0.16489822491E+03  0.12508488695E+03 0.  0.
          5    1    3    3  502    0  0.89771613529E+01 -0.33267420955E+02  0.26309726113E+02  0.43554389114E+02  0.41800000000E+01 0.  1.
         -5    1    3    3    0  502 -0.68414950579E+02  0.90758142741E+02  0.42299032492E+02  0.12134383580E+03  0.41800000000E+01 0.  1.
        -11    1    1    2    0    0  0.56342736631E+02 -0.81278470988E+02  0.33782910375E+02  0.10450827168E+03  0.00000000000E+00 0.  1.
         11    1    1    2    0    0  0.30950525955E+01  0.23787749201E+02 -0.29577935138E+01  0.24169917358E+02  0.00000000000E+00 0. -1.
</event>
<event>
 7    1  0.2723366E-009  0.8291076E+02  0.7561462E-02  0.1320988E+00
          1   -1    0    0  501    0  0.00000000000E+00  0.00000000000E+00  0.23004473275E+03  0.23004473275E+03  0.00000000000E+00 0. -1.
         -1   -1    0    0    0  501 -0.00000000000E+00 -0.00000000000E+00 -0.59045528767E+02  0.59045528767E+02  0.00000000000E+00 0.  1.
         25    2    1    2    0    0  0.43434860912E+01 -0.12585292461E+02  0.14354325091E+03  0.19085971010E+03  0.12508200750E+03 0.  0.
          5    1    3    3  502    0 -0.84799702931E+01  0.45681864254E+02  0.11597160208E+03  0.12500251000E+03  0.41800000000E+01 0. -1.
         -5    1    3    3    0  502  0.12823456384E+02 -0.58267156715E+02  0.27571648828E+02  0.65857200095E+02  0.41800000000E+01 0. -1.
        -11    1    1    2    0    0  0.22872909704E+02 -0.90474773217E+01 -0.25147060146E+02  0.35176717843E+02  0.00000000000E+00 0.  1.
         11    1    1    2    0    0 -0.27216395795E+02  0.21632769783E+02  0.52603013219E+02  0.63053833573E+02  0.00000000000E+00 0. -1.
</event>
<event>
 7    1  0.2723366E-009  0.9439747E+02  0.7561462E-02  0.1292539E+00
         -3   -1    0    0    0  501 -0.00000000000E+00  0.00000000000E+00  0.10092446250E+02  0.10092446250E+02  0.00000000000E+00 0.  1.
          3   -1    0    0  501    0  0.00000000000E+00 -0.00000000000E+00 -0.12830652929E+04  0.12830652929E+04  0.00000000000E+00 0. -1.
         25    2    1    2    0    0  0.15810888021E+02 -0.14827367499E+02 -0.86417911138E+03  0.87345367587E+03  0.12508378125E+03 0.  0.
          5    1    3    3  502    0 -0.38172128270E+02 -0.62062020943E+01 -0.68429764720E+03  0.68540234219E+03  0.41800000000E+01 0. -1.
         -5    1    3    3    0  502  0.53983016291E+02 -0.86211654044E+01 -0.17988146419E+03  0.18805133368E+03  0.41800000000E+01 0. -1.
        -11    1    1    2    0    0  0.18194231768E+01  0.52995347221E+02 -0.22588294553E+03  0.23202353805E+03  0.00000000000E+00 0.  1.
         11    1    1    2    0    0 -0.17630311198E+02 -0.38167979723E+02 -0.18291078975E+03  0.18768052525E+03  0.00000000000E+00 0. -1.
</event>
<event>
 7    1  0.2723366E-009  0.9669235E+02  0.7561462E-02  0.1287409E+00
          2   -1    0    0  501    0  0.00000000000E+00  0.00000000000E+00  0.78784224063E+03  0.78784224063E+03  0.00000000000E+00 0. -1.
         -2   -1    0    0    0  501 -0.00000000000E+00 -0.00000000000E+00 -0.20832607008E+02  0.20832607008E+02  0.00000000000E+00 0.  1.
         25    2    1    2    0    0 -0.40528480089E+02 -0.40223905119E+01  0.58804766756E+03  0.60258324270E+03  0.12509103779E+03 0.  0.
          5    1    3    3  502    0  0.20006597118E+02  0.17400073979E+02  0.44405864162E+03  0.44486916740E+03  0.41800000000E+01 0. -1.
         -5    1    3    3    0  502 -0.60535077206E+02 -0.21422464491E+02  0.14398902594E+03  0.15771407530E+03  0.41800000000E+01 0. -1.
        -11    1    1    2    0    0  0.38317290598E+02 -0.41576470857E+02  0.10074403665E+03  0.11552566212E+03  0.00000000000E+00 0.  1.
         11    1    1    2    0    0  0.22111894912E+01  0.45598861369E+02  0.78217929414E+02  0.90565942820E+02  0.00000000000E+00 0. -1.
</event>
<event>
 7    1  0.2723366E-009  0.8343408E+02  0.7561462E-02  0.1319579E+00
          2   -1    0    0  501    0  0.00000000000E+00  0.00000000000E+00  0.13359675372E+03  0.13359675372E+03  0.00000000000E+00 0. -1.
         -2   -1    0    0    0  501 -0.00000000000E+00 -0.00000000000E+00 -0.11199330813E+03  0.11199330813E+03  0.00000000000E+00 0.  1.
         25    2    1    2    0    0 -0.11749617181E+01 -0.72419473820E+01  0.68502475253E+02  0.14280877721E+03  0.12509169196E+03 0.  0.
          5    1    3    3  502    0 -0.36797621175E+02  0.53281415922E+01  0.91175205828E+02  0.98553764894E+02  0.41800000000E+01 0.  1.
         -5    1    3    3    0  502  0.35622659457E+02 -0.12570088974E+02 -0.22672730575E+02  0.44255012319E+02  0.41800000000E+01 0.  1.
        -11    1    1    2    0    0  0.24175581536E+02  0.42766169116E+02 -0.24403455360E+02  0.54853738222E+02  0.00000000000E+00 0.  1.
         11    1    1    2    0    0 -0.23000619818E+02 -0.35524221734E+02 -0.22495574304E+02  0.47927546412E+02  0.00000000000E+00 0. -1.
</event>
<event>
 7    1  0.2723366E-009  0.2095848E+03  0.7561462E-02  0.1141895E+00
          2   -1    0    0  501    0  0.00000000000E+00  0.00000000000E+00  0.65040427094E+03  0.65040427094E+03  0.00000000000E+00 0. -1.
         -2   -1    0    0    0  501 -0.00000000000E+00 -0.00000000000E+00 -0.83187792178E+02  0.83187792178E+02  0.00000000000E+00 0.  1.
         25    2    1    2    0    0  0.45054757404E+02 -0.18447889546E+03  0.40563812982E+03  0.46502861648E+03  0.12508768020E+03 0.  0.
          5    1    3    3  502    0 -0.31569224593E+02 -0.59479784500E+02  0.62968212118E+02  0.92287208447E+02  0.41800000000E+01 0.  1.
         -5    1    3    3    0  502  0.76623981997E+02 -0.12499911096E+03  0.34266991771E+03  0.37274140803E+03  0.41800000000E+01 0.  1.
        -11    1    1    2    0    0 -0.67249362609E+02  0.13689224248E+03  0.81838480532E+02  0.17308812703E+03  0.00000000000E+00 0.  1.
         11    1    1    2    0    0  0.22194605205E+02  0.47586652985E+02  0.79739868406E+02  0.95475319617E+02  0.00000000000E+00 0. -1.
</event>
<event>
 7    1  0.2723366E-009  0.1033766E+03  0.7561462E-02  0.1273351E+00
          1   -1    0    0  501    0  0.00000000000E+00  0.00000000000E+00  0.13757891037E+03  0.13757891037E+03  0.00000000000E+00 0. -1.
         -1   -1    0    0    0  501 -0.00000000000E+00 -0.00000000000E+00 -0.12071851286E+03  0.12071851286E+03  0.00000000000E+00 0.  1.
         25    2    1    2    0    0  0.30902946363E+02 -0.17466641757E+01 -0.58134322346E+02  0.14137157863E+03  0.12509308885E+03 0.  0.
          5    1    3    3  502    0  0.39621745360E+00  0.59753459529E+02 -0.30863710921E+02  0.67384523192E+02  0.41800000000E+01 0.  1.
         -5    1    3    3    0  502  0.30506728910E+02 -0.61500123705E+02 -0.27270611425E+02  0.73987055435E+02  0.41800000000E+01 0.  1.
        -11    1    1    2    0    0 -0.26979322417E+02  0.35223471818E+02  0.12788627428E+02  0.46174947715E+02  0.00000000000E+00 0.  1.
         11    1    1    2    0    0 -0.39236239461E+01 -0.33476807643E+02  0.62206092428E+02  0.70750896885E+02  0.00000000000E+00 0. -1.
</event>
<event>
 7    1  0.2723366E-009  0.1329516E+03  0.7561462E-02  0.1223141E+00
         -1   -1    0    0    0  501 -0.00000000000E+00  0.00000000000E+00  0.14638688741E+03  0.14638688741E+03  0.00000000000E+00 0.  1.
          1   -1    0    0  501    0  0.00000000000E+00 -0.00000000000E+00 -0.16895363777E+03  0.16895363777E+03  0.00000000000E+00 0. -1.
         25    2    1    2    0    0  0.78043071159E+02 -0.75023636177E+02  0.22514180258E+02  0.16695443240E+03  0.12509047623E+03 0.  0.
          5    1    3    3  502    0  0.26055993158E+02 -0.68943803701E+02 -0.41081908505E+02  0.84482888531E+02  0.41800000000E+01 0. -1.
         -5    1    3    3    0  502  0.51987078002E+02 -0.60798324763E+01  0.63596088763E+02  0.82471543868E+02  0.41800000000E+01 0. -1.
        -11    1    1    2    0    0 -0.31778640487E+02 -0.17390441042E+02 -0.15914774490E+01  0.36260753320E+02  0.00000000000E+00 0.  1.
         11    1    1    2    0    0 -0.46264430673E+02  0.92414077220E+02 -0.43489453166E+02  0.11212533947E+03  0.00000000000E+00 0. -1.
</event>
<event>
 7    1  0.2723366E-009  0.8061215E+02  0.7561462E-02  0.1327323E+00
         -1   -1    0    0    0  501 -0.00000000000E+00  0.00000000000E+00  0.44050999295E+03  0.44050999295E+03  0.00000000000E+00 0.  1.
          1   -1    0    0  501    0  0.00000000000E+00 -0.00000000000E+00 -0.41821515411E+02  0.41821515411E+02  0.00000000000E+00 0. -1.
         25    2    1    2    0    0  0.21862441317E+02  0.37799627822E+02  0.97249163020E+02  0.16436741375E+03  0.12510982692E+03 0.  0.
          5    1    3    3  502    0 -0.16951634377E+02  0.10581767194E+02  0.11254336161E+03  0.11438012217E+03  0.41800000000E+01 0. -1.
         -5    1    3    3    0  502  0.38814075694E+02  0.27217860627E+02 -0.15294198591E+02  0.49987291581E+02  0.41800000000E+01 0. -1.
        -11    1    1    2    0    0  0.49712912609E+01 -0.58883206590E+02  0.24486358639E+03  0.25189307592E+03  0.00000000000E+00 0.  1.
         11    1    1    2    0    0 -0.26833732577E+02  0.21083578768E+02  0.56575728123E+02  0.66071018687E+02  0.00000000000E+00 0. -1.
</event>
<event>
 7    1  0.2723366E-009  0.2532075E+03  0.7561462E-02  0.1111294E+00
          2   -1    0    0  501    0  0.00000000000E+00  0.00000000000E+00  0.21353184774E+04  0.21353184774E+04  0.00000000000E+00 0. -1.
         -2   -1    0    0    0  501 -0.00000000000E+00 -0.00000000000E+00 -0.33460390771E+02  0.33460390771E+02  0.00000000000E+00 0.  1.
         25    2    1    2    0    0 -0.19487986337E+03  0.14224790915E+03  0.12284633434E+04  0.12581663579E+04  0.12509104401E+03 0.  0.
          5    1    3    3  502    0 -0.16200215774E+03  0.15949968990E+03  0.93096619378E+03  0.95833208052E+03  0.41800000000E+01 0. -1.
         -5    1    3    3    0  502 -0.32877705638E+02 -0.17251780747E+02  0.29749714961E+03  0.29983427738E+03  0.41800000000E+01 0. -1.
        -11    1    1    2    0    0  0.10023642022E+03 -0.81716108427E+02  0.30606135620E+03  0.33226257098E+03  0.00000000000E+00 0.  1.
         11    1    1    2    0    0  0.94643443153E+02 -0.60531800723E+02  0.56733338707E+03  0.57834993933E+03  0.00000000000E+00 0. -1.
</event>
<event>
 7    1  0.2723366E-009  0.2002868E+03  0.7561462E-02  0.1149497E+00
         -1   -1    0    0    0  501 -0.00000000000E+00  0.00000000000E+00  0.35424386116E+02  0.35424386116E+02  0.00000000000E+00 0.  1.
          1   -1    0    0  501    0  0.00000000000E+00 -0.00000000000E+00 -0.13722445559E+04  0.13722445559E+04  0.00000000000E+00 0. -1.
         25    2    1    2    0    0  0.88033474853E+02 -0.16364465957E+03 -0.84061906928E+03  0.86995256679E+03  0.12509029350E+03 0.  0.
          5    1    3    3  502    0 -0.15493123697E+02 -0.74652150540E+02 -0.44291693200E+03  0.44945062189E+03  0.41800000000E+01 0.  1.
         -5    1    3    3    0  502  0.10352659855E+03 -0.88992509034E+02 -0.39770213728E+03  0.42050194490E+03  0.41800000000E+01 0.  1.
        -11    1    1    2    0    0 -0.46645676828E+02  0.11285985905E+03 -0.19982900052E+03  0.23418965904E+03  0.00000000000E+00 0.  1.
         11    1    1    2    0    0 -0.41387798024E+02  0.50784800523E+02 -0.29637210000E+03  0.30352671620E+03  0.00000000000E+00 0. -1.
</event>
<event>
 7    1  0.2914212E-009  0.1014450E+03  0.7561462E-02  0.1277286E+00
          2   -1    0    0  501    0  0.00000000000E+00  0.00000000000E+00  0.15058578218E+03  0.15058578218E+03  0.00000000000E+00 0. -1.
         -2   -1    0    0    0  501 -0.00000000000E+00 -0.00000000000E+00 -0.10864494792E+03  0.10864494792E+03  0.00000000000E+00 0.  1.
         25    2    1    2    0    0  0.57496790407E+02  0.27028584117E+02  0.48000385306E+02  0.14827736588E+03  0.12508283246E+03 0.  0.
          5    1    3    3  502    0  0.89606276121E+02  0.43409142951E+02  0.50848239317E+02  0.11187785417E+03  0.41800000000E+01 0.  1.
         -5    1    3    3    0  502 -0.32109485714E+02 -0.16380558834E+02 -0.28478540107E+01  0.36399511713E+02  0.41800000000E+01 0.  1.
        -11    1    1    2    0    0 -0.18901052281E+02 -0.20357342081E+02 -0.46809576100E+02  0.54431677988E+02  0.00000000000E+00 0.  1.
         11    1    1    2    0    0 -0.38595738126E+02 -0.66712420359E+01  0.40750025053E+02  0.56521686224E+02  0.00000000000E+00 0. -1.
</event>
<event>
 7    1  0.2723366E-009  0.1010858E+03  0.7561462E-02  0.1278029E+00
         -1   -1    0    0    0  501 -0.00000000000E+00  0.00000000000E+00  0.81658784128E+02  0.81658784128E+02  0.00000000000E+00 0.  1.
          1   -1    0    0  501    0  0.00000000000E+00 -0.00000000000E+00 -0.13774109574E+03  0.13774109574E+03  0.00000000000E+00 0. -1.
         25    2    1    2    0    0  0.74953109483E+01  0.16351243751E+02 -0.32340586472E+02  0.13043722438E+03  0.12507762834E+03 0.  0.
          5    1    3    3  502    0 -0.15916206342E+02 -0.46472973719E+02 -0.39099821179E+02  0.62923217709E+02  0.41800000000E+01 0. -1.
         -5    1    3    3    0  502  0.23411517290E+02  0.62824217470E+02  0.67592347067E+01  0.67514006668E+02  0.41800000000E+01 0. -1.
        -11    1    1    2    0    0 -0.45773506985E+02 -0.10646222341E+02 -0.14368508420E+02  0.49142751511E+02  0.00000000000E+00 0.  1.
         11    1    1    2    0    0  0.38278196036E+02 -0.57050214096E+01 -0.93732167149E+01  0.39819903976E+02  0.00000000000E+00 0. -1.
</event>
<event>
 7    1  0.2723366E-009  0.8069041E+02  0.7561462E-02  0.1327104E+00
          2   -1    0    0  501    0  0.00000000000E+00  0.00000000000E+00  0.13411591917E+04  0.13411591917E+04  0.00000000000E+00 0. -1.
         -2   -1    0    0    0  501 -0.00000000000E+00 -0.00000000000E+00 -0.85984704522E+01  0.85984704522E+01  0.00000000000E+00 0.  1.
         25    2    1    2    0    0  0.22875632849E+02  0.13762905355E+02  0.92981120443E+03  0.93856745739E+03  0.12508910440E+03 0.  0.
          5    1    3    3  502    0  0.42565171774E+02 -0.14019471548E+02  0.85589338999E+03  0.85707602164E+03  0.41800000000E+01 0.  1.
         -5    1    3    3    0  502 -0.19689538925E+02  0.27782376903E+02  0.73917814436E+02  0.81491435749E+02  0.41800000000E+01 0.  1.
        -11    1    1    2    0    0 -0.51147933490E+02 -0.12936774615E+01  0.22210335149E+03  0.22792034452E+03  0.00000000000E+00 0.  1.
         11    1    1    2    0    0  0.28272300641E+02 -0.12469227893E+02  0.18064616531E+03  0.18326986023E+03  0.00000000000E+00 0. -1.
</event>
<event>
 7    1  0.2723366E-009  0.1314258E+03  0.7561462E-02  0.1225355E+00
          2   -1    0    0  501    0  0.00000000000E+00  0.00000000000E+00  0.19279121508E+03  0.19279121508E+03  0.00000000000E+00 0.  1.
         -2   -1    0    0    0  501 -0.00000000000E+00 -0.00000000000E+00 -0.12026426963E+03  0.12026426963E+03  0.00000000000E+00 0. -1.
         25    2    1    2    0    0 -0.42250548380E+02  0.85519819453E+02 -0.11251511007E+02  0.15771345765E+03  0.12509272507E+03 0.  0.
          5    1    3    3  502    0  0.27358515220E+02  0.59792701735E+02 -0.41055709399E+02  0.77631818284E+02  0.41800000000E+01 0. -1.
         -5    1    3    3    0  502 -0.69609063600E+02  0.25727117717E+02  0.29804198392E+02  0.80081639363E+02  0.41800000000E+01 0. -1.
        -11    1    1    2    0    0 -0.21754377069E+02 -0.34490829007E+02  0.55222703891E+02  0.68647048241E+02  0.00000000000E+00 0.  1.
         11    1    1    2    0    0  0.64004925449E+02 -0.51028990446E+02  0.28555752570E+02  0.86694978819E+02  0.00000000000E+00 0. -1.
</event>
<event>
 7    1  0.2723366E-009  0.2014255E+03  0.7561462E-02  0.1148542E+00
          2   -1    0    0  501    0  0.00000000000E+00  0.00000000000E+00  0.91672766100E+03  0.91672766100E+03  0.00000000000E+00 0.  1.
         -2   -1    0    0    0  501 -0.00000000000E+00 -0.00000000000E+00 -0.89215975876E+02  0.89215975876E+02  0.00000000000E+00 0. -1.
         25    2    1    2    0    0 -0.15657686980E+03 -0.10170818412E+03  0.93654697880E+02  0.24347443698E+03  0.12509087957E+03 0.  0.
          5    1    3    3  502    0 -0.14162444288E+03 -0.35962019984E+02  0.27152454662E+02  0.14867911049E+03  0.41800000000E+01 0.  1.
         -5    1    3    3    0  502 -0.14952426916E+02 -0.65746164140E+02  0.66502243218E+02  0.94795326482E+02  0.41800000000E+01 0.  1.
        -11    1    1    2    0    0  0.74859463317E+02  0.66527873206E+02  0.53950168189E+03  0.54871847237E+03  0.00000000000E+00 0.  1.
         11    1    1    2    0    0  0.81717406482E+02  0.35180310918E+02  0.19435530535E+03  0.21375072752E+03  0.00000000000E+00 0. -1.
</event>
<event>
 7    1  0.2723366E-009  0.1409445E+03  0.7561462E-02  0.1212064E+00
          2   -1    0    0  501    0  0.00000000000E+00  0.00000000000E+00  0.10289574257E+04  0.10289574257E+04  0.00000000000E+00 0. -1.
         -2   -1    0    0    0  501 -0.00000000000E+00 -0.00000000000E+00 -0.26808055434E+02  0.26808055434E+02  0.00000000000E+00 0.  1.
         25    2    1    2    0    0 -0.95336493351E+02  0.60958221711E+02  0.71740132359E+03  0.73696466373E+03  0.12508918714E+03 0.  0.
          5    1    3    3  502    0 -0.12086298934E+03  0.56091673168E+02  0.48197101083E+03  0.50006766109E+03  0.41800000000E+01 0.  1.
         -5    1    3    3    0  502  0.25526495988E+02  0.48665485429E+01  0.23543031276E+03  0.23689700264E+03  0.41800000000E+01 0.  1.
        -11    1    1    2    0    0  0.72634325057E+02 -0.19849426984E+02  0.84770522259E+02  0.11338336021E+03  0.00000000000E+00 0.  1.
         11    1    1    2    0    0  0.22702168294E+02 -0.41108794727E+02  0.19997752441E+03  0.20541745719E+03  0.00000000000E+00 0. -1.
</event>
<event>
 7    1  0.2723366E-009  0.1481044E+03  0.7561462E-02  0.1202822E+00
          2   -1    0    0  501    0  0.00000000000E+00  0.00000000000E+00  0.10311502736E+04  0.10311502736E+04  0.00000000000E+00 0. -1.
         -2   -1    0    0    0  501 -0.00000000000E+00 -0.00000000000E+00 -0.28764986922E+02  0.28764986922E+02  0.00000000000E+00 0.  1.
         25    2    1    2    0    0 -0.47626435437E+02  0.10965405020E+03  0.35804799279E+03  0.39766608032E+03  0.12509060005E+03 0.  0.
          5    1    3    3  502    0 -0.22043328941E+02  0.11495506225E+03  0.16235717913E+03  0.20019465703E+03  0.41800000000E+01 0.  1.
         -5    1    3    3    0  502 -0.25583106496E+02 -0.53010120523E+01  0.19569081366E+03  0.19747142329E+03  0.41800000000E+01 0.  1.
        -11    1    1    2    0    0 -0.29266243921E+02 -0.30850980974E+02  0.15993368100E+03  0.16549041779E+03  0.00000000000E+00 0.  1.
         11    1    1    2    0    0  0.76892679358E+02 -0.78803069221E+02  0.48440361288E+03  0.49675876241E+03  0.00000000000E+00 0. -1.
</event>
<event>
 7    1  0.2723366E-009  0.1232588E+03  0.7561462E-02  0.1237816E+00
         -1   -1    0    0    0  501 -0.00000000000E+00  0.00000000000E+00  0.79104274717E+02  0.79104274717E+02  0.00000000000E+00 0.  1.
          1   -1    0    0  501    0  0.00000000000E+00 -0.00000000000E+00 -0.23997404186E+03  0.23997404186E+03  0.00000000000E+00 0. -1.
         25    2    1    2    0    0 -0.37471544843E+02 -0.76760299608E+02 -0.88404508072E+02  0.17538310693E+03  0.12509043480E+03 0.  0.
          5    1    3    3  502    0  0.37558930187E+02 -0.64946413857E+02 -0.38781299744E+02  0.84558686836E+02  0.41800000000E+01 0. -1.
         -5    1    3    3    0  502 -0.75030475031E+02 -0.11813885752E+02 -0.49623208328E+02  0.90824420090E+02  0.41800000000E+01 0. -1.
        -11    1    1    2    0    0  0.46787648740E+02  0.67832005619E+02 -0.13705188846E+02  0.83535006209E+02  0.00000000000E+00 0.  1.
         11    1    1    2    0    0 -0.93161038968E+01  0.89282939890E+01 -0.58760070227E+02  0.60160203444E+02  0.00000000000E+00 0. -1.
</event>
<event>
 7    1  0.2723366E-009  0.1117877E+03  0.7561462E-02  0.1257295E+00
          2   -1    0    0  501    0  0.00000000000E+00  0.00000000000E+00  0.41552149298E+03  0.41552149298E+03  0.00000000000E+00 0. -1.
         -2   -1    0    0    0  501 -0.00000000000E+00 -0.00000000000E+00 -0.32466357362E+02  0.32466357362E+02  0.00000000000E+00 0.  1.
         25    2    1    2    0    0  0.30491277157E+02 -0.29251967725E+02  0.21321212304E+03  0.25078368709E+03  0.12509057799E+03 0.  0.
          5    1    3    3  502    0  0.20357498200E+02  0.45540745269E+02  0.12477858126E+03  0.13444535676E+03  0.41800000000E+01 0.  1.
         -5    1    3    3    0  502  0.10133778957E+02 -0.74792712994E+02  0.88433541779E+02  0.11633833033E+03  0.41800000000E+01 0.  1.
        -11    1    1    2    0    0 -0.13789869949E+02 -0.31783344266E+02  0.81291782317E+02  0.88366822723E+02  0.00000000000E+00 0. -1.
         11    1    1    2    0    0 -0.16701407207E+02  0.61035311991E+02  0.88551230267E+02  0.10883734053E+03  0.00000000000E+00 0.  1.
</event>
<event>
 7    1  0.2723366E-009  0.1340277E+03  0.7561462E-02  0.1221599E+00
         -2   -1    0    0    0  501 -0.00000000000E+00  0.00000000000E+00  0.25368916402E+02  0.25368916402E+02  0.00000000000E+00 0. -1.
          2   -1    0    0  501    0  0.00000000000E+00 -0.00000000000E+00 -0.86268558941E+03  0.86268558941E+03  0.00000000000E+00 0.  1.
         25    2    1    2    0    0  0.69360908144E+02 -0.45000611999E+02 -0.27856827506E+03  0.31636078301E+03  0.12509144854E+03 0.  0.
          5    1    3    3  502    0  0.22196909988E+02 -0.83589733400E+02 -0.13555866881E+03  0.16085263887E+03  0.41800000000E+01 0.  1.
         -5    1    3    3    0  502  0.47163998155E+02  0.38589121402E+02 -0.14300960625E+03  0.15550814414E+03  0.41800000000E+01 0.  1.
        -11    1    1    2    0    0 -0.31207753284E+02 -0.25448494153E+02 -0.21430952845E+03  0.21805990852E+03  0.00000000000E+00 0. -1.
         11    1    1    2    0    0 -0.38153154859E+02  0.70449106151E+02 -0.34443886949E+03  0.35363381428E+03  0.00000000000E+00 0.  1.
</event>
<event>
 7    1  0.2723366E-009  0.1441194E+03  0.7561462E-02  0.1207891E+00
         -1   -1    0    0    0  501 -0.00000000000E+00  0.00000000000E+00  0.25729597525E+02  0.25729597525E+02  0.00000000000E+00 0.  1.
          1   -1    0    0  501    0  0.00000000000E+00 -0.00000000000E+00 -0.11207854308E+04  0.11207854308E+04  0.00000000000E+00 0. -1.
         25    2    1    2    0    0 -0.83752160994E+02  0.92816224382E+02 -0.70581090947E+03  0.72763028785E+03  0.12509004713E+03 0.  0.
          5    1    3    3  502    0  0.85505890933E+01  0.31604618887E+02 -0.41666064352E+03  0.41796594212E+03  0.41800000000E+01 0. -1.
         -5    1    3    3    0  502 -0.92302750087E+02  0.61211605495E+02 -0.28915026595E+03  0.30966434573E+03  0.41800000000E+01 0. -1.
        -11    1    1    2    0    0  0.95020486729E+02 -0.93234382188E+02 -0.38405359745E+03  0.40647104280E+03  0.00000000000E+00 0. -1.
         11    1    1    2    0    0 -0.11268325735E+02  0.41815780598E+00 -0.51913263672E+01  0.12413697687E+02  0.00000000000E+00 0.  1.
</event>
<event>
 7    1  0.2723366E-009  0.2613966E+03  0.7561462E-02  0.1106307E+00
          2   -1    0    0  501    0  0.00000000000E+00  0.00000000000E+00  0.62518101057E+02  0.62518101057E+02  0.00000000000E+00 0. -1.
         -2   -1    0    0    0  501 -0.00000000000E+00 -0.00000000000E+00 -0.12393446859E+04  0.12393446859E+04  0.00000000000E+00 0.  1.
         25    2    1    2    0    0  0.16279711222E+03  0.19146047558E+03 -0.49089846886E+03  0.56549885417E+03  0.12509050278E+03 0.  0.
          5    1    3    3  502    0  0.47097277919E+02  0.31490720156E+00 -0.38728258966E+02  0.61119581122E+02  0.41800000000E+01 0.  1.
         -5    1    3    3    0  502  0.11569983430E+03  0.19114556837E+03 -0.45217020989E+03  0.50437927305E+03  0.41800000000E+01 0.  1.
        -11    1    1    2    0    0 -0.34870375229E+02 -0.29704518809E+02 -0.24941566619E+03  0.25358721585E+03  0.00000000000E+00 0.  1.
         11    1    1    2    0    0 -0.12792673699E+03 -0.16175595677E+03 -0.43651244984E+03  0.48277671697E+03  0.00000000000E+00 0. -1.
</event>
<event>
 7    1  0.2723366E-009  0.9413466E+02  0.7561462E-02  0.1293137E+00
          1   -1    0    0  501    0  0.00000000000E+00  0.00000000000E+00  0.70441953999E+02  0.70441953999E+02  0.00000000000E+00 0. -1.
         -1   -1    0    0    0  501 -0.00000000000E+00 -0.00000000000E+00 -0.16457629407E+03  0.16457629407E+03  0.00000000000E+00 0.  1.
         25    2    1    2    0    0  0.39037202622E+01 -0.99372927975E+01 -0.59881651360E+02  0.13909604164E+03  0.12509159768E+03 0.  0.
          5    1    3    3  502    0  0.12045946584E+02 -0.58067768590E+02  0.28264124583E+01  0.59518329828E+02  0.41800000000E+01 0. -1.
         -5    1    3    3    0  502 -0.81422263215E+01  0.48130475792E+02 -0.62708063819E+02  0.79577711813E+02  0.41800000000E+01 0. -1.
        -11    1    1    2    0    0 -0.40595003111E+02 -0.35119627344E+01  0.43673941454E+01  0.40980023078E+02  0.00000000000E+00 0.  1.
         11    1    1    2    0    0  0.36691282849E+02  0.13449255532E+02 -0.38620082857E+02  0.54942183351E+02  0.00000000000E+00 0. -1.
</event>
<event>
 7    1  0.2723366E-009  0.4428251E+03  0.7561462E-02  0.1029884E+00
         -2   -1    0    0    0  501 -0.00000000000E+00  0.00000000000E+00  0.52306677131E+03  0.52306677131E+03  0.00000000000E+00 0.  1.
          2   -1    0    0  501    0  0.00000000000E+00 -0.00000000000E+00 -0.40054567164E+03  0.40054567164E+03  0.00000000000E+00 0. -1.
         25    2    1    2    0    0  0.19757729381E+03 -0.38672146229E+03  0.15705266332E+03  0.47843855746E+03  0.12509051836E+03 0.  0.
          5    1    3    3  502    0  0.14876583492E+03 -0.17315059189E+03  0.11373788884E+03  0.25508073403E+03  0.41800000000E+01 0. -1.
         -5    1    3    3    0  502  0.48811458890E+02 -0.21357087040E+03  0.43314774478E+02  0.22335782344E+03  0.41800000000E+01 0. -1.
        -11    1    1    2    0    0 -0.38815110469E+02  0.34773270189E+02 -0.27691416874E+02  0.59013622909E+02  0.00000000000E+00 0.  1.
         11    1    1    2    0    0 -0.15876218334E+03  0.35194819210E+03 -0.68401467741E+01  0.38616026257E+03  0.00000000000E+00 0. -1.
</event>
<event>
 7    1  0.2723366E-009  0.1298812E+03  0.7561462E-02  0.1227632E+00
          3   -1    0    0  501    0  0.00000000000E+00  0.00000000000E+00  0.80166980196E+02  0.80166980196E+02  0.00000000000E+00 0. -1.
         -3   -1    0    0    0  501 -0.00000000000E+00 -0.00000000000E+00 -0.22977377537E+03  0.22977377537E+03  0.00000000000E+00 0.  1.
         25    2    1    2    0    0  0.54036785082E+02  0.57467496390E+02 -0.93956023041E+02  0.17522024713E+03  0.12510760750E+03 0.  0.
          5    1    3    3  502    0  0.22780412261E+02 -0.33617843175E+02 -0.30163025186E+00  0.40824869177E+02  0.41800000000E+01 0. -1.
         -5    1    3    3    0  502  0.31256372821E+02  0.91085339564E+02 -0.93654392790E+02  0.13439537795E+03  0.41800000000E+01 0. -1.
        -11    1    1    2    0    0  0.55204290608E+01 -0.62533545056E+02 -0.31722468330E+02  0.70336579325E+02  0.00000000000E+00 0. -1.
         11    1    1    2    0    0 -0.59557214143E+02  0.50660486664E+01 -0.23928303807E+02  0.64383929118E+02  0.00000000000E+00 0.  1.
</event>
<event>
 7    1  0.2723366E-009  0.1046756E+03  0.7561462E-02  0.1270760E+00
         -3   -1    0    0    0  501 -0.00000000000E+00  0.00000000000E+00  0.33780193242E+03  0.33780193242E+03  0.00000000000E+00 0.  1.
          3   -1    0    0  501    0  0.00000000000E+00 -0.00000000000E+00 -0.55262506242E+02  0.55262506242E+02  0.00000000000E+00 0. -1.
         25    2    1    2    0    0 -0.22171672944E-01 -0.60985159046E+02  0.74359493538E+02  0.15778663342E+03  0.12509235505E+03 0.  0.
          5    1    3    3  502    0  0.36761674972E+02  0.11791400673E+02  0.64844546529E+02  0.75582706296E+02  0.41800000000E+01 0. -1.
         -5    1    3    3    0  502 -0.36783846645E+02 -0.72776559719E+02  0.95149470097E+01  0.82203927127E+02  0.41800000000E+01 0. -1.
        -11    1    1    2    0    0  0.26807429449E+02  0.56582978213E+01  0.14332727753E+03  0.14592245575E+03  0.00000000000E+00 0.  1.
         11    1    1    2    0    0 -0.26785257776E+02  0.55326861225E+02  0.64852655104E+02  0.89355349482E+02  0.00000000000E+00 0. -1.
</event>
<event>
 7    1  0.2723366E-009  0.1243672E+03  0.7561462E-02  0.1236062E+00
         -1   -1    0    0    0  501 -0.00000000000E+00  0.00000000000E+00  0.23807078767E+02  0.23807078767E+02  0.00000000000E+00 0.  1.
          1   -1    0    0  501    0  0.00000000000E+00 -0.00000000000E+00 -0.77632866065E+03  0.77632866065E+03  0.00000000000E+00 0. -1.
         25    2    1    2    0    0 -0.49754122022E+02  0.54927076946E+02 -0.32240212144E+03  0.35367274446E+03  0.12509526699E+03 0.  0.
          5    1    3    3  502    0 -0.68958477232E+02 -0.15239302790E+02 -0.13123789263E+03  0.14909179989E+03  0.41800000000E+01 0. -1.
         -5    1    3    3    0  502  0.19204355210E+02  0.70166379736E+02 -0.19116422881E+03  0.20458094457E+03  0.41800000000E+01 0. -1.
        -11    1    1    2    0    0 -0.80494334857E+01 -0.45920282418E+02 -0.90092686082E+02  0.10144041503E+03  0.00000000000E+00 0.  1.
         11    1    1    2    0    0  0.57803555508E+02 -0.90067945280E+01 -0.34002677436E+03  0.34502257992E+03  0.00000000000E+00 0. -1.
</event>
<event>
 7    1  0.2723366E-009  0.1281524E+03  0.7561462E-02  0.1230223E+00
          2   -1    0    0  501    0  0.00000000000E+00  0.00000000000E+00  0.80010576608E+03  0.80010576608E+03  0.00000000000E+00 0. -1.
         -2   -1    0    0    0  501 -0.00000000000E+00 -0.00000000000E+00 -0.24272969989E+02  0.24272969989E+02  0.00000000000E+00 0.  1.
         25    2    1    2    0    0  0.17310815193E+02  0.84803896840E+02  0.52303197351E+03  0.54470313388E+03  0.12509074104E+03 0.  0.
          5    1    3    3  502    0  0.33893377333E+02 -0.19566079582E+02  0.79153031657E+02  0.88398344541E+02  0.41800000000E+01 0.  1.
         -5    1    3    3    0  502 -0.16582562139E+02  0.10436997642E+03  0.44387894186E+03  0.45630478934E+03  0.41800000000E+01 0.  1.
        -11    1    1    2    0    0 -0.19032587360E+02  0.63125492518E+01  0.98092454934E+02  0.10012101365E+03  0.00000000000E+00 0.  1.
         11    1    1    2    0    0  0.17217721663E+01 -0.91116446091E+02  0.15470836765E+03  0.17955458855E+03  0.00000000000E+00 0. -1.
</event>
<event>
 7    1  0.2723366E-009  0.1226845E+03  0.7561462E-02  0.1238733E+00
          2   -1    0    0  501    0  0.00000000000E+00  0.00000000000E+00  0.43851079612E+03  0.43851079612E+03  0.00000000000E+00 0. -1.
         -2   -1    0    0    0  501 -0.00000000000E+00 -0.00000000000E+00 -0.51843285890E+02  0.51843285890E+02  0.00000000000E+00 0.  1.
         25    2    1    2    0    0 -0.47240778032E+02  0.93253164440E+02  0.21639437638E+03  0.27092764902E+03  0.12508965219E+03 0.  0.
          5    1    3    3  502    0  0.75843773802E+01  0.37416133775E+02  0.18084231845E+03  0.18487538070E+03  0.41800000000E+01 0.  1.
         -5    1    3    3    0  502 -0.54825155412E+02  0.55837030665E+02  0.35552057933E+02  0.86052268318E+02  0.41800000000E+01 0.  1.
        -11    1    1    2    0    0 -0.90666326588E+01 -0.64947546407E+02  0.12714547676E+03  0.14306068598E+03  0.00000000000E+00 0.  1.
         11    1    1    2    0    0  0.56307410691E+02 -0.28305618033E+02  0.43127657086E+02  0.76365747012E+02  0.00000000000E+00 0. -1.
</event>
<event>
 7    1  0.2723366E-009  0.2642536E+03  0.7561462E-02  0.1104614E+00
         -1   -1    0    0    0  501 -0.00000000000E+00  0.00000000000E+00  0.30648340596E+03  0.30648340596E+03  0.00000000000E+00 0.  1.
          1   -1    0    0  501    0  0.00000000000E+00 -0.00000000000E+00 -0.23149281986E+03  0.23149281986E+03  0.00000000000E+00 0. -1.
         25    2    1    2    0    0 -0.12328130475E+03 -0.20799115272E+03  0.53083903837E+02  0.27735339981E+03  0.12509359627E+03 0.  0.
          5    1    3    3  502    0 -0.10708454605E+03 -0.62908319322E+02  0.40805640185E+02  0.13079422508E+03  0.41800000000E+01 0.  1.
         -5    1    3    3    0  502 -0.16196758700E+02 -0.14508283340E+03  0.12278263652E+02  0.14655917473E+03  0.41800000000E+01 0.  1.
        -11    1    1    2    0    0  0.12573305899E+03  0.13248093960E+03  0.26893207565E+01  0.18266700284E+03  0.00000000000E+00 0.  1.
         11    1    1    2    0    0 -0.24517542413E+01  0.75510213124E+02  0.19217361510E+02  0.77955823184E+02  0.00000000000E+00 0. -1.
</event>
<event>
 7    1  0.2723366E-009  0.2180884E+03  0.7561462E-02  0.1135316E+00
          2   -1    0    0  501    0  0.00000000000E+00  0.00000000000E+00  0.87999339681E+03  0.87999339681E+03  0.00000000000E+00 0. -1.
         -2   -1    0    0    0  501 -0.00000000000E+00 -0.00000000000E+00 -0.58826859144E+02  0.58826859144E+02  0.00000000000E+00 0.  1.
         25    2    1    2    0    0  0.17871342686E+02  0.19508089306E+03  0.34526351000E+03  0.41620963750E+03  0.12509049237E+03 0.  0.
          5    1    3    3  502    0  0.67101047796E+02  0.70581412029E+02  0.12654196039E+03  0.15973298494E+03  0.41800000000E+01 0. -1.
         -5    1    3    3    0  502 -0.49229705110E+02  0.12449948103E+03  0.21872154961E+03  0.25647665256E+03  0.41800000000E+01 0. -1.
        -11    1    1    2    0    0 -0.35619676860E+02 -0.71235475747E+02  0.10924539967E+03  0.13519545752E+03  0.00000000000E+00 0.  1.
         11    1    1    2    0    0  0.17748334174E+02 -0.12384541732E+03  0.36665762800E+03  0.38741516094E+03  0.00000000000E+00 0. -1.
</event>
<event>
 7    1  0.2723366E-009  0.2363754E+03  0.7561462E-02  0.1122231E+00
         -1   -1    0    0    0  501 -0.00000000000E+00  0.00000000000E+00  0.94377510836E+03  0.94377510836E+03  0.00000000000E+00 0.  1.
          1   -1    0    0  501    0  0.00000000000E+00 -0.00000000000E+00 -0.61620398058E+02  0.61620398058E+02  0.00000000000E+00 0. -1.
         25    2    1    2    0    0  0.87911539219E+02 -0.19231703390E+03  0.46625851451E+03  0.52702825836E+03  0.12508997763E+03 0.  0.
          5    1    3    3  502    0  0.77074371337E+02 -0.31272588940E+02  0.18107785429E+03  0.19931155323E+03  0.41800000000E+01 0.  1.
         -5    1    3    3    0  502  0.10837167882E+02 -0.16104444496E+03  0.28518066022E+03  0.32771670514E+03  0.41800000000E+01 0.  1.
        -11    1    1    2    0    0 -0.95402113794E+02  0.11108406251E+03  0.20238065578E+03  0.24979824278E+03  0.00000000000E+00 0. -1.
         11    1    1    2    0    0  0.74905745753E+01  0.81232971394E+02  0.21351554001E+03  0.22856900528E+03  0.00000000000E+00 0.  1.
</event>
<event>
 7    1  0.2723366E-009  0.8701637E+02  0.7561462E-02  0.1310242E+00
         -4   -1    0    0    0  501 -0.00000000000E+00  0.00000000000E+00  0.10777472811E+03  0.10777472811E+03  0.00000000000E+00 0. -1.
          4   -1    0    0  501    0  0.00000000000E+00 -0.00000000000E+00 -0.16952965884E+03  0.16952965884E+03  0.00000000000E+00 0.  1.
         25    2    1    2    0    0  0.26190131632E+02  0.59051136202E+02 -0.83282183370E+02  0.16357813567E+03  0.12509566228E+03 0.  0.
          5    1    3    3  502    0  0.31884524349E+02  0.52409573128E+02  0.16230105631E+02  0.63594614373E+02  0.41800000000E+01 0.  1.
         -5    1    3    3    0  502 -0.56943927166E+01  0.66415630733E+01 -0.99512289002E+02  0.99983521296E+02  0.41800000000E+01 0.  1.
        -11    1    1    2    0    0 -0.40362515850E+02 -0.72712217186E+02  0.34623494867E+02  0.90083214922E+02  0.00000000000E+00 0. -1.
         11    1    1    2    0    0  0.14172384218E+02  0.13661080985E+02 -0.13096242218E+02  0.23643036360E+02  0.00000000000E+00 0.  1.
</event>
<event>
 7    1  0.2723366E-009  0.1075307E+03  0.7561462E-02  0.1265212E+00
          2   -1    0    0  501    0  0.00000000000E+00  0.00000000000E+00  0.29821144884E+03  0.29821144884E+03  0.00000000000E+00 0. -1.
         -2   -1    0    0    0  501 -0.00000000000E+00 -0.00000000000E+00 -0.44816815068E+02  0.44816815068E+02  0.00000000000E+00 0.  1.
         25    2    1    2    0    0 -0.17754939065E+00  0.40405824374E+02  0.13228832262E+03  0.18649520657E+03  0.12509036576E+03 0.  0.
          5    1    3    3  502    0 -0.24141502086E+02 -0.37397151379E+02  0.73356260650E+02  0.85906765920E+02  0.41800000000E+01 0. -1.
         -5    1    3    3    0  502  0.23963952695E+02  0.77802975753E+02  0.58932061969E+02  0.10058844065E+03  0.41800000000E+01 0. -1.
        -11    1    1    2    0    0 -0.38529104792E+02 -0.29782287617E+02  0.30568861588E+02  0.57497233590E+02  0.00000000000E+00 0.  1.
         11    1    1    2    0    0  0.38706654183E+02 -0.10623536757E+02  0.90537449567E+02  0.99035823747E+02  0.00000000000E+00 0. -1.
</event>
<event>
 7    1  0.2723366E-009  0.1045859E+03  0.7561462E-02  0.1270938E+00
         -3   -1    0    0    0  501 -0.00000000000E+00  0.00000000000E+00  0.30377914281E+03  0.30377914281E+03  0.00000000000E+00 0.  1.
          3   -1    0    0  501    0  0.00000000000E+00 -0.00000000000E+00 -0.66654812556E+02  0.66654812556E+02  0.00000000000E+00 0. -1.
         25    2    1    2    0    0 -0.64722561581E+02 -0.57971365820E+02  0.16606202654E+03  0.22532852978E+03  0.12508661177E+03 0.  0.
          5    1    3    3  502    0 -0.20618226391E+02 -0.68480473483E+02  0.16489225426E+03  0.17978213043E+03  0.41800000000E+01 0.  1.
         -5    1    3    3    0  502 -0.44104335189E+02  0.10509107664E+02  0.11697722760E+01  0.45546399348E+02  0.41800000000E+01 0.  1.
        -11    1    1    2    0    0  0.13579489667E+02 -0.13860677068E+01  0.65113266386E+02  0.66528649338E+02  0.00000000000E+00 0.  1.
         11    1    1    2    0    0  0.51143071913E+02  0.59357433526E+02  0.59490373280E+01  0.78576776243E+02  0.00000000000E+00 0. -1.
</event>
<event>
 7    1  0.2723366E-009  0.1199676E+03  0.7561462E-02  0.1243151E+00
         -2   -1    0    0    0  501 -0.00000000000E+00  0.00000000000E+00  0.40936204172E+02  0.40936204172E+02  0.00000000000E+00 0.  1.
          2   -1    0    0  501    0  0.00000000000E+00 -0.00000000000E+00 -0.52651189894E+03  0.52651189894E+03  0.00000000000E+00 0. -1.
         25    2    1    2    0    0  0.43085145392E+02 -0.85603882267E+02 -0.31982538040E+03  0.35653924814E+03  0.12509039574E+03 0.  0.
          5    1    3    3  502    0  0.34967738399E+02 -0.47298302824E+01 -0.23973236891E+03  0.24235138771E+03  0.41800000000E+01 0. -1.
         -5    1    3    3    0  502  0.81174069934E+01 -0.80874051984E+02 -0.80093011494E+02  0.11418786044E+03  0.41800000000E+01 0. -1.
        -11    1    1    2    0    0  0.58670423990E+01  0.71956812606E+02 -0.61132099336E+02  0.94600944161E+02  0.00000000000E+00 0.  1.
         11    1    1    2    0    0 -0.48952187791E+02  0.13647069660E+02 -0.10461821503E+03  0.11630791081E+03  0.00000000000E+00 0. -1.
</event>
<event>
 7    1  0.2723366E-009  0.1141094E+03  0.7561462E-02  0.1253144E+00
         -1   -1    0    0    0  501 -0.00000000000E+00  0.00000000000E+00  0.81959429596E+02  0.81959429596E+02  0.00000000000E+00 0.  1.
          1   -1    0    0  501    0  0.00000000000E+00 -0.00000000000E+00 -0.21029273838E+03  0.21029273838E+03  0.00000000000E+00 0. -1.
         25    2    1    2    0    0  0.40756870863E+02 -0.36041529373E+02 -0.24840820052E+02  0.13865477525E+03  0.12509183026E+03 0.  0.
          5    1    3    3  502    0  0.53811070797E+02 -0.64183374641E+02 -0.50749436993E+02  0.98020990996E+02  0.41800000000E+01 0.  1.
         -5    1    3    3    0  502 -0.13054199934E+02  0.28141845269E+02  0.25908616941E+02  0.40633784254E+02  0.41800000000E+01 0.  1.
        -11    1    1    2    0    0  0.23099708105E+02  0.43009234108E+02 -0.51445703771E+02  0.70922853648E+02  0.00000000000E+00 0.  1.
         11    1    1    2    0    0 -0.63856578968E+02 -0.69677047349E+01 -0.52046784957E+02  0.82674539074E+02  0.00000000000E+00 0. -1.
</event>
<event>
 7    1  0.2877889E-009  0.2010983E+03  0.7561462E-02  0.1148816E+00
         -2   -1    0    0    0  501 -0.00000000000E+00  0.00000000000E+00  0.52336167586E+02  0.52336167586E+02  0.00000000000E+00 0.  1.
          2   -1    0    0  501    0  0.00000000000E+00 -0.00000000000E+00 -0.96508548009E+03  0.96508548009E+03  0.00000000000E+00 0. -1.
         25    2    1    2    0    0 -0.18293756712E+03  0.12867747152E+01 -0.31202142280E+03  0.38271644870E+03  0.12508678016E+03 0.  0.
          5    1    3    3  502    0  0.42591772620E+01  0.28954704352E+02 -0.65928029254E+02  0.72252978737E+02  0.41800000000E+01 0.  1.
         -5    1    3    3    0  502 -0.18719674438E+03 -0.27667929637E+02 -0.24609339354E+03  0.31046346997E+03  0.41800000000E+01 0.  1.
        -11    1    1    2    0    0  0.11114835819E+03  0.52372118372E+01 -0.21279122836E+03  0.24012807579E+03  0.00000000000E+00 0.  1.
         11    1    1    2    0    0  0.71789208927E+02 -0.65239865524E+01 -0.38793666135E+03  0.39457712318E+03  0.00000000000E+00 0. -1.
</event>
<event>
 7    1  0.2723366E-009  0.1733904E+03  0.7561462E-02  0.1174358E+00
          2   -1    0    0  501    0  0.00000000000E+00  0.00000000000E+00  0.12291037164E+04  0.12291037164E+04  0.00000000000E+00 0. -1.
         -2   -1    0    0    0  501 -0.00000000000E+00 -0.00000000000E+00 -0.24922634923E+02  0.24922634923E+02  0.00000000000E+00 0.  1.
         25    2    1    2    0    0 -0.13639182525E+03  0.19511465867E+02  0.61724512257E+03  0.64468798645E+03  0.12509049220E+03 0.  0.
          5    1    3    3  502    0 -0.11953153371E+03 -0.37486316332E+02  0.38327439907E+03  0.40324899113E+03  0.41800000000E+01 0.  1.
         -5    1    3    3    0  502 -0.16860291545E+02  0.56997782199E+02  0.23397072350E+03  0.24143899532E+03  0.41800000000E+01 0.  1.
        -11    1    1    2    0    0  0.10309371894E+03  0.25176892683E+02  0.42626397579E+03  0.43927573102E+03  0.00000000000E+00 0. -1.
         11    1    1    2    0    0  0.33298106306E+02 -0.44688358550E+02  0.16067198312E+03  0.17006263386E+03  0.00000000000E+00 0.  1.
</event>
<event>
 7    1  0.2723366E-009  0.1117778E+03  0.7561462E-02  0.1257313E+00
          2   -1    0    0  501    0  0.00000000000E+00  0.00000000000E+00  0.35463114322E+03  0.35463114322E+03  0.00000000000E+00 0. -1.
         -2   -1    0    0    0  501 -0.00000000000E+00 -0.00000000000E+00 -0.50792617015E+02  0.50792617015E+02  0.00000000000E+00 0.  1.
         25    2    1    2    0    0  0.51940965603E+02  0.57903228915E+02  0.19366193561E+03  0.24331773786E+03  0.12509168008E+03 0.  0.
          5    1    3    3  502    0  0.69521152518E+02 -0.14360683408E+02  0.76192640217E+02  0.10422193003E+03  0.41800000000E+01 0. -1.
         -5    1    3    3    0  502 -0.17580186915E+02  0.72263912323E+02  0.11746929539E+03  0.13909580783E+03  0.41800000000E+01 0. -1.
        -11    1    1    2    0    0 -0.95449859970E+01 -0.13793156379E+02 -0.15175847341E+02  0.22619996974E+02  0.00000000000E+00 0.  1.
         11    1    1    2    0    0 -0.42395979606E+02 -0.44110072536E+02  0.12535243794E+03  0.13948602541E+03  0.00000000000E+00 0. -1.
</event>
<event>
 7    1  0.2723366E-009  0.1211406E+03  0.7561462E-02  0.1241227E+00
          1   -1    0    0  501    0  0.00000000000E+00  0.00000000000E+00  0.12710825703E+03  0.12710825703E+03  0.00000000000E+00 0. -1.
         -1   -1    0    0    0  501 -0.00000000000E+00 -0.00000000000E+00 -0.16699330730E+03  0.16699330730E+03  0.00000000000E+00 0.  1.
         25    2    1    2    0    0  0.33641981810E+02  0.83215385125E+02 -0.60282896102E+02  0.16535306043E+03  0.12510405177E+03 0.  0.
          5    1    3    3  502    0  0.70104560778E+02  0.21431757211E+02 -0.30588638286E+01  0.73490126595E+02  0.41800000000E+01 0. -1.
         -5    1    3    3    0  502 -0.36462578968E+02  0.61783627913E+02 -0.57224032274E+02  0.91862933835E+02  0.41800000000E+01 0. -1.
        -11    1    1    2    0    0 -0.39935699911E+02 -0.54325558593E+02 -0.27208206289E+02  0.72707722652E+02  0.00000000000E+00 0.  1.
         11    1    1    2    0    0  0.62937181010E+01 -0.28889826532E+02  0.47606052121E+02  0.56040781251E+02  0.00000000000E+00 0. -1.
</event>
<event>
 7    1  0.2937892E-009  0.1052599E+03  0.7561462E-02  0.1269608E+00
         -2   -1    0    0    0  501 -0.00000000000E+00  0.00000000000E+00  0.29148990048E+02  0.29148990048E+02  0.00000000000E+00 0.  1.
          2   -1    0    0  501    0  0.00000000000E+00 -0.00000000000E+00 -0.66019785256E+03  0.66019785256E+03  0.00000000000E+00 0. -1.
         25    2    1    2    0    0 -0.55318516021E+02 -0.65984568920E+02 -0.36643024440E+03  0.39665193603E+03  0.12509009871E+03 0.  0.
          5    1    3    3  502    0 -0.43397915182E+02  0.20248611147E+01 -0.29120462137E+03  0.29445726856E+03  0.41800000000E+01 0. -1.
         -5    1    3    3    0  502 -0.11920600839E+02 -0.68009430035E+02 -0.75225623035E+02  0.10219466747E+03  0.41800000000E+01 0. -1.
        -11    1    1    2    0    0  0.22240384840E+02  0.60127378702E+02 -0.68892455332E+02  0.94106890232E+02  0.00000000000E+00 0.  1.
         11    1    1    2    0    0  0.33078131181E+02  0.58571902186E+01 -0.19572616277E+03  0.19858801634E+03  0.00000000000E+00 0. -1.
</event>
<event>
 7    1  0.2723366E-009  0.9723310E+02  0.7561462E-02  0.1286224E+00
          2   -1    0    0  501    0  0.00000000000E+00  0.00000000000E+00  0.16884566086E+03  0.16884566086E+03  0.00000000000E+00 0. -1.
         -2   -1    0    0    0  501 -0.00000000000E+00 -0.00000000000E+00 -0.81309731642E+02  0.81309731642E+02  0.00000000000E+00 0.  1.
         25    2    1    2    0    0 -0.27293239005E+02  0.28813141347E+02  0.67223737767E+02  0.14744654594E+03  0.12508531081E+03 0.  0.
          5    1    3    3  502    0  0.16056853135E+02  0.58305196400E+02  0.72593316839E+02  0.94575792408E+02  0.41800000000E+01 0. -1.
         -5    1    3    3    0  502 -0.43350092141E+02 -0.29492055053E+02 -0.53695790719E+01  0.52870753534E+02  0.41800000000E+01 0. -1.
        -11    1    1    2    0    0  0.48600893862E+02 -0.34007106225E+02 -0.14959699219E+02  0.61174527041E+02  0.00000000000E+00 0.  1.
         11    1    1    2    0    0 -0.21307654856E+02  0.51939648779E+01  0.35271890672E+02  0.41534319523E+02  0.00000000000E+00 0. -1.
</event>
<event>
 7    1  0.2723366E-009  0.9068362E+02  0.7561462E-02  0.1301205E+00
         -1   -1    0    0    0  501 -0.00000000000E+00  0.00000000000E+00  0.70322582822E+02  0.70322582822E+02  0.00000000000E+00 0.  1.
          1   -1    0    0  501    0  0.00000000000E+00 -0.00000000000E+00 -0.18074124834E+03  0.18074124834E+03  0.00000000000E+00 0. -1.
         25    2    1    2    0    0 -0.24192586104E+02 -0.17550363590E+02 -0.73596447084E+02  0.14818177286E+03  0.12509238307E+03 0.  0.
          5    1    3    3  502    0  0.10975963286E+02 -0.47904459355E+02  0.11945595050E+02  0.50749173759E+02  0.41800000000E+01 0. -1.
         -5    1    3    3    0  502 -0.35168549390E+02  0.30354095765E+02 -0.85542042134E+02  0.97432599105E+02  0.41800000000E+01 0. -1.
        -11    1    1    2    0    0 -0.49272153030E+01  0.45067199620E+02  0.42141478623E+01  0.45531186833E+02  0.00000000000E+00 0.  1.
         11    1    1    2    0    0  0.29119801407E+02 -0.27516836030E+02 -0.41036366299E+02  0.57350871468E+02  0.00000000000E+00 0. -1.
</event>
<event>
 7    1  0.2723366E-009  0.1460212E+03  0.7561462E-02  0.1205449E+00
         -2   -1    0    0    0  501 -0.00000000000E+00  0.00000000000E+00  0.28069590881E+03  0.28069590881E+03  0.00000000000E+00 0. -1.
          2   -1    0    0  501    0  0.00000000000E+00 -0.00000000000E+00 -0.97719756512E+02  0.97719756512E+02  0.00000000000E+00 0.  1.
         25    2    1    2    0    0  0.11550575401E+03  0.35176761552E+02  0.13303851941E+03  0.21891676265E+03  0.12508524116E+03 0.  0.
          5    1    3    3  502    0  0.84261285795E+02  0.76556654516E+02  0.11963303675E+03  0.16519812806E+03  0.41800000000E+01 0. -1.
         -5    1    3    3    0  502  0.31244468218E+02 -0.41379892965E+02  0.13405482668E+02  0.53718634584E+02  0.41800000000E+01 0. -1.
        -11    1    1    2    0    0 -0.11248260650E+03 -0.24654600942E+02  0.71960585550E+01  0.11537750808E+03  0.00000000000E+00 0.  1.
         11    1    1    2    0    0 -0.30231475139E+01 -0.10522160609E+02  0.42741574329E+02  0.44121394594E+02  0.00000000000E+00 0. -1.
</event>
<event>
 7    1  0.2975783E-009  0.7708580E+02  0.7561462E-02  0.1337531E+00
         -2   -1    0    0    0  501 -0.00000000000E+00  0.00000000000E+00  0.86321444540E+02  0.86321444540E+02  0.00000000000E+00 0.  1.
          2   -1    0    0  501    0  0.00000000000E+00 -0.00000000000E+00 -0.15412194010E+03  0.15412194010E+03  0.00000000000E+00 0. -1.
         25    2    1    2    0    0 -0.31326004619E+02 -0.25394227181E+02 -0.34915473975E+02  0.13599167037E+03  0.12509379980E+03 0.  0.
          5    1    3    3  502    0 -0.40069301470E+02 -0.34164269690E+02  0.35973000488E+02  0.63908335981E+02  0.41800000000E+01 0. -1.
         -5    1    3    3    0  502  0.87432968514E+01  0.87700425094E+01 -0.70888474463E+02  0.72083334393E+02  0.41800000000E+01 0. -1.
        -11    1    1    2    0    0  0.24195176457E+02 -0.26507541941E+02  0.94301105535E+01  0.37107725996E+02  0.00000000000E+00 0.  1.
         11    1    1    2    0    0  0.71308281619E+01  0.51901769122E+02 -0.42315132140E+02  0.67343988272E+02  0.00000000000E+00 0. -1.
</event>
<event>
 7    1  0.2723366E-009  0.1134660E+03  0.7561462E-02  0.1254283E+00
         -1   -1    0    0    0  501 -0.00000000000E+00  0.00000000000E+00  0.60230834141E+02  0.60230834141E+02  0.00000000000E+00 0. -1.
          1   -1    0    0  501    0  0.00000000000E+00 -0.00000000000E+00 -0.26168955209E+03  0.26168955209E+03  0.00000000000E+00 0.  1.
         25    2    1    2    0    0  0.61275221522E+02  0.14839959100E+02 -0.11397542118E+03  0.18058982650E+03  0.12508961445E+03 0.  0.
          5    1    3    3  502    0 -0.71458444093E+01 -0.42926905185E+02 -0.65301344352E+02  0.78584478463E+02  0.41800000000E+01 0. -1.
         -5    1    3    3    0  502  0.68421065931E+02  0.57766864285E+02 -0.48674076830E+02  0.10200534803E+03  0.41800000000E+01 0. -1.
        -11    1    1    2    0    0  0.15529001914E+02 -0.36893813072E+01 -0.54874814193E+02  0.57148986584E+02  0.00000000000E+00 0.  1.
         11    1    1    2    0    0 -0.76804223435E+02 -0.11150577793E+02 -0.32608482577E+02  0.84181573154E+02  0.00000000000E+00 0. -1.
</event>
<event>
 7    1  0.2723366E-009  0.2209461E+03  0.7561462E-02  0.1133180E+00
         -4   -1    0    0    0  501 -0.00000000000E+00  0.00000000000E+00  0.14871810463E+03  0.14871810463E+03  0.00000000000E+00 0.  1.
          4   -1    0    0  501    0  0.00000000000E+00 -0.00000000000E+00 -0.39645361610E+03  0.39645361610E+03  0.00000000000E+00 0. -1.
         25    2    1    2    0    0  0.17202263009E+03  0.12741209607E+03 -0.92801816681E+02  0.26473746553E+03  0.12509244976E+03 0.  0.
          5    1    3    3  502    0  0.14554869602E+03  0.10519694196E+03 -0.15915480880E+02  0.18033744603E+03  0.41800000000E+01 0. -1.
         -5    1    3    3    0  502  0.26473934070E+02  0.22215154107E+02 -0.76886335801E+02  0.84400019491E+02  0.41800000000E+01 0. -1.
        -11    1    1    2    0    0 -0.39846692261E+02  0.52340474418E+01 -0.49029196155E+01  0.40486945520E+02  0.00000000000E+00 0.  1.
         11    1    1    2    0    0 -0.13217593783E+03 -0.13264614351E+03 -0.15003077517E+03  0.23994730969E+03  0.00000000000E+00 0. -1.
</event>
<event>
 7    1  0.2723366E-009  0.9971746E+02  0.7561462E-02  0.1280891E+00
         -3   -1    0    0    0  501 -0.00000000000E+00  0.00000000000E+00  0.11280394249E+03  0.11280394249E+03  0.00000000000E+00 0.  1.
          3   -1    0    0  501    0  0.00000000000E+00 -0.00000000000E+00 -0.10928111795E+03  0.10928111795E+03  0.00000000000E+00 0. -1.
         25    2    1    2    0    0 -0.90095891358E+01 -0.66438513251E+01 -0.19398228560E+02  0.12708208408E+03  0.12509297089E+03 0.  0.
          5    1    3    3  502    0  0.31366367253E+02 -0.54285608820E+02 -0.64286346265E+01  0.63163090985E+02  0.41800000000E+01 0.  1.
         -5    1    3    3    0  502 -0.40375956389E+02  0.47641757495E+02 -0.12969593934E+02  0.63918993096E+02  0.41800000000E+01 0.  1.
        -11    1    1    2    0    0 -0.82189632278E+01 -0.31287924241E+02  0.38712576507E+02  0.50449471153E+02  0.00000000000E+00 0.  1.
         11    1    1    2    0    0  0.17228552364E+02  0.37931775566E+02 -0.15791523410E+02  0.44553505201E+02  0.00000000000E+00 0. -1.
</event>
<event>
 7    1  0.2723366E-009  0.9646568E+02  0.7561462E-02  0.1287909E+00
          2   -1    0    0  501    0  0.00000000000E+00  0.00000000000E+00  0.41085078302E+03  0.41085078302E+03  0.00000000000E+00 0.  1.
         -2   -1    0    0    0  501 -0.00000000000E+00 -0.00000000000E+00 -0.36263276972E+02  0.36263276972E+02  0.00000000000E+00 0. -1.
         25    2    1    2    0    0 -0.35570472786E+02 -0.25788365809E+02  0.28669908509E+03  0.31587128678E+03  0.12509199046E+03 0.  0.
          5    1    3    3  502    0  0.13623906310E+02 -0.43431957356E+02  0.31916614956E+02  0.55750232763E+02  0.41800000000E+01 0. -1.
         -5    1    3    3    0  502 -0.49194379096E+02  0.17643591547E+02  0.25478247013E+03  0.26012105402E+03  0.41800000000E+01 0. -1.
        -11    1    1    2    0    0  0.13937888682E+02  0.55958112191E+02  0.67884785600E+02  0.89072550075E+02  0.00000000000E+00 0.  1.
         11    1    1    2    0    0  0.21632584104E+02 -0.30169746382E+02  0.20003635363E+02  0.42170223138E+02  0.00000000000E+00 0. -1.
</event>
<event>
 7    1  0.2723366E-009  0.1039197E+03  0.7561462E-02  0.1272263E+00
          1   -1    0    0  501    0  0.00000000000E+00  0.00000000000E+00  0.37897757559E+02  0.37897757559E+02  0.00000000000E+00 0. -1.
         -1   -1    0    0    0  501 -0.00000000000E+00 -0.00000000000E+00 -0.36193719653E+03  0.36193719653E+03  0.00000000000E+00 0.  1.
         25    2    1    2    0    0  0.14770548033E+01  0.34847576456E+02 -0.22640683610E+03  0.26100579953E+03  0.12508971452E+03 0.  0.
          5    1    3    3  502    0  0.42029840034E+02  0.66000365072E+02 -0.12975343065E+03  0.15157829927E+03  0.41800000000E+01 0.  1.
         -5    1    3    3    0  502 -0.40552785231E+02 -0.31152788616E+02 -0.96653405449E+02  0.10942750026E+03  0.41800000000E+01 0.  1.
        -11    1    1    2    0    0 -0.33304568326E+02 -0.34791049383E+01 -0.23265110321E+01  0.33566517486E+02  0.00000000000E+00 0. -1.
         11    1    1    2    0    0  0.31827513523E+02 -0.31368471517E+02 -0.95306091841E+02  0.10526263708E+03  0.00000000000E+00 0.  1.
</event>
<event>
 7    1  0.2723366E-009  0.7385067E+02  0.7561462E-02  0.1347468E+00
          3   -1    0    0  501    0  0.00000000000E+00  0.00000000000E+00  0.29696468701E+02  0.29696468701E+02  0.00000000000E+00 0. -1.
         -3   -1    0    0    0  501 -0.00000000000E+00 -0.00000000000E+00 -0.41280114487E+03  0.41280114487E+03  0.00000000000E+00 0.  1.
         25    2    1    2    0    0 -0.19444225026E+02  0.31180216957E+01 -0.25114732664E+03  0.28126673272E+03  0.12509274682E+03 0.  0.
          5    1    3    3  502    0 -0.22836785513E+02  0.44866031264E+02 -0.35979089000E+02  0.62019728951E+02  0.41800000000E+01 0. -1.
         -5    1    3    3    0  502  0.33925604868E+01 -0.41748009568E+02 -0.21516823764E+03  0.21924700376E+03  0.41800000000E+01 0. -1.
        -11    1    1    2    0    0 -0.17159649102E+02  0.44178989027E+01  0.56821951938E+01  0.18608028650E+02  0.00000000000E+00 0.  1.
         11    1    1    2    0    0  0.36603874128E+02 -0.75359205985E+01 -0.13763954472E+03  0.14262285221E+03  0.00000000000E+00 0. -1.
</event>
<event>
 7    1  0.2723366E-009  0.3656471E+03  0.7561462E-02  0.1056370E+00
          1   -1    0    0  501    0  0.00000000000E+00  0.00000000000E+00  0.39174093579E+03  0.39174093579E+03  0.00000000000E+00 0. -1.
         -1   -1    0    0    0  501 -0.00000000000E+00 -0.00000000000E+00 -0.54394994090E+03  0.54394994090E+03  0.00000000000E+00 0.  1.
         25    2    1    2    0    0  0.32493360228E+03 -0.12774321067E+03  0.20846313832E+03  0.42544523218E+03  0.12508633732E+03 0.  0.
          5    1    3    3  502    0  0.18943419342E+03 -0.13876103390E+03  0.13317399705E+03  0.26998652569E+03  0.41800000000E+01 0.  1.
         -5    1    3    3    0  502  0.13549940886E+03  0.11017823231E+02  0.75289141276E+02  0.15545870649E+03  0.41800000000E+01 0.  1.
        -11    1    1    2    0    0 -0.58350488451E+02  0.63448432087E+02 -0.97942144998E+02  0.13047278185E+03  0.00000000000E+00 0.  1.
         11    1    1    2    0    0 -0.26658311383E+03  0.64294778582E+02 -0.26272999844E+03  0.37977286266E+03  0.00000000000E+00 0. -1.
</event>
<event>
 7    1  0.2723366E-009  0.8122890E+02  0.7561462E-02  0.1325600E+00
          2   -1    0    0  501    0  0.00000000000E+00  0.00000000000E+00  0.92941271712E+02  0.92941271712E+02  0.00000000000E+00 0. -1.
         -2   -1    0    0    0  501 -0.00000000000E+00 -0.00000000000E+00 -0.16847687852E+03  0.16847687852E+03  0.00000000000E+00 0.  1.
         25    2    1    2    0    0  0.16194310186E+02  0.36873459021E+02 -0.94721826661E+02  0.16199198157E+03  0.12508904821E+03 0.  0.
          5    1    3    3  502    0  0.49356817225E+02  0.19924957246E+02 -0.10940843548E+03  0.12174061558E+03  0.41800000000E+01 0.  1.
         -5    1    3    3    0  502 -0.33162507038E+02  0.16948501774E+02  0.14686608815E+02  0.40251365989E+02  0.41800000000E+01 0.  1.
        -11    1    1    2    0    0 -0.17515129711E+02 -0.52789821073E+02 -0.18402675596E+02  0.58585010428E+02  0.00000000000E+00 0.  1.
         11    1    1    2    0    0  0.13208195248E+01  0.15916362053E+02  0.37588895449E+02  0.40841158239E+02  0.00000000000E+00 0. -1.
</event>
<event>
 7    1  0.2723366E-009  0.1017378E+03  0.7561462E-02  0.1276683E+00
          1   -1    0    0  501    0  0.00000000000E+00  0.00000000000E+00  0.33427401636E+03  0.33427401636E+03  0.00000000000E+00 0. -1.
         -1   -1    0    0    0  501 -0.00000000000E+00 -0.00000000000E+00 -0.47460730407E+02  0.47460730407E+02  0.00000000000E+00 0.  1.
         25    2    1    2    0    0 -0.38623048810E+01  0.13346366467E+02  0.26549964983E+03  0.29382395574E+03  0.12509760193E+03 0.  0.
          5    1    3    3  502    0  0.25304402303E+02  0.62454172417E+02  0.16262576167E+03  0.17608363691E+03  0.41800000000E+01 0. -1.
         -5    1    3    3    0  502 -0.29166707184E+02 -0.49107805949E+02  0.10287388816E+03  0.11774031883E+03  0.41800000000E+01 0. -1.
        -11    1    1    2    0    0  0.16998963070E+02  0.29406211881E+02 -0.73985597086E+01  0.34762461483E+02  0.00000000000E+00 0.  1.
         11    1    1    2    0    0 -0.13136658189E+02 -0.42752578348E+02  0.28712195828E+02  0.53148329542E+02  0.00000000000E+00 0. -1.
</event>
<event>
 7    1  0.2723366E-009  0.5791041E+02  0.7561462E-02  0.1406816E+00
          2   -1    0    0  501    0  0.00000000000E+00  0.00000000000E+00  0.18859629395E+03  0.18859629395E+03  0.00000000000E+00 0. -1.
         -2   -1    0    0    0  501 -0.00000000000E+00 -0.00000000000E+00 -0.69064326769E+02  0.69064326769E+02  0.00000000000E+00 0.  1.
         25    2    1    2    0    0 -0.13919500123E+02 -0.21357220673E+02  0.96360418034E+02  0.15994518028E+03  0.12508895704E+03 0.  0.
          5    1    3    3  502    0 -0.63070872633E+01 -0.41320571888E+02  0.12039701586E+03  0.12751502986E+03  0.41800000000E+01 0.  1.
         -5    1    3    3    0  502 -0.76124128593E+01  0.19963351215E+02 -0.24036597828E+02  0.32430150422E+02  0.41800000000E+01 0.  1.
        -11    1    1    2    0    0 -0.13816853347E+02 -0.40815165653E+01 -0.29587311173E+02  0.32908558102E+02  0.00000000000E+00 0.  1.
         11    1    1    2    0    0  0.27736353469E+02  0.25438737238E+02  0.52758860320E+02  0.64806882338E+02  0.00000000000E+00 0. -1.
</event>
<event>
 7    1  0.2723366E-009  0.5396465E+02  0.7561462E-02  0.1425060E+00
         -1   -1    0    0    0  501 -0.00000000000E+00  0.00000000000E+00  0.98027859976E+02  0.98027859976E+02  0.00000000000E+00 0.  1.
          1   -1    0    0  501    0  0.00000000000E+00 -0.00000000000E+00 -0.13988642479E+03  0.13988642479E+03  0.00000000000E+00 0. -1.
         25    2    1    2    0    0  0.33297553581E+02  0.24187755155E+02 -0.39779584376E+02  0.13756495834E+03  0.12509167781E+03 0.  0.
          5    1    3    3  502    0  0.54303636870E+01  0.35640392157E+02 -0.79584035421E+02  0.87468951616E+02  0.41800000000E+01 0.  1.
         -5    1    3    3    0  502  0.27867189894E+02 -0.11452637002E+02  0.39804451044E+02  0.50096006726E+02  0.41800000000E+01 0.  1.
        -11    1    1    2    0    0 -0.21714189562E+02 -0.17098935657E+02  0.44193975013E+02  0.52124725960E+02  0.00000000000E+00 0.  1.
         11    1    1    2    0    0 -0.11583364020E+02 -0.70888194980E+01 -0.46272955450E+02  0.48224600465E+02  0.00000000000E+00 0. -1.
</event>
<event>
 7    1  0.2723366E-009  0.1185237E+03  0.7561462E-02  0.1245552E+00
          2   -1    0    0  501    0  0.00000000000E+00  0.00000000000E+00  0.12317925263E+03  0.12317925263E+03  0.00000000000E+00 0. -1.
         -2   -1    0    0    0  501 -0.00000000000E+00 -0.00000000000E+00 -0.20310821062E+03  0.20310821062E+03  0.00000000000E+00 0.  1.
         25    2    1    2    0    0 -0.18958331698E+02  0.90340886503E+02  0.31078893957E+02  0.15853673981E+03  0.12508839316E+03 0.  0.
          5    1    3    3  502    0 -0.27004320045E+02 -0.13241467614E+02  0.44313972777E+02  0.53719366610E+02  0.41800000000E+01 0. -1.
         -5    1    3    3    0  502  0.80459883465E+01  0.10358235412E+03 -0.13235078820E+02  0.10481737320E+03  0.41800000000E+01 0. -1.
        -11    1    1    2    0    0 -0.12998187079E+02 -0.47565894927E+02 -0.10241798331E+03  0.11367018313E+03  0.00000000000E+00 0.  1.
         11    1    1    2    0    0  0.31956518778E+02 -0.42774991576E+02 -0.85898686416E+01  0.54080540308E+02  0.00000000000E+00 0. -1.
</event>
<event>
 7    1  0.2723366E-009  0.1146600E+03  0.7561462E-02  0.1252176E+00
         -1   -1    0    0    0  501 -0.00000000000E+00  0.00000000000E+00  0.54024146511E+02  0.54024146511E+02  0.00000000000E+00 0.  1.
          1   -1    0    0  501    0  0.00000000000E+00 -0.00000000000E+00 -0.36702612177E+03  0.36702612177E+03  0.00000000000E+00 0. -1.
         25    2    1    2    0    0 -0.28567279710E+02  0.11960665787E+02 -0.28566261299E+03  0.31338473397E+03  0.12509083112E+03 0.  0.
          5    1    3    3  502    0 -0.28508503349E+02  0.66544487660E+02 -0.18673190922E+03  0.20031770247E+03  0.41800000000E+01 0. -1.
         -5    1    3    3    0  502 -0.58776360546E-01 -0.54583821873E+02 -0.98930703763E+02  0.11306703150E+03  0.41800000000E+01 0. -1.
        -11    1    1    2    0    0  0.56918535937E+02  0.19071284303E+02 -0.26516699447E+02  0.65624454038E+02  0.00000000000E+00 0. -1.
         11    1    1    2    0    0 -0.28351256228E+02 -0.31031950090E+02 -0.82266282260E+00  0.42041080269E+02  0.00000000000E+00 0.  1.
</event>
<event>
 7    1  0.2723366E-009  0.8064694E+02  0.7561462E-02  0.1327225E+00
          2   -1    0    0  501    0  0.00000000000E+00  0.00000000000E+00  0.10151186514E+03  0.10151186514E+03  0.00000000000E+00 0. -1.
         -2   -1    0    0    0  501 -0.00000000000E+00 -0.00000000000E+00 -0.11319459751E+03  0.11319459751E+03  0.00000000000E+00 0.  1.
         25    2    1    2    0    0 -0.29308771603E+01 -0.36908142729E+01 -0.16222183487E+02  0.12623571140E+03  0.12510029355E+03 0.  0.
          5    1    3    3  502    0  0.37328878587E+02 -0.41364170105E+02  0.20877899913E+02  0.59647287028E+02  0.41800000000E+01 0. -1.
         -5    1    3    3    0  502 -0.40259755747E+02  0.37673355832E+02 -0.37100083401E+02  0.66588424376E+02  0.41800000000E+01 0. -1.
        -11    1    1    2    0    0  0.73735253237E+01 -0.22438994912E+02 -0.34180920624E+02  0.41547715979E+02  0.00000000000E+00 0.  1.
         11    1    1    2    0    0 -0.44426481633E+01  0.26129809185E+02  0.38720371740E+02  0.46923035265E+02  0.00000000000E+00 0. -1.
</event>
<event>
 7    1  0.2723366E-009  0.1107372E+03  0.7561462E-02  0.1259211E+00
          1   -1    0    0  501    0  0.00000000000E+00  0.00000000000E+00  0.18905467714E+02  0.18905467714E+02  0.00000000000E+00 0. -1.
         -1   -1    0    0    0  501 -0.00000000000E+00 -0.00000000000E+00 -0.78380891564E+03  0.78380891564E+03  0.00000000000E+00 0.  1.
         25    2    1    2    0    0  0.19116405956E+02 -0.40286362616E+02 -0.55241552419E+03  0.56815346452E+03  0.12508804853E+03 0.  0.
          5    1    3    3  502    0 -0.97753676333E+01 -0.75588273362E+02 -0.44311754937E+03  0.44964405905E+03  0.41800000000E+01 0.  1.
         -5    1    3    3    0  502  0.28891773589E+02  0.35301910746E+02 -0.10929797483E+03  0.11850940547E+03  0.41800000000E+01 0.  1.
        -11    1    1    2    0    0 -0.54760026260E+02  0.28882560844E+02 -0.13328098747E+03  0.14695810429E+03  0.00000000000E+00 0.  1.
         11    1    1    2    0    0  0.35643620304E+02  0.11403801772E+02 -0.79206936268E+02  0.87602814545E+02  0.00000000000E+00 0. -1.
</event>
<event>
 7    1  0.2723366E-009  0.1356413E+03  0.7561462E-02  0.1219317E+00
         -1   -1    0    0    0  501 -0.00000000000E+00  0.00000000000E+00  0.26117082198E+03  0.26117082198E+03  0.00000000000E+00 0.  1.
          1   -1    0    0  501    0  0.00000000000E+00 -0.00000000000E+00 -0.10082812416E+03  0.10082812416E+03  0.00000000000E+00 0. -1.
         25    2    1    2    0    0 -0.91739344449E+02  0.75975204060E+02  0.62748909575E+02  0.18377527016E+03  0.12509030864E+03 0.  0.
          5    1    3    3  502    0 -0.30300443354E+02  0.42726657884E+02 -0.35307100937E+02  0.63306776398E+02  0.41800000000E+01 0. -1.
         -5    1    3    3    0  502 -0.61438901095E+02  0.33248546177E+02  0.98056010512E+02  0.12046849376E+03  0.41800000000E+01 0. -1.
        -11    1    1    2    0    0 -0.71008475909E+01 -0.44439729236E+02  0.23815064106E+02  0.50916292574E+02  0.00000000000E+00 0.  1.
         11    1    1    2    0    0  0.98840192040E+02 -0.31535474824E+02  0.73778724141E+02  0.12730738341E+03  0.00000000000E+00 0. -1.
</event>
<event>
 7    1  0.2723366E-009  0.2132076E+03  0.7561462E-02  0.1139051E+00
         -2   -1    0    0    0  501 -0.00000000000E+00  0.00000000000E+00  0.88240149598E+02  0.88240149598E+02  0.00000000000E+00 0.  1.
          2   -1    0    0  501    0  0.00000000000E+00 -0.00000000000E+00 -0.62948908398E+03  0.62948908398E+03  0.00000000000E+00 0. -1.
         25    2    1    2    0    0 -0.23161434703E+01  0.20593130533E+03 -0.33555641615E+03  0.41311115822E+03  0.12509857548E+03 0.  0.
          5    1    3    3  502    0 -0.51947662401E+00 -0.32057319424E+01  0.87573521052E+01  0.10232799673E+02  0.41800000000E+01 0.  1.
         -5    1    3    3    0  502 -0.17966668463E+01  0.20913703727E+03 -0.34431376826E+03  0.40287835854E+03  0.41800000000E+01 0.  1.
        -11    1    1    2    0    0  0.17330700836E+02 -0.18686433468E+03 -0.13868168912E+03  0.23334790263E+03  0.00000000000E+00 0.  1.
         11    1    1    2    0    0 -0.15014557365E+02 -0.19066970651E+02 -0.67010829116E+02  0.71270172734E+02  0.00000000000E+00 0. -1.
</event>
<event>
 7    1  0.2723366E-009  0.2764151E+03  0.7561462E-02  0.1097663E+00
         -2   -1    0    0    0  501 -0.00000000000E+00  0.00000000000E+00  0.55068320766E+03  0.55068320766E+03  0.00000000000E+00 0.  1.
          2   -1    0    0  501    0  0.00000000000E+00 -0.00000000000E+00 -0.15965511884E+03  0.15965511884E+03  0.00000000000E+00 0. -1.
         25    2    1    2    0    0 -0.19495386013E+03 -0.18728549399E+03  0.13560503118E+03  0.32729053975E+03  0.12509000396E+03 0.  0.
          5    1    3    3  502    0 -0.81446248051E+02 -0.27206420729E+02  0.92592221594E+02  0.12635059379E+03  0.41800000000E+01 0.  1.
         -5    1    3    3    0  502 -0.11350761208E+03 -0.16007907326E+03  0.43012809585E+02  0.20093994597E+03  0.41800000000E+01 0.  1.
        -11    1    1    2    0    0  0.15280529756E+03  0.15308776659E+03  0.14617701184E+03  0.26106137598E+03  0.00000000000E+00 0. -1.
         11    1    1    2    0    0  0.42148562571E+02  0.34197727403E+02  0.10924604580E+03  0.12198641076E+03  0.00000000000E+00 0.  1.
</event>
<event>
 7    1  0.2723366E-009  0.1248158E+03  0.7561462E-02  0.1235357E+00
         -2   -1    0    0    0  501 -0.00000000000E+00  0.00000000000E+00  0.23837723421E+02  0.23837723421E+02  0.00000000000E+00 0.  1.
          2   -1    0    0  501    0  0.00000000000E+00 -0.00000000000E+00 -0.95965255124E+03  0.95965255124E+03  0.00000000000E+00 0. -1.
         25    2    1    2    0    0 -0.85110058659E+02  0.42076421415E+02 -0.63847674724E+03  0.65750579851E+03  0.12508865252E+03 0.  0.
          5    1    3    3  502    0 -0.51125389780E+02  0.64872083174E+02 -0.58082595654E+03  0.58668429061E+03  0.41800000000E+01 0.  1.
         -5    1    3    3    0  502 -0.33984668879E+02 -0.22795661758E+02 -0.57650790698E+02  0.70821507905E+02  0.41800000000E+01 0.  1.
        -11    1    1    2    0    0  0.82741774253E+02 -0.63462914818E+02 -0.19218313379E+03  0.21865063384E+03  0.00000000000E+00 0.  1.
         11    1    1    2    0    0  0.23682844057E+01  0.21386493402E+02 -0.10515494678E+03  0.10733384230E+03  0.00000000000E+00 0. -1.
</event>
<event>
 7    1  0.2723366E-009  0.3374325E+03  0.7561462E-02  0.1067895E+00
          2   -1    0    0  501    0  0.00000000000E+00  0.00000000000E+00  0.15803834400E+03  0.15803834400E+03  0.00000000000E+00 0.  1.
         -2   -1    0    0    0  501 -0.00000000000E+00 -0.00000000000E+00 -0.77548293841E+03  0.77548293841E+03  0.00000000000E+00 0. -1.
         25    2    1    2    0    0  0.55156560865E+02 -0.32758304013E+03 -0.33795753429E+03  0.49012027325E+03  0.12509873251E+03 0.  0.
          5    1    3    3  502    0  0.22412241652E+02 -0.12470371187E+03 -0.49881703114E+02  0.13623135115E+03  0.41800000000E+01 0. -1.
         -5    1    3    3    0  502  0.32744319213E+02 -0.20287932826E+03 -0.28807583118E+03  0.35388892210E+03  0.41800000000E+01 0. -1.
        -11    1    1    2    0    0  0.81363147762E+01  0.19962913288E+03 -0.14122135171E+03  0.24466601826E+03  0.00000000000E+00 0.  1.
         11    1    1    2    0    0 -0.63292875641E+02  0.12795390725E+03 -0.13826570840E+03  0.19873499090E+03  0.00000000000E+00 0. -1.
</event>
<event>
 7    1  0.2723366E-009  0.1526599E+03  0.7561462E-02  0.1197242E+00
         -1   -1    0    0    0  501 -0.00000000000E+00  0.00000000000E+00  0.37747797027E+03  0.37747797027E+03  0.00000000000E+00 0.  1.
          1   -1    0    0  501    0  0.00000000000E+00 -0.00000000000E+00 -0.77614665169E+02  0.77614665169E+02  0.00000000000E+00 0. -1.
         25    2    1    2    0    0 -0.28499217053E+02 -0.12325449295E+03  0.10851616120E+03  0.20839339041E+03  0.12509265575E+03 0.  0.
          5    1    3    3  502    0  0.46985565470E+02 -0.23375226731E+02  0.31993558194E+02  0.61604421539E+02  0.41800000000E+01 0. -1.
         -5    1    3    3    0  502 -0.75484782523E+02 -0.99879266215E+02  0.76522603006E+02  0.14678896887E+03  0.41800000000E+01 0. -1.
        -11    1    1    2    0    0  0.91754594560E+01  0.72891783518E+02  0.35136176676E+02  0.81436798022E+02  0.00000000000E+00 0. -1.
         11    1    1    2    0    0  0.19323757597E+02  0.50362709427E+02  0.15621096723E+03  0.16526244701E+03  0.00000000000E+00 0.  1.
</event>
<event>
 7    1  0.2723366E-009  0.1074047E+03  0.7561462E-02  0.1265453E+00
          1   -1    0    0  501    0  0.00000000000E+00  0.00000000000E+00  0.50362852354E+02  0.50362852354E+02  0.00000000000E+00 0. -1.
         -1   -1    0    0    0  501 -0.00000000000E+00 -0.00000000000E+00 -0.23558498329E+03  0.23558498329E+03  0.00000000000E+00 0.  1.
         25    2    1    2    0    0 -0.32553997335E+01 -0.50987576199E+01 -0.10630573791E+03  0.16427183633E+03  0.12509089232E+03 0.  0.
          5    1    3    3  502    0  0.58717786059E+02  0.11311748986E+02 -0.40742710405E+02  0.72478789421E+02  0.41800000000E+01 0. -1.
         -5    1    3    3    0  502 -0.61973185793E+02 -0.16410506606E+02 -0.65563027509E+02  0.91793046907E+02  0.41800000000E+01 0. -1.
        -11    1    1    2    0    0 -0.10395561438E+02  0.46177535392E+02 -0.28604499853E+02  0.55305062013E+02  0.00000000000E+00 0. -1.
         11    1    1    2    0    0  0.13650961172E+02 -0.41078777772E+02 -0.50311893168E+02  0.66370937302E+02  0.00000000000E+00 0.  1.
</event>
<event>
 7    1  0.2723366E-009  0.1117057E+03  0.7561462E-02  0.1257443E+00
         -3   -1    0    0    0  501 -0.00000000000E+00  0.00000000000E+00  0.44861428902E+02  0.44861428902E+02  0.00000000000E+00 0.  1.
          3   -1    0    0  501    0  0.00000000000E+00 -0.00000000000E+00 -0.35483819750E+03  0.35483819750E+03  0.00000000000E+00 0. -1.
         25    2    1    2    0    0  0.15431641963E+02  0.43382346872E+02 -0.24096834133E+03  0.27538146971E+03  0.12509615797E+03 0.  0.
          5    1    3    3  502    0  0.63153419634E+02 -0.71221994275E+01 -0.11492428307E+03  0.13139308725E+03  0.41800000000E+01 0.  1.
         -5    1    3    3    0  502 -0.47721777671E+02  0.50504546300E+02 -0.12604405826E+03  0.14398838246E+03  0.41800000000E+01 0.  1.
        -11    1    1    2    0    0 -0.46693865231E+02 -0.18781866363E+02 -0.72394877221E+01  0.50847671892E+02  0.00000000000E+00 0.  1.
         11    1    1    2    0    0  0.31262223269E+02 -0.24600480509E+02 -0.61768939544E+02  0.73470484805E+02  0.00000000000E+00 0. -1.
</event>
<event>
 7    1  0.2723366E-009  0.1028125E+03  0.7561462E-02  0.1274490E+00
          1   -1    0    0  501    0  0.00000000000E+00  0.00000000000E+00  0.61357138477E+03  0.61357138477E+03  0.00000000000E+00 0. -1.
         -1   -1    0    0    0  501 -0.00000000000E+00 -0.00000000000E+00 -0.30324982840E+02  0.30324982840E+02  0.00000000000E+00 0.  1.
         25    2    1    2    0    0  0.27856032796E+02  0.93321676764E+01  0.50084877082E+03  0.51706887329E+03  0.12509068942E+03 0.  0.
          5    1    3    3  502    0  0.43745414763E+02 -0.41554654457E+02  0.38181846790E+03  0.38657892526E+03  0.41800000000E+01 0.  1.
         -5    1    3    3    0  502 -0.15889381967E+02  0.50886822133E+02  0.11903030291E+03  0.13048994803E+03  0.41800000000E+01 0.  1.
        -11    1    1    2    0    0  0.31664742862E+02 -0.38549340810E+01  0.11066175077E+02  0.33763540812E+02  0.00000000000E+00 0.  1.
         11    1    1    2    0    0 -0.59520775658E+02 -0.54772335953E+01  0.71331456041E+02  0.93063953515E+02  0.00000000000E+00 0. -1.
</event>
<event>
 7    1  0.2723366E-009  0.2105319E+03  0.7561462E-02  0.1141145E+00
          1   -1    0    0  501    0  0.00000000000E+00  0.00000000000E+00  0.23404522414E+03  0.23404522414E+03  0.00000000000E+00 0. -1.
         -1   -1    0    0    0  501 -0.00000000000E+00 -0.00000000000E+00 -0.57965932474E+03  0.57965932474E+03  0.00000000000E+00 0.  1.
         25    2    1    2    0    0 -0.12174088008E+03 -0.16234348795E+03 -0.49207915269E+03  0.54677775600E+03  0.12509105476E+03 0.  0.
          5    1    3    3  502    0  0.14363819011E+01 -0.24743048246E+02 -0.19733956369E+03  0.19893380162E+03  0.41800000000E+01 0. -1.
         -5    1    3    3    0  502 -0.12317726198E+03 -0.13760043970E+03 -0.29473958900E+03  0.34784395438E+03  0.41800000000E+01 0. -1.
        -11    1    1    2    0    0  0.89540847935E+01  0.54239961574E+02  0.33823299625E+01  0.55078028487E+02  0.00000000000E+00 0.  1.
         11    1    1    2    0    0  0.11278679528E+03  0.10810352637E+03  0.14308272213E+03  0.21184876440E+03  0.00000000000E+00 0. -1.
</event>
<event>
 7    1  0.2723366E-009  0.8039424E+02  0.7561462E-02  0.1327936E+00
         -2   -1    0    0    0  501 -0.00000000000E+00  0.00000000000E+00  0.34455917134E+03  0.34455917134E+03  0.00000000000E+00 0.  1.
          2   -1    0    0  501    0  0.00000000000E+00 -0.00000000000E+00 -0.39742121127E+02  0.39742121127E+02  0.00000000000E+00 0. -1.
         25    2    1    2    0    0  0.24501866422E+02  0.11913523752E+02  0.24473740736E+03  0.27620022449E+03  0.12509153424E+03 0.  0.
          5    1    3    3  502    0  0.14819071544E+02 -0.30430647949E+02  0.74174053630E+01  0.34901568996E+02  0.41800000000E+01 0. -1.
         -5    1    3    3    0  502  0.96827948773E+01  0.42344171701E+02  0.23732000200E+03  0.24129865549E+03  0.41800000000E+01 0. -1.
        -11    1    1    2    0    0 -0.32507023377E+02  0.27653238384E+02  0.51402888837E+02  0.66810666384E+02  0.00000000000E+00 0.  1.
         11    1    1    2    0    0  0.80051569552E+01 -0.39566762136E+02  0.86767540179E+01  0.41290401598E+02  0.00000000000E+00 0. -1.
</event>
<event>
 7    1  0.2723366E-009  0.1174948E+03  0.7561462E-02  0.1247288E+00
         -2   -1    0    0    0  501 -0.00000000000E+00  0.00000000000E+00  0.57800038088E+02  0.57800038088E+02  0.00000000000E+00 0.  1.
          2   -1    0    0  501    0  0.00000000000E+00 -0.00000000000E+00 -0.31301469166E+03  0.31301469166E+03  0.00000000000E+00 0. -1.
         25    2    1    2    0    0 -0.42525040781E+02  0.25524815285E+02 -0.60897303401E+02  0.14770261117E+03  0.12509070507E+03 0.  0.
          5    1    3    3  502    0 -0.59729983576E+02  0.62439556595E+02 -0.62509116965E+02  0.10672971128E+03  0.41800000000E+01 0. -1.
         -5    1    3    3    0  502  0.17204942795E+02 -0.36914741310E+02  0.16118135645E+01  0.40972899892E+02  0.41800000000E+01 0. -1.
        -11    1    1    2    0    0  0.10286224904E+02  0.36345625814E+02 -0.90111043149E+02  0.97707783907E+02  0.00000000000E+00 0. -1.
         11    1    1    2    0    0  0.32238815877E+02 -0.61870441099E+02 -0.10420630702E+03  0.12540433467E+03  0.00000000000E+00 0.  1.
</event>
<event>
 7    1  0.2723366E-009  0.1038828E+03  0.7561462E-02  0.1272336E+00
         -2   -1    0    0    0  501 -0.00000000000E+00  0.00000000000E+00  0.30427628433E+02  0.30427628433E+02  0.00000000000E+00 0.  1.
          2   -1    0    0  501    0  0.00000000000E+00 -0.00000000000E+00 -0.43436798621E+03  0.43436798621E+03  0.00000000000E+00 0. -1.
         25    2    1    2    0    0 -0.44731696733E+02 -0.77956039989E+01 -0.23863245818E+03  0.27323181336E+03  0.12509387516E+03 0.  0.
          5    1    3    3  502    0 -0.76656251878E+02  0.30018672555E+02 -0.13239905520E+03  0.15596244378E+03  0.41800000000E+01 0. -1.
         -5    1    3    3    0  502  0.31924555145E+02 -0.37814276554E+02 -0.10623340298E+03  0.11726936958E+03  0.41800000000E+01 0. -1.
        -11    1    1    2    0    0  0.19218795168E+02  0.34026371135E+02 -0.14402528033E+03  0.14923282948E+03  0.00000000000E+00 0. -1.
         11    1    1    2    0    0  0.25512901565E+02 -0.26230767136E+02 -0.21282619271E+02  0.42330971803E+02  0.00000000000E+00 0.  1.
</event>
<event>
 7    1  0.3487853E-009  0.1079271E+03  0.7561462E-02  0.1264458E+00
         -2   -1    0    0    0  501 -0.00000000000E+00  0.00000000000E+00  0.28997070344E+02  0.28997070344E+02  0.00000000000E+00 0.  1.
          2   -1    0    0  501    0  0.00000000000E+00 -0.00000000000E+00 -0.65101793051E+03  0.65101793051E+03  0.00000000000E+00 0. -1.
         25    2    1    2    0    0  0.21398811146E+02  0.79806820299E+02 -0.38045794344E+03  0.40892636019E+03  0.12508190774E+03 0.  0.
          5    1    3    3  502    0 -0.28919963676E+02  0.56282865628E+02 -0.74037732420E+02  0.97484273010E+02  0.41800000000E+01 0. -1.
         -5    1    3    3    0  502  0.50318774822E+02  0.23523954670E+02 -0.30642021102E+03  0.31144208718E+03  0.41800000000E+01 0. -1.
        -11    1    1    2    0    0  0.16592133297E+02 -0.26779958369E+02 -0.14204929252E+02  0.34557851100E+02  0.00000000000E+00 0.  1.
         11    1    1    2    0    0 -0.37990944443E+02 -0.53026861930E+02 -0.22735798748E+03  0.23653078957E+03  0.00000000000E+00 0. -1.
</event>
<event>
 7    1  0.2723366E-009  0.8906197E+02  0.7561462E-02  0.1305139E+00
         -2   -1    0    0    0  501 -0.00000000000E+00  0.00000000000E+00  0.83193353577E+02  0.83193353577E+02  0.00000000000E+00 0.  1.
          2   -1    0    0  501    0  0.00000000000E+00 -0.00000000000E+00 -0.20906340995E+03  0.20906340995E+03  0.00000000000E+00 0. -1.
         25    2    1    2    0    0 -0.37810748246E+02 -0.57714210497E+02 -0.45026861594E+02  0.14978833291E+03  0.12509413908E+03 0.  0.
          5    1    3    3  502    0 -0.17659974207E+02  0.20156673070E+02 -0.61823351476E+02  0.67511223852E+02  0.41800000000E+01 0. -1.
         -5    1    3    3    0  502 -0.20150774039E+02 -0.77870883568E+02  0.16796489881E+02  0.82277109054E+02  0.41800000000E+01 0. -1.
        -11    1    1    2    0    0  0.22176715138E+02  0.45501843406E+02 -0.10175112549E+03  0.11364645171E+03  0.00000000000E+00 0. -1.
         11    1    1    2    0    0  0.15634033108E+02  0.12212367092E+02  0.20907930718E+02  0.28821978907E+02  0.00000000000E+00 0.  1.
</event>
<event>
 7    1  0.2723366E-009  0.1106618E+03  0.7561462E-02  0.1259349E+00
          2   -1    0    0  501    0  0.00000000000E+00  0.00000000000E+00  0.20563054080E+03  0.20563054080E+03  0.00000000000E+00 0. -1.
         -2   -1    0    0    0  501 -0.00000000000E+00 -0.00000000000E+00 -0.15437284998E+03  0.15437284998E+03  0.00000000000E+00 0.  1.
         25    2    1    2    0    0  0.21065919667E+02 -0.60583727825E+02 -0.10087026861E+03  0.17302146562E+03  0.12508978947E+03 0.  0.
          5    1    3    3  502    0  0.31966943399E+02  0.15422867746E+02  0.10890674557E+02  0.37360801812E+02  0.41800000000E+01 0.  1.
         -5    1    3    3    0  502 -0.10901023731E+02 -0.76006595571E+02 -0.11176094317E+03  0.13566066381E+03  0.41800000000E+01 0.  1.
        -11    1    1    2    0    0  0.34258566646E+02  0.16925651178E+02  0.55572265445E+02  0.67441854535E+02  0.00000000000E+00 0.  1.
         11    1    1    2    0    0 -0.55324486313E+02  0.43658076646E+02  0.96555693989E+02  0.11954007062E+03  0.00000000000E+00 0. -1.
</event>
<event>
 7    1  0.2723366E-009  0.1389987E+03  0.7561462E-02  0.1214683E+00
          2   -1    0    0  501    0  0.00000000000E+00  0.00000000000E+00  0.85392513353E+03  0.85392513353E+03  0.00000000000E+00 0. -1.
         -2   -1    0    0    0  501 -0.00000000000E+00 -0.00000000000E+00 -0.28387481542E+02  0.28387481542E+02  0.00000000000E+00 0.  1.
         25    2    1    2    0    0  0.94506432343E+02  0.35037112883E+02  0.31546562384E+03  0.35401314723E+03  0.12509070131E+03 0.  0.
          5    1    3    3  502    0  0.11992136003E+03  0.33339328392E+02  0.19928148234E+03  0.23499622340E+03  0.41800000000E+01 0.  1.
         -5    1    3    3    0  502 -0.25414927687E+02  0.16977844906E+01  0.11618414151E+03  0.11901692383E+03  0.41800000000E+01 0.  1.
        -11    1    1    2    0    0 -0.94016427599E+02 -0.54170511040E+02  0.48365857976E+03  0.49568049659E+03  0.00000000000E+00 0. -1.
         11    1    1    2    0    0 -0.49000474371E+00  0.19133398157E+02  0.26413448381E+02  0.32618971244E+02  0.00000000000E+00 0.  1.
</event>
<event>
 7    1  0.2723366E-009  0.1558515E+03  0.7561462E-02  0.1193462E+00
         -1   -1    0    0    0  501 -0.00000000000E+00  0.00000000000E+00  0.44986612062E+03  0.44986612062E+03  0.00000000000E+00 0.  1.
          1   -1    0    0  501    0  0.00000000000E+00 -0.00000000000E+00 -0.55330408268E+02  0.55330408268E+02  0.00000000000E+00 0. -1.
         25    2    1    2    0    0 -0.11184282221E+03 -0.20916950945E+02  0.20191696954E+03  0.26337130315E+03  0.12509054727E+03 0.  0.
          5    1    3    3  502    0 -0.68230378046E+02  0.48448781030E+02  0.76216669750E+02  0.11326571423E+03  0.41800000000E+01 0.  1.
         -5    1    3    3    0  502 -0.43612444166E+02 -0.69365731975E+02  0.12570029979E+03  0.15010558892E+03  0.41800000000E+01 0.  1.
        -11    1    1    2    0    0 -0.25339750154E+01 -0.23159529203E+02  0.37088104814E+02  0.43798542681E+02  0.00000000000E+00 0.  1.
         11    1    1    2    0    0  0.11437679723E+03  0.44076480149E+02  0.15553063800E+03  0.19802668306E+03  0.00000000000E+00 0. -1.
</event>
<event>
 7    1  0.2723366E-009  0.1042886E+03  0.7561462E-02  0.1271528E+00
          1   -1    0    0  501    0  0.00000000000E+00  0.00000000000E+00  0.45557112468E+03  0.45557112468E+03  0.00000000000E+00 0. -1.
         -1   -1    0    0    0  501 -0.00000000000E+00 -0.00000000000E+00 -0.43730244772E+02  0.43730244772E+02  0.00000000000E+00 0.  1.
         25    2    1    2    0    0 -0.57971572567E+01  0.79661355140E+02  0.15257667956E+03  0.21285561732E+03  0.12509329376E+03 0.  0.
          5    1    3    3  502    0  0.43909769447E+02  0.27926649064E+02  0.12573187765E+03  0.13613942499E+03  0.41800000000E+01 0.  1.
         -5    1    3    3    0  502 -0.49706926704E+02  0.51734706076E+02  0.26844801914E+02  0.76716192326E+02  0.41800000000E+01 0.  1.
        -11    1    1    2    0    0 -0.10705026447E+02 -0.21055554029E+02  0.39206842736E+01  0.23943803204E+02  0.00000000000E+00 0.  1.
         11    1    1    2    0    0  0.16502183703E+02 -0.58605801111E+02  0.25534351607E+03  0.26250194893E+03  0.00000000000E+00 0. -1.
</event>
<event>
 7    1  0.2723366E-009  0.8227179E+02  0.7561462E-02  0.1322725E+00
         -4   -1    0    0    0  501 -0.00000000000E+00  0.00000000000E+00  0.23001523429E+03  0.23001523429E+03  0.00000000000E+00 0.  1.
          4   -1    0    0  501    0  0.00000000000E+00 -0.00000000000E+00 -0.52762350067E+02  0.52762350067E+02  0.00000000000E+00 0. -1.
         25    2    1    2    0    0  0.86185409525E+01  0.28564854307E+01  0.11820498583E+03  0.17234352117E+03  0.12508969525E+03 0.  0.
          5    1    3    3  502    0  0.43417550481E+02  0.37628325682E+02  0.10729492283E+03  0.12178114570E+03  0.41800000000E+01 0.  1.
         -5    1    3    3    0  502 -0.34799009529E+02 -0.34771840251E+02  0.10910063006E+02  0.50562375473E+02  0.41800000000E+01 0.  1.
        -11    1    1    2    0    0  0.20244724965E+02  0.13554906301E+02 -0.15465655681E+02  0.28857769827E+02  0.00000000000E+00 0. -1.
         11    1    1    2    0    0 -0.28863265917E+02 -0.16411391732E+02  0.74513554072E+02  0.81576293361E+02  0.00000000000E+00 0.  1.
</event>
<event>
 7    1  0.2723366E-009  0.1461360E+03  0.7561462E-02  0.1205303E+00
         -4   -1    0    0    0  501 -0.00000000000E+00  0.00000000000E+00  0.25581807810E+03  0.25581807810E+03  0.00000000000E+00 0.  1.
          4   -1    0    0  501    0  0.00000000000E+00 -0.00000000000E+00 -0.18362454337E+03  0.18362454337E+03  0.00000000000E+00 0. -1.
         25    2    1    2    0    0  0.11124793161E+03 -0.58565062494E+02 -0.10325061691E+03  0.20521848602E+03  0.12509183937E+03 0.  0.
          5    1    3    3  502    0  0.31137285547E+02  0.26586150401E+02 -0.73929399900E+02  0.84613134406E+02  0.41800000000E+01 0. -1.
         -5    1    3    3    0  502  0.80110646061E+02 -0.85151212895E+02 -0.29321217014E+02  0.12060535161E+03  0.41800000000E+01 0. -1.
        -11    1    1    2    0    0 -0.27665373507E+02 -0.62472779143E+01  0.10094407518E+03  0.10485279055E+03  0.00000000000E+00 0.  1.
         11    1    1    2    0    0 -0.83582558102E+02  0.64812340408E+02  0.74500076469E+02  0.12937134490E+03  0.00000000000E+00 0. -1.
</event>
<event>
 7    1  0.2723366E-009  0.1400416E+03  0.7561462E-02  0.1213273E+00
         -1   -1    0    0    0  501 -0.00000000000E+00  0.00000000000E+00  0.78027506457E+02  0.78027506457E+02  0.00000000000E+00 0.  1.
          1   -1    0    0  501    0  0.00000000000E+00 -0.00000000000E+00 -0.26950192705E+03  0.26950192705E+03  0.00000000000E+00 0. -1.
         25    2    1    2    0    0 -0.90554767293E+02 -0.18570672030E+02 -0.74689539796E+02  0.17255202636E+03  0.12510251279E+03 0.  0.
          5    1    3    3  502    0 -0.12120127753E+03 -0.70012259187E+01 -0.66673525435E+02  0.13856983162E+03  0.41800000000E+01 0. -1.
         -5    1    3    3    0  502  0.30646510240E+02 -0.11569446112E+02 -0.80160143608E+01  0.33982194741E+02  0.41800000000E+01 0. -1.
        -11    1    1    2    0    0  0.82415777967E+02  0.47778919337E+02 -0.10666394844E+03  0.14301182989E+03  0.00000000000E+00 0. -1.
         11    1    1    2    0    0  0.81389893262E+01 -0.29208247307E+02 -0.10120932356E+02  0.31965577263E+02  0.00000000000E+00 0.  1.
</event>
<event>
 7    1  0.2723366E-009  0.8607897E+02  0.7561462E-02  0.1312635E+00
          1   -1    0    0  501    0  0.00000000000E+00  0.00000000000E+00  0.55484167073E+03  0.55484167073E+03  0.00000000000E+00 0. -1.
         -1   -1    0    0    0  501 -0.00000000000E+00 -0.00000000000E+00 -0.23780361989E+02  0.23780361989E+02  0.00000000000E+00 0.  1.
         25    2    1    2    0    0 -0.33475705408E-01  0.25839410814E+02  0.32046816041E+03  0.34498417949E+03  0.12508623423E+03 0.  0.
          5    1    3    3  502    0  0.44769031481E+02  0.36486091738E+02  0.27161273487E+03  0.27771649432E+03  0.41800000000E+01 0.  1.
         -5    1    3    3    0  502 -0.44802507186E+02 -0.10646680924E+02  0.48855425532E+02  0.67267685175E+02  0.41800000000E+01 0.  1.
        -11    1    1    2    0    0 -0.27681812814E+02  0.32058421485E+01  0.10857290596E+02  0.29907205546E+02  0.00000000000E+00 0.  1.
         11    1    1    2    0    0  0.27715288519E+02 -0.29045252963E+02  0.19973585774E+03  0.20373064768E+03  0.00000000000E+00 0. -1.
</event>
<event>
 7    1  0.2723366E-009  0.9737001E+02  0.7561462E-02  0.1285926E+00
         -3   -1    0    0    0  501 -0.00000000000E+00  0.00000000000E+00  0.17212558078E+03  0.17212558078E+03  0.00000000000E+00 0.  1.
          3   -1    0    0  501    0  0.00000000000E+00 -0.00000000000E+00 -0.10047848060E+03  0.10047848060E+03  0.00000000000E+00 0. -1.
         25    2    1    2    0    0  0.26584272560E+02  0.55075022350E+02 -0.32460869949E+01  0.13927569811E+03  0.12508877396E+03 0.  0.
          5    1    3    3  502    0 -0.15488244193E+02  0.71065178630E+02  0.34290443730E+02  0.80519887314E+02  0.41800000000E+01 0. -1.
         -5    1    3    3    0  502  0.42072516753E+02 -0.15990156280E+02 -0.37536530725E+02  0.58755810799E+02  0.41800000000E+01 0. -1.
        -11    1    1    2    0    0 -0.39575683320E+02 -0.35345908996E+02  0.90575926167E+02  0.10497412250E+03  0.00000000000E+00 0. -1.
         11    1    1    2    0    0  0.12991410759E+02 -0.19729113354E+02 -0.15682738997E+02  0.28354240771E+02  0.00000000000E+00 0.  1.
</event>
<event>
 7    1  0.2723366E-009  0.1085466E+03  0.7561462E-02  0.1263285E+00
         -2   -1    0    0    0  501 -0.00000000000E+00  0.00000000000E+00  0.54271949675E+03  0.54271949675E+03  0.00000000000E+00 0.  1.
          2   -1    0    0  501    0  0.00000000000E+00 -0.00000000000E+00 -0.22515002939E+02  0.22515002939E+02  0.00000000000E+00 0. -1.
         25    2    1    2    0    0 -0.13141256864E+01  0.19945920035E+02  0.30862830189E+03  0.33361549233E+03  0.12509317064E+03 0.  0.
          5    1    3    3  502    0 -0.60900117900E+02 -0.44143882664E+01  0.17089843151E+03  0.18152701583E+03  0.41800000000E+01 0.  1.
         -5    1    3    3    0  502  0.59585992213E+02  0.24360308302E+02  0.13772987039E+03  0.15208847650E+03  0.41800000000E+01 0.  1.
        -11    1    1    2    0    0  0.19914169646E+02  0.31169079344E+02  0.58983783097E+02  0.69621636926E+02  0.00000000000E+00 0.  1.
         11    1    1    2    0    0 -0.18600043959E+02 -0.51114999379E+02  0.15259240882E+03  0.16199737043E+03  0.00000000000E+00 0. -1.
</event>
<event>
 7    1  0.2723366E-009  0.4226212E+03  0.7561462E-02  0.1036217E+00
          1   -1    0    0  501    0  0.00000000000E+00  0.00000000000E+00  0.16550572601E+04  0.16550572601E+04  0.00000000000E+00 0. -1.
         -1   -1    0    0    0  501 -0.00000000000E+00 -0.00000000000E+00 -0.11048692200E+03  0.11048692200E+03  0.00000000000E+00 0.  1.
         25    2    1    2    0    0  0.29582963718E+02  0.41234421270E+03  0.79267028159E+03  0.90270454622E+03  0.12508565449E+03 0.  0.
          5    1    3    3  502    0  0.43465729683E+02  0.42229457939E+02  0.93927393017E+02  0.11185894838E+03  0.41800000000E+01 0. -1.
         -5    1    3    3    0  502 -0.13882765965E+02  0.37011475477E+03  0.69874288857E+03  0.79084559784E+03  0.41800000000E+01 0. -1.
        -11    1    1    2    0    0 -0.25931104542E+02 -0.19425474402E+03  0.44580503765E+03  0.48697993732E+03  0.00000000000E+00 0.  1.
         11    1    1    2    0    0 -0.36518591765E+01 -0.21808946868E+03  0.30609501886E+03  0.37585969855E+03  0.00000000000E+00 0. -1.
</event>
<event>
 7    1  0.2723366E-009  0.1056716E+03  0.7561462E-02  0.1268802E+00
          2   -1    0    0  501    0  0.00000000000E+00  0.00000000000E+00  0.32347579413E+03  0.32347579413E+03  0.00000000000E+00 0. -1.
         -2   -1    0    0    0  501 -0.00000000000E+00 -0.00000000000E+00 -0.47262264788E+02  0.47262264788E+02  0.00000000000E+00 0.  1.
         25    2    1    2    0    0 -0.32431908723E+02 -0.48427160608E+02  0.17149375867E+03  0.22012670138E+03  0.12509451152E+03 0.  0.
          5    1    3    3  502    0 -0.66390832942E+02 -0.22701780471E+02  0.16155096980E+03  0.17617974281E+03  0.41800000000E+01 0.  1.
         -5    1    3    3    0  502  0.33958924219E+02 -0.25725380136E+02  0.99427888741E+01  0.43946958573E+02  0.41800000000E+01 0.  1.
        -11    1    1    2    0    0 -0.26327684254E+02  0.19432029947E+02  0.78311639020E+01  0.33646364947E+02  0.00000000000E+00 0.  1.
         11    1    1    2    0    0  0.58759592977E+02  0.28995130660E+02  0.96888606774E+02  0.11696499259E+03  0.00000000000E+00 0. -1.
</event>
<event>
 7    1  0.2723366E-009  0.8931943E+02  0.7561462E-02  0.1304508E+00
          2   -1    0    0  501    0  0.00000000000E+00  0.00000000000E+00  0.87936152861E+02  0.87936152861E+02  0.00000000000E+00 0. -1.
         -2   -1    0    0    0  501 -0.00000000000E+00 -0.00000000000E+00 -0.20271320085E+03  0.20271320085E+03  0.00000000000E+00 0.  1.
         25    2    1    2    0    0  0.56558032901E+02 -0.16183299486E+02 -0.99830737353E+01  0.13858929372E+03  0.12508645132E+03 0.  0.
          5    1    3    3  502    0  0.23192776917E+02  0.33601318295E+02  0.42307080737E+02  0.58943320002E+02  0.41800000000E+01 0. -1.
         -5    1    3    3    0  502  0.33365255984E+02 -0.49784617782E+02 -0.52290154473E+02  0.79645973717E+02  0.41800000000E+01 0. -1.
        -11    1    1    2    0    0 -0.98355646271E+01 -0.17395232244E+02 -0.90627785376E+02  0.92804783921E+02  0.00000000000E+00 0.  1.
         11    1    1    2    0    0 -0.46722468274E+02  0.33578531730E+02 -0.14166188875E+02  0.59255276069E+02  0.00000000000E+00 0. -1.
</event>
<event>
 7    1  0.2723366E-009  0.1433430E+03  0.7561462E-02  0.1208900E+00
          1   -1    0    0  501    0  0.00000000000E+00  0.00000000000E+00  0.22125712529E+02  0.22125712529E+02  0.00000000000E+00 0. -1.
         -1   -1    0    0    0  501 -0.00000000000E+00 -0.00000000000E+00 -0.93973693761E+03  0.93973693761E+03  0.00000000000E+00 0.  1.
         25    2    1    2    0    0  0.90102549947E+02  0.29756292928E+02 -0.45684986212E+03  0.48307802740E+03  0.12509467439E+03 0.  0.
          5    1    3    3  502    0  0.55156614773E+01  0.64610326425E+02 -0.20783926471E+03  0.21776030207E+03  0.41800000000E+01 0. -1.
         -5    1    3    3    0  502  0.84586888470E+02 -0.34854033497E+02 -0.24901059741E+03  0.26531772533E+03  0.41800000000E+01 0. -1.
        -11    1    1    2    0    0 -0.82833574601E+02 -0.57895835745E+02 -0.35605323844E+03  0.37011786971E+03  0.00000000000E+00 0. -1.
         11    1    1    2    0    0 -0.72689753462E+01  0.28139542817E+02 -0.10470812453E+03  0.10866675303E+03  0.00000000000E+00 0.  1.
</event>
<event>
 7    1  0.2723366E-009  0.1139648E+03  0.7561462E-02  0.1253399E+00
          1   -1    0    0  501    0  0.00000000000E+00  0.00000000000E+00  0.29109148614E+03  0.29109148614E+03  0.00000000000E+00 0. -1.
         -1   -1    0    0    0  501 -0.00000000000E+00 -0.00000000000E+00 -0.59603717212E+02  0.59603717212E+02  0.00000000000E+00 0.  1.
         25    2    1    2    0    0 -0.11954842938E+02  0.71013293509E+02  0.13801754596E+03  0.19970543310E+03  0.12509041088E+03 0.  0.
          5    1    3    3  502    0 -0.14251043236E+02  0.10443666676E+03  0.79286781526E+02  0.13196202378E+03  0.41800000000E+01 0. -1.
         -5    1    3    3    0  502  0.22962002978E+01 -0.33423373247E+02  0.58730764436E+02  0.67743409320E+02  0.41800000000E+01 0. -1.
        -11    1    1    2    0    0 -0.12306744966E+02 -0.61338593197E+02  0.10516913662E+03  0.12237003834E+03  0.00000000000E+00 0. -1.
         11    1    1    2    0    0  0.24261587905E+02 -0.96747003115E+01 -0.11698913650E+02  0.28619731906E+02  0.00000000000E+00 0.  1.
</event>
<event>
 7    1  0.2723366E-009  0.1710312E+03  0.7561462E-02  0.1176777E+00
         -2   -1    0    0    0  501 -0.00000000000E+00  0.00000000000E+00  0.19511514479E+02  0.19511514479E+02  0.00000000000E+00 0.  1.
          2   -1    0    0  501    0  0.00000000000E+00 -0.00000000000E+00 -0.18332642472E+04  0.18332642472E+04  0.00000000000E+00 0. -1.
         25    2    1    2    0    0 -0.19673938858E+02  0.14391717112E+03 -0.12384464028E+04  0.12531945793E+04  0.12509174683E+03 0.  0.
          5    1    3    3  502    0 -0.48698239178E+02  0.13530113004E+03 -0.11619016011E+04  0.11707735551E+04  0.41800000000E+01 0. -1.
         -5    1    3    3    0  502  0.29024300320E+02  0.86160410743E+01 -0.76544801706E+02  0.82421024266E+02  0.41800000000E+01 0. -1.
        -11    1    1    2    0    0  0.44282864017E+02 -0.36342587356E+02 -0.23234215167E+03  0.23930029491E+03  0.00000000000E+00 0. -1.
         11    1    1    2    0    0 -0.24608925159E+02 -0.10757458376E+03 -0.34296417833E+03  0.36028088748E+03  0.00000000000E+00 0.  1.
</event>
<event>
 7    1  0.2723366E-009  0.1494852E+03  0.7561462E-02  0.1201107E+00
          1   -1    0    0  501    0  0.00000000000E+00  0.00000000000E+00  0.16391973200E+04  0.16391973200E+04  0.00000000000E+00 0. -1.
         -1   -1    0    0    0  501 -0.00000000000E+00 -0.00000000000E+00 -0.23354404924E+02  0.23354404924E+02  0.00000000000E+00 0.  1.
         25    2    1    2    0    0  0.44209886730E+02 -0.13207034481E+03  0.11784804172E+04  0.11932562692E+04  0.12508932875E+03 0.  0.
          5    1    3    3  502    0  0.45826945121E+02 -0.14167839129E+03  0.75030593243E+03  0.76495054749E+03  0.41800000000E+01 0.  1.
         -5    1    3    3    0  502 -0.16170583905E+01  0.96080464765E+01  0.42817448478E+03  0.42830572171E+03  0.41800000000E+01 0.  1.
        -11    1    1    2    0    0 -0.32862588698E+02  0.10584524687E+03  0.42306954840E+03  0.43734541132E+03  0.00000000000E+00 0. -1.
         11    1    1    2    0    0 -0.11347298032E+02  0.26225097946E+02  0.14292949516E+02  0.31950044456E+02  0.00000000000E+00 0.  1.
</event>
<event>
 7    1  0.2723366E-009  0.1120705E+03  0.7561462E-02  0.1256783E+00
         -1   -1    0    0    0  501 -0.00000000000E+00  0.00000000000E+00  0.43532789562E+02  0.43532789562E+02  0.00000000000E+00 0.  1.
          1   -1    0    0  501    0  0.00000000000E+00 -0.00000000000E+00 -0.35330997750E+03  0.35330997750E+03  0.00000000000E+00 0. -1.
         25    2    1    2    0    0 -0.25470480178E+01  0.49141211458E+02 -0.22728752282E+03  0.26406209021E+03  0.12509126005E+03 0.  0.
          5    1    3    3  502    0 -0.54225209225E+02  0.10299935836E+02 -0.47432252468E+02  0.72895493467E+02  0.41800000000E+01 0. -1.
         -5    1    3    3    0  502  0.51678161207E+02  0.38841275622E+02 -0.17985527035E+03  0.19116659674E+03  0.41800000000E+01 0. -1.
        -11    1    1    2    0    0  0.45175347891E+02 -0.40152167676E+02 -0.49813684349E+02  0.78322485754E+02  0.00000000000E+00 0.  1.
         11    1    1    2    0    0 -0.42628299873E+02 -0.89890437812E+01 -0.32675980768E+02  0.54458191095E+02  0.00000000000E+00 0. -1.
</event>
<event>
 7    1  0.2723366E-009  0.1748375E+03  0.7561462E-02  0.1172895E+00
         -2   -1    0    0    0  501 -0.00000000000E+00  0.00000000000E+00  0.35022213856E+03  0.35022213856E+03  0.00000000000E+00 0.  1.
          2   -1    0    0  501    0  0.00000000000E+00 -0.00000000000E+00 -0.97955192036E+02  0.97955192036E+02  0.00000000000E+00 0. -1.
         25    2    1    2    0    0 -0.39592887137E+00 -0.14326612584E+03  0.18520962487E+03  0.26547173163E+03  0.12508915053E+03 0.  0.
          5    1    3    3  502    0 -0.45110169864E+02 -0.12602785733E+03  0.16692971247E+03  0.21401156406E+03  0.41800000000E+01 0.  1.
         -5    1    3    3    0  502  0.44714240993E+02 -0.17238268507E+02  0.18279912399E+02  0.51460167567E+02  0.41800000000E+01 0.  1.
        -11    1    1    2    0    0 -0.41768489584E+02  0.93605342406E+02  0.26163850129E+02  0.10578806125E+03  0.00000000000E+00 0.  1.
         11    1    1    2    0    0  0.42164418455E+02  0.49660783434E+02  0.40893471532E+02  0.76917537720E+02  0.00000000000E+00 0. -1.
</event>
<event>
 7    1  0.2723366E-009  0.1214462E+03  0.7561462E-02  0.1240730E+00
         -1   -1    0    0    0  501 -0.00000000000E+00  0.00000000000E+00  0.22383126892E+02  0.22383126892E+02  0.00000000000E+00 0.  1.
          1   -1    0    0  501    0  0.00000000000E+00 -0.00000000000E+00 -0.10657690794E+04  0.10657690794E+04  0.00000000000E+00 0. -1.
         25    2    1    2    0    0 -0.27358201811E+02 -0.68354794289E+02 -0.85579540016E+03  0.86801713945E+03  0.12508852201E+03 0.  0.
          5    1    3    3  502    0  0.37765084320E+02 -0.58697895958E+01 -0.47902739506E+03  0.48056776176E+03  0.41800000000E+01 0.  1.
         -5    1    3    3    0  502 -0.65123286131E+02 -0.62485004693E+02 -0.37676800510E+03  0.38744937769E+03  0.41800000000E+01 0.  1.
        -11    1    1    2    0    0 -0.22696429408E+02  0.58948015465E+02 -0.88609634354E+02  0.10881940882E+03  0.00000000000E+00 0.  1.
         11    1    1    2    0    0  0.50054631219E+02  0.94067788239E+01 -0.98980918010E+02  0.11131565804E+03  0.00000000000E+00 0. -1.
</event>
<event>
 7    1  0.2723366E-009  0.2103494E+03  0.7561462E-02  0.1141290E+00
          2   -1    0    0  501    0  0.00000000000E+00  0.00000000000E+00  0.83548420753E+02  0.83548420753E+02  0.00000000000E+00 0. -1.
         -2   -1    0    0    0  501 -0.00000000000E+00 -0.00000000000E+00 -0.69975771901E+03  0.69975771901E+03  0.00000000000E+00 0.  1.
         25    2    1    2    0    0 -0.10182204354E+03  0.16340155513E+03 -0.16050098888E+03  0.28013308819E+03  0.12508470289E+03 0.  0.
          5    1    3    3  502    0 -0.89702498042E+02  0.71774220547E+02 -0.14703105117E+03  0.18663782923E+03  0.41800000000E+01 0. -1.
         -5    1    3    3    0  502 -0.12119545498E+02  0.91627334583E+02 -0.13469937705E+02  0.93495258958E+02  0.41800000000E+01 0. -1.
        -11    1    1    2    0    0  0.25679226818E+02 -0.12562242970E+03 -0.28217438984E+03  0.30994000034E+03  0.00000000000E+00 0. -1.
         11    1    1    2    0    0  0.76142816723E+02 -0.37779125429E+02 -0.17353391954E+03  0.19323305123E+03  0.00000000000E+00 0.  1.
</event>
<event>
 7    1  0.2723366E-009  0.8549497E+02  0.7561462E-02  0.1314143E+00
         -2   -1    0    0    0  501 -0.00000000000E+00  0.00000000000E+00  0.23176052713E+02  0.23176052713E+02  0.00000000000E+00 0. -1.
          2   -1    0    0  501    0  0.00000000000E+00 -0.00000000000E+00 -0.91422406148E+03  0.91422406148E+03  0.00000000000E+00 0.  1.
         25    2    1    2    0    0  0.92563101048E+01 -0.71036109164E+02 -0.69616884739E+03  0.71093577020E+03  0.12508715834E+03 0.  0.
          5    1    3    3  502    0  0.23126431153E+02 -0.51234611787E+02 -0.10428702278E+03  0.11854565695E+03  0.41800000000E+01 0. -1.
         -5    1    3    3    0  502 -0.13870121049E+02 -0.19801497378E+02 -0.59188182462E+03  0.59239011324E+03  0.41800000000E+01 0. -1.
        -11    1    1    2    0    0 -0.26712875546E+02  0.13438037347E+02 -0.92169212012E+01  0.31290736714E+02  0.00000000000E+00 0. -1.
         11    1    1    2    0    0  0.17456565441E+02  0.57598071817E+02 -0.18566224017E+03  0.19517360728E+03  0.00000000000E+00 0.  1.
</event>
<event>
 7    1  0.2723366E-009  0.1503138E+03  0.7561462E-02  0.1200088E+00
         -2   -1    0    0    0  501 -0.00000000000E+00  0.00000000000E+00  0.88319794458E+02  0.88319794458E+02  0.00000000000E+00 0.  1.
          2   -1    0    0  501    0  0.00000000000E+00 -0.00000000000E+00 -0.80427785914E+03  0.80427785914E+03  0.00000000000E+00 0. -1.
         25    2    1    2    0    0  0.84539208659E+02 -0.10363882927E+03 -0.70541590379E+03  0.72879816064E+03  0.12508907588E+03 0.  0.
          5    1    3    3  502    0  0.34978142812E+02 -0.72596298200E+02 -0.61980638877E+03  0.62503689886E+03  0.41800000000E+01 0. -1.
         -5    1    3    3    0  502  0.49561065847E+02 -0.31042531073E+02 -0.85609515022E+02  0.10376126178E+03  0.41800000000E+01 0. -1.
        -11    1    1    2    0    0 -0.71504616250E+02  0.12042490610E+03 -0.18152717969E+02  0.14122531404E+03  0.00000000000E+00 0.  1.
         11    1    1    2    0    0 -0.13034592409E+02 -0.16786076832E+02  0.76105570773E+01  0.22574178915E+02  0.00000000000E+00 0. -1.
</event>
<event>
 7    1  0.2723366E-009  0.8390100E+02  0.7561462E-02  0.1318332E+00
         -1   -1    0    0    0  501 -0.00000000000E+00  0.00000000000E+00  0.37746664518E+02  0.37746664518E+02  0.00000000000E+00 0.  1.
          1   -1    0    0  501    0  0.00000000000E+00 -0.00000000000E+00 -0.35337945420E+03  0.35337945420E+03  0.00000000000E+00 0. -1.
         25    2    1    2    0    0 -0.37445352482E+02  0.85271398642E+01 -0.16212568798E+03  0.20834176067E+03  0.12508670593E+03 0.  0.
          5    1    3    3  502    0  0.14426023731E+02 -0.18566049765E+02 -0.14538083396E+03  0.14732911337E+03  0.41800000000E+01 0. -1.
         -5    1    3    3    0  502 -0.51871376213E+02  0.27093189630E+02 -0.16744854026E+02  0.61012647303E+02  0.41800000000E+01 0. -1.
        -11    1    1    2    0    0 -0.23411418496E+02 -0.67653018063E+01 -0.90042335587E+01  0.25979608283E+02  0.00000000000E+00 0.  1.
         11    1    1    2    0    0  0.60856770978E+02 -0.17618380578E+01 -0.14450286814E+03  0.15680474977E+03  0.00000000000E+00 0. -1.
</event>
<event>
 7    1  0.2723366E-009  0.1373033E+03  0.7561462E-02  0.1217004E+00
         -1   -1    0    0    0  501 -0.00000000000E+00  0.00000000000E+00  0.10656164290E+03  0.10656164290E+03  0.00000000000E+00 0.  1.
          1   -1    0    0  501    0  0.00000000000E+00 -0.00000000000E+00 -0.22988043983E+03  0.22988043983E+03  0.00000000000E+00 0. -1.
         25    2    1    2    0    0 -0.83585768097E+02 -0.40178473231E+02 -0.13581783199E+03  0.20662461248E+03  0.12508539745E+03 0.  0.
          5    1    3    3  502    0 -0.94910858268E+02  0.13450994657E+02 -0.10977023564E+03  0.14579429792E+03  0.41800000000E+01 0. -1.
         -5    1    3    3    0  502  0.11325090171E+02 -0.53629467889E+02 -0.26047596350E+02  0.60830314556E+02  0.41800000000E+01 0. -1.
        -11    1    1    2    0    0  0.30026857485E+02 -0.25178091283E+02  0.21743782930E+02  0.44814512684E+02  0.00000000000E+00 0. -1.
         11    1    1    2    0    0  0.53558910613E+02  0.65356564514E+02 -0.92447478699E+01  0.85002957562E+02  0.00000000000E+00 0.  1.
</event>
<event>
 7    1  0.2723366E-009  0.1141095E+03  0.7561462E-02  0.1253144E+00
         -2   -1    0    0    0  501 -0.00000000000E+00  0.00000000000E+00  0.69435881683E+01  0.69435881683E+01  0.00000000000E+00 0.  1.
          2   -1    0    0  501    0  0.00000000000E+00 -0.00000000000E+00 -0.22076171252E+04  0.22076171252E+04  0.00000000000E+00 0. -1.
         25    2    1    2    0    0 -0.75716895978E+01  0.36959771928E+02 -0.16525271853E+04  0.16576841829E+04  0.12508955601E+03 0.  0.
          5    1    3    3  502    0  0.19212182777E+02  0.78309059699E+02 -0.10918387358E+04  0.10948199460E+04  0.41800000000E+01 0.  1.
         -5    1    3    3    0  502 -0.26783872375E+02 -0.41349287771E+02 -0.56068844952E+03  0.56286423695E+03  0.41800000000E+01 0.  1.
        -11    1    1    2    0    0  0.11479078086E+02 -0.66882039554E+02 -0.39472327438E+03  0.40051396952E+03  0.00000000000E+00 0.  1.
         11    1    1    2    0    0 -0.39073884883E+01  0.29922267626E+02 -0.15342307739E+03  0.15636256093E+03  0.00000000000E+00 0. -1.
</event>
<event>
 7    1  0.2723366E-009  0.1156464E+03  0.7561462E-02  0.1250457E+00
          2   -1    0    0  501    0  0.00000000000E+00  0.00000000000E+00  0.66432438135E+03  0.66432438135E+03  0.00000000000E+00 0. -1.
         -2   -1    0    0    0  501 -0.00000000000E+00 -0.00000000000E+00 -0.25748698733E+02  0.25748698733E+02  0.00000000000E+00 0.  1.
         25    2    1    2    0    0  0.60519937060E+02 -0.26556165861E+01  0.46003134187E+03  0.48056705481E+03  0.12508454575E+03 0.  0.
          5    1    3    3  502    0 -0.29384548725E+02  0.14536576717E+02  0.46762909463E+02  0.57262604445E+02  0.41800000000E+01 0. -1.
         -5    1    3    3    0  502  0.89904485785E+02 -0.17192193303E+02  0.41326843240E+03  0.42330445036E+03  0.41800000000E+01 0. -1.
        -11    1    1    2    0    0  0.11742763910E+02 -0.26272194901E+02  0.28653423187E+02  0.40609597258E+02  0.00000000000E+00 0.  1.
         11    1    1    2    0    0 -0.72262700970E+02  0.28927811487E+02  0.14989091757E+03  0.16889642802E+03  0.00000000000E+00 0. -1.
</event>
<event>
 7    1  0.2723366E-009  0.1227392E+03  0.7561462E-02  0.1238645E+00
          3   -1    0    0  501    0  0.00000000000E+00  0.00000000000E+00  0.33743153400E+02  0.33743153400E+02  0.00000000000E+00 0. -1.
         -3   -1    0    0    0  501 -0.00000000000E+00 -0.00000000000E+00 -0.75172722090E+03  0.75172722090E+03  0.00000000000E+00 0.  1.
         25    2    1    2    0    0  0.98570454988E+02  0.34379443322E+02 -0.51054942327E+03  0.53591701214E+03  0.12509296378E+03 0.  0.
          5    1    3    3  502    0  0.20177462972E+02 -0.13881649955E+01 -0.37287830356E+03  0.37344980744E+03  0.41800000000E+01 0. -1.
         -5    1    3    3    0  502  0.78392992016E+02  0.35767608318E+02 -0.13767111971E+03  0.16246720470E+03  0.41800000000E+01 0. -1.
        -11    1    1    2    0    0 -0.99498053881E+02  0.45641367911E+01 -0.14330043072E+03  0.17451563688E+03  0.00000000000E+00 0. -1.
         11    1    1    2    0    0  0.92759889238E+00 -0.38943580113E+02 -0.64134213512E+02  0.75037725276E+02  0.00000000000E+00 0.  1.
</event>
<event>
 7    1  0.2723366E-009  0.2159056E+03  0.7561462E-02  0.1136973E+00
          1   -1    0    0  501    0  0.00000000000E+00  0.00000000000E+00  0.30345017617E+02  0.30345017617E+02  0.00000000000E+00 0. -1.
         -1   -1    0    0    0  501 -0.00000000000E+00 -0.00000000000E+00 -0.19871903504E+04  0.19871903504E+04  0.00000000000E+00 0.  1.
         25    2    1    2    0    0 -0.15080622291E+03 -0.13078646055E+03 -0.13892525214E+04  0.14090837175E+04  0.12508692821E+03 0.  0.
          5    1    3    3  502    0 -0.83076106352E+02 -0.11695073542E+03 -0.11793778057E+04  0.11880776889E+04  0.41800000000E+01 0.  1.
         -5    1    3    3    0  502 -0.67730116560E+02 -0.13835725135E+02 -0.20987471573E+03  0.22100602861E+03  0.41800000000E+01 0.  1.
        -11    1    1    2    0    0  0.95080378132E+02  0.23185925479E+02 -0.24186555747E+03  0.26091533749E+03  0.00000000000E+00 0.  1.
         11    1    1    2    0    0  0.55725844780E+02  0.10760053507E+03 -0.32572725392E+03  0.34753631303E+03  0.00000000000E+00 0. -1.
</event>
<event>
 7    1  0.2723366E-009  0.8262722E+02  0.7561462E-02  0.1321757E+00
          2   -1    0    0  501    0  0.00000000000E+00  0.00000000000E+00  0.46235957295E+03  0.46235957295E+03  0.00000000000E+00 0.  1.
         -2   -1    0    0    0  501 -0.00000000000E+00 -0.00000000000E+00 -0.28233196267E+02  0.28233196267E+02  0.00000000000E+00 0. -1.
         25    2    1    2    0    0  0.10882169969E+02  0.22173963993E+02  0.27974983802E+03  0.30743823794E+03  0.12509273351E+03 0.  0.
          5    1    3    3  502    0  0.40313109596E+02  0.15169010606E+02  0.23247164534E+02  0.49123810387E+02  0.41800000000E+01 0. -1.
         -5    1    3    3    0  502 -0.29430939627E+02  0.70049533860E+01  0.25650267349E+03  0.25831442756E+03  0.41800000000E+01 0. -1.
        -11    1    1    2    0    0  0.13550142759E+02  0.30500035355E+02  0.26167311435E+02  0.42409747856E+02  0.00000000000E+00 0.  1.
         11    1    1    2    0    0 -0.24432312728E+02 -0.52673999347E+02  0.12820922723E+03  0.14074478342E+03  0.00000000000E+00 0. -1.
</event>
<event>
 7    1  0.2723366E-009  0.8591707E+02  0.7561462E-02  0.1313052E+00
         -2   -1    0    0    0  501 -0.00000000000E+00  0.00000000000E+00  0.25573512976E+03  0.25573512976E+03  0.00000000000E+00 0.  1.
          2   -1    0    0  501    0  0.00000000000E+00 -0.00000000000E+00 -0.79322112156E+02  0.79322112156E+02  0.00000000000E+00 0. -1.
         25    2    1    2    0    0 -0.19992475351E+02 -0.28894822287E+02  0.19719942294E+03  0.23615557989E+03  0.12508891111E+03 0.  0.
          5    1    3    3  502    0  0.20190746414E+02 -0.39128258552E+02  0.11310095203E+02  0.45651697795E+02  0.41800000000E+01 0.  1.
         -5    1    3    3    0  502 -0.40183221765E+02  0.10233436266E+02  0.18588932773E+03  0.19050388210E+03  0.41800000000E+01 0.  1.
        -11    1    1    2    0    0 -0.33280694286E+01  0.52583155173E+02 -0.34461238363E+02  0.62957455505E+02  0.00000000000E+00 0. -1.
         11    1    1    2    0    0  0.23320544780E+02 -0.23688332887E+02  0.13674833030E+02  0.35944206518E+02  0.00000000000E+00 0.  1.
</event>
<event>
 7    1  0.2723366E-009  0.1068801E+03  0.7561462E-02  0.1266459E+00
         -1   -1    0    0    0  501 -0.00000000000E+00  0.00000000000E+00  0.31218204259E+02  0.31218204259E+02  0.00000000000E+00 0.  1.
          1   -1    0    0  501    0  0.00000000000E+00 -0.00000000000E+00 -0.57842070759E+03  0.57842070759E+03  0.00000000000E+00 0. -1.
         25    2    1    2    0    0  0.73248745342E+02 -0.62661013487E+01 -0.27607988586E+03  0.31188500615E+03  0.12509001143E+03 0.  0.
          5    1    3    3  502    0  0.85918287115E+02 -0.27616526854E+01 -0.28346244467E+03  0.29623978248E+03  0.41800000000E+01 0.  1.
         -5    1    3    3    0  502 -0.12669541773E+02 -0.35044486632E+01  0.73825588028E+01  0.15645223669E+02  0.41800000000E+01 0.  1.
        -11    1    1    2    0    0 -0.22439037621E+02 -0.39559070456E+02 -0.16761570740E+03  0.17367629611E+03  0.00000000000E+00 0. -1.
         11    1    1    2    0    0 -0.50809707721E+02  0.45825171804E+02 -0.10350691007E+03  0.12407760959E+03  0.00000000000E+00 0.  1.
</event>
<event>
 7    1  0.2723366E-009  0.2810965E+03  0.7561462E-02  0.1095092E+00
         -3   -1    0    0    0  501 -0.00000000000E+00  0.00000000000E+00  0.20080712245E+03  0.20080712245E+03  0.00000000000E+00 0.  1.
          3   -1    0    0  501    0  0.00000000000E+00 -0.00000000000E+00 -0.47348665382E+03  0.47348665382E+03  0.00000000000E+00 0. -1.
         25    2    1    2    0    0 -0.26265879350E+03 -0.64533781021E+02 -0.29121587184E+02  0.29940749101E+03  0.12507009289E+03 0.  0.
          5    1    3    3  502    0 -0.11997273416E+03 -0.70744938006E+02  0.33647636176E+02  0.14334552318E+03  0.41800000000E+01 0.  1.
         -5    1    3    3    0  502 -0.14268605935E+03  0.62111569847E+01 -0.62769223360E+02  0.15606196784E+03  0.41800000000E+01 0.  1.
        -11    1    1    2    0    0  0.93897680515E+02  0.59444301595E+02 -0.63254819934E+02  0.12787326399E+03  0.00000000000E+00 0.  1.
         11    1    1    2    0    0  0.16876111299E+03  0.50894794264E+01 -0.18030312425E+03  0.24701302126E+03  0.00000000000E+00 0. -1.
</event>
<event>
 7    1  0.2723366E-009  0.1408185E+03  0.7561462E-02  0.1212232E+00
         -1   -1    0    0    0  501 -0.00000000000E+00  0.00000000000E+00  0.94386371370E+02  0.94386371370E+02  0.00000000000E+00 0.  1.
          1   -1    0    0  501    0  0.00000000000E+00 -0.00000000000E+00 -0.24931664788E+03  0.24931664788E+03  0.00000000000E+00 0. -1.
         25    2    1    2    0    0 -0.12155399876E+03  0.65134820191E+01 -0.10900034168E+03  0.20578312365E+03  0.12509124441E+03 0.  0.
          5    1    3    3  502    0 -0.80180847837E+02  0.47516153984E+02 -0.14103051606E+02  0.94356354920E+02  0.41800000000E+01 0.  1.
         -5    1    3    3    0  502 -0.41373150927E+02 -0.41002671965E+02 -0.94897290076E+02  0.11142676873E+03  0.41800000000E+01 0.  1.
        -11    1    1    2    0    0  0.29220005319E+02  0.18114888444E+02 -0.97167468431E+01  0.35726363702E+02  0.00000000000E+00 0. -1.
         11    1    1    2    0    0  0.92333993445E+02 -0.24628370463E+02 -0.36213187980E+02  0.10219353189E+03  0.00000000000E+00 0.  1.
</event>
<event>
 7    1  0.2723366E-009  0.8237028E+02  0.7561462E-02  0.1322456E+00
         -2   -1    0    0    0  501 -0.00000000000E+00  0.00000000000E+00  0.21926415754E+03  0.21926415754E+03  0.00000000000E+00 0.  1.
          2   -1    0    0  501    0  0.00000000000E+00 -0.00000000000E+00 -0.66794032493E+02  0.66794032493E+02  0.00000000000E+00 0. -1.
         25    2    1    2    0    0 -0.41120251334E+02  0.31264475769E+02  0.11025343397E+03  0.17455873481E+03  0.12508632892E+03 0.  0.
          5    1    3    3  502    0 -0.41638080454E+02  0.60742916639E+02  0.15683455868E+02  0.75411370851E+02  0.41800000000E+01 0.  1.
         -5    1    3    3    0  502  0.51782911992E+00 -0.29478440870E+02  0.94569978100E+02  0.99147363963E+02  0.41800000000E+01 0.  1.
        -11    1    1    2    0    0  0.22243355187E+00 -0.18293415070E+02  0.61716263335E+02  0.64370767214E+02  0.00000000000E+00 0.  1.
         11    1    1    2    0    0  0.40897817782E+02 -0.12971060699E+02 -0.19499572256E+02  0.47128688005E+02  0.00000000000E+00 0. -1.
</event>
<event>
 7    1  0.2723366E-009  0.5247262E+02  0.7561462E-02  0.1432444E+00
         -1   -1    0    0    0  501 -0.00000000000E+00  0.00000000000E+00  0.64287360512E+03  0.64287360512E+03  0.00000000000E+00 0.  1.
          1   -1    0    0  501    0  0.00000000000E+00 -0.00000000000E+00 -0.23846507610E+02  0.23846507610E+02  0.00000000000E+00 0. -1.
         25    2    1    2    0    0  0.80741427526E+01 -0.10891041153E+01  0.50156197004E+03  0.51698864544E+03  0.12508585770E+03 0.  0.
          5    1    3    3  502    0  0.21787510278E+02  0.12559653658E+02  0.14115347390E+02  0.29140280302E+02  0.41800000000E+01 0. -1.
         -5    1    3    3    0  502 -0.13713367526E+02 -0.13648757773E+02  0.48744662265E+03  0.48784836514E+03  0.41800000000E+01 0. -1.
        -11    1    1    2    0    0  0.21109960414E+02  0.16371298763E+02  0.11344020810E+03  0.11654325663E+03  0.00000000000E+00 0.  1.
         11    1    1    2    0    0 -0.29184103167E+02 -0.15282194648E+02  0.40249193736E+01  0.33188210661E+02  0.00000000000E+00 0. -1.
</event>
<event>
 7    1  0.2723366E-009  0.1484915E+03  0.7561462E-02  0.1202339E+00
         -1   -1    0    0    0  501 -0.00000000000E+00  0.00000000000E+00  0.25629116017E+03  0.25629116017E+03  0.00000000000E+00 0.  1.
          1   -1    0    0  501    0  0.00000000000E+00 -0.00000000000E+00 -0.14568371665E+03  0.14568371665E+03  0.00000000000E+00 0. -1.
         25    2    1    2    0    0 -0.79454303812E+01  0.12030410938E+03 -0.50830294355E+02  0.18101922900E+03  0.12509210145E+03 0.  0.
          5    1    3    3  502    0 -0.38954977807E+02  0.26145170801E+02 -0.65543613878E+02  0.80712440010E+02  0.41800000000E+01 0.  1.
         -5    1    3    3    0  502  0.31009547426E+02  0.94158938577E+02  0.14713319523E+02  0.10030678899E+03  0.41800000000E+01 0.  1.
        -11    1    1    2    0    0 -0.40688056718E+02 -0.67965454992E+02  0.79164588966E+02  0.11199041556E+03  0.00000000000E+00 0.  1.
         11    1    1    2    0    0  0.48633487099E+02 -0.52338654385E+02  0.82273148906E+02  0.10896523226E+03  0.00000000000E+00 0. -1.
</event>
<event>
 7    1  0.2723366E-009  0.1168957E+03  0.7561462E-02  0.1248308E+00
         -1   -1    0    0    0  501 -0.00000000000E+00  0.00000000000E+00  0.27310279234E+02  0.27310279234E+02  0.00000000000E+00 0.  1.
          1   -1    0    0  501    0  0.00000000000E+00 -0.00000000000E+00 -0.53274866178E+03  0.53274866178E+03  0.00000000000E+00 0. -1.
         25    2    1    2    0    0  0.25372460612E+02 -0.45296750117E+02 -0.30111495862E+03  0.33017205193E+03  0.12509119969E+03 0.  0.
          5    1    3    3  502    0  0.55406680687E+02 -0.72113658788E+02 -0.24171206091E+03  0.25828757778E+03  0.41800000000E+01 0. -1.
         -5    1    3    3    0  502 -0.30034220075E+02  0.26816908671E+02 -0.59402897712E+02  0.71884474143E+02  0.41800000000E+01 0. -1.
        -11    1    1    2    0    0 -0.55186147841E+02  0.46891159324E+02 -0.11697710442E+03  0.13757883084E+03  0.00000000000E+00 0.  1.
         11    1    1    2    0    0  0.29813687229E+02 -0.15944092070E+01 -0.87346319509E+02  0.92308058255E+02  0.00000000000E+00 0. -1.
</event>
<event>
 7    1  0.2723366E-009  0.1181513E+03  0.7561462E-02  0.1246178E+00
          2   -1    0    0  501    0  0.00000000000E+00  0.00000000000E+00  0.40730075027E+02  0.40730075027E+02  0.00000000000E+00 0. -1.
         -2   -1    0    0    0  501 -0.00000000000E+00 -0.00000000000E+00 -0.45291605195E+03  0.45291605195E+03  0.00000000000E+00 0.  1.
         25    2    1    2    0    0 -0.58675540860E+00  0.73622201487E+02 -0.29023380038E+03  0.32450728585E+03  0.12509495134E+03 0.  0.
          5    1    3    3  502    0 -0.51823327796E+02  0.27550477498E+02 -0.21273487493E+03  0.22072219084E+03  0.41800000000E+01 0.  1.
         -5    1    3    3    0  502  0.51236572387E+02  0.46071723989E+02 -0.77498925444E+02  0.10378509501E+03  0.41800000000E+01 0.  1.
        -11    1    1    2    0    0  0.74072432031E+01 -0.90200975149E+02 -0.12111152682E+03  0.15119221242E+03  0.00000000000E+00 0.  1.
         11    1    1    2    0    0 -0.68204877945E+01  0.16578773662E+02 -0.84064972538E+00  0.17946628704E+02  0.00000000000E+00 0. -1.
</event>
<event>
 7    1  0.2723366E-009  0.1496686E+03  0.7561462E-02  0.1200881E+00
          1   -1    0    0  501    0  0.00000000000E+00  0.00000000000E+00  0.13551554356E+03  0.13551554356E+03  0.00000000000E+00 0. -1.
         -1   -1    0    0    0  501 -0.00000000000E+00 -0.00000000000E+00 -0.32414609084E+03  0.32414609084E+03  0.00000000000E+00 0.  1.
         25    2    1    2    0    0  0.47174116702E+02  0.10280898621E+03 -0.18987671366E+03  0.25395936021E+03  0.12508839001E+03 0.  0.
          5    1    3    3  502    0  0.77921425487E+02  0.96890480769E+02 -0.18355768465E+03  0.22174401865E+03  0.41800000000E+01 0.  1.
         -5    1    3    3    0  502 -0.30747308784E+02  0.59185054397E+01 -0.63190290143E+01  0.32215341560E+02  0.41800000000E+01 0.  1.
        -11    1    1    2    0    0  0.65923786668E+01 -0.87068691664E+02  0.73596981375E+02  0.11419690097E+03  0.00000000000E+00 0. -1.
         11    1    1    2    0    0 -0.53766495369E+02 -0.15740294544E+02 -0.72350815002E+02  0.91505373219E+02  0.00000000000E+00 0.  1.
</event>
<event>
 7    1  0.2723366E-009  0.1157389E+03  0.7561462E-02  0.1250297E+00
          2   -1    0    0  501    0  0.00000000000E+00  0.00000000000E+00  0.83892647364E+02  0.83892647364E+02  0.00000000000E+00 0. -1.
         -2   -1    0    0    0  501 -0.00000000000E+00 -0.00000000000E+00 -0.24305579445E+03  0.24305579445E+03  0.00000000000E+00 0.  1.
         25    2    1    2    0    0  0.45854900478E+01  0.81998420906E+02 -0.39126308217E+02  0.15467045821E+03  0.12508922774E+03 0.  0.
          5    1    3    3  502    0 -0.14239581429E+02  0.87969123682E+02 -0.72976605306E+02  0.11525792694E+03  0.41800000000E+01 0.  1.
         -5    1    3    3    0  502  0.18825071477E+02 -0.59707027759E+01  0.33850297089E+02  0.39412531265E+02  0.41800000000E+01 0.  1.
        -11    1    1    2    0    0  0.10000851009E+02  0.18230901284E+02 -0.31539123008E+02  0.37776964709E+02  0.00000000000E+00 0.  1.
         11    1    1    2    0    0 -0.14586341057E+02 -0.10022932219E+03 -0.88497715861E+02  0.13450101890E+03  0.00000000000E+00 0. -1.
</event>
<event>
 7    1  0.2723366E-009  0.1062344E+03  0.7561462E-02  0.1267706E+00
          3   -1    0    0  501    0  0.00000000000E+00  0.00000000000E+00  0.33139573478E+02  0.33139573478E+02  0.00000000000E+00 0. -1.
         -3   -1    0    0    0  501 -0.00000000000E+00 -0.00000000000E+00 -0.51549699236E+03  0.51549699236E+03  0.00000000000E+00 0.  1.
         25    2    1    2    0    0  0.55096929535E+02  0.39185867008E+02 -0.32678513518E+03  0.35638082361E+03  0.12509021963E+03 0.  0.
          5    1    3    3  502    0 -0.98121283664E+01 -0.13954547920E+02  0.13990512605E+01  0.17619222887E+02  0.41800000000E+01 0.  1.
         -5    1    3    3    0  502  0.64909057901E+02  0.53140414928E+02 -0.32818418644E+03  0.33876160072E+03  0.41800000000E+01 0.  1.
        -11    1    1    2    0    0 -0.63764357921E+02 -0.60503906882E+02 -0.13656340225E+03  0.16240744726E+03  0.00000000000E+00 0.  1.
         11    1    1    2    0    0  0.86674283863E+01  0.21318039873E+02 -0.19008881455E+02  0.29848294977E+02  0.00000000000E+00 0. -1.
</event>
<event>
 7    1  0.2723366E-009  0.1091469E+03  0.7561462E-02  0.1262158E+00
         -4   -1    0    0    0  501 -0.00000000000E+00  0.00000000000E+00  0.14676716832E+03  0.14676716832E+03  0.00000000000E+00 0.  1.
          4   -1    0    0  501    0  0.00000000000E+00 -0.00000000000E+00 -0.19816037415E+03  0.19816037415E+03  0.00000000000E+00 0. -1.
         25    2    1    2    0    0 -0.63932631082E+02 -0.12393186915E+02 -0.14262112960E+03  0.20056997332E+03  0.12508619105E+03 0.  0.
          5    1    3    3  502    0  0.14976582183E+02  0.38860572410E+02 -0.21252293768E+02  0.46942246349E+02  0.41800000000E+01 0.  1.
         -5    1    3    3    0  502 -0.78909213265E+02 -0.51253759325E+02 -0.12136883584E+03  0.15362772697E+03  0.41800000000E+01 0.  1.
        -11    1    1    2    0    0  0.19322258528E+02  0.28832696029E+02  0.90370784793E+02  0.96806780646E+02  0.00000000000E+00 0.  1.
         11    1    1    2    0    0  0.44610372554E+02 -0.16439509114E+02  0.85713898090E+00  0.47550788496E+02  0.00000000000E+00 0. -1.
</event>
<event>
 7    1  0.2723366E-009  0.8669397E+02  0.7561462E-02  0.1311061E+00
         -2   -1    0    0    0  501 -0.00000000000E+00  0.00000000000E+00  0.55104537025E+02  0.55104537025E+02  0.00000000000E+00 0.  1.
          2   -1    0    0  501    0  0.00000000000E+00 -0.00000000000E+00 -0.22581647383E+03  0.22581647383E+03  0.00000000000E+00 0. -1.
         25    2    1    2    0    0 -0.21213655677E+02  0.61763931747E+00 -0.71220879741E+02  0.14550245849E+03  0.12509256993E+03 0.  0.
          5    1    3    3  502    0 -0.54726623544E+02 -0.54889650834E+01  0.11143073291E+02  0.56274084129E+02  0.41800000000E+01 0.  1.
         -5    1    3    3    0  502  0.33512967868E+02  0.61066044009E+01 -0.82363953032E+02  0.89228374364E+02  0.41800000000E+01 0.  1.
        -11    1    1    2    0    0  0.45522074502E+02 -0.22877350800E+02 -0.31605804782E+02  0.59954644045E+02  0.00000000000E+00 0.  1.
         11    1    1    2    0    0 -0.24308418826E+02  0.22259711482E+02 -0.67885252284E+02  0.75463908319E+02  0.00000000000E+00 0. -1.
</event>
<event>
 7    1  0.3677153E-009  0.2215497E+03  0.7561462E-02  0.1132733E+00
          2   -1    0    0  501    0  0.00000000000E+00  0.00000000000E+00  0.11516458854E+04  0.11516458854E+04  0.00000000000E+00 0. -1.
         -2   -1    0    0    0  501 -0.00000000000E+00 -0.00000000000E+00 -0.52302013662E+02  0.52302013662E+02  0.00000000000E+00 0.  1.
         25    2    1    2    0    0  0.14001421597E+03 -0.16004450435E+03  0.70270857680E+03  0.74475855622E+03  0.12509092339E+03 0.  0.
          5    1    3    3  502    0  0.76384505845E+02 -0.86639331045E+02  0.56174798963E+03  0.57351481470E+03  0.41800000000E+01 0.  1.
         -5    1    3    3    0  502  0.63629710129E+02 -0.73405173302E+02  0.14096058716E+03  0.17124374153E+03  0.41800000000E+01 0.  1.
        -11    1    1    2    0    0 -0.10392067307E+03  0.51665619315E+02  0.17760899110E+03  0.21216454989E+03  0.00000000000E+00 0.  1.
         11    1    1    2    0    0 -0.36093542906E+02  0.10837888503E+03  0.21902630389E+03  0.24702479299E+03  0.00000000000E+00 0. -1.
</event>
<event>
 7    1  0.2723366E-009  0.8605188E+02  0.7561462E-02  0.1312704E+00
         -1   -1    0    0    0  501 -0.00000000000E+00  0.00000000000E+00  0.10218016902E+03  0.10218016902E+03  0.00000000000E+00 0.  1.
          1   -1    0    0  501    0  0.00000000000E+00 -0.00000000000E+00 -0.29925648997E+03  0.29925648997E+03  0.00000000000E+00 0. -1.
         25    2    1    2    0    0  0.47397711207E+02 -0.23622768023E+02  0.39691104803E+02  0.14151859674E+03  0.12509017238E+03 0.  0.
          5    1    3    3  502    0  0.31115239238E+02 -0.53776242238E+02 -0.25865078527E+02  0.67427865377E+02  0.41800000000E+01 0.  1.
         -5    1    3    3    0  502  0.16282471970E+02  0.30153474215E+02  0.65556183329E+02  0.74090731360E+02  0.41800000000E+01 0.  1.
        -11    1    1    2    0    0  0.17675068569E+01  0.26027335519E+02 -0.10111095536E+02  0.27978215234E+02  0.00000000000E+00 0.  1.
         11    1    1    2    0    0 -0.49165218064E+02 -0.24045674964E+01 -0.22665633021E+03  0.23193984702E+03  0.00000000000E+00 0. -1.
</event>
<event>
 7    1  0.2723366E-009  0.1095442E+03  0.7561462E-02  0.1261416E+00
          2   -1    0    0  501    0  0.00000000000E+00  0.00000000000E+00  0.12293910100E+03  0.12293910100E+03  0.00000000000E+00 0.  1.
         -2   -1    0    0    0  501 -0.00000000000E+00 -0.00000000000E+00 -0.13451929830E+03  0.13451929830E+03  0.00000000000E+00 0. -1.
         25    2    1    2    0    0  0.58479646471E+02 -0.19245407719E+02  0.23111072482E+02  0.14132287291E+03  0.12509107869E+03 0.  0.
          5    1    3    3  502    0 -0.31120577210E+02  0.17759728751E+02  0.25641022228E+02  0.44258702106E+02  0.41800000000E+01 0. -1.
         -5    1    3    3    0  502  0.89600223681E+02 -0.37005136470E+02 -0.25299497455E+01  0.97064170807E+02  0.41800000000E+01 0. -1.
        -11    1    1    2    0    0  0.52300585085E+01 -0.13408282910E+02  0.20983193643E+02  0.25444645371E+02  0.00000000000E+00 0.  1.
         11    1    1    2    0    0 -0.63709704979E+02  0.32653690629E+02 -0.55674463425E+02  0.90690881007E+02  0.00000000000E+00 0. -1.
</event>
<event>
 7    1  0.2723366E-009  0.2675034E+03  0.7561462E-02  0.1102717E+00
         -1   -1    0    0    0  501 -0.00000000000E+00  0.00000000000E+00  0.18402683946E+03  0.18402683946E+03  0.00000000000E+00 0.  1.
          1   -1    0    0  501    0  0.00000000000E+00 -0.00000000000E+00 -0.40597773049E+03  0.40597773049E+03  0.00000000000E+00 0. -1.
         25    2    1    2    0    0 -0.35491487706E+01  0.24596946490E+03 -0.16692151215E+03  0.32252601560E+03  0.12508663158E+03 0.  0.
          5    1    3    3  502    0  0.60590104328E+02  0.12111116118E+03 -0.78777625083E+02  0.15672415486E+03  0.41800000000E+01 0.  1.
         -5    1    3    3    0  502 -0.64139253099E+02  0.12485830372E+03 -0.88143887063E+02  0.16580186073E+03  0.41800000000E+01 0.  1.
        -11    1    1    2    0    0  0.42311999220E+02 -0.13991579288E+03 -0.12085353840E+02  0.14667239056E+03  0.00000000000E+00 0.  1.
         11    1    1    2    0    0 -0.38762850450E+02 -0.10605367201E+03 -0.42944025042E+02  0.12080616379E+03  0.00000000000E+00 0. -1.
</event>
<event>
 7    1  0.2723366E-009  0.1328723E+03  0.7561462E-02  0.1223255E+00
          1   -1    0    0  501    0  0.00000000000E+00  0.00000000000E+00  0.14042032392E+03  0.14042032392E+03  0.00000000000E+00 0. -1.
         -1   -1    0    0    0  501 -0.00000000000E+00 -0.00000000000E+00 -0.16340673907E+03  0.16340673907E+03  0.00000000000E+00 0.  1.
         25    2    1    2    0    0 -0.85984794016E+02 -0.45066468616E+02 -0.45548027892E+02  0.16476527331E+03  0.12509436858E+03 0.  0.
          5    1    3    3  502    0  0.16651239334E+02 -0.17800750982E+02 -0.52733457922E+02  0.58244488935E+02  0.41800000000E+01 0. -1.
         -5    1    3    3    0  502 -0.10263603335E+03 -0.27265717634E+02  0.71854300304E+01  0.10652078438E+03  0.41800000000E+01 0. -1.
        -11    1    1    2    0    0  0.10647847277E+03  0.38149413744E+02  0.88493842731E+01  0.11345199220E+03  0.00000000000E+00 0.  1.
         11    1    1    2    0    0 -0.20493678757E+02  0.69170548724E+01  0.13712228464E+02  0.25609797472E+02  0.00000000000E+00 0. -1.
</event>
<event>
 7    1  0.2723366E-009  0.1911572E+03  0.7561462E-02  0.1157422E+00
          2   -1    0    0  501    0  0.00000000000E+00  0.00000000000E+00  0.12211621393E+04  0.12211621393E+04  0.00000000000E+00 0. -1.
         -2   -1    0    0    0  501 -0.00000000000E+00 -0.00000000000E+00 -0.37354923523E+02  0.37354923523E+02  0.00000000000E+00 0.  1.
         25    2    1    2    0    0  0.17261514125E+03 -0.59819942307E+02  0.68863030417E+03  0.72334827001E+03  0.12508641581E+03 0.  0.
          5    1    3    3  502    0  0.10697082361E+03  0.48363959536E+00  0.20210562753E+03  0.22870756019E+03  0.41800000000E+01 0.  1.
         -5    1    3    3    0  502  0.65644317644E+02 -0.60303581903E+02  0.48652467664E+03  0.49464070982E+03  0.41800000000E+01 0.  1.
        -11    1    1    2    0    0 -0.97962971822E+02  0.15427775371E+02  0.36825276745E+03  0.38137233884E+03  0.00000000000E+00 0. -1.
         11    1    1    2    0    0 -0.74652169427E+02  0.44392166937E+02  0.12692414421E+03  0.15379645402E+03  0.00000000000E+00 0.  1.
</event>
<event>
 7    1  0.2723366E-009  0.1156325E+03  0.7561462E-02  0.1250481E+00
         -1   -1    0    0    0  501 -0.00000000000E+00  0.00000000000E+00  0.59492156896E+02  0.59492156896E+02  0.00000000000E+00 0.  1.
          1   -1    0    0  501    0  0.00000000000E+00 -0.00000000000E+00 -0.29568328364E+03  0.29568328364E+03  0.00000000000E+00 0. -1.
         25    2    1    2    0    0 -0.58575436273E+02 -0.45694194510E+02 -0.92891864002E+02  0.17260420098E+03  0.12507705885E+03 0.  0.
          5    1    3    3  502    0 -0.62449151872E+02  0.26646634127E+02 -0.67213500301E+02  0.95629842113E+02  0.41800000000E+01 0. -1.
         -5    1    3    3    0  502  0.38737155996E+01 -0.72340828636E+02 -0.25678363701E+02  0.76974358865E+02  0.41800000000E+01 0. -1.
        -11    1    1    2    0    0  0.43030623316E+00 -0.10088974161E+02  0.68259251269E+01  0.12188757809E+02  0.00000000000E+00 0.  1.
         11    1    1    2    0    0  0.58145130040E+02  0.55783168671E+02 -0.15012518787E+03  0.17038248175E+03  0.00000000000E+00 0. -1.
</event>
<event>
 7    1  0.2723366E-009  0.1095307E+03  0.7561462E-02  0.1261441E+00
         -1   -1    0    0    0  501 -0.00000000000E+00  0.00000000000E+00  0.17010378815E+03  0.17010378815E+03  0.00000000000E+00 0.  1.
          1   -1    0    0  501    0  0.00000000000E+00 -0.00000000000E+00 -0.12998892709E+03  0.12998892709E+03  0.00000000000E+00 0. -1.
         25    2    1    2    0    0  0.13201244036E+01 -0.99515961319E+02  0.48760370845E+01  0.15992595144E+03  0.12508942769E+03 0.  0.
          5    1    3    3  502    0 -0.16307622360E+02 -0.88486680047E+02  0.54973010182E+02  0.10552409839E+03  0.41800000000E+01 0. -1.
         -5    1    3    3    0  502  0.17627746763E+02 -0.11029281272E+02 -0.50096973097E+02  0.54401853046E+02  0.41800000000E+01 0. -1.
        -11    1    1    2    0    0 -0.19614503927E+02  0.29608313689E+02  0.54801515510E+02  0.65303806214E+02  0.00000000000E+00 0.  1.
         11    1    1    2    0    0  0.18294379523E+02  0.69907647630E+02 -0.19562691540E+02  0.74862957593E+02  0.00000000000E+00 0. -1.
</event>
<event>
 7    1  0.2723366E-009  0.1182644E+03  0.7561462E-02  0.1245988E+00
          1   -1    0    0  501    0  0.00000000000E+00  0.00000000000E+00  0.23970749289E+03  0.23970749289E+03  0.00000000000E+00 0. -1.
         -1   -1    0    0    0  501 -0.00000000000E+00 -0.00000000000E+00 -0.11330943328E+03  0.11330943328E+03  0.00000000000E+00 0.  1.
         25    2    1    2    0    0  0.32725378156E+02  0.41131799637E+02  0.18885407498E+03  0.23254493542E+03  0.12509400480E+03 0.  0.
          5    1    3    3  502    0  0.79700834319E+02  0.35513480071E+02  0.10965736035E+03  0.14019857110E+03  0.41800000000E+01 0.  1.
         -5    1    3    3    0  502 -0.46975456163E+02  0.56183195663E+01  0.79196714630E+02  0.92346364329E+02  0.41800000000E+01 0.  1.
        -11    1    1    2    0    0 -0.20668622626E+02  0.26146451552E+02 -0.29853980129E+02  0.44744709403E+02  0.00000000000E+00 0.  1.
         11    1    1    2    0    0 -0.12056755530E+02 -0.67278251189E+02 -0.32602035242E+02  0.75727281338E+02  0.00000000000E+00 0. -1.
</event>
<event>
 7    1  0.2723366E-009  0.8202127E+02  0.7561462E-02  0.1323411E+00
         -1   -1    0    0    0  501 -0.00000000000E+00  0.00000000000E+00  0.39048121039E+02  0.39048121039E+02  0.00000000000E+00 0.  1.
          1   -1    0    0  501    0  0.00000000000E+00 -0.00000000000E+00 -0.43308840203E+03  0.43308840203E+03  0.00000000000E+00 0. -1.
         25    2    1    2    0    0 -0.10683992025E+02  0.56834055381E+02 -0.29583643909E+03  0.32636038198E+03  0.12509053799E+03 0.  0.
          5    1    3    3  502    0 -0.27394968211E+02  0.67428046804E+02 -0.29727814619E+03  0.30608625318E+03  0.41800000000E+01 0.  1.
         -5    1    3    3    0  502  0.16710976187E+02 -0.10593991422E+02  0.14417071021E+01  0.20274128803E+02  0.41800000000E+01 0.  1.
        -11    1    1    2    0    0  0.25856103231E+02 -0.26622823335E+02  0.47489371076E+01  0.37414772487E+02  0.00000000000E+00 0.  1.
         11    1    1    2    0    0 -0.15172111206E+02 -0.30211232047E+02 -0.10295277900E+03  0.10836136860E+03  0.00000000000E+00 0. -1.
</event>
<event>
 7    1  0.3497700E-009  0.1276300E+03  0.7561462E-02  0.1231015E+00
         -2   -1    0    0    0  501 -0.00000000000E+00  0.00000000000E+00  0.92857805521E+01  0.92857805521E+01  0.00000000000E+00 0.  1.
          2   -1    0    0  501    0  0.00000000000E+00 -0.00000000000E+00 -0.23260138354E+04  0.23260138354E+04  0.00000000000E+00 0. -1.
         25    2    1    2    0    0 -0.83013192108E+02  0.27800186946E+01 -0.16768846211E+04  0.16835942382E+04  0.12509439500E+03 0.  0.
          5    1    3    3  502    0 -0.26986956366E+02  0.51005209610E+02 -0.35906422650E+03  0.36369550227E+03  0.41800000000E+01 0. -1.
         -5    1    3    3    0  502 -0.56026235742E+02 -0.48225190915E+02 -0.13178203946E+04  0.13198987359E+04  0.41800000000E+01 0. -1.
        -11    1    1    2    0    0  0.33706308288E+02 -0.46522526364E+02 -0.32462362900E+03  0.32966795596E+03  0.00000000000E+00 0. -1.
         11    1    1    2    0    0  0.49306883821E+02  0.43742507669E+02 -0.31521980472E+03  0.32203742183E+03  0.00000000000E+00 0.  1.
</event>
<event>
 7    1  0.2723366E-009  0.1307163E+03  0.7561462E-02  0.1226397E+00
         -2   -1    0    0    0  501 -0.00000000000E+00  0.00000000000E+00  0.59316177606E+02  0.59316177606E+02  0.00000000000E+00 0.  1.
          2   -1    0    0  501    0  0.00000000000E+00 -0.00000000000E+00 -0.30119112853E+03  0.30119112853E+03  0.00000000000E+00 0. -1.
         25    2    1    2    0    0 -0.35328523804E+02  0.64439717260E+02 -0.16670381309E+03  0.22099298929E+03  0.12508860166E+03 0.  0.
          5    1    3    3  502    0  0.11397964409E+02 -0.33653225676E+02 -0.33153307342E+02  0.48775684299E+02  0.41800000000E+01 0.  1.
         -5    1    3    3    0  502 -0.46726488213E+02  0.98092942936E+02 -0.13355050575E+03  0.17221730499E+03  0.41800000000E+01 0.  1.
        -11    1    1    2    0    0  0.52148970396E+02 -0.19249364902E+01 -0.26543621477E+02  0.58547282900E+02  0.00000000000E+00 0.  1.
         11    1    1    2    0    0 -0.16820446592E+02 -0.62514780770E+02 -0.48627516359E+02  0.80967033943E+02  0.00000000000E+00 0. -1.
</event>
<event>
 7    1  0.2723366E-009  0.1077730E+03  0.7561462E-02  0.1264750E+00
         -2   -1    0    0    0  501 -0.00000000000E+00  0.00000000000E+00  0.94853750896E+02  0.94853750896E+02  0.00000000000E+00 0.  1.
          2   -1    0    0  501    0  0.00000000000E+00 -0.00000000000E+00 -0.12477504098E+03  0.12477504098E+03  0.00000000000E+00 0. -1.
         25    2    1    2    0    0  0.17035343897E+02  0.35561053072E+01 -0.22435792008E+02  0.12827217439E+03  0.12509011605E+03 0.  0.
          5    1    3    3  502    0 -0.23645771407E+02  0.55276554742E+02 -0.82571236395E+01  0.60829865201E+02  0.41800000000E+01 0. -1.
         -5    1    3    3    0  502  0.40681115304E+02 -0.51720449435E+02 -0.14178668369E+02  0.67442309190E+02  0.41800000000E+01 0. -1.
        -11    1    1    2    0    0  0.33012647324E+02  0.14610047388E+02  0.55908239904E+01  0.36531434148E+02  0.00000000000E+00 0.  1.
         11    1    1    2    0    0 -0.50047991221E+02 -0.18166152696E+02 -0.13076322063E+02  0.54825183335E+02  0.00000000000E+00 0. -1.
</event>
<event>
 7    1  0.2816017E-009  0.2097540E+03  0.7561462E-02  0.1141761E+00
         -2   -1    0    0    0  501 -0.00000000000E+00  0.00000000000E+00  0.60356798242E+02  0.60356798242E+02  0.00000000000E+00 0.  1.
          2   -1    0    0  501    0  0.00000000000E+00 -0.00000000000E+00 -0.91445877678E+03  0.91445877678E+03  0.00000000000E+00 0. -1.
         25    2    1    2    0    0  0.96390537633E+02 -0.17215790181E+03 -0.57640473489E+03  0.62194720778E+03  0.12508569844E+03 0.  0.
          5    1    3    3  502    0  0.63316857574E+02 -0.17549152830E+03 -0.38748227979E+03  0.43007707508E+03  0.41800000000E+01 0. -1.
         -5    1    3    3    0  502  0.33073680060E+02  0.33336264974E+01 -0.18892245510E+03  0.19187013269E+03  0.41800000000E+01 0. -1.
        -11    1    1    2    0    0 -0.43014994202E+02  0.49211595787E+02 -0.31510445478E+02  0.72560175443E+02  0.00000000000E+00 0.  1.
         11    1    1    2    0    0 -0.53375543432E+02  0.12294630602E+03 -0.24618679817E+03  0.28030819181E+03  0.00000000000E+00 0. -1.
</event>
<event>
 7    1  0.2723366E-009  0.9090649E+02  0.7561462E-02  0.1300671E+00
         -2   -1    0    0    0  501 -0.00000000000E+00  0.00000000000E+00  0.83171622877E+02  0.83171622877E+02  0.00000000000E+00 0.  1.
          2   -1    0    0  501    0  0.00000000000E+00 -0.00000000000E+00 -0.19132241635E+03  0.19132241635E+03  0.00000000000E+00 0. -1.
         25    2    1    2    0    0  0.57310556179E+02 -0.27322429643E+02 -0.56169136605E+02  0.15110738178E+03  0.12508978340E+03 0.  0.
          5    1    3    3  502    0  0.66126175523E+02 -0.23932487675E+02  0.20795249509E+02  0.73453045259E+02  0.41800000000E+01 0.  1.
         -5    1    3    3    0  502 -0.88156193442E+01 -0.33899419680E+01 -0.76964386113E+02  0.77654336523E+02  0.41800000000E+01 0.  1.
        -11    1    1    2    0    0  0.24319855268E+01 -0.22875522583E+02  0.86403252447E+01  0.24573548938E+02  0.00000000000E+00 0.  1.
         11    1    1    2    0    0 -0.59742541706E+02  0.50197952226E+02 -0.60621982110E+02  0.98813108503E+02  0.00000000000E+00 0. -1.
</event>
<event>
 7    1  0.2723366E-009  0.9422026E+02  0.7561462E-02  0.1292942E+00
         -1   -1    0    0    0  501 -0.00000000000E+00  0.00000000000E+00  0.39355284482E+03  0.39355284482E+03  0.00000000000E+00 0.  1.
          1   -1    0    0  501    0  0.00000000000E+00 -0.00000000000E+00 -0.40697165199E+02  0.40697165199E+02  0.00000000000E+00 0. -1.
         25    2    1    2    0    0  0.33265416201E+02  0.52434990772E+02  0.21721107270E+03  0.25823075050E+03  0.12508578746E+03 0.  0.
          5    1    3    3  502    0  0.18710355217E+02  0.75757783834E+02  0.21676317233E+03  0.23041932315E+03  0.41800000000E+01 0.  1.
         -5    1    3    3    0  502  0.14555060984E+02 -0.23322793062E+02  0.44790037822E+00  0.27811427349E+02  0.41800000000E+01 0.  1.
        -11    1    1    2    0    0 -0.11360819642E+02 -0.58631911582E+02  0.14056772649E+03  0.15272869740E+03  0.00000000000E+00 0.  1.
         11    1    1    2    0    0 -0.21904596559E+02  0.61969208092E+01 -0.49231195680E+01  0.23290562128E+02  0.00000000000E+00 0. -1.
</event>
<event>
 7    1  0.2723366E-009  0.1471209E+03  0.7561462E-02  0.1204056E+00
          1   -1    0    0  501    0  0.00000000000E+00  0.00000000000E+00  0.56419966735E+03  0.56419966735E+03  0.00000000000E+00 0. -1.
         -1   -1    0    0    0  501 -0.00000000000E+00 -0.00000000000E+00 -0.52013979859E+02  0.52013979859E+02  0.00000000000E+00 0.  1.
         25    2    1    2    0    0 -0.42979905379E+01 -0.12304074666E+03  0.26557744269E+03  0.31832989638E+03  0.12508016151E+03 0.  0.
          5    1    3    3  502    0 -0.36899934135E+02 -0.21168663109E+02  0.16845081660E+03  0.17378972193E+03  0.41800000000E+01 0.  1.
         -5    1    3    3    0  502  0.32601943597E+02 -0.10187208355E+03  0.97126626091E+02  0.14454017445E+03  0.41800000000E+01 0.  1.
        -11    1    1    2    0    0 -0.21813179554E+02  0.34983431708E+01 -0.54601832496E+00  0.22098672884E+02  0.00000000000E+00 0.  1.
         11    1    1    2    0    0  0.26111170092E+02  0.11954240349E+03  0.24715426313E+03  0.27578507795E+03  0.00000000000E+00 0. -1.
</event>
<event>
 7    1  0.2723366E-009  0.9857554E+02  0.7561462E-02  0.1283320E+00
          1   -1    0    0  501    0  0.00000000000E+00  0.00000000000E+00  0.57357036835E+02  0.57357036835E+02  0.00000000000E+00 0. -1.
         -1   -1    0    0    0  501 -0.00000000000E+00 -0.00000000000E+00 -0.31056465413E+03  0.31056465413E+03  0.00000000000E+00 0.  1.
         25    2    1    2    0    0  0.21438109087E+02 -0.64054675302E+02 -0.89303448968E+02  0.16787475060E+03  0.12507690412E+03 0.  0.
          5    1    3    3  502    0  0.16656446392E+02 -0.92284612330E+02 -0.24664929532E+02  0.97055231843E+02  0.41800000000E+01 0. -1.
         -5    1    3    3    0  502  0.47816626949E+01  0.28229937028E+02 -0.64638519436E+02  0.70819518761E+02  0.41800000000E+01 0. -1.
        -11    1    1    2    0    0 -0.18104430236E+02  0.10993341048E+02  0.60037085006E+01  0.22015186970E+02  0.00000000000E+00 0. -1.
         11    1    1    2    0    0 -0.33336788512E+01  0.53061334255E+02 -0.16990787683E+03  0.17803175339E+03  0.00000000000E+00 0.  1.
</event>
<event>
 7    1  0.2723366E-009  0.1267709E+03  0.7561462E-02  0.1232327E+00
          2   -1    0    0  501    0  0.00000000000E+00  0.00000000000E+00  0.44114455722E+03  0.44114455722E+03  0.00000000000E+00 0. -1.
         -2   -1    0    0    0  501 -0.00000000000E+00 -0.00000000000E+00 -0.45966654838E+02  0.45966654838E+02  0.00000000000E+00 0.  1.
         25    2    1    2    0    0 -0.85532722391E+01  0.87375533676E+02  0.25576141399E+03  0.29794197906E+03  0.12509148511E+03 0.  0.
          5    1    3    3  502    0  0.64824552089E+01  0.10927455042E+03  0.24607949656E+03  0.26936135696E+03  0.41800000000E+01 0.  1.
         -5    1    3    3    0  502 -0.15035727448E+02 -0.21899016747E+02  0.96819174260E+01  0.28580622096E+02  0.41800000000E+01 0.  1.
        -11    1    1    2    0    0  0.38926995618E+02 -0.21279554457E+02  0.18515274036E+02  0.48072297619E+02  0.00000000000E+00 0.  1.
         11    1    1    2    0    0 -0.30373723379E+02 -0.66095979219E+02  0.12090121436E+03  0.14109693538E+03  0.00000000000E+00 0. -1.
</event>
<event>
 7    1  0.2723366E-009  0.9793514E+02  0.7561462E-02  0.1284699E+00
         -2   -1    0    0    0  501 -0.00000000000E+00  0.00000000000E+00  0.14187280139E+03  0.14187280139E+03  0.00000000000E+00 0.  1.
          2   -1    0    0  501    0  0.00000000000E+00 -0.00000000000E+00 -0.86549429725E+02  0.86549429725E+02  0.00000000000E+00 0. -1.
         25    2    1    2    0    0 -0.10923039891E+02 -0.11752920736E+02  0.18117123909E+02  0.12741025009E+03  0.12509075787E+03 0.  0.
          5    1    3    3  502    0 -0.12262302336E+02 -0.67392124418E+02 -0.33548114806E+00  0.68626871120E+02  0.41800000000E+01 0. -1.
         -5    1    3    3    0  502  0.13392624456E+01  0.55639203681E+02  0.18452605057E+02  0.58783378974E+02  0.41800000000E+01 0. -1.
        -11    1    1    2    0    0 -0.29764914379E+02  0.54179925322E+01  0.49521439648E+02  0.58031696131E+02  0.00000000000E+00 0.  1.
         11    1    1    2    0    0  0.40687954269E+02  0.63349282039E+01 -0.12315191892E+02  0.42980284891E+02  0.00000000000E+00 0. -1.
</event>
<event>
 7    1  0.2723366E-009  0.1074499E+03  0.7561462E-02  0.1265367E+00
          2   -1    0    0  501    0  0.00000000000E+00  0.00000000000E+00  0.62737345570E+03  0.62737345570E+03  0.00000000000E+00 0. -1.
         -2   -1    0    0    0  501 -0.00000000000E+00 -0.00000000000E+00 -0.21180826855E+02  0.21180826855E+02  0.00000000000E+00 0.  1.
         25    2    1    2    0    0  0.21862808139E+02  0.22167544786E+02  0.31062578687E+03  0.33631102520E+03  0.12508934320E+03 0.  0.
          5    1    3    3  502    0 -0.37527117498E+02  0.37213958045E+02  0.22360862739E+03  0.22980742778E+03  0.41800000000E+01 0.  1.
         -5    1    3    3    0  502  0.59389925636E+02 -0.15046413260E+02  0.87017159483E+02  0.10650359742E+03  0.41800000000E+01 0.  1.
        -11    1    1    2    0    0 -0.57109584217E+02 -0.29792454621E+02  0.17981704822E+03  0.19100593130E+03  0.00000000000E+00 0.  1.
         11    1    1    2    0    0  0.35246776078E+02  0.76249098359E+01  0.11574979376E+03  0.12123732605E+03  0.00000000000E+00 0. -1.
</event>
<event>
 7    1  0.2723366E-009  0.1130236E+03  0.7561462E-02  0.1255071E+00
          1   -1    0    0  501    0  0.00000000000E+00  0.00000000000E+00  0.33035535067E+02  0.33035535067E+02  0.00000000000E+00 0. -1.
         -1   -1    0    0    0  501 -0.00000000000E+00 -0.00000000000E+00 -0.62464207509E+03  0.62464207509E+03  0.00000000000E+00 0.  1.
         25    2    1    2    0    0  0.17736552613E+02  0.82155900277E+02 -0.41584159348E+03  0.44230811256E+03  0.12509219928E+03 0.  0.
          5    1    3    3  502    0  0.34679787329E+02  0.74162680324E+01 -0.30732731429E+03  0.30939495664E+03  0.41800000000E+01 0.  1.
         -5    1    3    3    0  502 -0.16943234716E+02  0.74739632244E+02 -0.10851427918E+03  0.13291315592E+03  0.41800000000E+01 0.  1.
        -11    1    1    2    0    0 -0.13520664109E+02 -0.97112068913E+02 -0.17400904973E+03  0.19973159909E+03  0.00000000000E+00 0.  1.
         11    1    1    2    0    0 -0.42158885042E+01  0.14956168637E+02 -0.17558968164E+01  0.15637898510E+02  0.00000000000E+00 0. -1.
</event>
<event>
 7    1  0.2723366E-009  0.2147548E+03  0.7561462E-02  0.1137855E+00
          1   -1    0    0  501    0  0.00000000000E+00  0.00000000000E+00  0.45177958972E+02  0.45177958972E+02  0.00000000000E+00 0. -1.
         -1   -1    0    0    0  501 -0.00000000000E+00 -0.00000000000E+00 -0.11073793222E+04  0.11073793222E+04  0.00000000000E+00 0.  1.
         25    2    1    2    0    0  0.13961127914E+03 -0.13637107602E+03 -0.52017414718E+03  0.56948693979E+03  0.12508337845E+03 0.  0.
          5    1    3    3  502    0  0.12767029194E+03 -0.39358216016E+02 -0.31471990968E+03  0.34192815995E+03  0.41800000000E+01 0. -1.
         -5    1    3    3    0  502  0.11940987200E+02 -0.97012860005E+02 -0.20545423749E+03  0.22755877985E+03  0.41800000000E+01 0. -1.
        -11    1    1    2    0    0 -0.87925273953E+02  0.10725256018E+03 -0.25799030551E+03  0.29290435846E+03  0.00000000000E+00 0. -1.
         11    1    1    2    0    0 -0.51686005185E+02  0.29118515839E+02 -0.28403691049E+03  0.29016598288E+03  0.00000000000E+00 0.  1.
</event>
<event>
 7    1  0.3805835E-009  0.9768208E+02  0.7561462E-02  0.1285247E+00
         -2   -1    0    0    0  501 -0.00000000000E+00  0.00000000000E+00  0.85547345755E+02  0.85547345755E+02  0.00000000000E+00 0.  1.
          2   -1    0    0  501    0  0.00000000000E+00 -0.00000000000E+00 -0.14649220392E+03  0.14649220392E+03  0.00000000000E+00 0. -1.
         25    2    1    2    0    0  0.19654275187E+02 -0.25033399324E+01 -0.13123766491E+02  0.12732489746E+03  0.12508732559E+03 0.  0.
          5    1    3    3  502    0  0.67986429487E+02 -0.21568478790E+02  0.62399146274E+01  0.71720030718E+02  0.41800000000E+01 0. -1.
         -5    1    3    3    0  502 -0.48332154300E+02  0.19065138857E+02 -0.19363681119E+02  0.55604866742E+02  0.41800000000E+01 0. -1.
        -11    1    1    2    0    0  0.21639982801E+02 -0.15627126626E+02  0.12437688737E+02  0.29448124615E+02  0.00000000000E+00 0.  1.
         11    1    1    2    0    0 -0.41294257988E+02  0.18130466558E+02 -0.60258780406E+02  0.75266527596E+02  0.00000000000E+00 0. -1.
</event>
<event>
 7    1  0.2723366E-009  0.1787031E+03  0.7561462E-02  0.1169064E+00
         -2   -1    0    0    0  501 -0.00000000000E+00  0.00000000000E+00  0.11083610169E+03  0.11083610169E+03  0.00000000000E+00 0. -1.
          2   -1    0    0  501    0  0.00000000000E+00 -0.00000000000E+00 -0.34254955759E+03  0.34254955759E+03  0.00000000000E+00 0.  1.
         25    2    1    2    0    0 -0.96228047992E+02  0.11919028562E+03 -0.61295381060E+02  0.20705370888E+03  0.12509177917E+03 0.  0.
          5    1    3    3  502    0 -0.11539683362E+03  0.13033907450E+03 -0.60930844984E+02  0.18448507750E+03  0.41800000000E+01 0.  1.
         -5    1    3    3    0  502  0.19168785631E+02 -0.11148788873E+02 -0.36453607576E+00  0.22568631382E+02  0.41800000000E+01 0.  1.
        -11    1    1    2    0    0  0.57993537707E+02 -0.33741584956E+02 -0.12592301642E+03  0.14268269354E+03  0.00000000000E+00 0.  1.
         11    1    1    2    0    0  0.38234510284E+02 -0.85448700667E+02 -0.44495058414E+02  0.10364925685E+03  0.00000000000E+00 0. -1.
</event>
<event>
 7    1  0.5819784E-009  0.1363683E+03  0.7561462E-02  0.1218301E+00
          1   -1    0    0  501    0  0.00000000000E+00  0.00000000000E+00  0.11305970129E+04  0.11305970129E+04  0.00000000000E+00 0. -1.
         -1   -1    0    0    0  501 -0.00000000000E+00 -0.00000000000E+00 -0.21446990709E+02  0.21446990709E+02  0.00000000000E+00 0.  1.
         25    2    1    2    0    0 -0.48208662268E+01  0.10309217151E+03  0.74880429526E+03  0.76616182126E+03  0.12507928359E+03 0.  0.
          5    1    3    3  502    0  0.52499348312E+02  0.77730443034E+02  0.54038125287E+03  0.54847750565E+03  0.41800000000E+01 0.  1.
         -5    1    3    3    0  502 -0.57320214539E+02  0.25361728474E+02  0.20842304239E+03  0.21768431562E+03  0.41800000000E+01 0.  1.
        -11    1    1    2    0    0  0.16651232309E+02 -0.52337979691E+01  0.66011880975E+01  0.18660971649E+02  0.00000000000E+00 0.  1.
         11    1    1    2    0    0 -0.11830366082E+02 -0.97858373539E+02  0.35374453887E+03  0.36722121074E+03  0.00000000000E+00 0. -1.
</event>
<event>
 7    1  0.2723366E-009  0.2936070E+03  0.7561462E-02  0.1088481E+00
          4   -1    0    0  501    0  0.00000000000E+00  0.00000000000E+00  0.63825346609E+02  0.63825346609E+02  0.00000000000E+00 0. -1.
         -4   -1    0    0    0  501 -0.00000000000E+00 -0.00000000000E+00 -0.15896798567E+04  0.15896798567E+04  0.00000000000E+00 0.  1.
         25    2    1    2    0    0 -0.27533759660E+03 -0.51644070523E+02 -0.50402217908E+03  0.59005396572E+03  0.12508966121E+03 0.  0.
          5    1    3    3  502    0 -0.36040128849E+01 -0.33734306895E+02 -0.48875664403E+02  0.59643066163E+02  0.41800000000E+01 0. -1.
         -5    1    3    3    0  502 -0.27173358372E+03 -0.17909763628E+02 -0.45514651468E+03  0.53041089956E+03  0.41800000000E+01 0. -1.
        -11    1    1    2    0    0  0.10941782878E+03  0.29184148550E+02 -0.26261174345E+03  0.28598759340E+03  0.00000000000E+00 0. -1.
         11    1    1    2    0    0  0.16591976782E+03  0.22459921973E+02 -0.75922058759E+03  0.77746364422E+03  0.00000000000E+00 0.  1.
</event>
<event>
 7    1  0.2723366E-009  0.8179313E+02  0.7561462E-02  0.1324038E+00
          1   -1    0    0  501    0  0.00000000000E+00  0.00000000000E+00  0.76109062254E+02  0.76109062254E+02  0.00000000000E+00 0. -1.
         -1   -1    0    0    0  501 -0.00000000000E+00 -0.00000000000E+00 -0.28463683022E+03  0.28463683022E+03  0.00000000000E+00 0.  1.
         25    2    1    2    0    0 -0.30952342211E+02 -0.66664022015E+02 -0.19523895986E+03  0.24324465199E+03  0.12509024724E+03 0.  0.
          5    1    3    3  502    0  0.89704244381E+01 -0.40015030603E+02 -0.19041106129E+03  0.19482175405E+03  0.41800000000E+01 0.  1.
         -5    1    3    3    0  502 -0.39922766649E+02 -0.26648991412E+02 -0.48278985675E+01  0.48422897939E+02  0.41800000000E+01 0.  1.
        -11    1    1    2    0    0  0.28164860077E+02  0.50875993790E+02 -0.50477516163E+02  0.77003933181E+02  0.00000000000E+00 0.  1.
         11    1    1    2    0    0  0.27874821345E+01  0.15788028225E+02  0.37188708058E+02  0.40497307304E+02  0.00000000000E+00 0. -1.
</event>
<event>
 7    1  0.2723366E-009  0.9756790E+02  0.7561462E-02  0.1285495E+00
         -2   -1    0    0    0  501 -0.00000000000E+00  0.00000000000E+00  0.33275646295E+02  0.33275646295E+02  0.00000000000E+00 0.  1.
          2   -1    0    0  501    0  0.00000000000E+00 -0.00000000000E+00 -0.43402601362E+03  0.43402601362E+03  0.00000000000E+00 0. -1.
         25    2    1    2    0    0 -0.17714996833E+02  0.19590698023E+02 -0.13746930891E+03  0.18773053203E+03  0.12508926894E+03 0.  0.
          5    1    3    3  502    0 -0.25134238294E+02  0.68603733297E+02 -0.10619551049E+03  0.12896961272E+03  0.41800000000E+01 0.  1.
         -5    1    3    3    0  502  0.74192414604E+01 -0.49013035274E+02 -0.31273798416E+02  0.58760919309E+02  0.41800000000E+01 0.  1.
        -11    1    1    2    0    0  0.23515484347E+02 -0.42501035438E+02 -0.24479306296E+03  0.24956554187E+03  0.00000000000E+00 0. -1.
         11    1    1    2    0    0 -0.58004875134E+01  0.22910337416E+02 -0.18487995461E+02  0.30005586014E+02  0.00000000000E+00 0.  1.
</event>
<event>
 7    1  0.2723366E-009  0.9188786E+02  0.7561462E-02  0.1298343E+00
          1   -1    0    0  501    0  0.00000000000E+00  0.00000000000E+00  0.34278891296E+03  0.34278891296E+03  0.00000000000E+00 0. -1.
         -1   -1    0    0    0  501 -0.00000000000E+00 -0.00000000000E+00 -0.49464668764E+02  0.49464668764E+02  0.00000000000E+00 0.  1.
         25    2    1    2    0    0 -0.71697311435E+02  0.21271146511E+01  0.17046554704E+03  0.22327381294E+03  0.12509062208E+03 0.  0.
          5    1    3    3  502    0 -0.31187119043E+01  0.11462149665E+01  0.15203953134E+03  0.15213326942E+03  0.41800000000E+01 0. -1.
         -5    1    3    3    0  502 -0.68578599531E+02  0.98089968459E+00  0.18426015697E+02  0.71140543519E+02  0.41800000000E+01 0. -1.
        -11    1    1    2    0    0  0.48753090563E+01 -0.34940655130E+02  0.67655530260E+02  0.76301302702E+02  0.00000000000E+00 0.  1.
         11    1    1    2    0    0  0.66822002379E+02  0.32813540479E+02  0.55203166900E+02  0.92678466088E+02  0.00000000000E+00 0. -1.
</event>
<event>
 7    1  0.2723366E-009  0.1239726E+03  0.7561462E-02  0.1236684E+00
         -2   -1    0    0    0  501 -0.00000000000E+00  0.00000000000E+00  0.22200074559E+02  0.22200074559E+02  0.00000000000E+00 0.  1.
          2   -1    0    0  501    0  0.00000000000E+00 -0.00000000000E+00 -0.84691935461E+03  0.84691935461E+03  0.00000000000E+00 0. -1.
         25    2    1    2    0    0 -0.33734642701E+01 -0.67993969797E+02 -0.60389260647E+03  0.62045837694E+03  0.12509099560E+03 0.  0.
          5    1    3    3  502    0 -0.47322465841E+02 -0.77224829672E+02 -0.30529928360E+03  0.31847796636E+03  0.41800000000E+01 0. -1.
         -5    1    3    3    0  502  0.43949001571E+02  0.92308598752E+01 -0.29859332286E+03  0.30198041058E+03  0.41800000000E+01 0. -1.
        -11    1    1    2    0    0 -0.15462404802E+01  0.89804220272E+02 -0.15502396783E+03  0.17916366663E+03  0.00000000000E+00 0.  1.
         11    1    1    2    0    0  0.49197047503E+01 -0.21810250475E+02 -0.65802705747E+02  0.69497385593E+02  0.00000000000E+00 0. -1.
</event>
<event>
 7    1  0.2723366E-009  0.1349513E+03  0.7561462E-02  0.1220289E+00
         -4   -1    0    0    0  501 -0.00000000000E+00  0.00000000000E+00  0.27368937792E+02  0.27368937792E+02  0.00000000000E+00 0.  1.
          4   -1    0    0  501    0  0.00000000000E+00 -0.00000000000E+00 -0.79162400562E+03  0.79162400562E+03  0.00000000000E+00 0. -1.
         25    2    1    2    0    0 -0.86581632564E+02  0.20377517638E+02 -0.54012677415E+03  0.56151508830E+03  0.12510251761E+03 0.  0.
          5    1    3    3  502    0  0.32308969397E+02  0.40825759475E+01 -0.96894237168E+02  0.10230592615E+03  0.41800000000E+01 0.  1.
         -5    1    3    3    0  502 -0.11889060196E+03  0.16294941690E+02 -0.44323253699E+03  0.45920916215E+03  0.41800000000E+01 0.  1.
        -11    1    1    2    0    0  0.53355363557E+02 -0.49523299688E+02 -0.18362340957E+03  0.19752698189E+03  0.00000000000E+00 0. -1.
         11    1    1    2    0    0  0.33226269007E+02  0.29145782051E+02 -0.40504884107E+02  0.59950873221E+02  0.00000000000E+00 0.  1.
</event>
<event>
 7    1  0.2723366E-009  0.1782364E+03  0.7561462E-02  0.1169521E+00
          3   -1    0    0  501    0  0.00000000000E+00  0.00000000000E+00  0.91692862697E+02  0.91692862697E+02  0.00000000000E+00 0. -1.
         -3   -1    0    0    0  501 -0.00000000000E+00 -0.00000000000E+00 -0.43022412611E+03  0.43022412611E+03  0.00000000000E+00 0.  1.
         25    2    1    2    0    0  0.15556414586E+03 -0.47947753021E+02 -0.20178934622E+03  0.28786182915E+03  0.12508517873E+03 0.  0.
          5    1    3    3  502    0 -0.17824042513E+01 -0.85172963981E+01  0.14531403954E+02  0.17445784698E+02  0.41800000000E+01 0. -1.
         -5    1    3    3    0  502  0.15734655011E+03 -0.39430456623E+02 -0.21632075018E+03  0.27041604446E+03  0.41800000000E+01 0. -1.
        -11    1    1    2    0    0 -0.34157249398E+01  0.31312476879E+02 -0.45674637605E+01  0.31827662660E+02  0.00000000000E+00 0. -1.
         11    1    1    2    0    0 -0.15214842092E+03  0.16635276141E+02 -0.13217445342E+03  0.20222749699E+03  0.00000000000E+00 0.  1.
</event>
<event>
 7    1  0.2723366E-009  0.1161931E+03  0.7561462E-02  0.1249513E+00
          2   -1    0    0  501    0  0.00000000000E+00  0.00000000000E+00  0.35025168254E+03  0.35025168254E+03  0.00000000000E+00 0. -1.
         -2   -1    0    0    0  501 -0.00000000000E+00 -0.00000000000E+00 -0.59162146931E+02  0.59162146931E+02  0.00000000000E+00 0.  1.
         25    2    1    2    0    0 -0.74446449141E+02 -0.50911619332E+02  0.12856330754E+03  0.20077459318E+03  0.12509055299E+03 0.  0.
          5    1    3    3  502    0 -0.84723923242E+02 -0.87562632816E+01  0.13188860563E+03  0.15705697059E+03  0.41800000000E+01 0.  1.
         -5    1    3    3    0  502  0.10277474101E+02 -0.42155356050E+02 -0.33252980874E+01  0.43717622591E+02  0.41800000000E+01 0.  1.
        -11    1    1    2    0    0 -0.57550588469E+01  0.14182670498E+02 -0.75359196074E+01  0.17060449265E+02  0.00000000000E+00 0.  1.
         11    1    1    2    0    0  0.80201507988E+02  0.36728948834E+02  0.17006214768E+03  0.19157878703E+03  0.00000000000E+00 0. -1.
</event>
<event>
 7    1  0.2723366E-009  0.2437514E+03  0.7561462E-02  0.1117319E+00
          1   -1    0    0  501    0  0.00000000000E+00  0.00000000000E+00  0.15463353973E+03  0.15463353973E+03  0.00000000000E+00 0. -1.
         -1   -1    0    0    0  501 -0.00000000000E+00 -0.00000000000E+00 -0.43551251898E+03  0.43551251898E+03  0.00000000000E+00 0.  1.
         25    2    1    2    0    0  0.83617683585E+02 -0.19342874392E+03 -0.22110201054E+03  0.33006136350E+03  0.12509120124E+03 0.  0.
          5    1    3    3  502    0 -0.24471387874E+02 -0.47803344761E+02 -0.15880696256E+02  0.56157613094E+02  0.41800000000E+01 0.  1.
         -5    1    3    3    0  502  0.10808907146E+03 -0.14562539916E+03 -0.20522131428E+03  0.27390375040E+03  0.41800000000E+01 0.  1.
        -11    1    1    2    0    0 -0.85124645600E+02  0.21467357199E+03 -0.60657626118E+02  0.23876828811E+03  0.00000000000E+00 0.  1.
         11    1    1    2    0    0  0.15069620150E+01 -0.21244828072E+02  0.88065741403E+00  0.21316407104E+02  0.00000000000E+00 0. -1.
</event>
<event>
 7    1  0.2723366E-009  0.1001715E+03  0.7561462E-02  0.1279936E+00
         -1   -1    0    0    0  501 -0.00000000000E+00  0.00000000000E+00  0.31536992238E+03  0.31536992238E+03  0.00000000000E+00 0.  1.
          1   -1    0    0  501    0  0.00000000000E+00 -0.00000000000E+00 -0.68752118737E+02  0.68752118737E+02  0.00000000000E+00 0. -1.
         25    2    1    2    0    0 -0.43326472725E+02 -0.33166979457E+02  0.26430541631E+02  0.13901013552E+03  0.12509201605E+03 0.  0.
          5    1    3    3  502    0 -0.83542976522E+02 -0.34990821393E+02  0.15658470414E-02  0.90671158095E+02  0.41800000000E+01 0.  1.
         -5    1    3    3    0  502  0.40216503797E+02  0.18238419360E+01  0.26428975784E+02  0.48338977420E+02  0.41800000000E+01 0.  1.
        -11    1    1    2    0    0  0.31711183801E+02  0.43377320159E+02  0.22300956437E+03  0.22939149261E+03  0.00000000000E+00 0.  1.
         11    1    1    2    0    0  0.11615288924E+02 -0.10210340702E+02 -0.28223023550E+01  0.15720412991E+02  0.00000000000E+00 0. -1.
</event>
<event>
 7    1  0.2723366E-009  0.1287571E+03  0.7561462E-02  0.1229312E+00
         -1   -1    0    0    0  501 -0.00000000000E+00  0.00000000000E+00  0.10795234141E+03  0.10795234141E+03  0.00000000000E+00 0.  1.
          1   -1    0    0  501    0  0.00000000000E+00 -0.00000000000E+00 -0.33814469555E+03  0.33814469555E+03  0.00000000000E+00 0. -1.
         25    2    1    2    0    0  0.11956380666E+03  0.69919944953E+01 -0.25980587794E+01  0.17320248720E+03  0.12509180554E+03 0.  0.
          5    1    3    3  502    0  0.99407249315E+02  0.54705047069E+01 -0.57153507113E+02  0.11487263997E+03  0.41800000000E+01 0. -1.
         -5    1    3    3    0  502  0.20156557349E+02  0.15214897883E+01  0.54555448334E+02  0.58329847234E+02  0.41800000000E+01 0. -1.
        -11    1    1    2    0    0 -0.12016703179E+03  0.96688640101E+01 -0.14469504443E+03  0.18833549411E+03  0.00000000000E+00 0.  1.
         11    1    1    2    0    0  0.60322512140E+00 -0.16660858505E+02 -0.82899250932E+02  0.84559055646E+02  0.00000000000E+00 0. -1.
</event>
<event>
 7    1  0.2723366E-009  0.1084591E+03  0.7561462E-02  0.1263450E+00
         -1   -1    0    0    0  501 -0.00000000000E+00  0.00000000000E+00  0.20558835437E+02  0.20558835437E+02  0.00000000000E+00 0.  1.
          1   -1    0    0  501    0  0.00000000000E+00 -0.00000000000E+00 -0.77762623371E+03  0.77762623371E+03  0.00000000000E+00 0. -1.
         25    2    1    2    0    0  0.88777206214E+01 -0.58860011126E+02 -0.35524095553E+03  0.38129595051E+03  0.12508857086E+03 0.  0.
          5    1    3    3  502    0 -0.25867912957E+02  0.12598153063E+02 -0.23699567570E+03  0.23877245462E+03  0.41800000000E+01 0.  1.
         -5    1    3    3    0  502  0.34745633578E+02 -0.71458164190E+02 -0.11824527982E+03  0.14252349590E+03  0.41800000000E+01 0.  1.
        -11    1    1    2    0    0 -0.43863573776E+02  0.51343569648E+01 -0.21126586464E+03  0.21583243567E+03  0.00000000000E+00 0.  1.
         11    1    1    2    0    0  0.34985853154E+02  0.53725654161E+02 -0.19056057811E+03  0.20105668296E+03  0.00000000000E+00 0. -1.
</event>
<event>
 7    1  0.2723366E-009  0.1147359E+03  0.7561462E-02  0.1252043E+00
          2   -1    0    0  501    0  0.00000000000E+00  0.00000000000E+00  0.99423795941E+03  0.99423795941E+03  0.00000000000E+00 0. -1.
         -2   -1    0    0    0  501 -0.00000000000E+00 -0.00000000000E+00 -0.13374082869E+02  0.13374082869E+02  0.00000000000E+00 0.  1.
         25    2    1    2    0    0  0.38017770840E+02  0.17564770173E+02  0.53162775576E+03  0.54774896655E+03  0.12508791956E+03 0.  0.
          5    1    3    3  502    0  0.78384059503E+02  0.36997111025E+02  0.33794723553E+03  0.34891066681E+03  0.41800000000E+01 0.  1.
         -5    1    3    3    0  502 -0.40366288664E+02 -0.19432340852E+02  0.19368052022E+03  0.19883829974E+03  0.41800000000E+01 0.  1.
        -11    1    1    2    0    0 -0.42138201899E+02  0.28872001351E+02  0.20961376780E+03  0.21574789031E+03  0.00000000000E+00 0.  1.
         11    1    1    2    0    0  0.41204310589E+01 -0.46436771524E+02  0.23962235299E+03  0.24411518543E+03  0.00000000000E+00 0. -1.
</event>
<event>
 7    1  0.2723366E-009  0.1091260E+03  0.7561462E-02  0.1262197E+00
         -2   -1    0    0    0  501 -0.00000000000E+00  0.00000000000E+00  0.32862086409E+02  0.32862086409E+02  0.00000000000E+00 0.  1.
          2   -1    0    0  501    0  0.00000000000E+00 -0.00000000000E+00 -0.40404263844E+03  0.40404263844E+03  0.00000000000E+00 0. -1.
         25    2    1    2    0    0  0.18732752339E-01 -0.13602058287E+02 -0.27599579420E+03  0.30331974645E+03  0.12507667180E+03 0.  0.
          5    1    3    3  502    0  0.10764817344E+02 -0.68542877101E+02 -0.14486459520E+03  0.16067741172E+03  0.41800000000E+01 0. -1.
         -5    1    3    3    0  502 -0.10746084592E+02  0.54940818814E+02 -0.13113119900E+03  0.14264233473E+03  0.41800000000E+01 0. -1.
        -11    1    1    2    0    0  0.27076415568E+02  0.44138132711E+02 -0.63322767354E+02  0.81799021416E+02  0.00000000000E+00 0. -1.
         11    1    1    2    0    0 -0.27095148320E+02 -0.30536074424E+02 -0.31861990477E+02  0.51785956985E+02  0.00000000000E+00 0.  1.
</event>
<event>
 7    1  0.2723366E-009  0.1100951E+03  0.7561462E-02  0.1260394E+00
          2   -1    0    0  501    0  0.00000000000E+00  0.00000000000E+00  0.18083254820E+03  0.18083254820E+03  0.00000000000E+00 0. -1.
         -2   -1    0    0    0  501 -0.00000000000E+00 -0.00000000000E+00 -0.88342744068E+02  0.88342744068E+02  0.00000000000E+00 0.  1.
         25    2    1    2    0    0  0.52914423487E+02 -0.13055861247E+02  0.13391290065E+02  0.13710320575E+03  0.12509025002E+03 0.  0.
          5    1    3    3  502    0  0.25952146554E+02  0.43993645348E+02 -0.30949096036E+02  0.59868803957E+02  0.41800000000E+01 0. -1.
         -5    1    3    3    0  502  0.26962276933E+02 -0.57049506595E+02  0.44340386102E+02  0.77234401790E+02  0.41800000000E+01 0. -1.
        -11    1    1    2    0    0 -0.46250321369E+02 -0.34488799292E+02  0.45435659923E+02  0.73436834736E+02  0.00000000000E+00 0.  1.
         11    1    1    2    0    0 -0.66641021179E+01  0.47544660539E+02  0.33662854142E+02  0.58635251785E+02  0.00000000000E+00 0. -1.
</event>
<event>
 7    1  0.2723366E-009  0.2676609E+03  0.7561462E-02  0.1102626E+00
          1   -1    0    0  501    0  0.00000000000E+00  0.00000000000E+00  0.50309576681E+03  0.50309576681E+03  0.00000000000E+00 0. -1.
         -1   -1    0    0    0  501 -0.00000000000E+00 -0.00000000000E+00 -0.14599368558E+03  0.14599368558E+03  0.00000000000E+00 0.  1.
         25    2    1    2    0    0  0.19340550580E+03  0.15454396489E+03  0.20451524029E+03  0.34461999425E+03  0.12508768992E+03 0.  0.
          5    1    3    3  502    0  0.88004146471E+02  0.14706934775E+03  0.12033381220E+03  0.20945601353E+03  0.41800000000E+01 0.  1.
         -5    1    3    3    0  502  0.10540135933E+03  0.74746171364E+01  0.84181428086E+02  0.13516398072E+03  0.41800000000E+01 0.  1.
        -11    1    1    2    0    0 -0.86291436375E+02 -0.11539114709E+03  0.54517323537E+02  0.15405670185E+03  0.00000000000E+00 0.  1.
         11    1    1    2    0    0 -0.10711406942E+03 -0.39152817794E+02  0.98069517414E+02  0.15041275629E+03  0.00000000000E+00 0. -1.
</event>
<event>
 7    1  0.2723366E-009  0.1870552E+03  0.7561462E-02  0.1161144E+00
         -1   -1    0    0    0  501 -0.00000000000E+00  0.00000000000E+00  0.68507659531E+03  0.68507659531E+03  0.00000000000E+00 0. -1.
          1   -1    0    0  501    0  0.00000000000E+00 -0.00000000000E+00 -0.13083957734E+03  0.13083957734E+03  0.00000000000E+00 0.  1.
         25    2    1    2    0    0 -0.17544733111E+03  0.20812962496E+02 -0.13363705944E+02  0.21688261433E+03  0.12507811303E+03 0.  0.
          5    1    3    3  502    0 -0.15430794225E+03  0.45464369401E+02  0.28822293974E+02  0.16348133520E+03  0.41800000000E+01 0.  1.
         -5    1    3    3    0  502 -0.21139388857E+02 -0.24651406905E+02 -0.42185999918E+02  0.53401279130E+02  0.41800000000E+01 0.  1.
        -11    1    1    2    0    0  0.26998318232E+02 -0.17088809099E+02  0.41488442072E+02  0.52366281225E+02  0.00000000000E+00 0.  1.
         11    1    1    2    0    0  0.14844901288E+03 -0.37241533973E+01  0.52611228184E+03  0.54666727709E+03  0.00000000000E+00 0. -1.
</event>
<event>
 7    1  0.2723366E-009  0.2967172E+03  0.7561462E-02  0.1086893E+00
         -1   -1    0    0    0  501 -0.00000000000E+00  0.00000000000E+00  0.85544896465E+02  0.85544896465E+02  0.00000000000E+00 0.  1.
          1   -1    0    0  501    0  0.00000000000E+00 -0.00000000000E+00 -0.11193246705E+04  0.11193246705E+04  0.00000000000E+00 0. -1.
         25    2    1    2    0    0  0.19060744541E+03  0.20853132499E+03 -0.38068321367E+03  0.49028888222E+03  0.12508783758E+03 0.  0.
          5    1    3    3  502    0  0.10210108579E+03  0.18584423614E+03 -0.22124719309E+03  0.30648083900E+03  0.41800000000E+01 0. -1.
         -5    1    3    3    0  502  0.88506359620E+02  0.22687088857E+02 -0.15943602058E+03  0.18380804322E+03  0.41800000000E+01 0. -1.
        -11    1    1    2    0    0 -0.31533903359E+02 -0.77927531337E+02 -0.18106492717E+03  0.19962864286E+03  0.00000000000E+00 0.  1.
         11    1    1    2    0    0 -0.15907354205E+03 -0.13060379366E+03 -0.47203163319E+03  0.51495204187E+03  0.00000000000E+00 0. -1.
</event>
<event>
 7    1  0.2723366E-009  0.1008766E+03  0.7561462E-02  0.1278463E+00
         -2   -1    0    0    0  501 -0.00000000000E+00  0.00000000000E+00  0.39486870621E+03  0.39486870621E+03  0.00000000000E+00 0.  1.
          2   -1    0    0  501    0  0.00000000000E+00 -0.00000000000E+00 -0.36495074555E+02  0.36495074555E+02  0.00000000000E+00 0. -1.
         25    2    1    2    0    0  0.15657227756E+02 -0.43954316066E+02  0.16903413431E+03  0.21539915975E+03  0.12508848379E+03 0.  0.
          5    1    3    3  502    0 -0.23149809485E+02  0.17286870132E+02 -0.23262951612E+01  0.29285382144E+02  0.41800000000E+01 0. -1.
         -5    1    3    3    0  502  0.38807037241E+02 -0.61241186198E+02  0.17136042947E+03  0.18611377760E+03  0.41800000000E+01 0. -1.
        -11    1    1    2    0    0 -0.28075300483E+02 -0.20203962463E+02  0.95847070504E+02  0.10189741665E+03  0.00000000000E+00 0.  1.
         11    1    1    2    0    0  0.12418072727E+02  0.64158278529E+02  0.93492426839E+02  0.11406720436E+03  0.00000000000E+00 0. -1.
</event>
<event>
 7    1  0.2723366E-009  0.1550516E+03  0.7561462E-02  0.1194399E+00
         -2   -1    0    0    0  501 -0.00000000000E+00  0.00000000000E+00  0.16357689285E+02  0.16357689285E+02  0.00000000000E+00 0.  1.
          2   -1    0    0  501    0  0.00000000000E+00 -0.00000000000E+00 -0.23324449869E+04  0.23324449869E+04  0.00000000000E+00 0. -1.
         25    2    1    2    0    0  0.15809586759E+02 -0.12211234838E+03 -0.18397554321E+04  0.18481097566E+04  0.12509298005E+03 0.  0.
          5    1    3    3  502    0 -0.26406090946E+02 -0.13769734347E+00 -0.98247158577E+02  0.10181982699E+03  0.41800000000E+01 0.  1.
         -5    1    3    3    0  502  0.42215677706E+02 -0.12197465104E+03 -0.17415082736E+04  0.17462899296E+04  0.41800000000E+01 0.  1.
        -11    1    1    2    0    0 -0.54720342203E+02  0.79615131283E+02 -0.29216323349E+03  0.30772104248E+03  0.00000000000E+00 0.  1.
         11    1    1    2    0    0  0.38910755443E+02  0.42497217101E+02 -0.18416863199E+03  0.19297187712E+03  0.00000000000E+00 0. -1.
</event>
<event>
 7    1  0.2723366E-009  0.1023151E+03  0.7561462E-02  0.1275502E+00
          1   -1    0    0  501    0  0.00000000000E+00  0.00000000000E+00  0.70547924982E+03  0.70547924982E+03  0.00000000000E+00 0. -1.
         -1   -1    0    0    0  501 -0.00000000000E+00 -0.00000000000E+00 -0.18666566039E+02  0.18666566039E+02  0.00000000000E+00 0.  1.
         25    2    1    2    0    0  0.30710655029E+02  0.17801064992E+01  0.45631985003E+03  0.47415340647E+03  0.12508930503E+03 0.  0.
          5    1    3    3  502    0  0.43166633759E+01 -0.50457658416E+02  0.34098919684E+03  0.34475457015E+03  0.41800000000E+01 0. -1.
         -5    1    3    3    0  502  0.26393991653E+02  0.52237764915E+02  0.11533065318E+03  0.12939883633E+03  0.41800000000E+01 0. -1.
        -11    1    1    2    0    0  0.30754290231E+02 -0.11651000514E+02  0.58949445682E+02  0.67502661628E+02  0.00000000000E+00 0.  1.
         11    1    1    2    0    0 -0.61464945260E+02  0.98708940148E+01  0.17154338808E+03  0.18248974776E+03  0.00000000000E+00 0. -1.
</event>
<event>
 7    1  0.2723366E-009  0.8487245E+02  0.7561462E-02  0.1315766E+00
         -1   -1    0    0    0  501 -0.00000000000E+00  0.00000000000E+00  0.17904708688E+03  0.17904708688E+03  0.00000000000E+00 0.  1.
          1   -1    0    0  501    0  0.00000000000E+00 -0.00000000000E+00 -0.72149803682E+02  0.72149803682E+02  0.00000000000E+00 0. -1.
         25    2    1    2    0    0 -0.19833132379E+02 -0.29118646375E+02  0.54950987289E+02  0.14109079029E+03  0.12508297803E+03 0.  0.
          5    1    3    3  502    0 -0.62962807387E+02 -0.75143971455E+01 -0.53319633993E+01  0.63770553645E+02  0.41800000000E+01 0.  1.
         -5    1    3    3    0  502  0.43129675008E+02 -0.21604249230E+02  0.60282950689E+02  0.77320236645E+02  0.41800000000E+01 0.  1.
        -11    1    1    2    0    0  0.34393259002E+02  0.15083207928E+02 -0.14797718334E+02  0.40365478990E+02  0.00000000000E+00 0. -1.
         11    1    1    2    0    0 -0.14560126623E+02  0.14035438448E+02  0.66744014247E+02  0.69740621287E+02  0.00000000000E+00 0.  1.
</event>
<event>
 7    1  0.2723366E-009  0.8788344E+02  0.7561462E-02  0.1308060E+00
         -3   -1    0    0    0  501 -0.00000000000E+00  0.00000000000E+00  0.13094829404E+04  0.13094829404E+04  0.00000000000E+00 0.  1.
          3   -1    0    0  501    0  0.00000000000E+00 -0.00000000000E+00 -0.21047013640E+02  0.21047013640E+02  0.00000000000E+00 0. -1.
         25    2    1    2    0    0 -0.15359952200E+02 -0.12570362335E+02  0.11851249830E+04  0.11918734719E+04  0.12508879063E+03 0.  0.
          5    1    3    3  502    0 -0.44867328619E+02  0.31290487235E+02  0.91199214782E+03  0.91364069626E+03  0.41800000000E+01 0. -1.
         -5    1    3    3    0  502  0.29507376419E+02 -0.43860849570E+02  0.27313283519E+03  0.27823277565E+03  0.41800000000E+01 0. -1.
        -11    1    1    2    0    0  0.19089398803E+02 -0.24254587766E+02  0.96115974606E+02  0.10095033803E+03  0.00000000000E+00 0.  1.
         11    1    1    2    0    0 -0.37294466037E+01  0.36824950101E+02  0.71949691445E+01  0.37706144100E+02  0.00000000000E+00 0. -1.
</event>
<event>
 7    1  0.2723366E-009  0.1808680E+03  0.7561462E-02  0.1166966E+00
         -1   -1    0    0    0  501 -0.00000000000E+00  0.00000000000E+00  0.14110948309E+03  0.14110948309E+03  0.00000000000E+00 0.  1.
          1   -1    0    0  501    0  0.00000000000E+00 -0.00000000000E+00 -0.30616095901E+03  0.30616095901E+03  0.00000000000E+00 0. -1.
         25    2    1    2    0    0  0.16139420574E+03  0.81944060076E+01 -0.81953557972E+01  0.20452219925E+03  0.12508768202E+03 0.  0.
          5    1    3    3  502    0  0.81163949992E+02  0.59559963342E+02  0.24538078079E+02  0.10370422213E+03  0.41800000000E+01 0.  1.
         -5    1    3    3    0  502  0.80230255745E+02 -0.51365557334E+02 -0.32733433877E+02  0.10081797712E+03  0.41800000000E+01 0.  1.
        -11    1    1    2    0    0 -0.34812120677E+02  0.13224118011E+02  0.34181850274E+01  0.37395788962E+02  0.00000000000E+00 0.  1.
         11    1    1    2    0    0 -0.12658208506E+03 -0.21418524018E+02 -0.16027430515E+03  0.20535245389E+03  0.00000000000E+00 0. -1.
</event>
<event>
 7    1  0.2723366E-009  0.1175221E+03  0.7561462E-02  0.1247242E+00
         -2   -1    0    0    0  501 -0.00000000000E+00  0.00000000000E+00  0.47589271827E+03  0.47589271827E+03  0.00000000000E+00 0.  1.
          2   -1    0    0  501    0  0.00000000000E+00 -0.00000000000E+00 -0.30407576556E+02  0.30407576556E+02  0.00000000000E+00 0. -1.
         25    2    1    2    0    0 -0.45016874551E+02 -0.29746707069E+02  0.26585322888E+03  0.29872507296E+03  0.12508934539E+03 0.  0.
          5    1    3    3  502    0 -0.72091224336E+02  0.21766906827E+02  0.17734265188E+03  0.19271437786E+03  0.41800000000E+01 0. -1.
         -5    1    3    3    0  502  0.27074349785E+02 -0.51513613896E+02  0.88510577010E+02  0.10601069510E+03  0.41800000000E+01 0. -1.
        -11    1    1    2    0    0  0.69683402621E+02  0.11570487461E+02  0.10159299713E+03  0.12373677645E+03  0.00000000000E+00 0.  1.
         11    1    1    2    0    0 -0.24666528070E+02  0.18176219608E+02  0.78038915699E+02  0.83838445416E+02  0.00000000000E+00 0. -1.
</event>
<event>
 7    1  0.2723366E-009  0.8873694E+02  0.7561462E-02  0.1305940E+00
          2   -1    0    0  501    0  0.00000000000E+00  0.00000000000E+00  0.91322887809E+02  0.91322887809E+02  0.00000000000E+00 0. -1.
         -2   -1    0    0    0  501 -0.00000000000E+00 -0.00000000000E+00 -0.15059844226E+03  0.15059844226E+03  0.00000000000E+00 0.  1.
         25    2    1    2    0    0  0.44093824449E+02  0.49186453135E+01 -0.25407434585E+02  0.13513519008E+03  0.12509006131E+03 0.  0.
          5    1    3    3  502    0 -0.17463735057E+02 -0.42973681423E+02  0.12634490997E+02  0.48257870860E+02  0.41800000000E+01 0.  1.
         -5    1    3    3    0  502  0.61557559506E+02  0.47892326737E+02 -0.38041925582E+02  0.86877319218E+02  0.41800000000E+01 0.  1.
        -11    1    1    2    0    0 -0.22684342117E+02  0.11855547593E+02 -0.62352864269E+02  0.67401877337E+02  0.00000000000E+00 0.  1.
         11    1    1    2    0    0 -0.21409482332E+02 -0.16774192907E+02  0.28484744400E+02  0.39384262656E+02  0.00000000000E+00 0. -1.
</event>
<event>
 7    1  0.2723366E-009  0.1109308E+03  0.7561462E-02  0.1258856E+00
         -1   -1    0    0    0  501 -0.00000000000E+00  0.00000000000E+00  0.17842978388E+03  0.17842978388E+03  0.00000000000E+00 0.  1.
          1   -1    0    0  501    0  0.00000000000E+00 -0.00000000000E+00 -0.10442563337E+03  0.10442563337E+03  0.00000000000E+00 0. -1.
         25    2    1    2    0    0  0.66139696659E+02 -0.50092957601E+02  0.45749486115E+02  0.15691523696E+03  0.12508242176E+03 0.  0.
          5    1    3    3  502    0 -0.89768898625E+01 -0.11642309766E+01  0.64472513928E+02  0.65238925785E+02  0.41800000000E+01 0.  1.
         -5    1    3    3    0  502  0.75116586521E+02 -0.48928726625E+02 -0.18723027813E+02  0.91676311172E+02  0.41800000000E+01 0.  1.
        -11    1    1    2    0    0 -0.56504290403E+02  0.75886545898E+02  0.16678634350E+02  0.96071221113E+02  0.00000000000E+00 0.  1.
         11    1    1    2    0    0 -0.96354062553E+01 -0.25793588297E+02  0.11576030048E+02  0.29868959182E+02  0.00000000000E+00 0. -1.
</event>
<event>
 7    1  0.2723366E-009  0.1144636E+03  0.7561462E-02  0.1252520E+00
         -3   -1    0    0    0  501 -0.00000000000E+00  0.00000000000E+00  0.20635292102E+03  0.20635292102E+03  0.00000000000E+00 0.  1.
          3   -1    0    0  501    0  0.00000000000E+00 -0.00000000000E+00 -0.78473834343E+02  0.78473834343E+02  0.00000000000E+00 0. -1.
         25    2    1    2    0    0  0.72544924424E+02 -0.28267588534E+02  0.79589528575E+02  0.16746185449E+03  0.12508859672E+03 0.  0.
          5    1    3    3  502    0  0.84793330212E+02 -0.52464439063E+02  0.19895871189E+02  0.10176317755E+03  0.41800000000E+01 0.  1.
         -5    1    3    3    0  502 -0.12248405788E+02  0.24196850528E+02  0.59693657386E+02  0.65698676942E+02  0.41800000000E+01 0.  1.
        -11    1    1    2    0    0 -0.66521541948E+02  0.47365897066E+02  0.52256083801E+02  0.96950203931E+02  0.00000000000E+00 0.  1.
         11    1    1    2    0    0 -0.60233824758E+01 -0.19098308531E+02 -0.39665256960E+01  0.20414696944E+02  0.00000000000E+00 0. -1.
</event>
<event>
 7    1  0.2723366E-009  0.9238179E+02  0.7561462E-02  0.1297184E+00
          2   -1    0    0  501    0  0.00000000000E+00  0.00000000000E+00  0.12801666733E+03  0.12801666733E+03  0.00000000000E+00 0. -1.
         -2   -1    0    0    0  501 -0.00000000000E+00 -0.00000000000E+00 -0.16180802434E+03  0.16180802434E+03  0.00000000000E+00 0.  1.
         25    2    1    2    0    0 -0.49530114404E+02 -0.13785895524E+02 -0.98220215038E+02  0.16714621210E+03  0.12508941774E+03 0.  0.
          5    1    3    3  502    0  0.16888079771E+02  0.33693355327E+02 -0.71859382041E+02  0.81250800727E+02  0.41800000000E+01 0.  1.
         -5    1    3    3    0  502 -0.66418194175E+02 -0.47479250851E+02 -0.26360832997E+02  0.85895411374E+02  0.41800000000E+01 0.  1.
        -11    1    1    2    0    0 -0.22629943776E+01  0.13101616305E+02 -0.19768754513E+02  0.23823877694E+02  0.00000000000E+00 0.  1.
         11    1    1    2    0    0  0.51793108781E+02  0.68427921864E+00  0.84197612540E+02  0.98854601880E+02  0.00000000000E+00 0. -1.
</event>
<event>
 7    1  0.2723366E-009  0.9085033E+02  0.7561462E-02  0.1300805E+00
         -1   -1    0    0    0  501 -0.00000000000E+00  0.00000000000E+00  0.81933498085E+03  0.81933498085E+03  0.00000000000E+00 0.  1.
          1   -1    0    0  501    0  0.00000000000E+00 -0.00000000000E+00 -0.24675304570E+02  0.24675304570E+02  0.00000000000E+00 0. -1.
         25    2    1    2    0    0  0.62420581727E+02  0.52200555428E+02  0.57273764959E+03  0.59185762410E+03  0.12508319207E+03 0.  0.
          5    1    3    3  502    0  0.30885431815E+02  0.36831885171E+02  0.56020811533E+02  0.73934439800E+02  0.41800000000E+01 0. -1.
         -5    1    3    3    0  502  0.31535149911E+02  0.15368670257E+02  0.51671683806E+03  0.51792318430E+03  0.41800000000E+01 0. -1.
        -11    1    1    2    0    0 -0.44785382393E+02 -0.19059813929E+01  0.17657135852E+03  0.18217246743E+03  0.00000000000E+00 0.  1.
         11    1    1    2    0    0 -0.17635199334E+02 -0.50294574035E+02  0.45350668168E+02  0.69980193885E+02  0.00000000000E+00 0. -1.
</event>
<event>
 7    1  0.2723366E-009  0.9090230E+02  0.7561462E-02  0.1300681E+00
         -2   -1    0    0    0  501 -0.00000000000E+00  0.00000000000E+00  0.40128306310E+02  0.40128306310E+02  0.00000000000E+00 0.  1.
          2   -1    0    0  501    0  0.00000000000E+00 -0.00000000000E+00 -0.43303710430E+03  0.43303710430E+03  0.00000000000E+00 0. -1.
         25    2    1    2    0    0  0.76826200480E+01  0.49698608122E+02 -0.11796119005E+03  0.17914135474E+03  0.12509120001E+03 0.  0.
          5    1    3    3  502    0  0.31650527827E+02  0.13167893385E+02 -0.12928100700E+03  0.13381405195E+03  0.41800000000E+01 0. -1.
         -5    1    3    3    0  502 -0.23967907779E+02  0.36530714738E+02  0.11319816949E+02  0.45327302791E+02  0.41800000000E+01 0. -1.
        -11    1    1    2    0    0 -0.39371495654E+02  0.54774673807E+01 -0.88474400608E+02  0.96994004360E+02  0.00000000000E+00 0. -1.
         11    1    1    2    0    0  0.31688875606E+02 -0.55176075503E+02 -0.18647320733E+03  0.19703005151E+03  0.00000000000E+00 0.  1.
</event>
<event>
 7    1  0.2723366E-009  0.1087000E+03  0.7561462E-02  0.1262996E+00
         -1   -1    0    0    0  501 -0.00000000000E+00  0.00000000000E+00  0.26719359334E+02  0.26719359334E+02  0.00000000000E+00 0.  1.
          1   -1    0    0  501    0  0.00000000000E+00 -0.00000000000E+00 -0.47026725495E+03  0.47026725495E+03  0.00000000000E+00 0. -1.
         25    2    1    2    0    0 -0.35706039331E+01 -0.87256934791E+01 -0.31273372387E+03  0.33696123377E+03  0.12510637105E+03 0.  0.
          5    1    3    3  502    0  0.33997703865E+02  0.46888895091E+02 -0.15311917185E+03  0.16376008531E+03  0.41800000000E+01 0.  1.
         -5    1    3    3    0  502 -0.37568307799E+02 -0.55614588570E+02 -0.15961455202E+03  0.17320114846E+03  0.41800000000E+01 0.  1.
        -11    1    1    2    0    0 -0.44016133874E+02  0.59933985930E+01 -0.59672470684E+02  0.74391831712E+02  0.00000000000E+00 0.  1.
         11    1    1    2    0    0  0.47586737807E+02  0.27322948861E+01 -0.71141701062E+02  0.85633548802E+02  0.00000000000E+00 0. -1.
</event>
<event>
 7    1  0.2723366E-009  0.1496626E+03  0.7561462E-02  0.1200888E+00
         -1   -1    0    0    0  501 -0.00000000000E+00  0.00000000000E+00  0.22837022396E+03  0.22837022396E+03  0.00000000000E+00 0.  1.
          1   -1    0    0  501    0  0.00000000000E+00 -0.00000000000E+00 -0.12774493987E+03  0.12774493987E+03  0.00000000000E+00 0. -1.
         25    2    1    2    0    0 -0.99269446838E+02 -0.85691329572E+02  0.42582224080E+02  0.18616586752E+03  0.12508819841E+03 0.  0.
          5    1    3    3  502    0 -0.10303122649E+03 -0.86779529704E+02 -0.82379687665E+01  0.13502391247E+03  0.41800000000E+01 0.  1.
         -5    1    3    3    0  502  0.37617796532E+01  0.10882001319E+01  0.50820192847E+02  0.51141955053E+02  0.41800000000E+01 0.  1.
        -11    1    1    2    0    0  0.10151667753E+03  0.10108900327E+03  0.46665850160E+02  0.15067290389E+03  0.00000000000E+00 0. -1.
         11    1    1    2    0    0 -0.22472306871E+01 -0.15397673693E+02  0.11377209849E+02  0.19276392424E+02  0.00000000000E+00 0.  1.
</event>
<event>
 7    1  0.2723366E-009  0.9061815E+02  0.7561462E-02  0.1301362E+00
          3   -1    0    0  501    0  0.00000000000E+00  0.00000000000E+00  0.38883962518E+03  0.38883962518E+03  0.00000000000E+00 0. -1.
         -3   -1    0    0    0  501 -0.00000000000E+00 -0.00000000000E+00 -0.30599124954E+02  0.30599124954E+02  0.00000000000E+00 0.  1.
         25    2    1    2    0    0 -0.14928616181E+02 -0.19239278532E+02  0.18764115673E+03  0.22682476673E+03  0.12508899905E+03 0.  0.
          5    1    3    3  502    0 -0.10068130769E+02 -0.63104151027E+02  0.16511570918E+03  0.17709932510E+03  0.41800000000E+01 0.  1.
         -5    1    3    3    0  502 -0.48604854113E+01  0.43864872496E+02  0.22525447553E+02  0.49725441627E+02  0.41800000000E+01 0.  1.
        -11    1    1    2    0    0 -0.38563337072E+01  0.42665215275E+02  0.40011582036E+02  0.58618415205E+02  0.00000000000E+00 0.  1.
         11    1    1    2    0    0  0.18784949888E+02 -0.23425936743E+02  0.13058776146E+03  0.13399556821E+03  0.00000000000E+00 0. -1.
</event>
<event>
 7    1  0.2723366E-009  0.8527132E+02  0.7561462E-02  0.1314725E+00
         -2   -1    0    0    0  501 -0.00000000000E+00  0.00000000000E+00  0.53992083935E+03  0.53992083935E+03  0.00000000000E+00 0.  1.
          2   -1    0    0  501    0  0.00000000000E+00 -0.00000000000E+00 -0.22656425323E+02  0.22656425323E+02  0.00000000000E+00 0. -1.
         25    2    1    2    0    0 -0.11078839939E+02  0.18481745832E+01  0.33049166787E+03  0.35355037017E+03  0.12508783021E+03 0.  0.
          5    1    3    3  502    0 -0.31181238986E+02  0.33053927872E+02  0.40045706015E+02  0.60712130441E+02  0.41800000000E+01 0.  1.
         -5    1    3    3    0  502  0.20102399047E+02 -0.31205753289E+02  0.29044596186E+03  0.29283823973E+03  0.41800000000E+01 0.  1.
        -11    1    1    2    0    0 -0.25330393244E+02  0.29943112968E+02  0.12238250180E+03  0.12851340624E+03  0.00000000000E+00 0.  1.
         11    1    1    2    0    0  0.36409233182E+02 -0.31791287552E+02  0.64390244356E+02  0.80513488270E+02  0.00000000000E+00 0. -1.
</event>
<event>
 7    1  0.2723366E-009  0.1110955E+03  0.7561462E-02  0.1258555E+00
         -2   -1    0    0    0  501 -0.00000000000E+00  0.00000000000E+00  0.42677354223E+02  0.42677354223E+02  0.00000000000E+00 0.  1.
          2   -1    0    0  501    0  0.00000000000E+00 -0.00000000000E+00 -0.46080337405E+03  0.46080337405E+03  0.00000000000E+00 0. -1.
         25    2    1    2    0    0  0.48389011608E+02 -0.70697701609E+02 -0.27229833794E+03  0.31166100939E+03  0.12508612423E+03 0.  0.
          5    1    3    3  502    0  0.60644068459E+02 -0.66043105670E+01 -0.47160561583E+02  0.77219886857E+02  0.41800000000E+01 0.  1.
         -5    1    3    3    0  502 -0.12255056851E+02 -0.64093391042E+02 -0.22513777635E+03  0.23444112253E+03  0.41800000000E+01 0.  1.
        -11    1    1    2    0    0  0.11001409624E+01  0.34070156914E+02 -0.61466289497E+00  0.34093455571E+02  0.00000000000E+00 0.  1.
         11    1    1    2    0    0 -0.49489152570E+02  0.36627544695E+02 -0.14521301900E+03  0.15772626331E+03  0.00000000000E+00 0. -1.
</event>
<event>
 7    1  0.2723366E-009  0.1344047E+03  0.7561462E-02  0.1221062E+00
          2   -1    0    0  501    0  0.00000000000E+00  0.00000000000E+00  0.94873282445E+03  0.94873282445E+03  0.00000000000E+00 0. -1.
         -2   -1    0    0    0  501 -0.00000000000E+00 -0.00000000000E+00 -0.30876908197E+02  0.30876908197E+02  0.00000000000E+00 0.  1.
         25    2    1    2    0    0  0.15717255415E+02 -0.12619226916E+03  0.59773023701E+03  0.62377931778E+03  0.12509068769E+03 0.  0.
          5    1    3    3  502    0  0.65113248638E+01 -0.12014416033E+02 -0.85695567578E+00  0.14316085957E+02  0.41800000000E+01 0.  1.
         -5    1    3    3    0  502  0.92059305514E+01 -0.11417785313E+03  0.59858719269E+03  0.60946323183E+03  0.41800000000E+01 0.  1.
        -11    1    1    2    0    0  0.21696780975E+02  0.33233947716E+02  0.32657176519E+02  0.51397828394E+02  0.00000000000E+00 0.  1.
         11    1    1    2    0    0 -0.37414036390E+02  0.92958321447E+02  0.28746850273E+03  0.30443258647E+03  0.00000000000E+00 0. -1.
</event>
<event>
 7    1  0.2723366E-009  0.1583635E+03  0.7561462E-02  0.1190557E+00
         -2   -1    0    0    0  501 -0.00000000000E+00  0.00000000000E+00  0.11900667828E+03  0.11900667828E+03  0.00000000000E+00 0.  1.
          2   -1    0    0  501    0  0.00000000000E+00 -0.00000000000E+00 -0.23159913132E+03  0.23159913132E+03  0.00000000000E+00 0. -1.
         25    2    1    2    0    0 -0.45912015624E+02  0.11555919946E+03 -0.54342327789E+02  0.18456571243E+03  0.12509824881E+03 0.  0.
          5    1    3    3  502    0 -0.10349112304E+02  0.13395447854E+03 -0.30699020618E+02  0.13787968927E+03  0.41800000000E+01 0. -1.
         -5    1    3    3    0  502 -0.35562903321E+02 -0.18395279073E+02 -0.23643307171E+02  0.46686023163E+02  0.41800000000E+01 0. -1.
        -11    1    1    2    0    0  0.31224622925E+02 -0.12205971173E+03 -0.71811696281E+02  0.14501886094E+03  0.00000000000E+00 0. -1.
         11    1    1    2    0    0  0.14687392699E+02  0.65005122657E+01  0.13561571028E+02  0.21021236233E+02  0.00000000000E+00 0.  1.
</event>
<event>
 7    1  0.2723366E-009  0.9679243E+02  0.7561462E-02  0.1287189E+00
          1   -1    0    0  501    0  0.00000000000E+00  0.00000000000E+00  0.17980885083E+03  0.17980885083E+03  0.00000000000E+00 0. -1.
         -1   -1    0    0    0  501 -0.00000000000E+00 -0.00000000000E+00 -0.83578243706E+02  0.83578243706E+02  0.00000000000E+00 0.  1.
         25    2    1    2    0    0  0.37166726359E+02 -0.23710532753E+02  0.13553793160E+02  0.13332218169E+03  0.12509014314E+03 0.  0.
          5    1    3    3  502    0 -0.17379865964E+02 -0.44379126625E+02 -0.33379600756E+02  0.58337267399E+02  0.41800000000E+01 0. -1.
         -5    1    3    3    0  502  0.54546592322E+02  0.20668593872E+02  0.46933393916E+02  0.74984914290E+02  0.41800000000E+01 0. -1.
        -11    1    1    2    0    0 -0.10748803360E+02 -0.27561020089E+02  0.62171681304E+02  0.68851031642E+02  0.00000000000E+00 0. -1.
         11    1    1    2    0    0 -0.26417922998E+02  0.51271552842E+02  0.20505132655E+02  0.61213881200E+02  0.00000000000E+00 0.  1.
</event>
<event>
 7    1  0.2723366E-009  0.9972589E+02  0.7561462E-02  0.1280873E+00
          1   -1    0    0  501    0  0.00000000000E+00  0.00000000000E+00  0.46449044525E+02  0.46449044525E+02  0.00000000000E+00 0. -1.
         -1   -1    0    0    0  501 -0.00000000000E+00 -0.00000000000E+00 -0.33816368799E+03  0.33816368799E+03  0.00000000000E+00 0.  1.
         25    2    1    2    0    0 -0.10192659967E+02  0.51066896289E+02 -0.22161608465E+03  0.25975510880E+03  0.12508920559E+03 0.  0.
          5    1    3    3  502    0  0.33979777110E+02  0.38760780441E+02 -0.24304021204E+02  0.57141764057E+02  0.41800000000E+01 0. -1.
         -5    1    3    3    0  502 -0.44172437078E+02  0.12306115848E+02 -0.19731206345E+03  0.20261334474E+03  0.41800000000E+01 0. -1.
        -11    1    1    2    0    0  0.51463517252E+01  0.24966227693E+02 -0.27746728315E+02  0.37678619846E+02  0.00000000000E+00 0.  1.
         11    1    1    2    0    0  0.50463082422E+01 -0.76033123982E+02 -0.42351830493E+02  0.87179003869E+02  0.00000000000E+00 0. -1.
</event>
<event>
 7    1  0.2723366E-009  0.2314555E+03  0.7561462E-02  0.1125619E+00
          1   -1    0    0  501    0  0.00000000000E+00  0.00000000000E+00  0.96746061661E+03  0.96746061661E+03  0.00000000000E+00 0. -1.
         -1   -1    0    0    0  501 -0.00000000000E+00 -0.00000000000E+00 -0.58644462379E+02  0.58644462379E+02  0.00000000000E+00 0.  1.
         25    2    1    2    0    0  0.41856782681E+02 -0.20252597005E+03  0.56628269900E+03  0.61570426266E+03  0.12508750966E+03 0.  0.
          5    1    3    3  502    0  0.65612206429E+02 -0.47992295726E+02  0.24898180281E+03  0.26194967572E+03  0.41800000000E+01 0.  1.
         -5    1    3    3    0  502 -0.23755423748E+02 -0.15453367432E+03  0.31730089619E+03  0.35375458694E+03  0.41800000000E+01 0.  1.
        -11    1    1    2    0    0  0.26342031410E+02  0.31983800894E+02  0.49388219884E+02  0.64467529825E+02  0.00000000000E+00 0.  1.
         11    1    1    2    0    0 -0.68198814091E+02  0.17054216916E+03  0.29314523535E+03  0.34593328650E+03  0.00000000000E+00 0. -1.
</event>
<event>
 7    1  0.2723366E-009  0.1468408E+03  0.7561462E-02  0.1204410E+00
          1   -1    0    0  501    0  0.00000000000E+00  0.00000000000E+00  0.16812982585E+03  0.16812982585E+03  0.00000000000E+00 0. -1.
         -1   -1    0    0    0  501 -0.00000000000E+00 -0.00000000000E+00 -0.14995655486E+03  0.14995655486E+03  0.00000000000E+00 0.  1.
         25    2    1    2    0    0 -0.75754578650E+02 -0.85598313968E+02 -0.11309969460E+02  0.16983027227E+03  0.12509427817E+03 0.  0.
          5    1    3    3  502    0 -0.10130757332E+03 -0.56645538495E+02 -0.38565884776E+02  0.12237949711E+03  0.41800000000E+01 0. -1.
         -5    1    3    3    0  502  0.25552994671E+02 -0.28952775473E+02  0.27255915316E+02  0.47450775167E+02  0.41800000000E+01 0. -1.
        -11    1    1    2    0    0  0.87734264898E+02  0.49660600816E+02  0.92963596983E+00  0.10081835514E+03  0.00000000000E+00 0.  1.
         11    1    1    2    0    0 -0.11979686248E+02  0.35937713151E+02  0.28553604472E+02  0.47437753293E+02  0.00000000000E+00 0. -1.
</event>
<event>
 7    1  0.2723366E-009  0.7632208E+02  0.7561462E-02  0.1339825E+00
          1   -1    0    0  501    0  0.00000000000E+00  0.00000000000E+00  0.97760876789E+03  0.97760876789E+03  0.00000000000E+00 0. -1.
         -1   -1    0    0    0  501 -0.00000000000E+00 -0.00000000000E+00 -0.28028275359E+02  0.28028275359E+02  0.00000000000E+00 0.  1.
         25    2    1    2    0    0 -0.15431372426E+02 -0.36591881326E+02  0.84594845235E+03  0.85606931133E+03  0.12509511876E+03 0.  0.
          5    1    3    3  502    0  0.22391414442E+02  0.10871519287E+02  0.36721922820E+02  0.44559369249E+02  0.41800000000E+01 0.  1.
         -5    1    3    3    0  502 -0.37822786868E+02 -0.47463400613E+02  0.80922652953E+03  0.81150994208E+03  0.41800000000E+01 0.  1.
        -11    1    1    2    0    0  0.34417265843E+02  0.32093125569E+02  0.31009787063E+01  0.47160714221E+02  0.00000000000E+00 0.  1.
         11    1    1    2    0    0 -0.18985893416E+02  0.44987557576E+01  0.10053106148E+03  0.10240701770E+03  0.00000000000E+00 0. -1.
</event>
<event>
 7    1  0.2723366E-009  0.1407849E+03  0.7561462E-02  0.1212277E+00
         -2   -1    0    0    0  501 -0.00000000000E+00  0.00000000000E+00  0.43640112678E+02  0.43640112678E+02  0.00000000000E+00 0.  1.
          2   -1    0    0  501    0  0.00000000000E+00 -0.00000000000E+00 -0.57994287978E+03  0.57994287978E+03  0.00000000000E+00 0. -1.
         25    2    1    2    0    0 -0.11450126594E+03  0.17932449881E+02 -0.26795616658E+03  0.31761919266E+03  0.12509728884E+03 0.  0.
          5    1    3    3  502    0 -0.24007161502E+02 -0.46172781461E+02 -0.13307982924E+03  0.14295447842E+03  0.41800000000E+01 0. -1.
         -5    1    3    3    0  502 -0.90494104433E+02  0.64105231342E+02 -0.13487633735E+03  0.17466471423E+03  0.41800000000E+01 0. -1.
        -11    1    1    2    0    0  0.46115989354E+02 -0.19281210210E+02 -0.21059317908E+03  0.21644384172E+03  0.00000000000E+00 0. -1.
         11    1    1    2    0    0  0.68385276581E+02  0.13487603285E+01 -0.57753421431E+02  0.89519958079E+02  0.00000000000E+00 0.  1.
</event>
<event>
 7    1  0.2723366E-009  0.1041317E+03  0.7561462E-02  0.1271840E+00
         -2   -1    0    0    0  501 -0.00000000000E+00  0.00000000000E+00  0.48720981119E+02  0.48720981119E+02  0.00000000000E+00 0. -1.
          2   -1    0    0  501    0  0.00000000000E+00 -0.00000000000E+00 -0.32883165008E+03  0.32883165008E+03  0.00000000000E+00 0.  1.
         25    2    1    2    0    0 -0.34037404443E+01 -0.33876579379E+02 -0.73236515117E+02  0.14889648228E+03  0.12508943685E+03 0.  0.
          5    1    3    3  502    0 -0.62054823748E+02 -0.24783659205E+02 -0.22285225410E+02  0.70562983111E+02  0.41800000000E+01 0. -1.
         -5    1    3    3    0  502  0.58651083303E+02 -0.90929201739E+01 -0.50951289707E+02  0.78333499173E+02  0.41800000000E+01 0. -1.
        -11    1    1    2    0    0  0.12171202466E+02  0.56371304621E+02 -0.19159109657E+03  0.20008250907E+03  0.00000000000E+00 0.  1.
         11    1    1    2    0    0 -0.87674620218E+01 -0.22494725242E+02 -0.15283057279E+02  0.28573639842E+02  0.00000000000E+00 0. -1.
</event>
<event>
 7    1  0.2723366E-009  0.5646761E+02  0.7561462E-02  0.1413283E+00
         -3   -1    0    0    0  501 -0.00000000000E+00  0.00000000000E+00  0.24429443700E+03  0.24429443700E+03  0.00000000000E+00 0.  1.
          3   -1    0    0  501    0  0.00000000000E+00 -0.00000000000E+00 -0.55063250048E+02  0.55063250048E+02  0.00000000000E+00 0. -1.
         25    2    1    2    0    0 -0.40359403775E+02 -0.10556208785E+02  0.10222776837E+03  0.16685215995E+03  0.12509521028E+03 0.  0.
          5    1    3    3  502    0  0.68452338269E+01 -0.10154088422E+02  0.11661083820E+03  0.11732656445E+03  0.41800000000E+01 0. -1.
         -5    1    3    3    0  502 -0.47204637602E+02 -0.40212036292E+00 -0.14383069831E+02  0.49525595500E+02  0.41800000000E+01 0. -1.
        -11    1    1    2    0    0  0.91703472936E+01  0.18299421292E+02  0.96775720728E+02  0.98916652853E+02  0.00000000000E+00 0.  1.
         11    1    1    2    0    0  0.31189056481E+02 -0.77432125073E+01 -0.97723021494E+01  0.33588874251E+02  0.00000000000E+00 0. -1.
</event>
<event>
 7    1  0.4270738E-009  0.9067950E+02  0.7561462E-02  0.1301214E+00
          1   -1    0    0  501    0  0.00000000000E+00  0.00000000000E+00  0.17689433992E+03  0.17689433992E+03  0.00000000000E+00 0. -1.
         -1   -1    0    0    0  501 -0.00000000000E+00 -0.00000000000E+00 -0.11732984704E+03  0.11732984704E+03  0.00000000000E+00 0.  1.
         25    2    1    2    0    0  0.41037507748E+02  0.66293731323E+02 -0.22156134721E+02  0.14905863544E+03  0.12509455079E+03 0.  0.
          5    1    3    3  502    0  0.31104880467E+02  0.99741010335E+01 -0.68058839185E+02  0.75607369162E+02  0.41800000000E+01 0.  1.
         -5    1    3    3    0  502  0.99326272803E+01  0.56319630290E+02  0.45902704465E+02  0.73451266278E+02  0.41800000000E+01 0.  1.
        -11    1    1    2    0    0 -0.44787197136E+02 -0.28454395344E+02 -0.21211075136E+01  0.53104093427E+02  0.00000000000E+00 0.  1.
         11    1    1    2    0    0  0.37496893880E+01 -0.37839335980E+02  0.83841735118E+02  0.92061458089E+02  0.00000000000E+00 0. -1.
</event>
<event>
 7    1  0.2723366E-009  0.1125722E+03  0.7561462E-02  0.1255879E+00
          1   -1    0    0  501    0  0.00000000000E+00  0.00000000000E+00  0.55146873950E+02  0.55146873950E+02  0.00000000000E+00 0. -1.
         -1   -1    0    0    0  501 -0.00000000000E+00 -0.00000000000E+00 -0.38195363470E+03  0.38195363470E+03  0.00000000000E+00 0.  1.
         25    2    1    2    0    0 -0.40686535306E+02  0.59465861515E+02 -0.81858671546E+02  0.16595172330E+03  0.12509016555E+03 0.  0.
          5    1    3    3  502    0 -0.55085478167E+02 -0.22466925317E+02 -0.22809046190E+02  0.63850588299E+02  0.41800000000E+01 0. -1.
         -5    1    3    3    0  502  0.14398942860E+02  0.81932786832E+02 -0.59049625356E+02  0.10210113500E+03  0.41800000000E+01 0. -1.
        -11    1    1    2    0    0  0.46799873865E+02 -0.39208018829E+02 -0.24224078298E+03  0.24981612012E+03  0.00000000000E+00 0.  1.
         11    1    1    2    0    0 -0.61133385591E+01 -0.20257842686E+02 -0.27073062216E+01  0.21332665225E+02  0.00000000000E+00 0. -1.
</event>
<event>
 7    1  0.2723366E-009  0.1174242E+03  0.7561462E-02  0.1247408E+00
          2   -1    0    0  501    0  0.00000000000E+00  0.00000000000E+00  0.20189145079E+02  0.20189145079E+02  0.00000000000E+00 0. -1.
         -2   -1    0    0    0  501 -0.00000000000E+00 -0.00000000000E+00 -0.11026592595E+04  0.11026592595E+04  0.00000000000E+00 0.  1.
         25    2    1    2    0    0 -0.33902300146E+02 -0.38113076241E+02 -0.88453164719E+03  0.89478757470E+03  0.12508635587E+03 0.  0.
          5    1    3    3  502    0 -0.76427313480E+02 -0.23857976882E+02 -0.38678813839E+03  0.39500996659E+03  0.41800000000E+01 0.  1.
         -5    1    3    3    0  502  0.42525013335E+02 -0.14255099359E+02 -0.49774350879E+03  0.49977760810E+03  0.41800000000E+01 0.  1.
        -11    1    1    2    0    0  0.58999023551E+02  0.53955858673E+02 -0.11574763591E+03  0.14067563642E+03  0.00000000000E+00 0.  1.
         11    1    1    2    0    0 -0.25096723405E+02 -0.15842782432E+02 -0.82190831278E+02  0.87385193409E+02  0.00000000000E+00 0. -1.
</event>
<event>
 7    1  0.2723366E-009  0.1947064E+03  0.7561462E-02  0.1154284E+00
         -2   -1    0    0    0  501 -0.00000000000E+00  0.00000000000E+00  0.11048585232E+03  0.11048585232E+03  0.00000000000E+00 0.  1.
          2   -1    0    0  501    0  0.00000000000E+00 -0.00000000000E+00 -0.36403389105E+03  0.36403389105E+03  0.00000000000E+00 0. -1.
         25    2    1    2    0    0 -0.15405263130E+03 -0.64477377066E+02 -0.15408749454E+03  0.25938349181E+03  0.12508914616E+03 0.  0.
          5    1    3    3  502    0 -0.13938790304E+03  0.21319612809E+01 -0.11423085790E+03  0.18027671528E+03  0.41800000000E+01 0. -1.
         -5    1    3    3    0  502 -0.14664728259E+02 -0.66609338347E+02 -0.39856636635E+02  0.79106776535E+02  0.41800000000E+01 0. -1.
        -11    1    1    2    0    0  0.32895594398E+02  0.49641074765E+02 -0.65315880284E+02  0.88388464473E+02  0.00000000000E+00 0.  1.
         11    1    1    2    0    0  0.12115703690E+03  0.14836302301E+02 -0.34144663902E+02  0.12674778708E+03  0.00000000000E+00 0. -1.
</event>
<event>
 7    1  0.2723366E-009  0.1079320E+03  0.7561462E-02  0.1264448E+00
         -2   -1    0    0    0  501 -0.00000000000E+00  0.00000000000E+00  0.11916833694E+02  0.11916833694E+02  0.00000000000E+00 0.  1.
          2   -1    0    0  501    0  0.00000000000E+00 -0.00000000000E+00 -0.12110589902E+04  0.12110589902E+04  0.00000000000E+00 0. -1.
         25    2    1    2    0    0  0.49445603485E+02 -0.34788685007E+01 -0.69039485741E+03  0.70338442501E+03  0.12509044717E+03 0.  0.
          5    1    3    3  502    0  0.81539019278E+02 -0.59485538318E+01 -0.28036700040E+03  0.29207383359E+03  0.41800000000E+01 0.  1.
         -5    1    3    3    0  502 -0.32093415794E+02  0.24696853312E+01 -0.41002785702E+03  0.41131059142E+03  0.41800000000E+01 0.  1.
        -11    1    1    2    0    0  0.25992621681E+02  0.23179915325E+01 -0.77008044162E+02  0.81309460288E+02  0.00000000000E+00 0.  1.
         11    1    1    2    0    0 -0.75438225166E+02  0.11608769682E+01 -0.43173925491E+03  0.43828193858E+03  0.00000000000E+00 0. -1.
</event>
<event>
 7    1  0.2723366E-009  0.1459555E+03  0.7561462E-02  0.1205533E+00
         -1   -1    0    0    0  501 -0.00000000000E+00  0.00000000000E+00  0.96671235209E+02  0.96671235209E+02  0.00000000000E+00 0.  1.
          1   -1    0    0  501    0  0.00000000000E+00 -0.00000000000E+00 -0.35291292446E+03  0.35291292446E+03  0.00000000000E+00 0. -1.
         25    2    1    2    0    0 -0.13105327845E+03 -0.18630367608E+02 -0.48277718429E+02  0.18841602589E+03  0.12509120003E+03 0.  0.
          5    1    3    3  502    0  0.12287444007E+02 -0.45158015807E+01 -0.41993068647E+02  0.44184431179E+02  0.41800000000E+01 0.  1.
         -5    1    3    3    0  502 -0.14334072246E+03 -0.14114566027E+02 -0.62846497816E+01  0.14423159471E+03  0.41800000000E+01 0.  1.
        -11    1    1    2    0    0  0.13003797255E+02  0.86194157033E+01  0.59017207929E+01  0.16680029330E+02  0.00000000000E+00 0.  1.
         11    1    1    2    0    0  0.11804948120E+03  0.10010951905E+02 -0.21386569162E+03  0.24448810445E+03  0.00000000000E+00 0. -1.
</event>
<event>
 7    1  0.2723366E-009  0.1058829E+03  0.7561462E-02  0.1268390E+00
         -1   -1    0    0    0  501 -0.00000000000E+00  0.00000000000E+00  0.11619764555E+03  0.11619764555E+03  0.00000000000E+00 0.  1.
          1   -1    0    0  501    0  0.00000000000E+00 -0.00000000000E+00 -0.25529683898E+03  0.25529683898E+03  0.00000000000E+00 0. -1.
         25    2    1    2    0    0 -0.63149825289E+02 -0.63321279148E+01 -0.20049860239E+03  0.24469267297E+03  0.12508724303E+03 0.  0.
          5    1    3    3  502    0  0.17459259617E+02  0.11534106486E+02 -0.14156941024E+03  0.14316854289E+03  0.41800000000E+01 0.  1.
         -5    1    3    3    0  502 -0.80609084905E+02 -0.17866234401E+02 -0.58929192154E+02  0.10152413008E+03  0.41800000000E+01 0.  1.
        -11    1    1    2    0    0  0.36402894793E+02  0.46773624655E+02  0.48617769922E+02  0.76659182522E+02  0.00000000000E+00 0.  1.
         11    1    1    2    0    0  0.26746930495E+02 -0.40441496740E+02  0.12781639042E+02  0.50142629030E+02  0.00000000000E+00 0. -1.
</event>
<event>
 7    1  0.2723366E-009  0.8880421E+02  0.7561462E-02  0.1305774E+00
          2   -1    0    0  501    0  0.00000000000E+00  0.00000000000E+00  0.17962895504E+03  0.17962895504E+03  0.00000000000E+00 0. -1.
         -2   -1    0    0    0  501 -0.00000000000E+00 -0.00000000000E+00 -0.89037781451E+02  0.89037781451E+02  0.00000000000E+00 0.  1.
         25    2    1    2    0    0 -0.44439107827E+02  0.20888679509E+02  0.24479595696E+02  0.13659235922E+03  0.12508817193E+03 0.  0.
          5    1    3    3  502    0 -0.67726608545E+01  0.31885807880E+02  0.69407785459E+02  0.76795095947E+02  0.41800000000E+01 0.  1.
         -5    1    3    3    0  502 -0.37666446972E+02 -0.10997128372E+02 -0.44928189762E+02  0.59797263276E+02  0.41800000000E+01 0.  1.
        -11    1    1    2    0    0 -0.28943119171E+02  0.15459867432E+00 -0.29989425386E+01  0.29098482855E+02  0.00000000000E+00 0.  1.
         11    1    1    2    0    0  0.73382226998E+02 -0.21043278183E+02  0.69110520429E+02  0.10297589441E+03  0.00000000000E+00 0. -1.
</event>
<event>
 7    1  0.2723366E-009  0.1253673E+03  0.7561462E-02  0.1234496E+00
         -1   -1    0    0    0  501 -0.00000000000E+00  0.00000000000E+00  0.34991060863E+02  0.34991060863E+02  0.00000000000E+00 0.  1.
          1   -1    0    0  501    0  0.00000000000E+00 -0.00000000000E+00 -0.82827163640E+03  0.82827163640E+03  0.00000000000E+00 0. -1.
         25    2    1    2    0    0 -0.97021828705E+02 -0.42384094499E+02 -0.22619872203E+03  0.27932758855E+03  0.12509353767E+03 0.  0.
          5    1    3    3  502    0 -0.49889346594E+01 -0.31702995800E+02 -0.16515518945E+03  0.16829640048E+03  0.41800000000E+01 0. -1.
         -5    1    3    3    0  502 -0.92032894045E+02 -0.10681098700E+02 -0.61043532582E+02  0.11103118808E+03  0.41800000000E+01 0. -1.
        -11    1    1    2    0    0  0.10753676324E+03  0.36418203368E+02 -0.55619933619E+03  0.56766904316E+03  0.00000000000E+00 0.  1.
         11    1    1    2    0    0 -0.10514934536E+02  0.59658911311E+01 -0.10882517319E+02  0.16266065551E+02  0.00000000000E+00 0. -1.
</event>
<event>
 7    1  0.2723366E-009  0.1525580E+03  0.7561462E-02  0.1197365E+00
          2   -1    0    0  501    0  0.00000000000E+00  0.00000000000E+00  0.98269681358E+03  0.98269681358E+03  0.00000000000E+00 0. -1.
         -2   -1    0    0    0  501 -0.00000000000E+00 -0.00000000000E+00 -0.28807287905E+02  0.28807287905E+02  0.00000000000E+00 0.  1.
         25    2    1    2    0    0 -0.42154940866E+02  0.11169437537E+03  0.54946457069E+03  0.57603212309E+03  0.12509604256E+03 0.  0.
          5    1    3    3  502    0  0.26549343281E+02  0.36255249226E+01  0.27698605641E+02  0.38764638707E+02  0.41800000000E+01 0.  1.
         -5    1    3    3    0  502 -0.68704284147E+02  0.10806885044E+03  0.52176596504E+03  0.53726748438E+03  0.41800000000E+01 0.  1.
        -11    1    1    2    0    0  0.62639718472E+02 -0.37741196651E+02  0.11696331477E+03  0.13794400769E+03  0.00000000000E+00 0.  1.
         11    1    1    2    0    0 -0.20484777606E+02 -0.73953178715E+02  0.28746164022E+03  0.29752797071E+03  0.00000000000E+00 0. -1.
</event>
<event>
 7    1  0.2723366E-009  0.1596546E+03  0.7561462E-02  0.1189087E+00
         -2   -1    0    0    0  501 -0.00000000000E+00  0.00000000000E+00  0.20297725540E+03  0.20297725540E+03  0.00000000000E+00 0.  1.
          2   -1    0    0  501    0  0.00000000000E+00 -0.00000000000E+00 -0.29353698014E+03  0.29353698014E+03  0.00000000000E+00 0. -1.
         25    2    1    2    0    0  0.63250273176E+02 -0.13707320773E+03  0.11505286996E+03  0.22731923994E+03  0.12508881895E+03 0.  0.
          5    1    3    3  502    0  0.74096753266E+02 -0.10105784447E+03  0.22575165341E+02  0.12739751671E+03  0.41800000000E+01 0.  1.
         -5    1    3    3    0  502 -0.10846480090E+02 -0.36015363258E+02  0.92477704622E+02  0.99921723229E+02  0.41800000000E+01 0.  1.
        -11    1    1    2    0    0  0.64695418881E+00  0.39157051854E+02 -0.11435959651E+03  0.12087932236E+03  0.00000000000E+00 0. -1.
         11    1    1    2    0    0 -0.63897227365E+02  0.97916155878E+02 -0.91252998193E+02  0.14831567323E+03  0.00000000000E+00 0.  1.
</event>
<event>
 7    1  0.2723366E-009  0.1497757E+03  0.7561462E-02  0.1200749E+00
          4   -1    0    0  501    0  0.00000000000E+00  0.00000000000E+00  0.98372135736E+02  0.98372135736E+02  0.00000000000E+00 0. -1.
         -4   -1    0    0    0  501 -0.00000000000E+00 -0.00000000000E+00 -0.24799741560E+03  0.24799741560E+03  0.00000000000E+00 0.  1.
         25    2    1    2    0    0 -0.10618895914E+03 -0.33783417213E+02 -0.96412493460E+02  0.19327848407E+03  0.12507513417E+03 0.  0.
          5    1    3    3  502    0 -0.86812756203E+02  0.34455829785E+02 -0.36621541046E+02  0.10041050002E+03  0.41800000000E+01 0. -1.
         -5    1    3    3    0  502 -0.19376202940E+02 -0.68239246998E+02 -0.59790952415E+02  0.92867984052E+02  0.41800000000E+01 0. -1.
        -11    1    1    2    0    0  0.37226850628E+02  0.51735630645E+02  0.68913373442E+00  0.63740793776E+02  0.00000000000E+00 0. -1.
         11    1    1    2    0    0  0.68962108514E+02 -0.17952213431E+02 -0.53901920136E+02  0.89350273487E+02  0.00000000000E+00 0.  1.
</event>
<event>
 7    1  0.3458565E-009  0.1297646E+03  0.7561462E-02  0.1227805E+00
          1   -1    0    0  501    0  0.00000000000E+00  0.00000000000E+00  0.92904101952E+03  0.92904101952E+03  0.00000000000E+00 0. -1.
         -1   -1    0    0    0  501 -0.00000000000E+00 -0.00000000000E+00 -0.22072243700E+02  0.22072243700E+02  0.00000000000E+00 0.  1.
         25    2    1    2    0    0 -0.80414685008E+02  0.35562106593E+02  0.39380705925E+03  0.42244824559E+03  0.12508930930E+03 0.  0.
          5    1    3    3  502    0  0.26538687167E+02 -0.11883314184E+01  0.25178232972E+02  0.36839243527E+02  0.41800000000E+01 0.  1.
         -5    1    3    3    0  502 -0.10695337217E+03  0.36750438012E+02  0.36862882627E+03  0.38560900207E+03  0.41800000000E+01 0.  1.
        -11    1    1    2    0    0  0.36754455670E+02  0.25260561772E+02  0.11156587511E+03  0.12014961707E+03  0.00000000000E+00 0.  1.
         11    1    1    2    0    0  0.43660229338E+02 -0.60822668365E+02  0.40159584146E+03  0.40851540056E+03  0.00000000000E+00 0. -1.
</event>
<event>
 7    1  0.2723366E-009  0.6358584E+02  0.7561462E-02  0.1383371E+00
         -2   -1    0    0    0  501 -0.00000000000E+00  0.00000000000E+00  0.17366326509E+03  0.17366326509E+03  0.00000000000E+00 0.  1.
          2   -1    0    0  501    0  0.00000000000E+00 -0.00000000000E+00 -0.84809471542E+02  0.84809471542E+02  0.00000000000E+00 0. -1.
         25    2    1    2    0    0 -0.32335302756E+02  0.33172418358E+02  0.23988379746E+02  0.13553227224E+03  0.12509026066E+03 0.  0.
          5    1    3    3  502    0 -0.81679701789E+01  0.20407992181E+02  0.74587649021E+02  0.77871635839E+02  0.41800000000E+01 0.  1.
         -5    1    3    3    0  502 -0.24167332577E+02  0.12764426176E+02 -0.50599269275E+02  0.57660636406E+02  0.41800000000E+01 0.  1.
        -11    1    1    2    0    0  0.26776457360E+02  0.13609071350E+02  0.69391185714E+02  0.75612976046E+02  0.00000000000E+00 0.  1.
         11    1    1    2    0    0  0.55588453959E+01 -0.46781489708E+02 -0.45257719105E+01  0.47327488342E+02  0.00000000000E+00 0. -1.
</event>
<event>
 7    1  0.2723366E-009  0.8271156E+02  0.7561462E-02  0.1321528E+00
         -2   -1    0    0    0  501 -0.00000000000E+00  0.00000000000E+00  0.19510700048E+03  0.19510700048E+03  0.00000000000E+00 0.  1.
          2   -1    0    0  501    0  0.00000000000E+00 -0.00000000000E+00 -0.88379810844E+02  0.88379810844E+02  0.00000000000E+00 0. -1.
         25    2    1    2    0    0 -0.55053203981E+02  0.63726803136E+01  0.11471566025E+03  0.17854517134E+03  0.12508888510E+03 0.  0.
          5    1    3    3  502    0  0.10367017719E+02  0.36269408027E+02  0.97272718583E+02  0.10441455452E+03  0.41800000000E+01 0.  1.
         -5    1    3    3    0  502 -0.65420221700E+02 -0.29896727713E+02  0.17442941670E+02  0.74130616815E+02  0.41800000000E+01 0.  1.
        -11    1    1    2    0    0  0.33521663915E+02 -0.39597394458E+01  0.39969971293E+02  0.52316155184E+02  0.00000000000E+00 0.  1.
         11    1    1    2    0    0  0.21531540066E+02 -0.24129408678E+01 -0.47958441907E+02  0.52625484809E+02  0.00000000000E+00 0. -1.
</event>
<event>
 7    1  0.2723366E-009  0.1439798E+03  0.7561462E-02  0.1208072E+00
          2   -1    0    0  501    0  0.00000000000E+00  0.00000000000E+00  0.19055177168E+03  0.19055177168E+03  0.00000000000E+00 0.  1.
         -2   -1    0    0    0  501 -0.00000000000E+00 -0.00000000000E+00 -0.15207832746E+03  0.15207832746E+03  0.00000000000E+00 0. -1.
         25    2    1    2    0    0  0.10430165825E+03 -0.75748239769E+02  0.49134883569E+02  0.18622317383E+03  0.12509277335E+03 0.  0.
          5    1    3    3  502    0 -0.32955042649E+01  0.14561701010E+02  0.42824989998E+02  0.45545094719E+02  0.41800000000E+01 0.  1.
         -5    1    3    3    0  502  0.10759716252E+03 -0.90309940780E+02  0.63098935713E+01  0.14067807911E+03  0.41800000000E+01 0.  1.
        -11    1    1    2    0    0 -0.27336848291E+02  0.36274834253E+02  0.36153357155E+02  0.58053700211E+02  0.00000000000E+00 0.  1.
         11    1    1    2    0    0 -0.76964809961E+02  0.39473405516E+02 -0.46814796507E+02  0.98353225099E+02  0.00000000000E+00 0. -1.
</event>
<event>
 7    1  0.2723366E-009  0.1087471E+03  0.7561462E-02  0.1262908E+00
         -1   -1    0    0    0  501 -0.00000000000E+00  0.00000000000E+00  0.13561075283E+03  0.13561075283E+03  0.00000000000E+00 0.  1.
          1   -1    0    0  501    0  0.00000000000E+00 -0.00000000000E+00 -0.93833972521E+02  0.93833972521E+02  0.00000000000E+00 0. -1.
         25    2    1    2    0    0  0.19736305225E+02 -0.24023237274E+02  0.24217483493E+02  0.13115070257E+03  0.12508949838E+03 0.  0.
          5    1    3    3  502    0 -0.46952243248E+02  0.16735082555E+02  0.15662573336E+02  0.52415310146E+02  0.41800000000E+01 0. -1.
         -5    1    3    3    0  502  0.66688548473E+02 -0.40758319829E+02  0.85549101575E+01  0.78735392426E+02  0.41800000000E+01 0. -1.
        -11    1    1    2    0    0  0.30652380702E+02  0.23812976422E+02 -0.11039693386E+02  0.40354691410E+02  0.00000000000E+00 0.  1.
         11    1    1    2    0    0 -0.50388685927E+02  0.21026085174E+00  0.28598990206E+02  0.57939331372E+02  0.00000000000E+00 0. -1.
</event>
<event>
 7    1  0.2723366E-009  0.1815471E+03  0.7561462E-02  0.1166314E+00
         -1   -1    0    0    0  501 -0.00000000000E+00  0.00000000000E+00  0.38244619188E+02  0.38244619188E+02  0.00000000000E+00 0.  1.
          1   -1    0    0  501    0  0.00000000000E+00 -0.00000000000E+00 -0.10320795573E+04  0.10320795573E+04  0.00000000000E+00 0. -1.
         25    2    1    2    0    0  0.14226703724E+03  0.78262432314E+02 -0.41341986370E+03  0.46144171891E+03  0.12509019967E+03 0.  0.
          5    1    3    3  502    0  0.71323832844E+02 -0.23883337441E+02 -0.20859077513E+03  0.22177711065E+03  0.41800000000E+01 0. -1.
         -5    1    3    3    0  502  0.70943204398E+02  0.10214576975E+03 -0.20482908856E+03  0.23966460826E+03  0.41800000000E+01 0. -1.
        -11    1    1    2    0    0 -0.94240822415E+02 -0.61153660312E+02 -0.50829327774E+03  0.52056042778E+03  0.00000000000E+00 0. -1.
         11    1    1    2    0    0 -0.48026214827E+02 -0.17108772002E+02 -0.72121796633E+02  0.88322029752E+02  0.00000000000E+00 0.  1.
</event>
<event>
 7    1  0.2723366E-009  0.8617368E+02  0.7561462E-02  0.1312391E+00
          2   -1    0    0  501    0  0.00000000000E+00  0.00000000000E+00  0.17704062751E+03  0.17704062751E+03  0.00000000000E+00 0. -1.
         -2   -1    0    0    0  501 -0.00000000000E+00 -0.00000000000E+00 -0.83361140129E+02  0.83361140129E+02  0.00000000000E+00 0.  1.
         25    2    1    2    0    0 -0.10759188415E+01 -0.52637090634E+01  0.12411444043E+03  0.17630031843E+03  0.12509413943E+03 0.  0.
          5    1    3    3  502    0 -0.53766398855E+02  0.25430341899E+02  0.84666826476E+02  0.10355419760E+03  0.41800000000E+01 0. -1.
         -5    1    3    3    0  502  0.52690480013E+02 -0.30694050962E+02  0.39447613959E+02  0.72746120828E+02  0.41800000000E+01 0. -1.
        -11    1    1    2    0    0 -0.22771229704E+02  0.13379920629E+02  0.16281318278E+02  0.31026319523E+02  0.00000000000E+00 0. -1.
         11    1    1    2    0    0  0.23847148546E+02 -0.81162115652E+01 -0.46716271334E+02  0.53075129687E+02  0.00000000000E+00 0.  1.
</event>
<event>
 7    1  0.2723366E-009  0.1028754E+03  0.7561462E-02  0.1274363E+00
          3   -1    0    0  501    0  0.00000000000E+00  0.00000000000E+00  0.28930646071E+03  0.28930646071E+03  0.00000000000E+00 0. -1.
         -3   -1    0    0    0  501 -0.00000000000E+00 -0.00000000000E+00 -0.50950558808E+02  0.50950558808E+02  0.00000000000E+00 0.  1.
         25    2    1    2    0    0  0.35731116506E+02 -0.41633520271E+02  0.12498135624E+03  0.18514103462E+03  0.12508717198E+03 0.  0.
          5    1    3    3  502    0  0.17701127150E+02 -0.69932697238E+02  0.13211304713E+03  0.15058300591E+03  0.41800000000E+01 0. -1.
         -5    1    3    3    0  502  0.18029989356E+02  0.28299176967E+02 -0.71316908946E+01  0.34558028709E+02  0.41800000000E+01 0. -1.
        -11    1    1    2    0    0 -0.53748219353E+02  0.55259990943E+02  0.61767394766E+02  0.98781317762E+02  0.00000000000E+00 0.  1.
         11    1    1    2    0    0  0.18017102846E+02 -0.13626470673E+02  0.51607150894E+02  0.56334667137E+02  0.00000000000E+00 0. -1.
</event>
<event>
 7    1  0.2723366E-009  0.1326552E+03  0.7561462E-02  0.1223568E+00
          1   -1    0    0  501    0  0.00000000000E+00  0.00000000000E+00  0.52296639089E+03  0.52296639089E+03  0.00000000000E+00 0.  1.
         -1   -1    0    0    0  501 -0.00000000000E+00 -0.00000000000E+00 -0.50722828795E+02  0.50722828795E+02  0.00000000000E+00 0. -1.
         25    2    1    2    0    0  0.75824567406E+02 -0.73161841418E+02  0.35120970139E+03  0.38742580562E+03  0.12509388654E+03 0.  0.
          5    1    3    3  502    0 -0.19624167705E+01 -0.46844826054E+02  0.29907391549E+02  0.55769286142E+02  0.41800000000E+01 0.  1.
         -5    1    3    3    0  502  0.77786984177E+02 -0.26317015364E+02  0.32130230984E+03  0.33165651948E+03  0.41800000000E+01 0.  1.
        -11    1    1    2    0    0 -0.95153623341E+02  0.63578095687E+02  0.79133370371E+02  0.13913474258E+03  0.00000000000E+00 0. -1.
         11    1    1    2    0    0  0.19329055934E+02  0.95837457312E+01  0.41900490338E+02  0.47128671487E+02  0.00000000000E+00 0.  1.
</event>
<event>
 7    1  0.2723366E-009  0.1748329E+03  0.7561462E-02  0.1172900E+00
          2   -1    0    0  501    0  0.00000000000E+00  0.00000000000E+00  0.64729443298E+03  0.64729443298E+03  0.00000000000E+00 0. -1.
         -2   -1    0    0    0  501 -0.00000000000E+00 -0.00000000000E+00 -0.54786799251E+02  0.54786799251E+02  0.00000000000E+00 0.  1.
         25    2    1    2    0    0 -0.29556563494E+02 -0.15038674384E+03  0.32726914094E+03  0.38241639834E+03  0.12508975953E+03 0.  0.
          5    1    3    3  502    0  0.31997351322E+02 -0.62390279635E+02  0.53459154689E+02  0.88270782848E+02  0.41800000000E+01 0. -1.
         -5    1    3    3    0  502 -0.61553914816E+02 -0.87996464206E+02  0.27380998625E+03  0.29414561549E+03  0.41800000000E+01 0. -1.
        -11    1    1    2    0    0  0.64304174080E+01 -0.89100082748E+01  0.48278711734E+02  0.49513357008E+02  0.00000000000E+00 0.  1.
         11    1    1    2    0    0  0.23126146086E+02  0.15929675212E+03  0.21695978106E+03  0.27015147689E+03  0.00000000000E+00 0. -1.
</event>
<event>
 7    1  0.2723366E-009  0.1142232E+03  0.7561462E-02  0.1252943E+00
          2   -1    0    0  501    0  0.00000000000E+00  0.00000000000E+00  0.67404047277E+02  0.67404047277E+02  0.00000000000E+00 0. -1.
         -2   -1    0    0    0  501 -0.00000000000E+00 -0.00000000000E+00 -0.33303111010E+03  0.33303111010E+03  0.00000000000E+00 0.  1.
         25    2    1    2    0    0  0.11707885046E+01 -0.92060978783E+02 -0.84256701063E+02  0.17669967594E+03  0.12508792606E+03 0.  0.
          5    1    3    3  502    0 -0.12686860596E+02 -0.69338203718E+02  0.16406094515E+02  0.72493967086E+02  0.41800000000E+01 0. -1.
         -5    1    3    3    0  502  0.13857649100E+02 -0.22722775065E+02 -0.10066279558E+03  0.10420570886E+03  0.41800000000E+01 0. -1.
        -11    1    1    2    0    0 -0.42364198675E+02  0.75340600656E+02 -0.12412096688E+03  0.15125126728E+03  0.00000000000E+00 0. -1.
         11    1    1    2    0    0  0.41193410170E+02  0.16720378127E+02 -0.57249394883E+02  0.72484214148E+02  0.00000000000E+00 0.  1.
</event>
<event>
 7    1  0.2849568E-009  0.2119243E+03  0.7561462E-02  0.1140051E+00
          1   -1    0    0  501    0  0.00000000000E+00  0.00000000000E+00  0.32726300928E+03  0.32726300928E+03  0.00000000000E+00 0. -1.
         -1   -1    0    0    0  501 -0.00000000000E+00 -0.00000000000E+00 -0.15608928811E+03  0.15608928811E+03  0.00000000000E+00 0.  1.
         25    2    1    2    0    0 -0.30567017805E+02  0.18390902485E+03  0.19232839139E+02  0.22533265948E+03  0.12509209938E+03 0.  0.
          5    1    3    3  502    0 -0.73716664375E+02  0.84417856192E+02  0.30496016343E+02  0.11622392380E+03  0.41800000000E+01 0.  1.
         -5    1    3    3    0  502  0.43149646570E+02  0.99491168657E+02 -0.11263177203E+02  0.10910873568E+03  0.41800000000E+01 0.  1.
        -11    1    1    2    0    0  0.56524181612E+02 -0.94936032969E+02  0.53316868745E+02  0.12268056878E+03  0.00000000000E+00 0. -1.
         11    1    1    2    0    0 -0.25957163807E+02 -0.88972991881E+02  0.98624013290E+02  0.13533906914E+03  0.00000000000E+00 0.  1.
</event>
<event>
 7    1  0.2723366E-009  0.8031219E+02  0.7561462E-02  0.1328168E+00
          2   -1    0    0  501    0  0.00000000000E+00  0.00000000000E+00  0.27584199183E+03  0.27584199183E+03  0.00000000000E+00 0. -1.
         -2   -1    0    0    0  501 -0.00000000000E+00 -0.00000000000E+00 -0.51969757784E+02  0.51969757784E+02  0.00000000000E+00 0.  1.
         25    2    1    2    0    0  0.29515784851E+01 -0.14300694014E+02  0.58113446593E+02  0.13869771158E+03  0.12508661342E+03 0.  0.
          5    1    3    3  502    0  0.97837417316E+01 -0.45557337550E+02  0.84784399793E+02  0.96835218052E+02  0.41800000000E+01 0. -1.
         -5    1    3    3    0  502 -0.68321632465E+01  0.31256643536E+02 -0.26670953201E+02  0.41862493529E+02  0.41800000000E+01 0. -1.
        -11    1    1    2    0    0 -0.41515303849E+02  0.10510748967E+02  0.12814296237E+03  0.13510964104E+03  0.00000000000E+00 0. -1.
         11    1    1    2    0    0  0.38563725364E+02  0.37899450472E+01  0.37615825076E+02  0.54004396984E+02  0.00000000000E+00 0.  1.
</event>
<event>
 7    1  0.2723366E-009  0.1029869E+03  0.7561462E-02  0.1274137E+00
          1   -1    0    0  501    0  0.00000000000E+00  0.00000000000E+00  0.48843987949E+03  0.48843987949E+03  0.00000000000E+00 0. -1.
         -1   -1    0    0    0  501 -0.00000000000E+00 -0.00000000000E+00 -0.24741142866E+02  0.24741142866E+02  0.00000000000E+00 0.  1.
         25    2    1    2    0    0  0.13593432924E+02 -0.11792809691E+01  0.23096985885E+03  0.26302287297E+03  0.12509110235E+03 0.  0.
          5    1    3    3  502    0  0.56046064507E+02  0.29068230149E+02  0.17656889632E+03  0.18756377821E+03  0.41800000000E+01 0. -1.
         -5    1    3    3    0  502 -0.42452631583E+02 -0.30247511118E+02  0.54400962532E+02  0.75459094757E+02  0.41800000000E+01 0. -1.
        -11    1    1    2    0    0 -0.50164207929E+01  0.45240617724E+02  0.95895200153E+02  0.10614974038E+03  0.00000000000E+00 0.  1.
         11    1    1    2    0    0 -0.85770121309E+01 -0.44061336755E+02  0.13683367762E+03  0.14400840901E+03  0.00000000000E+00 0. -1.
</event>
<event>
 7    1  0.2723366E-009  0.1103069E+03  0.7561462E-02  0.1260003E+00
          2   -1    0    0  501    0  0.00000000000E+00  0.00000000000E+00  0.80369611020E+03  0.80369611020E+03  0.00000000000E+00 0.  1.
         -2   -1    0    0    0  501 -0.00000000000E+00 -0.00000000000E+00 -0.18814434731E+02  0.18814434731E+02  0.00000000000E+00 0. -1.
         25    2    1    2    0    0  0.20259645223E+02  0.30978603788E+02  0.58976134534E+03  0.60401547915E+03  0.12508448134E+03 0.  0.
          5    1    3    3  502    0 -0.13114085070E+02 -0.43119378114E+02  0.14601492507E+03  0.15286952195E+03  0.41800000000E+01 0.  1.
         -5    1    3    3    0  502  0.33373730293E+02  0.74097981902E+02  0.44374642027E+03  0.45114595720E+03  0.41800000000E+01 0.  1.
        -11    1    1    2    0    0  0.33662981403E+02 -0.46937994437E+01  0.10389719154E+03  0.10931538995E+03  0.00000000000E+00 0.  1.
         11    1    1    2    0    0 -0.53922626626E+02 -0.26284804344E+02  0.91223138585E+02  0.10917967583E+03  0.00000000000E+00 0. -1.
</event>
<event>
 7    1  0.2723366E-009  0.1187488E+03  0.7561462E-02  0.1245175E+00
          2   -1    0    0  501    0  0.00000000000E+00  0.00000000000E+00  0.11081562234E+04  0.11081562234E+04  0.00000000000E+00 0. -1.
         -2   -1    0    0    0  501 -0.00000000000E+00 -0.00000000000E+00 -0.22085078914E+02  0.22085078914E+02  0.00000000000E+00 0.  1.
         25    2    1    2    0    0  0.61653555731E+02  0.59287976566E+02  0.85696576357E+03  0.87026158029E+03  0.12509465655E+03 0.  0.
          5    1    3    3  502    0  0.67899488255E+02  0.93865537119E+02  0.63546948191E+03  0.64595666604E+03  0.41800000000E+01 0. -1.
         -5    1    3    3    0  502 -0.62459325243E+01 -0.34577560552E+02  0.22149628166E+03  0.22430491425E+03  0.41800000000E+01 0. -1.
        -11    1    1    2    0    0 -0.20555709125E+02 -0.26940537442E+02  0.19412148420E+03  0.19705704850E+03  0.00000000000E+00 0. -1.
         11    1    1    2    0    0 -0.41097846606E+02 -0.32347439125E+02  0.34983896707E+02  0.62922673516E+02  0.00000000000E+00 0.  1.
</event>
<event>
 7    1  0.2723366E-009  0.1364793E+03  0.7561462E-02  0.1218146E+00
         -1   -1    0    0    0  501 -0.00000000000E+00  0.00000000000E+00  0.11088315572E+03  0.11088315572E+03  0.00000000000E+00 0.  1.
          1   -1    0    0  501    0  0.00000000000E+00 -0.00000000000E+00 -0.19606874472E+03  0.19606874472E+03  0.00000000000E+00 0. -1.
         25    2    1    2    0    0  0.19122172247E+02 -0.92878235908E+02 -0.19438726257E+02  0.15816937136E+03  0.12509061427E+03 0.  0.
          5    1    3    3  502    0 -0.51850429733E+02 -0.57568159561E+02 -0.94794932122E+01  0.78165806145E+02  0.41800000000E+01 0.  1.
         -5    1    3    3    0  502  0.70972601980E+02 -0.35310076346E+02 -0.99592330445E+01  0.80003565210E+02  0.41800000000E+01 0.  1.
        -11    1    1    2    0    0  0.21020579465E+02  0.87409671651E+01 -0.49050682664E+02  0.54076230803E+02  0.00000000000E+00 0.  1.
         11    1    1    2    0    0 -0.40142751712E+02  0.84137268742E+02 -0.16696180076E+02  0.94706298289E+02  0.00000000000E+00 0. -1.
</event>
<event>
 7    1  0.2723366E-009  0.1641581E+03  0.7561462E-02  0.1184081E+00
          1   -1    0    0  501    0  0.00000000000E+00  0.00000000000E+00  0.53086352661E+02  0.53086352661E+02  0.00000000000E+00 0. -1.
         -1   -1    0    0    0  501 -0.00000000000E+00 -0.00000000000E+00 -0.69293401251E+03  0.69293401251E+03  0.00000000000E+00 0.  1.
         25    2    1    2    0    0  0.82089450742E+02 -0.10257833515E+03 -0.50561468900E+03  0.53717285542E+03  0.12508984813E+03 0.  0.
          5    1    3    3  502    0  0.10500121678E+03 -0.47117877174E+02 -0.39265939244E+03  0.40919948771E+03  0.41800000000E+01 0. -1.
         -5    1    3    3    0  502 -0.22911766038E+02 -0.55460457973E+02 -0.11295529656E+03  0.12797336771E+03  0.41800000000E+01 0. -1.
        -11    1    1    2    0    0 -0.97573620010E+02  0.83469182898E+02 -0.13199985364E+03  0.18415123452E+03  0.00000000000E+00 0.  1.
         11    1    1    2    0    0  0.15484169269E+02  0.19109152249E+02 -0.22331172109E+01  0.24696275227E+02  0.00000000000E+00 0. -1.
</event>
<event>
 7    1  0.2723366E-009  0.2151924E+03  0.7561462E-02  0.1137519E+00
          1   -1    0    0  501    0  0.00000000000E+00  0.00000000000E+00  0.27183017551E+03  0.27183017551E+03  0.00000000000E+00 0. -1.
         -1   -1    0    0    0  501 -0.00000000000E+00 -0.00000000000E+00 -0.18599086127E+03  0.18599086127E+03  0.00000000000E+00 0.  1.
         25    2    1    2    0    0  0.17203342272E+03  0.95517733754E+02  0.32136051940E+02  0.23537027811E+03  0.12508919214E+03 0.  0.
          5    1    3    3  502    0  0.13523209114E+03  0.23952756794E+02 -0.20786575630E+02  0.13896404988E+03  0.41800000000E+01 0. -1.
         -5    1    3    3    0  502  0.36801331578E+02  0.71564976959E+02  0.52922627570E+02  0.96406228232E+02  0.41800000000E+01 0. -1.
        -11    1    1    2    0    0 -0.60224154074E+02 -0.79065359430E+02  0.53662928405E+01  0.99534300090E+02  0.00000000000E+00 0.  1.
         11    1    1    2    0    0 -0.11180926864E+03 -0.16452374324E+02  0.48336969457E+02  0.12291645859E+03  0.00000000000E+00 0. -1.
</event>
<event>
 7    1  0.2723366E-009  0.1144524E+03  0.7561462E-02  0.1252540E+00
         -2   -1    0    0    0  501 -0.00000000000E+00  0.00000000000E+00  0.23705296951E+03  0.23705296951E+03  0.00000000000E+00 0.  1.
          2   -1    0    0  501    0  0.00000000000E+00 -0.00000000000E+00 -0.98769812202E+02  0.98769812202E+02  0.00000000000E+00 0. -1.
         25    2    1    2    0    0 -0.53549436944E+02  0.80269145174E+02  0.11787122096E+03  0.19710908085E+03  0.12509071572E+03 0.  0.
          5    1    3    3  502    0 -0.52446219361E+02  0.70606735310E+02  0.98863257581E+01  0.88606595879E+02  0.41800000000E+01 0. -1.
         -5    1    3    3    0  502 -0.11032175826E+01  0.96624098643E+01  0.10798489520E+03  0.10850248497E+03  0.41800000000E+01 0. -1.
        -11    1    1    2    0    0  0.68006577167E+02 -0.23918143660E+02 -0.10474554032E+02  0.72847020641E+02  0.00000000000E+00 0. -1.
         11    1    1    2    0    0 -0.14457140224E+02 -0.56351001514E+02  0.30886490381E+02  0.65866680219E+02  0.00000000000E+00 0.  1.
</event>
<event>
 7    1  0.2723366E-009  0.8047516E+02  0.7561462E-02  0.1327708E+00
          2   -1    0    0  501    0  0.00000000000E+00  0.00000000000E+00  0.20746203066E+04  0.20746203066E+04  0.00000000000E+00 0. -1.
         -2   -1    0    0    0  501 -0.00000000000E+00 -0.00000000000E+00 -0.13183298572E+02  0.13183298572E+02  0.00000000000E+00 0.  1.
         25    2    1    2    0    0  0.90106106798E+01  0.35704198133E+02  0.18470848365E+04  0.18516817291E+04  0.12508737704E+03 0.  0.
          5    1    3    3  502    0  0.36604424692E+02  0.58621276324E+00  0.16081845010E+04  0.16086065676E+04  0.41800000000E+01 0. -1.
         -5    1    3    3    0  502 -0.27593814012E+02  0.35117985369E+02  0.23890033549E+03  0.24307516156E+03  0.41800000000E+01 0. -1.
        -11    1    1    2    0    0  0.89263092661E+01 -0.53345827487E+02  0.19994186915E+03  0.20712848029E+03  0.00000000000E+00 0. -1.
         11    1    1    2    0    0 -0.17936919946E+02  0.17641629354E+02  0.14410302400E+02  0.28993395777E+02  0.00000000000E+00 0.  1.
</event>
<event>
 7    1  0.2723366E-009  0.9638137E+02  0.7561462E-02  0.1288095E+00
          2   -1    0    0  501    0  0.00000000000E+00  0.00000000000E+00  0.11828859406E+03  0.11828859406E+03  0.00000000000E+00 0.  1.
         -2   -1    0    0    0  501 -0.00000000000E+00 -0.00000000000E+00 -0.16549267796E+03  0.16549267796E+03  0.00000000000E+00 0. -1.
         25    2    1    2    0    0 -0.10086860145E+02 -0.40128832144E+02  0.52465411209E+02  0.14181638436E+03  0.12508876682E+03 0.  0.
          5    1    3    3  502    0  0.37587975461E+02 -0.66557583670E+02  0.24294158074E+02  0.80314670887E+02  0.41800000000E+01 0. -1.
         -5    1    3    3    0  502 -0.47674835606E+02  0.26428751526E+02  0.28171253135E+02  0.61501713476E+02  0.41800000000E+01 0. -1.
        -11    1    1    2    0    0  0.28350041185E+02  0.25699526174E+02  0.13600109421E+01  0.38288903229E+02  0.00000000000E+00 0.  1.
         11    1    1    2    0    0 -0.18263181040E+02  0.14429305970E+02 -0.10102950605E+03  0.10367598442E+03  0.00000000000E+00 0. -1.
</event>
<event>
 7    1  0.2723366E-009  0.1054775E+03  0.7561462E-02  0.1269182E+00
         -3   -1    0    0    0  501 -0.00000000000E+00  0.00000000000E+00  0.43606309434E+02  0.43606309434E+02  0.00000000000E+00 0.  1.
          3   -1    0    0  501    0  0.00000000000E+00 -0.00000000000E+00 -0.28574338384E+03  0.28574338384E+03  0.00000000000E+00 0. -1.
         25    2    1    2    0    0  0.88546985258E+01 -0.29521606194E+02 -0.13887395019E+03  0.18942647974E+03  0.12508591554E+03 0.  0.
          5    1    3    3  502    0  0.25997705154E+02  0.38512142760E+02 -0.18808911641E+02  0.50302220333E+02  0.41800000000E+01 0. -1.
         -5    1    3    3    0  502 -0.17143006628E+02 -0.68033748955E+02 -0.12006503855E+03  0.13912425941E+03  0.41800000000E+01 0. -1.
        -11    1    1    2    0    0 -0.40664939524E+02 -0.11355710336E+02 -0.39989459954E+02  0.58152784724E+02  0.00000000000E+00 0.  1.
         11    1    1    2    0    0  0.31810240998E+02  0.40877316530E+02 -0.63273664260E+02  0.81770428811E+02  0.00000000000E+00 0. -1.
</event>
<event>
 7    1  0.2723366E-009  0.9268034E+02  0.7561462E-02  0.1296488E+00
         -2   -1    0    0    0  501 -0.00000000000E+00  0.00000000000E+00  0.29486128354E+02  0.29486128354E+02  0.00000000000E+00 0.  1.
          2   -1    0    0  501    0  0.00000000000E+00 -0.00000000000E+00 -0.53298291368E+03  0.53298291368E+03  0.00000000000E+00 0. -1.
         25    2    1    2    0    0  0.14376665972E+02  0.30482912592E+02 -0.39425377039E+03  0.41499221076E+03  0.12508638233E+03 0.  0.
          5    1    3    3  502    0 -0.15210618045E+02  0.63574963058E+02 -0.11623656688E+03  0.13342245205E+03  0.41800000000E+01 0.  1.
         -5    1    3    3    0  502  0.29587284016E+02 -0.33092050466E+02 -0.27801720350E+03  0.28156975871E+03  0.41800000000E+01 0.  1.
        -11    1    1    2    0    0 -0.41523804809E+02 -0.15975364049E+02 -0.12880769268E+02  0.46317953746E+02  0.00000000000E+00 0.  1.
         11    1    1    2    0    0  0.27147138837E+02 -0.14507548543E+02 -0.96362245672E+02  0.10115887753E+03  0.00000000000E+00 0. -1.
</event>
<event>
 7    1  0.2723366E-009  0.1079575E+03  0.7561462E-02  0.1264400E+00
          1   -1    0    0  501    0  0.00000000000E+00  0.00000000000E+00  0.15935023851E+03  0.15935023851E+03  0.00000000000E+00 0. -1.
         -1   -1    0    0    0  501 -0.00000000000E+00 -0.00000000000E+00 -0.87935779217E+02  0.87935779217E+02  0.00000000000E+00 0.  1.
         25    2    1    2    0    0  0.25591919982E+02 -0.34207040560E+02  0.62232904678E+02  0.14610003428E+03  0.12508883884E+03 0.  0.
          5    1    3    3  502    0 -0.39126461073E+02 -0.50495903627E+02  0.20241751299E+02  0.67141024232E+02  0.41800000000E+01 0. -1.
         -5    1    3    3    0  502  0.64718381055E+02  0.16288863067E+02  0.41991153380E+02  0.78959010053E+02  0.41800000000E+01 0. -1.
        -11    1    1    2    0    0 -0.38858908015E+02  0.50690338303E+02  0.30822896647E+02  0.70919504278E+02  0.00000000000E+00 0. -1.
         11    1    1    2    0    0  0.13266988032E+02 -0.16483297743E+02 -0.21641342033E+02  0.30266479163E+02  0.00000000000E+00 0.  1.
</event>
<event>
 7    1  0.2723366E-009  0.7535483E+02  0.7561462E-02  0.1342776E+00
          1   -1    0    0  501    0  0.00000000000E+00  0.00000000000E+00  0.29491087949E+03  0.29491087949E+03  0.00000000000E+00 0. -1.
         -1   -1    0    0    0  501 -0.00000000000E+00 -0.00000000000E+00 -0.53930407474E+02  0.53930407474E+02  0.00000000000E+00 0.  1.
         25    2    1    2    0    0 -0.25735769356E+02 -0.55212120577E+02  0.11165079963E+03  0.17839246470E+03  0.12508901759E+03 0.  0.
          5    1    3    3  502    0 -0.20259533479E+02 -0.54491806410E+02 -0.77427063921E+01  0.58798193552E+02  0.41800000000E+01 0.  1.
         -5    1    3    3    0  502 -0.54762358763E+01 -0.72031416613E+00  0.11939350602E+03  0.11959427115E+03  0.41800000000E+01 0.  1.
        -11    1    1    2    0    0 -0.13712164877E+02  0.41543187516E+02  0.11992275668E+03  0.12765315298E+03  0.00000000000E+00 0.  1.
         11    1    1    2    0    0  0.39447934233E+02  0.13668933060E+02  0.94069156989E+01  0.42795669281E+02  0.00000000000E+00 0. -1.
</event>
<event>
 7    1  0.2723366E-009  0.2080400E+03  0.7561462E-02  0.1143128E+00
         -1   -1    0    0    0  501 -0.00000000000E+00  0.00000000000E+00  0.11459282451E+04  0.11459282451E+04  0.00000000000E+00 0.  1.
          1   -1    0    0  501    0  0.00000000000E+00 -0.00000000000E+00 -0.42543099146E+02  0.42543099146E+02  0.00000000000E+00 0. -1.
         25    2    1    2    0    0 -0.18228077127E+03 -0.41899826107E+02  0.68842983940E+03  0.72426915232E+03  0.12509311026E+03 0.  0.
          5    1    3    3  502    0 -0.10005826747E+03  0.29520653494E+02  0.22274125069E+03  0.24599646955E+03  0.41800000000E+01 0.  1.
         -5    1    3    3    0  502 -0.82222503803E+02 -0.71420479600E+02  0.46568858871E+03  0.47827268278E+03  0.41800000000E+01 0.  1.
        -11    1    1    2    0    0  0.57828892652E+02  0.52070072253E+02  0.21291836388E+03  0.22669297062E+03  0.00000000000E+00 0.  1.
         11    1    1    2    0    0  0.12445187862E+03 -0.10170246147E+02  0.20203694267E+03  0.23750922130E+03  0.00000000000E+00 0. -1.
</event>
<event>
 7    1  0.2723366E-009  0.1071792E+03  0.7561462E-02  0.1265885E+00
          2   -1    0    0  501    0  0.00000000000E+00  0.00000000000E+00  0.12077658946E+04  0.12077658946E+04  0.00000000000E+00 0. -1.
         -2   -1    0    0    0  501 -0.00000000000E+00 -0.00000000000E+00 -0.10633707923E+02  0.10633707923E+02  0.00000000000E+00 0.  1.
         25    2    1    2    0    0  0.73759654335E+01  0.12325430739E+02  0.81383309992E+03  0.82351508700E+03  0.12508582203E+03 0.  0.
          5    1    3    3  502    0 -0.49266936229E+02  0.34584462886E+02  0.51472828302E+03  0.51825282809E+03  0.41800000000E+01 0. -1.
         -5    1    3    3    0  502  0.56642901663E+02 -0.22259032147E+02  0.29910481690E+03  0.30526225890E+03  0.41800000000E+01 0. -1.
        -11    1    1    2    0    0 -0.21356395053E+02 -0.49170546991E+02  0.18052614921E+03  0.18831762756E+03  0.00000000000E+00 0.  1.
         11    1    1    2    0    0  0.13980429619E+02  0.36845116251E+02  0.20277293751E+03  0.20656688794E+03  0.00000000000E+00 0. -1.
</event>
<event>
 7    1  0.3860499E-009  0.1187964E+03  0.7561462E-02  0.1245096E+00
          2   -1    0    0  501    0  0.00000000000E+00  0.00000000000E+00  0.15557241144E+04  0.15557241144E+04  0.00000000000E+00 0. -1.
         -2   -1    0    0    0  501 -0.00000000000E+00 -0.00000000000E+00 -0.18467242410E+02  0.18467242410E+02  0.00000000000E+00 0.  1.
         25    2    1    2    0    0 -0.29638381045E+02 -0.81455394376E+02  0.12659074181E+04  0.12750225804E+04  0.12509026538E+03 0.  0.
          5    1    3    3  502    0  0.38898154075E+02  0.19820480865E+01  0.49969177728E+03  0.50122483936E+03  0.41800000000E+01 0.  1.
         -5    1    3    3    0  502 -0.68536535120E+02 -0.83437442462E+02  0.76621564083E+03  0.77379774108E+03  0.41800000000E+01 0.  1.
        -11    1    1    2    0    0  0.67203365275E+01  0.54794516139E+02  0.25406285259E+03  0.25999141329E+03  0.00000000000E+00 0. -1.
         11    1    1    2    0    0  0.22918044518E+02  0.26660878237E+02  0.17286601279E+02  0.39177363064E+02  0.00000000000E+00 0.  1.
</event>
<event>
 7    1  0.2723366E-009  0.2390650E+03  0.7561462E-02  0.1120417E+00
          1   -1    0    0  501    0  0.00000000000E+00  0.00000000000E+00  0.34440999636E+03  0.34440999636E+03  0.00000000000E+00 0. -1.
         -1   -1    0    0    0  501 -0.00000000000E+00 -0.00000000000E+00 -0.18723520231E+03  0.18723520231E+03  0.00000000000E+00 0.  1.
         25    2    1    2    0    0 -0.11918895066E+03  0.17479389646E+03 -0.62294425418E+01  0.24585618812E+03  0.12509015581E+03 0.  0.
          5    1    3    3  502    0 -0.14228793068E+03  0.12582339081E+03  0.64257627757E+01  0.19009509125E+03  0.41800000000E+01 0.  1.
         -5    1    3    3    0  502  0.23098980020E+02  0.48970505651E+02 -0.12655205317E+02  0.55761096862E+02  0.41800000000E+01 0.  1.
        -11    1    1    2    0    0  0.34670854229E+02 -0.13688426918E+03  0.10881387753E+03  0.17826898560E+03  0.00000000000E+00 0. -1.
         11    1    1    2    0    0  0.84518096430E+02 -0.37909627277E+02  0.54590359063E+02  0.10752002496E+03  0.00000000000E+00 0.  1.
</event>
<event>
 7    1  0.2723366E-009  0.1717508E+03  0.7561462E-02  0.1176034E+00
          2   -1    0    0  501    0  0.00000000000E+00  0.00000000000E+00  0.12120344815E+03  0.12120344815E+03  0.00000000000E+00 0. -1.
         -2   -1    0    0    0  501 -0.00000000000E+00 -0.00000000000E+00 -0.35349154991E+03  0.35349154991E+03  0.00000000000E+00 0.  1.
         25    2    1    2    0    0 -0.13818757245E+03  0.84153444449E+02 -0.42774742537E+02  0.20894580402E+03  0.12510420867E+03 0.  0.
          5    1    3    3  502    0 -0.10806113299E+03  0.67321645405E+02 -0.85835146194E+02  0.15360519889E+03  0.41800000000E+01 0.  1.
         -5    1    3    3    0  502 -0.30126439456E+02  0.16831799044E+02  0.43060403657E+02  0.55340605133E+02  0.41800000000E+01 0.  1.
        -11    1    1    2    0    0  0.61472924828E+02  0.73921231827E+01 -0.95197506939E+02  0.11356112583E+03  0.00000000000E+00 0.  1.
         11    1    1    2    0    0  0.76714647619E+02 -0.91545567632E+02 -0.94315852284E+02  0.15218806821E+03  0.00000000000E+00 0. -1.
</event>
<event>
 7    1  0.2723366E-009  0.2410917E+03  0.7561462E-02  0.1119068E+00
         -2   -1    0    0    0  501 -0.00000000000E+00  0.00000000000E+00  0.42025889319E+02  0.42025889319E+02  0.00000000000E+00 0. -1.
          2   -1    0    0  501    0  0.00000000000E+00 -0.00000000000E+00 -0.15929276880E+04  0.15929276880E+04  0.00000000000E+00 0.  1.
         25    2    1    2    0    0 -0.22881784326E+03  0.48353242715E+02 -0.74032800071E+03  0.78640276507E+03  0.12509244101E+03 0.  0.
          5    1    3    3  502    0 -0.12155441731E+03  0.67685716245E+02 -0.27205544826E+03  0.30559527463E+03  0.41800000000E+01 0.  1.
         -5    1    3    3    0  502 -0.10726342595E+03 -0.19332473530E+02 -0.46827255245E+03  0.48080749044E+03  0.41800000000E+01 0.  1.
        -11    1    1    2    0    0  0.11955512041E+03 -0.27707587698E+02 -0.26889853422E+03  0.29558003812E+03  0.00000000000E+00 0. -1.
         11    1    1    2    0    0  0.10926272286E+03 -0.20645655017E+02 -0.54167526372E+03  0.55297077409E+03  0.00000000000E+00 0.  1.
</event>
<event>
 7    1  0.2723366E-009  0.1159347E+03  0.7561462E-02  0.1249958E+00
         -2   -1    0    0    0  501 -0.00000000000E+00  0.00000000000E+00  0.33418681616E+02  0.33418681616E+02  0.00000000000E+00 0.  1.
          2   -1    0    0  501    0  0.00000000000E+00 -0.00000000000E+00 -0.46695869228E+03  0.46695869228E+03  0.00000000000E+00 0. -1.
         25    2    1    2    0    0 -0.34377143684E+02  0.25103431350E+02 -0.16804495317E+03  0.21377113657E+03  0.12508805807E+03 0.  0.
          5    1    3    3  502    0  0.22582741627E+02  0.60600766161E+02 -0.78748072327E+02  0.10198609892E+03  0.41800000000E+01 0.  1.
         -5    1    3    3    0  502 -0.56959885310E+02 -0.35497334811E+02 -0.89296880844E+02  0.11178503765E+03  0.41800000000E+01 0.  1.
        -11    1    1    2    0    0  0.58180235608E+02 -0.41016325392E+02 -0.23130355196E+03  0.24200952856E+03  0.00000000000E+00 0. -1.
         11    1    1    2    0    0 -0.23803091924E+02  0.15912894042E+02 -0.34191505524E+02  0.44596708757E+02  0.00000000000E+00 0.  1.
</event>
<event>
 7    1  0.2723366E-009  0.1073688E+03  0.7561462E-02  0.1265521E+00
         -1   -1    0    0    0  501 -0.00000000000E+00  0.00000000000E+00  0.13484314646E+03  0.13484314646E+03  0.00000000000E+00 0.  1.
          1   -1    0    0  501    0  0.00000000000E+00 -0.00000000000E+00 -0.15023581783E+03  0.15023581783E+03  0.00000000000E+00 0. -1.
         25    2    1    2    0    0  0.16173809709E+02  0.61641750807E+02 -0.74598008858E+02  0.15897595810E+03  0.12508874755E+03 0.  0.
          5    1    3    3  502    0  0.55995398472E+02  0.77493942161E+02 -0.62297465306E+02  0.11418950173E+03  0.41800000000E+01 0. -1.
         -5    1    3    3    0  502 -0.39821588763E+02 -0.15852191354E+02 -0.12300543552E+02  0.44786456368E+02  0.41800000000E+01 0. -1.
        -11    1    1    2    0    0  0.36422052636E+00 -0.59265670867E+02 -0.52675473246E+01  0.59500415584E+02  0.00000000000E+00 0. -1.
         11    1    1    2    0    0 -0.16538030235E+02 -0.23760799402E+01  0.64472884807E+02  0.66602590605E+02  0.00000000000E+00 0.  1.
</event>
<event>
 7    1  0.2723366E-009  0.9689870E+02  0.7561462E-02  0.1286956E+00
         -2   -1    0    0    0  501 -0.00000000000E+00  0.00000000000E+00  0.66076935823E+02  0.66076935823E+02  0.00000000000E+00 0.  1.
          2   -1    0    0  501    0  0.00000000000E+00 -0.00000000000E+00 -0.32207208712E+03  0.32207208712E+03  0.00000000000E+00 0. -1.
         25    2    1    2    0    0 -0.22991551072E+01 -0.49211546815E+02 -0.38057283980E+02  0.13972718227E+03  0.12509302998E+03 0.  0.
          5    1    3    3  502    0 -0.25786809352E+02  0.30780080110E+02 -0.39164030702E+02  0.56246480503E+02  0.41800000000E+01 0. -1.
         -5    1    3    3    0  502  0.23487654245E+02 -0.79991626925E+02  0.11067467217E+01  0.83480701772E+02  0.41800000000E+01 0. -1.
        -11    1    1    2    0    0 -0.21642732609E+02  0.96188556821E+01  0.19072200029E+01  0.23760634410E+02  0.00000000000E+00 0.  1.
         11    1    1    2    0    0  0.23941887716E+02  0.39592691133E+02 -0.21984508732E+03  0.22466120626E+03  0.00000000000E+00 0. -1.
</event>
<event>
 7    1  0.2723366E-009  0.2459166E+03  0.7561462E-02  0.1115913E+00
          3   -1    0    0  501    0  0.00000000000E+00  0.00000000000E+00  0.58954181997E+02  0.58954181997E+02  0.00000000000E+00 0. -1.
         -3   -1    0    0    0  501 -0.00000000000E+00 -0.00000000000E+00 -0.12338253146E+04  0.12338253146E+04  0.00000000000E+00 0.  1.
         25    2    1    2    0    0 -0.14239035283E+03  0.19234551464E+03 -0.46312245834E+03  0.53609878668E+03  0.12509071937E+03 0.  0.
          5    1    3    3  502    0  0.56441117425E+00  0.46937853752E+02 -0.26204974095E+02  0.53922664457E+02  0.41800000000E+01 0.  1.
         -5    1    3    3    0  502 -0.14295476401E+03  0.14540766089E+03 -0.43691748425E+03  0.48217612222E+03  0.41800000000E+01 0.  1.
        -11    1    1    2    0    0  0.30138584067E+02 -0.60527070460E+02 -0.33909218532E+03  0.34576779875E+03  0.00000000000E+00 0.  1.
         11    1    1    2    0    0  0.11225176877E+03 -0.13181844418E+03 -0.37265648898E+03  0.41091291121E+03  0.00000000000E+00 0. -1.
</event>
<event>
 7    1  0.2723366E-009  0.2210353E+03  0.7561462E-02  0.1133114E+00
          1   -1    0    0  501    0  0.00000000000E+00  0.00000000000E+00  0.33929807691E+03  0.33929807691E+03  0.00000000000E+00 0. -1.
         -1   -1    0    0    0  501 -0.00000000000E+00 -0.00000000000E+00 -0.17408634771E+03  0.17408634771E+03  0.00000000000E+00 0.  1.
         25    2    1    2    0    0  0.20377969331E+03  0.36788583217E+02  0.15346570353E+03  0.28649583852E+03  0.12509428472E+03 0.  0.
          5    1    3    3  502    0  0.19422240527E+03  0.17741101737E+02  0.81659930676E+02  0.21147790920E+03  0.41800000000E+01 0. -1.
         -5    1    3    3    0  502  0.95572880426E+01  0.19047481480E+02  0.71805772853E+02  0.75017929327E+02  0.41800000000E+01 0. -1.
        -11    1    1    2    0    0 -0.50116485581E+02 -0.50320815676E+02 -0.75859164441E+01  0.71424034789E+02  0.00000000000E+00 0.  1.
         11    1    1    2    0    0 -0.15366320773E+03  0.13532232459E+02  0.19331942120E+02  0.15546455130E+03  0.00000000000E+00 0. -1.
</event>
<event>
 7    1  0.2723366E-009  0.1082695E+03  0.7561462E-02  0.1263808E+00
         -1   -1    0    0    0  501 -0.00000000000E+00  0.00000000000E+00  0.58796369149E+02  0.58796369149E+02  0.00000000000E+00 0.  1.
          1   -1    0    0  501    0  0.00000000000E+00 -0.00000000000E+00 -0.38433694476E+03  0.38433694476E+03  0.00000000000E+00 0. -1.
         25    2    1    2    0    0 -0.21000947872E+02  0.74665196460E+02 -0.27590834634E+03  0.31271180815E+03  0.12508928013E+03 0.  0.
          5    1    3    3  502    0  0.12719863585E+02 -0.55721529865E+01 -0.18930370821E+03  0.18985839503E+03  0.41800000000E+01 0. -1.
         -5    1    3    3    0  502 -0.33720811456E+02  0.80237349446E+02 -0.86604638123E+02  0.12285341312E+03  0.41800000000E+01 0. -1.
        -11    1    1    2    0    0 -0.32076376005E+02 -0.16194060551E+02  0.21374952977E+01  0.35995977288E+02  0.00000000000E+00 0.  1.
         11    1    1    2    0    0  0.53077323877E+02 -0.58471135909E+02 -0.51769724566E+02  0.94425528466E+02  0.00000000000E+00 0. -1.
</event>
<event>
 7    1  0.2723366E-009  0.1196719E+03  0.7561462E-02  0.1243639E+00
         -1   -1    0    0    0  501 -0.00000000000E+00  0.00000000000E+00  0.27883769380E+03  0.27883769380E+03  0.00000000000E+00 0.  1.
          1   -1    0    0  501    0  0.00000000000E+00 -0.00000000000E+00 -0.87945352651E+02  0.87945352651E+02  0.00000000000E+00 0. -1.
         25    2    1    2    0    0 -0.63401025505E+02 -0.89016611533E+02  0.13612428054E+03  0.21475866409E+03  0.12509123425E+03 0.  0.
          5    1    3    3  502    0 -0.66845511843E+02 -0.47096609124E+02  0.10908017431E+02  0.82600667605E+02  0.41800000000E+01 0.  1.
         -5    1    3    3    0  502  0.34444863375E+01 -0.41920002409E+02  0.12521626311E+03  0.13215799648E+03  0.41800000000E+01 0.  1.
        -11    1    1    2    0    0  0.64393369927E+01  0.38587203076E+02 -0.21213708648E+02  0.44502345294E+02  0.00000000000E+00 0. -1.
         11    1    1    2    0    0  0.56961688512E+02  0.50429408458E+02  0.75981769259E+02  0.10752203707E+03  0.00000000000E+00 0.  1.
</event>
<event>
 7    1  0.2723366E-009  0.1069414E+03  0.7561462E-02  0.1266341E+00
          4   -1    0    0  501    0  0.00000000000E+00  0.00000000000E+00  0.79929411566E+02  0.79929411566E+02  0.00000000000E+00 0. -1.
         -4   -1    0    0    0  501 -0.00000000000E+00 -0.00000000000E+00 -0.15882286429E+03  0.15882286429E+03  0.00000000000E+00 0.  1.
         25    2    1    2    0    0  0.24502151338E+02 -0.45238731945E+01 -0.18840641415E+02  0.12893080368E+03  0.12508941410E+03 0.  0.
          5    1    3    3  502    0  0.48561843770E+02 -0.53222542530E+02 -0.31496535543E+01  0.72237693909E+02  0.41800000000E+01 0.  1.
         -5    1    3    3    0  502 -0.24059692433E+02  0.48698669336E+02 -0.15690987861E+02  0.56693109767E+02  0.41800000000E+01 0.  1.
        -11    1    1    2    0    0  0.73562813565E+01  0.39352235857E+02 -0.45106679409E+02  0.60310246805E+02  0.00000000000E+00 0.  1.
         11    1    1    2    0    0 -0.31858432694E+02 -0.34828362662E+02 -0.14946131901E+02  0.49511225376E+02  0.00000000000E+00 0. -1.
</event>
<event>
 7    1  0.2723366E-009  0.1153333E+03  0.7561462E-02  0.1251000E+00
          1   -1    0    0  501    0  0.00000000000E+00  0.00000000000E+00  0.21585996568E+03  0.21585996568E+03  0.00000000000E+00 0. -1.
         -1   -1    0    0    0  501 -0.00000000000E+00 -0.00000000000E+00 -0.67570278340E+02  0.67570278340E+02  0.00000000000E+00 0.  1.
         25    2    1    2    0    0 -0.49406916666E+02  0.19830784912E+02  0.75656954344E+02  0.15558197863E+03  0.12508986326E+03 0.  0.
          5    1    3    3  502    0 -0.64495263735E+02  0.56343463009E+02  0.21465623028E+02  0.88388179301E+02  0.41800000000E+01 0.  1.
         -5    1    3    3    0  502  0.15088347068E+02 -0.36512678097E+02  0.54191331316E+02  0.67193799333E+02  0.41800000000E+01 0.  1.
        -11    1    1    2    0    0  0.34418813253E+02 -0.56176358460E+02  0.44413489841E+02  0.79454364483E+02  0.00000000000E+00 0.  1.
         11    1    1    2    0    0  0.14988103414E+02  0.36345573548E+02  0.28219243160E+02  0.48393900907E+02  0.00000000000E+00 0. -1.
</event>
<event>
 7    1  0.2723366E-009  0.8543207E+02  0.7561462E-02  0.1314306E+00
         -1   -1    0    0    0  501 -0.00000000000E+00  0.00000000000E+00  0.21094982140E+02  0.21094982140E+02  0.00000000000E+00 0.  1.
          1   -1    0    0  501    0  0.00000000000E+00 -0.00000000000E+00 -0.91728194842E+03  0.91728194842E+03  0.00000000000E+00 0. -1.
         25    2    1    2    0    0 -0.11351846879E+00 -0.81386670032E+02 -0.62703682277E+03  0.64455108031E+03  0.12508842898E+03 0.  0.
          5    1    3    3  502    0 -0.85313674325E+01 -0.54517653939E+02 -0.82920730614E+02  0.99690916270E+02  0.41800000000E+01 0. -1.
         -5    1    3    3    0  502  0.84178489637E+01 -0.26869016094E+02 -0.54411609216E+03  0.54486016404E+03  0.41800000000E+01 0. -1.
        -11    1    1    2    0    0 -0.15178804526E+02  0.33217434066E+02 -0.24423126890E+02  0.43934987878E+02  0.00000000000E+00 0.  1.
         11    1    1    2    0    0  0.15292322995E+02  0.48169235966E+02 -0.24472701662E+03  0.24989086238E+03  0.00000000000E+00 0. -1.
</event>
<event>
 7    1  0.2723366E-009  0.1060097E+03  0.7561462E-02  0.1268143E+00
          1   -1    0    0  501    0  0.00000000000E+00  0.00000000000E+00  0.25756523793E+03  0.25756523793E+03  0.00000000000E+00 0. -1.
         -1   -1    0    0    0  501 -0.00000000000E+00 -0.00000000000E+00 -0.56175527774E+02  0.56175527774E+02  0.00000000000E+00 0.  1.
         25    2    1    2    0    0  0.46892108622E+02 -0.13895208962E+02  0.13548364560E+03  0.19076980666E+03  0.12508139041E+03 0.  0.
          5    1    3    3  502    0  0.43737311475E+02  0.39295601718E+02  0.12223322871E+03  0.13570383683E+03  0.41800000000E+01 0. -1.
         -5    1    3    3    0  502  0.31547971471E+01 -0.53190810680E+02  0.13250416891E+02  0.55065969832E+02  0.41800000000E+01 0. -1.
        -11    1    1    2    0    0 -0.20367103366E+02 -0.36998967837E+02  0.45447172806E+02  0.62041824897E+02  0.00000000000E+00 0.  1.
         11    1    1    2    0    0 -0.26525005256E+02  0.50894176799E+02  0.20458891749E+02  0.60929134143E+02  0.00000000000E+00 0. -1.
</event>
<event>
 7    1  0.2723366E-009  0.2327488E+03  0.7561462E-02  0.1124720E+00
          1   -1    0    0  501    0  0.00000000000E+00  0.00000000000E+00  0.21193843767E+03  0.21193843767E+03  0.00000000000E+00 0. -1.
         -1   -1    0    0    0  501 -0.00000000000E+00 -0.00000000000E+00 -0.26470834190E+03  0.26470834190E+03  0.00000000000E+00 0.  1.
         25    2    1    2    0    0  0.90536083728E+02  0.18952848529E+03 -0.32087648260E+02  0.24656669668E+03  0.12509072527E+03 0.  0.
          5    1    3    3  502    0  0.69967060081E+02  0.20577704878E+03 -0.33655219172E+02  0.21997665667E+03  0.41800000000E+01 0. -1.
         -5    1    3    3    0  502  0.20569023647E+02 -0.16248563491E+02  0.15675709119E+01  0.26590040012E+02  0.41800000000E+01 0. -1.
        -11    1    1    2    0    0 -0.69444168808E+02 -0.18800449037E+03 -0.36442555416E+02  0.20370626113E+03  0.00000000000E+00 0.  1.
         11    1    1    2    0    0 -0.21091914920E+02 -0.15239949253E+01  0.15760299450E+02  0.26373821761E+02  0.00000000000E+00 0. -1.
</event>
<event>
 7    1  0.2723366E-009  0.6257810E+03  0.7561462E-02  0.9853317E-01
         -2   -1    0    0    0  501 -0.00000000000E+00  0.00000000000E+00  0.18235950397E+03  0.18235950397E+03  0.00000000000E+00 0.  1.
          2   -1    0    0  501    0  0.00000000000E+00 -0.00000000000E+00 -0.22262002569E+04  0.22262002569E+04  0.00000000000E+00 0. -1.
         25    2    1    2    0    0  0.12416274066E+03 -0.60952608676E+03 -0.11823945686E+04  0.13418802719E+04  0.12508921443E+03 0.  0.
          5    1    3    3  502    0  0.97660259557E+01 -0.15602247530E+03 -0.41118390506E+03  0.43991824722E+03  0.41800000000E+01 0. -1.
         -5    1    3    3    0  502  0.11439671470E+03 -0.45350361145E+03 -0.77121066356E+03  0.90196202466E+03  0.41800000000E+01 0. -1.
        -11    1    1    2    0    0 -0.49618509234E+02  0.91495468293E+02 -0.11595086122E+03  0.15581405390E+03  0.00000000000E+00 0.  1.
         11    1    1    2    0    0 -0.74544231425E+02  0.51803061846E+03 -0.74549532312E+03  0.91086543512E+03  0.00000000000E+00 0. -1.
</event>
<event>
 7    1  0.2723366E-009  0.2263729E+03  0.7561462E-02  0.1129219E+00
          2   -1    0    0  501    0  0.00000000000E+00  0.00000000000E+00  0.18282003403E+04  0.18282003403E+04  0.00000000000E+00 0. -1.
         -2   -1    0    0    0  501 -0.00000000000E+00 -0.00000000000E+00 -0.35505594332E+02  0.35505594332E+02  0.00000000000E+00 0.  1.
         25    2    1    2    0    0  0.20212651689E+03  0.59487667283E+02  0.58427861315E+03  0.63358048323E+03  0.12509524197E+03 0.  0.
          5    1    3    3  502    0  0.12687125319E+03  0.79630839911E+02  0.26040064595E+03  0.30043860332E+03  0.41800000000E+01 0.  1.
         -5    1    3    3    0  502  0.75255263694E+02 -0.20143172628E+02  0.32387796720E+03  0.33314187991E+03  0.41800000000E+01 0.  1.
        -11    1    1    2    0    0 -0.14036180594E+02  0.16813604417E+02  0.59198828405E+02  0.63120622175E+02  0.00000000000E+00 0. -1.
         11    1    1    2    0    0 -0.18809033629E+03 -0.76301271700E+02  0.11492173044E+04  0.11670048292E+04  0.00000000000E+00 0.  1.
</event>
<event>
 7    1  0.2723366E-009  0.9727646E+02  0.7561462E-02  0.1286130E+00
          1   -1    0    0  501    0  0.00000000000E+00  0.00000000000E+00  0.16641500811E+03  0.16641500811E+03  0.00000000000E+00 0. -1.
         -1   -1    0    0    0  501 -0.00000000000E+00 -0.00000000000E+00 -0.94835245029E+02  0.94835245029E+02  0.00000000000E+00 0.  1.
         25    2    1    2    0    0  0.13626150495E+02 -0.34655199921E+02 -0.97617922217E+01  0.13088386971E+03  0.12509452388E+03 0.  0.
          5    1    3    3  502    0 -0.12852453382E+02 -0.71550991425E+02  0.21106564288E+02  0.75813517185E+02  0.41800000000E+01 0. -1.
         -5    1    3    3    0  502  0.26478603877E+02  0.36895791504E+02 -0.30868356510E+02  0.55070352529E+02  0.41800000000E+01 0. -1.
        -11    1    1    2    0    0 -0.40556114050E+02  0.24298708391E+02  0.35671498640E+01  0.47412552921E+02  0.00000000000E+00 0.  1.
         11    1    1    2    0    0  0.26929963555E+02  0.10356491530E+02  0.77774405436E+02  0.82953830501E+02  0.00000000000E+00 0. -1.
</event>
<event>
 7    1  0.2723366E-009  0.2566359E+03  0.7561462E-02  0.1109181E+00
          2   -1    0    0  501    0  0.00000000000E+00  0.00000000000E+00  0.14389816285E+04  0.14389816285E+04  0.00000000000E+00 0. -1.
         -2   -1    0    0    0  501 -0.00000000000E+00 -0.00000000000E+00 -0.49260753755E+02  0.49260753755E+02  0.00000000000E+00 0.  1.
         25    2    1    2    0    0  0.23143741978E+03  0.65887662721E+02  0.80032408926E+03  0.84502728407E+03  0.12509196454E+03 0.  0.
          5    1    3    3  502    0 -0.12176070567E+02 -0.80840010428E+00  0.13611546854E+02  0.18752514843E+02  0.41800000000E+01 0.  1.
         -5    1    3    3    0  502  0.24361349035E+03  0.66696062825E+02  0.78671254241E+03  0.82627476923E+03  0.41800000000E+01 0.  1.
        -11    1    1    2    0    0 -0.18139725170E+03 -0.24944983340E+02  0.34704265429E+03  0.39238478438E+03  0.00000000000E+00 0.  1.
         11    1    1    2    0    0 -0.50040168079E+02 -0.40942679380E+02  0.24235413121E+03  0.25083031382E+03  0.00000000000E+00 0. -1.
</event>
<event>
 7    1  0.2723366E-009  0.9783299E+02  0.7561462E-02  0.1284920E+00
         -1   -1    0    0    0  501 -0.00000000000E+00  0.00000000000E+00  0.74101875179E+02  0.74101875179E+02  0.00000000000E+00 0.  1.
          1   -1    0    0  501    0  0.00000000000E+00 -0.00000000000E+00 -0.28352579988E+03  0.28352579988E+03  0.00000000000E+00 0. -1.
         25    2    1    2    0    0 -0.80400306611E+02 -0.44490973599E+02 -0.83611094741E+02  0.17629240499E+03  0.12507813900E+03 0.  0.
          5    1    3    3  502    0 -0.70989043787E+02 -0.46871028344E+02  0.66370064028E+01  0.85427512488E+02  0.41800000000E+01 0.  1.
         -5    1    3    3    0  502 -0.94112628239E+01  0.23800547450E+01 -0.90248101144E+02  0.90864892498E+02  0.41800000000E+01 0.  1.
        -11    1    1    2    0    0  0.75738153997E+01  0.22670587636E+02 -0.97213319015E+02  0.10010867903E+03  0.00000000000E+00 0. -1.
         11    1    1    2    0    0  0.72826491211E+02  0.21820385964E+02 -0.28599510941E+02  0.81226591039E+02  0.00000000000E+00 0.  1.
</event>
<event>
 7    1  0.2723366E-009  0.7615031E+02  0.7561462E-02  0.1340345E+00
          2   -1    0    0  501    0  0.00000000000E+00  0.00000000000E+00  0.62526829219E+03  0.62526829219E+03  0.00000000000E+00 0.  1.
         -2   -1    0    0    0  501 -0.00000000000E+00 -0.00000000000E+00 -0.23460357113E+02  0.23460357113E+02  0.00000000000E+00 0. -1.
         25    2    1    2    0    0  0.45392205128E+01 -0.49151599300E+02  0.27860477707E+03  0.30936119771E+03  0.12508894677E+03 0.  0.
          5    1    3    3  502    0  0.69287735540E+01 -0.46459613556E+02  0.29152390577E+03  0.29531366990E+03  0.41800000000E+01 0.  1.
         -5    1    3    3    0  502 -0.23895530412E+01 -0.26919857438E+01 -0.12919128703E+02  0.14047527804E+02  0.41800000000E+01 0.  1.
        -11    1    1    2    0    0  0.39826527153E+02  0.35103173306E+02  0.12560975797E+03  0.13636787136E+03  0.00000000000E+00 0. -1.
         11    1    1    2    0    0 -0.44365747665E+02  0.14048425994E+02  0.19759340004E+03  0.20299958024E+03  0.00000000000E+00 0.  1.
</event>
<event>
 7    1  0.2723366E-009  0.9078952E+02  0.7561462E-02  0.1300951E+00
          1   -1    0    0  501    0  0.00000000000E+00  0.00000000000E+00  0.59899273948E+02  0.59899273948E+02  0.00000000000E+00 0. -1.
         -1   -1    0    0    0  501 -0.00000000000E+00 -0.00000000000E+00 -0.22360280233E+03  0.22360280233E+03  0.00000000000E+00 0.  1.
         25    2    1    2    0    0 -0.14513566359E+01  0.40392172859E+02 -0.99722741980E+02  0.16500373640E+03  0.12509186102E+03 0.  0.
          5    1    3    3  502    0 -0.46163694546E+02 -0.13920447048E+02 -0.75603934441E+01  0.48984665857E+02  0.41800000000E+01 0.  1.
         -5    1    3    3    0  502  0.44712337910E+02  0.54312619907E+02 -0.92162348536E+02  0.11601907054E+03  0.41800000000E+01 0.  1.
        -11    1    1    2    0    0  0.24663770152E+02 -0.22722712885E+02  0.13160494560E+02  0.36025294670E+02  0.00000000000E+00 0. -1.
         11    1    1    2    0    0 -0.23212413516E+02 -0.17669459974E+02 -0.77141280961E+02  0.82473045205E+02  0.00000000000E+00 0.  1.
</event>
<event>
 7    1  0.2723366E-009  0.1221892E+03  0.7561462E-02  0.1239529E+00
          2   -1    0    0  501    0  0.00000000000E+00  0.00000000000E+00  0.91143066265E+02  0.91143066265E+02  0.00000000000E+00 0. -1.
         -2   -1    0    0    0  501 -0.00000000000E+00 -0.00000000000E+00 -0.19766455062E+03  0.19766455062E+03  0.00000000000E+00 0.  1.
         25    2    1    2    0    0 -0.14730630605E+02 -0.77886898270E+02 -0.72674580643E+02  0.16496538512E+03  0.12509445718E+03 0.  0.
          5    1    3    3  502    0  0.35251512450E+02  0.20933293300E+01 -0.59953314887E+02  0.69705979110E+02  0.41800000000E+01 0.  1.
         -5    1    3    3    0  502 -0.49982143055E+02 -0.79980227600E+02 -0.12721265755E+02  0.95259406012E+02  0.41800000000E+01 0.  1.
        -11    1    1    2    0    0 -0.21655542626E+02 -0.64209967034E+01  0.65593316834E+01  0.23520556057E+02  0.00000000000E+00 0. -1.
         11    1    1    2    0    0  0.36386173230E+02  0.84307894973E+02 -0.40406235393E+02  0.10032167570E+03  0.00000000000E+00 0.  1.
</event>
<event>
 7    1  0.2723366E-009  0.3225197E+03  0.7561462E-02  0.1074495E+00
         -2   -1    0    0    0  501 -0.00000000000E+00  0.00000000000E+00  0.68619368301E+02  0.68619368301E+02  0.00000000000E+00 0.  1.
          2   -1    0    0  501    0  0.00000000000E+00 -0.00000000000E+00 -0.15785895694E+04  0.15785895694E+04  0.00000000000E+00 0. -1.
         25    2    1    2    0    0  0.20616152130E+03 -0.23256072866E+03 -0.77149953264E+03  0.84109879833E+03  0.12509434160E+03 0.  0.
          5    1    3    3  502    0 -0.59649155562E+00  0.89747603481E+01 -0.46791187525E+01  0.10966707700E+02  0.41800000000E+01 0.  1.
         -5    1    3    3    0  502  0.20675801285E+03 -0.24153548901E+03 -0.76682041389E+03  0.83013209063E+03  0.41800000000E+01 0.  1.
        -11    1    1    2    0    0 -0.44587811271E+02  0.95023684083E+02 -0.32243149666E+03  0.33908648379E+03  0.00000000000E+00 0. -1.
         11    1    1    2    0    0 -0.16157371003E+03  0.13753704457E+03 -0.41603917176E+03  0.46702365555E+03  0.00000000000E+00 0.  1.
</event>
<event>
 7    1  0.2823656E-009  0.1732984E+03  0.7561462E-02  0.1174451E+00
          2   -1    0    0  501    0  0.00000000000E+00  0.00000000000E+00  0.47957162528E+03  0.47957162528E+03  0.00000000000E+00 0.  1.
         -2   -1    0    0    0  501 -0.00000000000E+00 -0.00000000000E+00 -0.76530658994E+02  0.76530658994E+02  0.00000000000E+00 0. -1.
         25    2    1    2    0    0  0.25691112338E+02 -0.14244670731E+03  0.12157493504E+03  0.22666921745E+03  0.12508945452E+03 0.  0.
          5    1    3    3  502    0 -0.27317438650E+02  0.35812708950E+01 -0.22582856608E+01  0.27957829132E+02  0.41800000000E+01 0.  1.
         -5    1    3    3    0  502  0.53008550988E+02 -0.14602797820E+03  0.12383322070E+03  0.19871138831E+03  0.41800000000E+01 0.  1.
        -11    1    1    2    0    0 -0.51604001550E+02  0.74718684376E+02  0.20413250054E+03  0.22341873813E+03  0.00000000000E+00 0.  1.
         11    1    1    2    0    0  0.25912889212E+02  0.67728022933E+02  0.77333530706E+02  0.10601432870E+03  0.00000000000E+00 0. -1.
</event>
<event>
 7    1  0.2723366E-009  0.2793931E+03  0.7561462E-02  0.1096021E+00
         -1   -1    0    0    0  501 -0.00000000000E+00  0.00000000000E+00  0.55816317888E+03  0.55816317888E+03  0.00000000000E+00 0.  1.
          1   -1    0    0  501    0  0.00000000000E+00 -0.00000000000E+00 -0.17086373779E+03  0.17086373779E+03  0.00000000000E+00 0. -1.
         25    2    1    2    0    0  0.19650118994E+03  0.18145169234E+03  0.32728308919E+03  0.44079244537E+03  0.12508527142E+03 0.  0.
          5    1    3    3  502    0  0.15961085028E+03  0.10154047694E+03  0.28734243552E+03  0.34404831003E+03  0.41800000000E+01 0. -1.
         -5    1    3    3    0  502  0.36890339658E+02  0.79911215405E+02  0.39940653668E+02  0.96744135342E+02  0.41800000000E+01 0. -1.
        -11    1    1    2    0    0 -0.18700571254E+03 -0.12670120710E+03  0.54690049307E+02  0.23241199173E+03  0.00000000000E+00 0.  1.
         11    1    1    2    0    0 -0.94954773984E+01 -0.54750485239E+02  0.53263025918E+01  0.55822479560E+02  0.00000000000E+00 0. -1.
</event>
<event>
 7    1  0.2723366E-009  0.1587851E+03  0.7561462E-02  0.1190075E+00
          2   -1    0    0  501    0  0.00000000000E+00  0.00000000000E+00  0.14900740222E+03  0.14900740222E+03  0.00000000000E+00 0. -1.
         -2   -1    0    0    0  501 -0.00000000000E+00 -0.00000000000E+00 -0.22620856797E+03  0.22620856797E+03  0.00000000000E+00 0.  1.
         25    2    1    2    0    0  0.12703656580E+03  0.33634905328E+02  0.27903739162E+02  0.18356505794E+03  0.12509163013E+03 0.  0.
          5    1    3    3  502    0  0.13325721071E+03  0.56114057167E+02 -0.29274705968E+01  0.14468004044E+03  0.41800000000E+01 0. -1.
         -5    1    3    3    0  502 -0.62206449077E+01 -0.22479151839E+02  0.30831209759E+02  0.38885017496E+02  0.41800000000E+01 0. -1.
        -11    1    1    2    0    0 -0.11056278417E+02  0.18903214302E+02  0.59560509894E+01  0.22694654586E+02  0.00000000000E+00 0. -1.
         11    1    1    2    0    0 -0.11598028739E+03 -0.52538119630E+02 -0.11106095590E+03  0.16895625766E+03  0.00000000000E+00 0.  1.
</event>
<event>
 7    1  0.2723366E-009  0.1317582E+03  0.7561462E-02  0.1224870E+00
          1   -1    0    0  501    0  0.00000000000E+00  0.00000000000E+00  0.39660606420E+03  0.39660606420E+03  0.00000000000E+00 0. -1.
         -1   -1    0    0    0  501 -0.00000000000E+00 -0.00000000000E+00 -0.62557677808E+02  0.62557677808E+02  0.00000000000E+00 0.  1.
         25    2    1    2    0    0  0.10440786001E+03  0.23634933408E+02  0.24395196672E+03  0.29431225599E+03  0.12509009012E+03 0.  0.
          5    1    3    3  502    0  0.98812947403E+02  0.51139795863E+02  0.24137607164E+03  0.26581790319E+03  0.41800000000E+01 0. -1.
         -5    1    3    3    0  502  0.55949126097E+01 -0.27504862455E+02  0.25758950801E+01  0.28494352795E+02  0.41800000000E+01 0. -1.
        -11    1    1    2    0    0 -0.58882183563E+02 -0.44414088422E+02  0.16050750392E+02  0.75480788149E+02  0.00000000000E+00 0.  1.
         11    1    1    2    0    0 -0.45525676449E+02  0.20779155014E+02  0.74045669272E+02  0.89370697867E+02  0.00000000000E+00 0. -1.
</event>
<event>
 7    1  0.2723366E-009  0.8444071E+02  0.7561462E-02  0.1316902E+00
          3   -1    0    0  501    0  0.00000000000E+00  0.00000000000E+00  0.17976039608E+03  0.17976039608E+03  0.00000000000E+00 0. -1.
         -3   -1    0    0    0  501 -0.00000000000E+00 -0.00000000000E+00 -0.92525998062E+02  0.92525998062E+02  0.00000000000E+00 0.  1.
         25    2    1    2    0    0 -0.46784715558E+02  0.53375001836E+02  0.55361664929E+02  0.15409864538E+03  0.12507508998E+03 0.  0.
          5    1    3    3  502    0 -0.49328628565E+02  0.66957892871E+02  0.86320411023E+02  0.11993897937E+03  0.41800000000E+01 0. -1.
         -5    1    3    3    0  502  0.25439130071E+01 -0.13582891035E+02 -0.30958746094E+02  0.34159666011E+02  0.41800000000E+01 0. -1.
        -11    1    1    2    0    0  0.16644127396E+02 -0.15265654674E+02 -0.31233648256E+02  0.38543585365E+02  0.00000000000E+00 0.  1.
         11    1    1    2    0    0  0.30140588161E+02 -0.38109347162E+02  0.63106381342E+02  0.79644163389E+02  0.00000000000E+00 0. -1.
</event>
<event>
 7    1  0.2723366E-009  0.2401694E+03  0.7561462E-02  0.1119680E+00
          1   -1    0    0  501    0  0.00000000000E+00  0.00000000000E+00  0.85353736651E+02  0.85353736651E+02  0.00000000000E+00 0. -1.
         -1   -1    0    0    0  501 -0.00000000000E+00 -0.00000000000E+00 -0.81174563407E+03  0.81174563407E+03  0.00000000000E+00 0.  1.
         25    2    1    2    0    0  0.13158353470E+03  0.18818401239E+03 -0.25917746409E+03  0.36816750262E+03  0.12508758120E+03 0.  0.
          5    1    3    3  502    0 -0.24457213751E+01  0.10141338864E+02  0.12465721618E+02  0.16783769615E+02  0.41800000000E+01 0. -1.
         -5    1    3    3    0  502  0.13402925607E+03  0.17804267353E+03 -0.27164318570E+03  0.35138373301E+03  0.41800000000E+01 0. -1.
        -11    1    1    2    0    0 -0.13631328225E+03 -0.13174852881E+03 -0.38439249227E+03  0.42859838296E+03  0.00000000000E+00 0.  1.
         11    1    1    2    0    0  0.47297475520E+01 -0.56435483582E+02 -0.82821941066E+02  0.10033348514E+03  0.00000000000E+00 0. -1.
</event>
<event>
 7    1  0.2723366E-009  0.8681634E+02  0.7561462E-02  0.1310750E+00
          3   -1    0    0  501    0  0.00000000000E+00  0.00000000000E+00  0.27647584466E+03  0.27647584466E+03  0.00000000000E+00 0. -1.
         -3   -1    0    0    0  501 -0.00000000000E+00 -0.00000000000E+00 -0.76376651022E+02  0.76376651022E+02  0.00000000000E+00 0.  1.
         25    2    1    2    0    0  0.33871351673E+02 -0.27157335236E+02  0.51567384844E+01  0.13251383189E+03  0.12509410206E+03 0.  0.
          5    1    3    3  502    0 -0.40829533561E+01 -0.57068134081E+02  0.42421310406E+02  0.71347616724E+02  0.41800000000E+01 0. -1.
         -5    1    3    3    0  502  0.37954305029E+02  0.29910798844E+02 -0.37264571922E+02  0.61166215171E+02  0.41800000000E+01 0. -1.
        -11    1    1    2    0    0 -0.88642066075E+01  0.39069593933E+02  0.18739472201E+03  0.19162930143E+03  0.00000000000E+00 0. -1.
         11    1    1    2    0    0 -0.25007145066E+02 -0.11912258696E+02  0.75477331478E+01  0.28709362362E+02  0.00000000000E+00 0.  1.
</event>
<event>
 7    1  0.2723366E-009  0.1164867E+03  0.7561462E-02  0.1249008E+00
          1   -1    0    0  501    0  0.00000000000E+00  0.00000000000E+00  0.28089510211E+03  0.28089510211E+03  0.00000000000E+00 0. -1.
         -1   -1    0    0    0  501 -0.00000000000E+00 -0.00000000000E+00 -0.81309441963E+02  0.81309441963E+02  0.00000000000E+00 0.  1.
         25    2    1    2    0    0 -0.33246524213E+02 -0.59407376940E+02  0.19532460858E+03  0.24172950065E+03  0.12508749323E+03 0.  0.
          5    1    3    3  502    0 -0.39732043426E+02 -0.84647515762E+02  0.19388538815E+03  0.21529712803E+03  0.41800000000E+01 0.  1.
         -5    1    3    3    0  502  0.64855192127E+01  0.25240138822E+02  0.14392204310E+01  0.26432372626E+02  0.41800000000E+01 0.  1.
        -11    1    1    2    0    0 -0.27186537896E+02 -0.14335171381E+01 -0.17036898673E+02  0.32115708471E+02  0.00000000000E+00 0.  1.
         11    1    1    2    0    0  0.60433062110E+02  0.60840894078E+02  0.21297950240E+02  0.88359334949E+02  0.00000000000E+00 0. -1.
</event>
<event>
 7    1  0.2723366E-009  0.1449209E+03  0.7561462E-02  0.1206857E+00
         -1   -1    0    0    0  501 -0.00000000000E+00  0.00000000000E+00  0.19175583253E+03  0.19175583253E+03  0.00000000000E+00 0.  1.
          1   -1    0    0  501    0  0.00000000000E+00 -0.00000000000E+00 -0.12463765818E+03  0.12463765818E+03  0.00000000000E+00 0. -1.
         25    2    1    2    0    0  0.56451865565E+02  0.79597956192E+02 -0.14930918761E+02  0.15935143895E+03  0.12508917221E+03 0.  0.
          5    1    3    3  502    0 -0.14227366171E+02 -0.26521949172E+02  0.29679212161E+01  0.30530520670E+02  0.41800000000E+01 0. -1.
         -5    1    3    3    0  502  0.70679231736E+02  0.10611990536E+03 -0.17898839977E+02  0.12882091828E+03  0.41800000000E+01 0. -1.
        -11    1    1    2    0    0 -0.47132396935E+02  0.44310041329E+01  0.16748507683E+02  0.50215626533E+02  0.00000000000E+00 0.  1.
         11    1    1    2    0    0 -0.93194686301E+01 -0.84028960325E+02  0.65300585436E+02  0.10682642523E+03  0.00000000000E+00 0. -1.
</event>
<event>
 7    1  0.2723366E-009  0.1304196E+03  0.7561462E-02  0.1226834E+00
          3   -1    0    0  501    0  0.00000000000E+00  0.00000000000E+00  0.90222780849E+02  0.90222780849E+02  0.00000000000E+00 0. -1.
         -3   -1    0    0    0  501 -0.00000000000E+00 -0.00000000000E+00 -0.26418624263E+03  0.26418624263E+03  0.00000000000E+00 0.  1.
         25    2    1    2    0    0  0.40224379869E+02  0.92318252117E+02 -0.13779521608E+03  0.21160328038E+03  0.12509103199E+03 0.  0.
          5    1    3    3  502    0  0.14837470892E+02  0.97310601277E+02 -0.33497081825E+02  0.10406262804E+03  0.41800000000E+01 0. -1.
         -5    1    3    3    0  502  0.25386908977E+02 -0.49923491598E+01 -0.10429813426E+03  0.10754065235E+03  0.41800000000E+01 0. -1.
        -11    1    1    2    0    0  0.29281756684E+02 -0.37538339798E+02 -0.11241450733E+01  0.47621549023E+02  0.00000000000E+00 0.  1.
         11    1    1    2    0    0 -0.69506136553E+02 -0.54779912319E+02 -0.35044100623E+02  0.95184194069E+02  0.00000000000E+00 0. -1.
</event>
<event>
 7    1  0.2723366E-009  0.1139185E+03  0.7561462E-02  0.1253481E+00
          2   -1    0    0  501    0  0.00000000000E+00  0.00000000000E+00  0.43007960266E+03  0.43007960266E+03  0.00000000000E+00 0. -1.
         -2   -1    0    0    0  501 -0.00000000000E+00 -0.00000000000E+00 -0.45368415367E+02  0.45368415367E+02  0.00000000000E+00 0.  1.
         25    2    1    2    0    0  0.26895449434E+02  0.82971198876E+02  0.19644725477E+03  0.24869013912E+03  0.12509067251E+03 0.  0.
          5    1    3    3  502    0 -0.18638387616E+01 -0.12420465257E+02 -0.11841712606E+02  0.17760642150E+02  0.41800000000E+01 0. -1.
         -5    1    3    3    0  502  0.28759288196E+02  0.95391664133E+02  0.20828896737E+03  0.23092949697E+03  0.41800000000E+01 0. -1.
        -11    1    1    2    0    0 -0.64554973363E+01 -0.92219308531E+02  0.18088804447E+03  0.20314172133E+03  0.00000000000E+00 0.  1.
         11    1    1    2    0    0 -0.20439952098E+02  0.92481096546E+01  0.73758880528E+01  0.23616157573E+02  0.00000000000E+00 0. -1.
</event>
<event>
 7    1  0.2723366E-009  0.1093674E+03  0.7561462E-02  0.1261746E+00
          1   -1    0    0  501    0  0.00000000000E+00  0.00000000000E+00  0.51159800023E+03  0.51159800023E+03  0.00000000000E+00 0. -1.
         -1   -1    0    0    0  501 -0.00000000000E+00 -0.00000000000E+00 -0.28246220222E+02  0.28246220222E+02  0.00000000000E+00 0.  1.
         25    2    1    2    0    0  0.27877820330E+02  0.37905636987E+02  0.22340617961E+03  0.26033195526E+03  0.12509354764E+03 0.  0.
          5    1    3    3  502    0 -0.73548391495E+01  0.68986175406E+02  0.19060072070E+03  0.20287753249E+03  0.41800000000E+01 0. -1.
         -5    1    3    3    0  502  0.35232659480E+02 -0.31080538420E+02  0.32805458908E+02  0.57454422777E+02  0.41800000000E+01 0. -1.
        -11    1    1    2    0    0 -0.34270343029E+02 -0.65400592107E+02  0.20162739394E+03  0.21472144711E+03  0.00000000000E+00 0. -1.
         11    1    1    2    0    0  0.63925226988E+01  0.27494955120E+02  0.58318206461E+02  0.64790818087E+02  0.00000000000E+00 0.  1.
</event>
<event>
 7    1  0.2723366E-009  0.1160368E+03  0.7561462E-02  0.1249782E+00
         -3   -1    0    0    0  501 -0.00000000000E+00  0.00000000000E+00  0.45597931899E+03  0.45597931899E+03  0.00000000000E+00 0.  1.
          3   -1    0    0  501    0  0.00000000000E+00 -0.00000000000E+00 -0.47400436677E+02  0.47400436677E+02  0.00000000000E+00 0. -1.
         25    2    1    2    0    0 -0.42067603921E+02  0.75542238587E+02  0.13854637667E+03  0.20571537902E+03  0.12508959016E+03 0.  0.
          5    1    3    3  502    0  0.10005382892E+02  0.48594133785E+02  0.13824019179E+03  0.14693304786E+03  0.41800000000E+01 0. -1.
         -5    1    3    3    0  502 -0.52072986813E+02  0.26948104802E+02  0.30618488029E+00  0.58782331165E+02  0.41800000000E+01 0. -1.
        -11    1    1    2    0    0  0.35519881161E+02 -0.95821357499E+02  0.20210365852E+03  0.22647137413E+03  0.00000000000E+00 0. -1.
         11    1    1    2    0    0  0.65477227608E+01  0.20279118912E+02  0.67928847119E+02  0.71193002522E+02  0.00000000000E+00 0.  1.
</event>
<event>
 7    1  0.2723366E-009  0.2148719E+03  0.7561462E-02  0.1137765E+00
          1   -1    0    0  501    0  0.00000000000E+00  0.00000000000E+00  0.40498471440E+03  0.40498471440E+03  0.00000000000E+00 0.  1.
         -1   -1    0    0    0  501 -0.00000000000E+00 -0.00000000000E+00 -0.23426298581E+03  0.23426298581E+03  0.00000000000E+00 0. -1.
         25    2    1    2    0    0  0.15415570937E+03 -0.14270655279E+03  0.29129428204E+03  0.38030646019E+03  0.12510596297E+03 0.  0.
          5    1    3    3  502    0  0.58517885017E+02 -0.63615507958E+02  0.31022302701E+02  0.91930035268E+02  0.41800000000E+01 0. -1.
         -5    1    3    3    0  502  0.95637824350E+02 -0.79091044830E+02  0.26027197934E+03  0.28837642492E+03  0.41800000000E+01 0. -1.
        -11    1    1    2    0    0 -0.41446145623E+02  0.79884322180E+02 -0.87974130556E+02  0.12585203838E+03  0.00000000000E+00 0. -1.
         11    1    1    2    0    0 -0.11270956374E+03  0.62822230607E+02 -0.32598422897E+02  0.13308920164E+03  0.00000000000E+00 0.  1.
</event>
<event>
 7    1  0.2723366E-009  0.7630260E+02  0.7561462E-02  0.1339884E+00
          1   -1    0    0  501    0  0.00000000000E+00  0.00000000000E+00  0.20105154228E+02  0.20105154228E+02  0.00000000000E+00 0. -1.
         -1   -1    0    0    0  501 -0.00000000000E+00 -0.00000000000E+00 -0.59415166587E+03  0.59415166587E+03  0.00000000000E+00 0.  1.
         25    2    1    2    0    0  0.10402422811E+02 -0.10889492365E+02 -0.33907659477E+03  0.36172872630E+03  0.12509173780E+03 0.  0.
          5    1    3    3  502    0 -0.32931249304E+02 -0.17227661038E+02 -0.25935712113E+02  0.45512559238E+02  0.41800000000E+01 0.  1.
         -5    1    3    3    0  502  0.43333672115E+02  0.63381686731E+01 -0.31314088265E+03  0.31621616706E+03  0.41800000000E+01 0.  1.
        -11    1    1    2    0    0 -0.39681300521E+02 -0.79056554980E+00 -0.20575898339E+03  0.20955187866E+03  0.00000000000E+00 0.  1.
         11    1    1    2    0    0  0.29278877710E+02  0.11680057914E+02 -0.29210933493E+02  0.42976215147E+02  0.00000000000E+00 0. -1.
</event>
<event>
 7    1  0.2723366E-009  0.9153999E+02  0.7561462E-02  0.1299165E+00
         -2   -1    0    0    0  501 -0.00000000000E+00  0.00000000000E+00  0.12887013790E+03  0.12887013790E+03  0.00000000000E+00 0. -1.
          2   -1    0    0  501    0  0.00000000000E+00 -0.00000000000E+00 -0.16550949259E+03  0.16550949259E+03  0.00000000000E+00 0.  1.
         25    2    1    2    0    0 -0.59219538403E+02 -0.38050369104E+01  0.56827201435E+02  0.14966044561E+03  0.12508991216E+03 0.  0.
          5    1    3    3  502    0 -0.47589797539E+02  0.48746242694E+02  0.65950565873E+02  0.94910139319E+02  0.41800000000E+01 0.  1.
         -5    1    3    3    0  502 -0.11629740864E+02 -0.52551279604E+02 -0.91233644378E+01  0.54750306294E+02  0.41800000000E+01 0.  1.
        -11    1    1    2    0    0  0.40089843228E+02 -0.37714167902E+01 -0.11075307870E+03  0.11784593143E+03  0.00000000000E+00 0.  1.
         11    1    1    2    0    0  0.19129695175E+02  0.75764537006E+01  0.17286522574E+02  0.26873253448E+02  0.00000000000E+00 0. -1.
</event>
<event>
 7    1  0.2723366E-009  0.9506510E+02  0.7561462E-02  0.1291030E+00
          2   -1    0    0  501    0  0.00000000000E+00  0.00000000000E+00  0.28115715593E+03  0.28115715593E+03  0.00000000000E+00 0. -1.
         -2   -1    0    0    0  501 -0.00000000000E+00 -0.00000000000E+00 -0.48231703145E+02  0.48231703145E+02  0.00000000000E+00 0.  1.
         25    2    1    2    0    0  0.26875939379E+02 -0.66674890709E+01  0.14084262926E+03  0.19039760009E+03  0.12509128017E+03 0.  0.
          5    1    3    3  502    0 -0.52919113015E+01  0.45275005565E+02  0.11528314811E+03  0.12403832912E+03  0.41800000000E+01 0. -1.
         -5    1    3    3    0  502  0.32167850680E+02 -0.51942494636E+02  0.25559481149E+02  0.66359270965E+02  0.41800000000E+01 0. -1.
        -11    1    1    2    0    0 -0.12146373908E+02 -0.35991570844E+02  0.17664993380E+01  0.38026939015E+02  0.00000000000E+00 0.  1.
         11    1    1    2    0    0 -0.14729565471E+02  0.42659059915E+02  0.90316324189E+02  0.10096431997E+03  0.00000000000E+00 0. -1.
</event>
<event>
 7    1  0.2723366E-009  0.9273599E+02  0.7561462E-02  0.1296358E+00
         -1   -1    0    0    0  501 -0.00000000000E+00  0.00000000000E+00  0.15316121438E+03  0.15316121438E+03  0.00000000000E+00 0.  1.
          1   -1    0    0  501    0  0.00000000000E+00 -0.00000000000E+00 -0.14117861639E+03  0.14117861639E+03  0.00000000000E+00 0. -1.
         25    2    1    2    0    0 -0.12515837852E+02  0.45036257772E+02  0.93325212221E+02  0.16291454844E+03  0.12508654662E+03 0.  0.
          5    1    3    3  502    0  0.75378949904E+00 -0.34542327623E+02 -0.55399293838E+01  0.35240655695E+02  0.41800000000E+01 0. -1.
         -5    1    3    3    0  502 -0.13269627351E+02  0.79578585395E+02  0.98865141604E+02  0.12767389274E+03  0.41800000000E+01 0. -1.
        -11    1    1    2    0    0 -0.14868919549E+02  0.24478891559E+01  0.14565563902E+02  0.20957876363E+02  0.00000000000E+00 0.  1.
         11    1    1    2    0    0  0.27384757401E+02 -0.47484146928E+02 -0.95908178140E+02  0.11046740597E+03  0.00000000000E+00 0. -1.
</event>
<event>
 7    1  0.2723366E-009  0.1250422E+03  0.7561462E-02  0.1235003E+00
          1   -1    0    0  501    0  0.00000000000E+00  0.00000000000E+00  0.11049959212E+03  0.11049959212E+03  0.00000000000E+00 0. -1.
         -1   -1    0    0    0  501 -0.00000000000E+00 -0.00000000000E+00 -0.16302059020E+03  0.16302059020E+03  0.00000000000E+00 0.  1.
         25    2    1    2    0    0  0.75454667822E+02 -0.32383741085E+01 -0.29504417541E+02  0.14907571452E+03  0.12509661883E+03 0.  0.
          5    1    3    3  502    0  0.91941097622E+02 -0.40794899681E+02 -0.43214669906E+01  0.10076475946E+03  0.41800000000E+01 0.  1.
         -5    1    3    3    0  502 -0.16486429800E+02  0.37556525572E+02 -0.25182950550E+02  0.48310955063E+02  0.41800000000E+01 0.  1.
        -11    1    1    2    0    0 -0.21839513325E+02  0.38323541984E+02 -0.38474570295E+02  0.58531621982E+02  0.00000000000E+00 0.  1.
         11    1    1    2    0    0 -0.53615154497E+02 -0.35085167875E+02  0.15457989747E+02  0.65912845816E+02  0.00000000000E+00 0. -1.
</event>
<event>
 7    1  0.2723366E-009  0.9018056E+02  0.7561462E-02  0.1302415E+00
         -1   -1    0    0    0  501 -0.00000000000E+00  0.00000000000E+00  0.83729411905E+02  0.83729411905E+02  0.00000000000E+00 0.  1.
          1   -1    0    0  501    0  0.00000000000E+00 -0.00000000000E+00 -0.25706424773E+03  0.25706424773E+03  0.00000000000E+00 0. -1.
         25    2    1    2    0    0  0.46616061642E+02  0.15049170427E+02  0.63370422326E+01  0.13448801152E+03  0.12508929773E+03 0.  0.
          5    1    3    3  502    0  0.28232418164E+02  0.44239235037E+02 -0.47170348902E+02  0.70687294244E+02  0.41800000000E+01 0.  1.
         -5    1    3    3    0  502  0.18383643478E+02 -0.29190064610E+02  0.53507391134E+02  0.63800717280E+02  0.41800000000E+01 0.  1.
        -11    1    1    2    0    0 -0.19294303845E+02  0.32691037542E+02 -0.35405590676E+02  0.51908861936E+02  0.00000000000E+00 0.  1.
         11    1    1    2    0    0 -0.27321757797E+02 -0.47740207969E+02 -0.14426628739E+03  0.15439678618E+03  0.00000000000E+00 0. -1.
</event>
<event>
 7    1  0.2723366E-009  0.2385040E+03  0.7561462E-02  0.1120793E+00
          1   -1    0    0  501    0  0.00000000000E+00  0.00000000000E+00  0.19483335456E+04  0.19483335456E+04  0.00000000000E+00 0. -1.
         -1   -1    0    0    0  501 -0.00000000000E+00 -0.00000000000E+00 -0.34659478272E+02  0.34659478272E+02  0.00000000000E+00 0.  1.
         25    2    1    2    0    0  0.21272989947E+03  0.41789078791E+02  0.13382512327E+04  0.13614566733E+04  0.12509026347E+03 0.  0.
          5    1    3    3  502    0  0.12436306196E+03 -0.33836092362E+02  0.56738529218E+03  0.58185444443E+03  0.41800000000E+01 0.  1.
         -5    1    3    3    0  502  0.88366837514E+02  0.75625171154E+02  0.77086594056E+03  0.77960222883E+03  0.41800000000E+01 0.  1.
        -11    1    1    2    0    0 -0.45779641951E+02  0.24641846628E+02  0.17685917593E+03  0.18434251906E+03  0.00000000000E+00 0.  1.
         11    1    1    2    0    0 -0.16695025752E+03 -0.66430925420E+02  0.39856365864E+03  0.43719383153E+03  0.00000000000E+00 0. -1.
</event>
<event>
 7    1  0.2723366E-009  0.1484553E+03  0.7561462E-02  0.1202384E+00
         -1   -1    0    0    0  501 -0.00000000000E+00  0.00000000000E+00  0.11663376385E+03  0.11663376385E+03  0.00000000000E+00 0.  1.
          1   -1    0    0  501    0  0.00000000000E+00 -0.00000000000E+00 -0.24699478211E+03  0.24699478211E+03  0.00000000000E+00 0. -1.
         25    2    1    2    0    0  0.43588728943E+02 -0.12284181290E+03 -0.78509757056E+02  0.19697486794E+03  0.12508088726E+03 0.  0.
          5    1    3    3  502    0  0.45263243910E+02 -0.26266914436E+02 -0.85186688787E+02  0.10006476098E+03  0.41800000000E+01 0. -1.
         -5    1    3    3    0  502 -0.16745149670E+01 -0.96574898460E+02  0.66769317314E+01  0.96910106957E+02  0.41800000000E+01 0. -1.
        -11    1    1    2    0    0 -0.10207614662E+02  0.11224563535E+03 -0.63965718539E+02  0.12959510484E+03  0.00000000000E+00 0. -1.
         11    1    1    2    0    0 -0.33381114280E+02  0.10596177551E+02  0.12114457333E+02  0.37058573175E+02  0.00000000000E+00 0.  1.
</event>
<event>
 7    1  0.2723366E-009  0.1191554E+03  0.7561462E-02  0.1244497E+00
         -2   -1    0    0    0  501 -0.00000000000E+00  0.00000000000E+00  0.10387133008E+03  0.10387133008E+03  0.00000000000E+00 0.  1.
          2   -1    0    0  501    0  0.00000000000E+00 -0.00000000000E+00 -0.17329453616E+03  0.17329453616E+03  0.00000000000E+00 0. -1.
         25    2    1    2    0    0  0.62742285779E+02 -0.47737807795E+02 -0.35880918060E+02  0.15215126361E+03  0.12508826492E+03 0.  0.
          5    1    3    3  502    0  0.37881580358E+02 -0.86947820743E+02 -0.44334920674E+02  0.10477592879E+03  0.41800000000E+01 0.  1.
         -5    1    3    3    0  502  0.24860705421E+02  0.39210012948E+02  0.84540026141E+01  0.47375334823E+02  0.41800000000E+01 0.  1.
        -11    1    1    2    0    0 -0.27123841290E+02  0.54157177993E+02  0.16944574980E+02  0.62895320301E+02  0.00000000000E+00 0.  1.
         11    1    1    2    0    0 -0.35618444489E+02 -0.64193701973E+01 -0.50486862999E+02  0.62119282329E+02  0.00000000000E+00 0. -1.
</event>
<event>
 7    1  0.2723366E-009  0.1650574E+03  0.7561462E-02  0.1183102E+00
         -2   -1    0    0    0  501 -0.00000000000E+00  0.00000000000E+00  0.49233334347E+03  0.49233334347E+03  0.00000000000E+00 0.  1.
          2   -1    0    0  501    0  0.00000000000E+00 -0.00000000000E+00 -0.67109006667E+02  0.67109006667E+02  0.00000000000E+00 0. -1.
         25    2    1    2    0    0  0.44640555200E+02  0.12063659671E+03  0.32887905442E+03  0.37464059815E+03  0.12509267649E+03 0.  0.
          5    1    3    3  502    0 -0.12122139014E+02 -0.18789712990E+02  0.17310201428E+02  0.28585224190E+02  0.41800000000E+01 0. -1.
         -5    1    3    3    0  502  0.56762694214E+02  0.13942630970E+03  0.31156885299E+03  0.34605537396E+03  0.41800000000E+01 0. -1.
        -11    1    1    2    0    0  0.22783570817E+02 -0.56489167181E+01  0.76345511457E+01  0.24683754384E+02  0.00000000000E+00 0. -1.
         11    1    1    2    0    0 -0.67424126017E+02 -0.11498768000E+03  0.88710731238E+02  0.16011799760E+03  0.00000000000E+00 0.  1.
</event>
<event>
 7    1  0.2723366E-009  0.7887560E+02  0.7561462E-02  0.1332273E+00
         -3   -1    0    0    0  501 -0.00000000000E+00  0.00000000000E+00  0.38400970514E+02  0.38400970514E+02  0.00000000000E+00 0.  1.
          3   -1    0    0  501    0  0.00000000000E+00 -0.00000000000E+00 -0.37972376966E+03  0.37972376966E+03  0.00000000000E+00 0. -1.
         25    2    1    2    0    0  0.12775815772E+01  0.27468704026E+02 -0.26911584636E+03  0.29804181614E+03  0.12509765582E+03 0.  0.
          5    1    3    3  502    0  0.32803656027E+02  0.11757213922E+01 -0.25066722852E+03  0.25284183599E+03  0.41800000000E+01 0. -1.
         -5    1    3    3    0  502 -0.31526074450E+02  0.26292982634E+02 -0.18448617841E+02  0.45199980158E+02  0.41800000000E+01 0. -1.
        -11    1    1    2    0    0  0.32163596313E+02  0.95105154419E+01 -0.15105607199E+01  0.33574225612E+02  0.00000000000E+00 0.  1.
         11    1    1    2    0    0 -0.33441177891E+02 -0.36979219468E+02 -0.70696392059E+02  0.86508698414E+02  0.00000000000E+00 0. -1.
</event>
<event>
 7    1  0.2723366E-009  0.3247895E+03  0.7561462E-02  0.1073466E+00
         -2   -1    0    0    0  501 -0.00000000000E+00  0.00000000000E+00  0.53012116044E+02  0.53012116044E+02  0.00000000000E+00 0.  1.
          2   -1    0    0  501    0  0.00000000000E+00 -0.00000000000E+00 -0.23218537528E+04  0.23218537528E+04  0.00000000000E+00 0. -1.
         25    2    1    2    0    0 -0.31556779587E+03 -0.15328816259E+02 -0.79117115890E+03  0.86105578146E+03  0.12508896721E+03 0.  0.
          5    1    3    3  502    0 -0.23584786480E+03  0.18009669309E+02 -0.68135741880E+03  0.72125860000E+03  0.41800000000E+01 0. -1.
         -5    1    3    3    0  502 -0.79719931077E+02 -0.33338485568E+02 -0.10981374009E+03  0.13979718146E+03  0.41800000000E+01 0. -1.
        -11    1    1    2    0    0  0.44924337412E+02 -0.27221894928E+02 -0.17859028831E+03  0.18615509323E+03  0.00000000000E+00 0.  1.
         11    1    1    2    0    0  0.27064345846E+03  0.42550711187E+02 -0.12990801896E+04  0.13276549942E+04  0.00000000000E+00 0. -1.
</event>
<event>
 7    1  0.2723366E-009  0.1125389E+03  0.7561462E-02  0.1255939E+00
         -2   -1    0    0    0  501 -0.00000000000E+00  0.00000000000E+00  0.43475942265E+02  0.43475942265E+02  0.00000000000E+00 0.  1.
          2   -1    0    0  501    0  0.00000000000E+00 -0.00000000000E+00 -0.31965122326E+03  0.31965122326E+03  0.00000000000E+00 0. -1.
         25    2    1    2    0    0  0.43018445955E+02 -0.24904024119E+02 -0.17814880656E+03  0.22328403661E+03  0.12509183274E+03 0.  0.
          5    1    3    3  502    0  0.77400840367E+02  0.13128742877E+02 -0.13463377004E+03  0.15590695435E+03  0.41800000000E+01 0. -1.
         -5    1    3    3    0  502 -0.34382394412E+02 -0.38032766996E+02 -0.43515036519E+02  0.67377082262E+02  0.41800000000E+01 0. -1.
        -11    1    1    2    0    0  0.17078254831E+02  0.30195596233E+02 -0.16479710384E+02  0.38406010913E+02  0.00000000000E+00 0.  1.
         11    1    1    2    0    0 -0.60096700787E+02 -0.52915721139E+01 -0.81546764046E+02  0.10143711800E+03  0.00000000000E+00 0. -1.
</event>
<event>
 7    1  0.2723366E-009  0.1021948E+03  0.7561462E-02  0.1275747E+00
         -2   -1    0    0    0  501 -0.00000000000E+00  0.00000000000E+00  0.48654746485E+02  0.48654746485E+02  0.00000000000E+00 0.  1.
          2   -1    0    0  501    0  0.00000000000E+00 -0.00000000000E+00 -0.24683821994E+03  0.24683821994E+03  0.00000000000E+00 0. -1.
         25    2    1    2    0    0  0.26709507381E+02  0.78145737902E+01 -0.13738172210E+03  0.18787029469E+03  0.12508814777E+03 0.  0.
          5    1    3    3  502    0 -0.43519530873E+02 -0.17493987654E+02 -0.82964113643E+02  0.95396570819E+02  0.41800000000E+01 0. -1.
         -5    1    3    3    0  502  0.70229038254E+02  0.25308561445E+02 -0.54417608461E+02  0.92473723874E+02  0.41800000000E+01 0. -1.
        -11    1    1    2    0    0 -0.51090533658E+02  0.10350632602E+02 -0.18056203795E+02  0.55167061913E+02  0.00000000000E+00 0.  1.
         11    1    1    2    0    0  0.24381026276E+02 -0.18165206392E+02 -0.42745547551E+02  0.52455609814E+02  0.00000000000E+00 0. -1.
</event>
<event>
 7    1  0.3629905E-009  0.1087843E+03  0.7561462E-02  0.1262838E+00
          1   -1    0    0  501    0  0.00000000000E+00  0.00000000000E+00  0.80484474493E+02  0.80484474493E+02  0.00000000000E+00 0. -1.
         -1   -1    0    0    0  501 -0.00000000000E+00 -0.00000000000E+00 -0.22401521395E+03  0.22401521395E+03  0.00000000000E+00 0.  1.
         25    2    1    2    0    0 -0.78750873534E+02  0.62054278398E+00 -0.87376967432E+02  0.17171158721E+03  0.12509216438E+03 0.  0.
          5    1    3    3  502    0 -0.17212474637E+02 -0.44016876160E+02 -0.82806818756E+02  0.95436870770E+02  0.41800000000E+01 0.  1.
         -5    1    3    3    0  502 -0.61538398896E+02  0.44637418944E+02 -0.45701486762E+01  0.76274716437E+02  0.41800000000E+01 0.  1.
        -11    1    1    2    0    0  0.50532596649E+02 -0.25285255437E+02 -0.72484041166E+02  0.91906603084E+02  0.00000000000E+00 0.  1.
         11    1    1    2    0    0  0.28218276885E+02  0.24664712653E+02  0.16330269143E+02  0.40881498149E+02  0.00000000000E+00 0. -1.
</event>
<event>
 7    1  0.2723366E-009  0.2131979E+03  0.7561462E-02  0.1139058E+00
          2   -1    0    0  501    0  0.00000000000E+00  0.00000000000E+00  0.33474526077E+03  0.33474526077E+03  0.00000000000E+00 0. -1.
         -2   -1    0    0    0  501 -0.00000000000E+00 -0.00000000000E+00 -0.16171510673E+03  0.16171510673E+03  0.00000000000E+00 0.  1.
         25    2    1    2    0    0  0.92531291721E+02  0.16486170332E+03  0.17487559079E+03  0.28630578094E+03  0.12509239296E+03 0.  0.
          5    1    3    3  502    0  0.11589752645E+03  0.12729771397E+03  0.16935714352E+03  0.24152900256E+03  0.41800000000E+01 0. -1.
         -5    1    3    3    0  502 -0.23366234729E+02  0.37563989346E+02  0.55184472676E+01  0.44776778371E+02  0.41800000000E+01 0. -1.
        -11    1    1    2    0    0  0.45924683171E+01 -0.81883674993E+02 -0.69734156711E+01  0.82308295583E+02  0.00000000000E+00 0. -1.
         11    1    1    2    0    0 -0.97123760038E+02 -0.82978028322E+02  0.51279789242E+01  0.12784629097E+03  0.00000000000E+00 0.  1.
</event>
<event>
 7    1  0.2723366E-009  0.1425852E+03  0.7561462E-02  0.1209892E+00
         -2   -1    0    0    0  501 -0.00000000000E+00  0.00000000000E+00  0.49678117152E+03  0.49678117152E+03  0.00000000000E+00 0.  1.
          2   -1    0    0  501    0  0.00000000000E+00 -0.00000000000E+00 -0.65611119688E+02  0.65611119688E+02  0.00000000000E+00 0. -1.
         25    2    1    2    0    0 -0.33384649635E+02 -0.10539182284E+03  0.36502545665E+03  0.40138932424E+03  0.12509130449E+03 0.  0.
          5    1    3    3  502    0 -0.59932714825E+01 -0.11024830997E+03  0.35455638320E+03  0.37137354567E+03  0.41800000000E+01 0. -1.
         -5    1    3    3    0  502 -0.27391378152E+02  0.48564871300E+01  0.10469073445E+02  0.30015778569E+02  0.41800000000E+01 0. -1.
        -11    1    1    2    0    0  0.61511445902E+02  0.35059249516E+02  0.36549496769E+02  0.79678570944E+02  0.00000000000E+00 0.  1.
         11    1    1    2    0    0 -0.28126796267E+02  0.70332573325E+02  0.29595098418E+02  0.81324396027E+02  0.00000000000E+00 0. -1.
</event>
<event>
 7    1  0.2723366E-009  0.1063244E+03  0.7561462E-02  0.1267532E+00
         -1   -1    0    0    0  501 -0.00000000000E+00  0.00000000000E+00  0.18371687575E+02  0.18371687575E+02  0.00000000000E+00 0.  1.
          1   -1    0    0  501    0  0.00000000000E+00 -0.00000000000E+00 -0.67437972859E+03  0.67437972859E+03  0.00000000000E+00 0. -1.
         25    2    1    2    0    0  0.80491393252E+01 -0.16816361146E+02 -0.35271519947E+03  0.37470431956E+03  0.12509091298E+03 0.  0.
          5    1    3    3  502    0 -0.33528290474E+02  0.36249418978E+02 -0.83065320665E+02  0.96723764068E+02  0.41800000000E+01 0.  1.
         -5    1    3    3    0  502  0.41577429799E+02 -0.53065780124E+02 -0.26964987881E+03  0.27798055549E+03  0.41800000000E+01 0.  1.
        -11    1    1    2    0    0  0.27032685477E+02  0.43677702042E+02 -0.17313226762E+03  0.18059149989E+03  0.00000000000E+00 0.  1.
         11    1    1    2    0    0 -0.35081824803E+02 -0.26861340896E+02 -0.13016057392E+03  0.13745559672E+03  0.00000000000E+00 0. -1.
</event>
<event>
 7    1  0.2723366E-009  0.9018325E+02  0.7561462E-02  0.1302409E+00
          2   -1    0    0  501    0  0.00000000000E+00  0.00000000000E+00  0.19081641617E+02  0.19081641617E+02  0.00000000000E+00 0. -1.
         -2   -1    0    0    0  501 -0.00000000000E+00 -0.00000000000E+00 -0.67282470766E+03  0.67282470766E+03  0.00000000000E+00 0.  1.
         25    2    1    2    0    0  0.22740046838E+02 -0.62644763178E+01 -0.38499954476E+03  0.40549769115E+03  0.12508946666E+03 0.  0.
          5    1    3    3  502    0  0.41172161113E+02 -0.34185450797E+02 -0.67632872861E+02  0.86345062327E+02  0.41800000000E+01 0. -1.
         -5    1    3    3    0  502 -0.18432114275E+02  0.27920974480E+02 -0.31736667190E+03  0.31915262882E+03  0.41800000000E+01 0. -1.
        -11    1    1    2    0    0  0.20851169712E+02  0.35015607853E+02 -0.70784210630E+02  0.81677833873E+02  0.00000000000E+00 0. -1.
         11    1    1    2    0    0 -0.43591216550E+02 -0.28751131535E+02 -0.19795931065E+03  0.20473082425E+03  0.00000000000E+00 0.  1.
</event>
<event>
 7    1  0.2723366E-009  0.1352906E+03  0.7561462E-02  0.1219810E+00
         -2   -1    0    0    0  501 -0.00000000000E+00  0.00000000000E+00  0.17226205784E+02  0.17226205784E+02  0.00000000000E+00 0.  1.
          2   -1    0    0  501    0  0.00000000000E+00 -0.00000000000E+00 -0.18696788127E+04  0.18696788127E+04  0.00000000000E+00 0. -1.
         25    2    1    2    0    0  0.94720179741E+02  0.23303671975E+02 -0.15303130422E+04  0.15385125273E+04  0.12509123020E+03 0.  0.
          5    1    3    3  502    0  0.55339219737E+02 -0.40445671231E+02 -0.41197362465E+03  0.41765778021E+03  0.41800000000E+01 0. -1.
         -5    1    3    3    0  502  0.39380960004E+02  0.63749343206E+02 -0.11183394176E+04  0.11208547471E+04  0.41800000000E+01 0. -1.
        -11    1    1    2    0    0 -0.76457024822E+02  0.20707072634E+02 -0.14815690183E+03  0.16800275909E+03  0.00000000000E+00 0.  1.
         11    1    1    2    0    0 -0.18263154919E+02 -0.44010744609E+02 -0.17398266281E+03  0.18038973205E+03  0.00000000000E+00 0. -1.
</event>
<event>
 7    1  0.2723366E-009  0.1371087E+03  0.7561462E-02  0.1217273E+00
         -2   -1    0    0    0  501 -0.00000000000E+00  0.00000000000E+00  0.93660670897E+02  0.93660670897E+02  0.00000000000E+00 0.  1.
          2   -1    0    0  501    0  0.00000000000E+00 -0.00000000000E+00 -0.48548890219E+03  0.48548890219E+03  0.00000000000E+00 0. -1.
         25    2    1    2    0    0  0.89333266236E+01  0.82777497893E+02  0.17567968121E+02  0.15128484998E+03  0.12508618568E+03 0.  0.
          5    1    3    3  502    0  0.49581843402E+02 -0.79284960976E+01  0.77064999115E+00  0.50391334045E+02  0.41800000000E+01 0.  1.
         -5    1    3    3    0  502 -0.40648516778E+02  0.90705993991E+02  0.16797318130E+02  0.10089351594E+03  0.41800000000E+01 0.  1.
        -11    1    1    2    0    0  0.30293166326E+02 -0.79391030283E+02 -0.28128185484E+03  0.29383684840E+03  0.00000000000E+00 0.  1.
         11    1    1    2    0    0 -0.39226492950E+02 -0.33864676101E+01 -0.12811434458E+03  0.13402787471E+03  0.00000000000E+00 0. -1.
</event>
<event>
 7    1  0.2723366E-009  0.1209949E+03  0.7561462E-02  0.1241465E+00
          3   -1    0    0  501    0  0.00000000000E+00  0.00000000000E+00  0.36456660715E+03  0.36456660715E+03  0.00000000000E+00 0. -1.
         -3   -1    0    0    0  501 -0.00000000000E+00 -0.00000000000E+00 -0.45847457644E+02  0.45847457644E+02  0.00000000000E+00 0.  1.
         25    2    1    2    0    0  0.52209911222E+02 -0.32336999942E+02  0.13359161094E+03  0.19304274477E+03  0.12508887400E+03 0.  0.
          5    1    3    3  502    0  0.55288333850E+02  0.32457862206E+02  0.30382346806E+02  0.71069487660E+02  0.41800000000E+01 0. -1.
         -5    1    3    3    0  502 -0.30784226280E+01 -0.64794862148E+02  0.10320926413E+03  0.12197325711E+03  0.41800000000E+01 0. -1.
        -11    1    1    2    0    0  0.92189780958E+01  0.48379694894E+02  0.96607604145E+02  0.10843714130E+03  0.00000000000E+00 0.  1.
         11    1    1    2    0    0 -0.61428889318E+02 -0.16042694952E+02  0.88519934421E+02  0.10893417872E+03  0.00000000000E+00 0. -1.
</event>
<event>
 7    1  0.2723366E-009  0.1264254E+03  0.7561462E-02  0.1232858E+00
         -2   -1    0    0    0  501 -0.00000000000E+00  0.00000000000E+00  0.29470724410E+03  0.29470724410E+03  0.00000000000E+00 0. -1.
          2   -1    0    0  501    0  0.00000000000E+00 -0.00000000000E+00 -0.76430947642E+02  0.76430947642E+02  0.00000000000E+00 0.  1.
         25    2    1    2    0    0 -0.75259354511E+02 -0.46856754333E+02  0.45050231671E+02  0.15980105131E+03  0.12508927515E+03 0.  0.
          5    1    3    3  502    0 -0.47676015795E+02 -0.86445210856E+02  0.50672527175E+02  0.11104483046E+03  0.41800000000E+01 0.  1.
         -5    1    3    3    0  502 -0.27583338716E+02  0.39588456523E+02 -0.56222955034E+01  0.48756220847E+02  0.41800000000E+01 0.  1.
        -11    1    1    2    0    0  0.72829582613E+02  0.15882602664E+02  0.65533618505E+02  0.99252507904E+02  0.00000000000E+00 0.  1.
         11    1    1    2    0    0  0.24297718980E+01  0.30974151669E+02  0.10769244628E+03  0.11208463253E+03  0.00000000000E+00 0. -1.
</event>
<event>
 7    1  0.2723366E-009  0.7378782E+02  0.7561462E-02  0.1347666E+00
          3   -1    0    0  501    0  0.00000000000E+00  0.00000000000E+00  0.47630235622E+02  0.47630235622E+02  0.00000000000E+00 0. -1.
         -3   -1    0    0    0  501 -0.00000000000E+00 -0.00000000000E+00 -0.29516385131E+03  0.29516385131E+03  0.00000000000E+00 0.  1.
         25    2    1    2    0    0 -0.35636784407E+02 -0.22390862133E+02 -0.10733536973E+03  0.17011586813E+03  0.12508875203E+03 0.  0.
          5    1    3    3  502    0 -0.26174455469E+02 -0.41736429769E+02 -0.12969019302E+03  0.13879499362E+03  0.41800000000E+01 0. -1.
         -5    1    3    3    0  502 -0.94623289381E+01  0.19345567636E+02  0.22354823282E+02  0.31320874510E+02  0.41800000000E+01 0. -1.
        -11    1    1    2    0    0  0.38374441871E+02  0.41713826786E+02 -0.37084909307E+02  0.67734272214E+02  0.00000000000E+00 0. -1.
         11    1    1    2    0    0 -0.27376574645E+01 -0.19322964654E+02 -0.10311333665E+03  0.10494394659E+03  0.00000000000E+00 0.  1.
</event>
<event>
 7    1  0.2723366E-009  0.7227322E+02  0.7561462E-02  0.1352529E+00
         -1   -1    0    0    0  501 -0.00000000000E+00  0.00000000000E+00  0.92144044752E+02  0.92144044752E+02  0.00000000000E+00 0.  1.
          1   -1    0    0  501    0  0.00000000000E+00 -0.00000000000E+00 -0.14914039263E+03  0.14914039263E+03  0.00000000000E+00 0. -1.
         25    2    1    2    0    0  0.63514217511E+01  0.19315400750E+02 -0.80173923903E+02  0.14996396720E+03  0.12509159892E+03 0.  0.
          5    1    3    3  502    0 -0.22547698752E+02  0.55039506476E+02 -0.84722651096E+02  0.10360089768E+03  0.41800000000E+01 0. -1.
         -5    1    3    3    0  502  0.28899120503E+02 -0.35724105725E+02  0.45487271926E+01  0.46363069514E+02  0.41800000000E+01 0. -1.
        -11    1    1    2    0    0 -0.22214998093E+01 -0.28565221469E+02  0.52767682273E+02  0.60044443801E+02  0.00000000000E+00 0.  1.
         11    1    1    2    0    0 -0.41299219418E+01  0.92498207182E+01 -0.29590106252E+02  0.31276026388E+02  0.00000000000E+00 0. -1.
</event>
<event>
 7    1  0.2723366E-009  0.4734460E+02  0.7561462E-02  0.1460214E+00
          1   -1    0    0  501    0  0.00000000000E+00  0.00000000000E+00  0.11487223053E+03  0.11487223053E+03  0.00000000000E+00 0. -1.
         -1   -1    0    0    0  501 -0.00000000000E+00 -0.00000000000E+00 -0.12037206579E+03  0.12037206579E+03  0.00000000000E+00 0.  1.
         25    2    1    2    0    0 -0.35605947795E+01 -0.27067551751E+02  0.33379089915E+02  0.13231997900E+03  0.12509629494E+03 0.  0.
          5    1    3    3  502    0  0.12019597411E+02 -0.33719592939E+02  0.77175101644E+02  0.85175996523E+02  0.41800000000E+01 0.  1.
         -5    1    3    3    0  502 -0.15580192191E+02  0.66520411877E+01 -0.43796011729E+02  0.47143982480E+02  0.41800000000E+01 0.  1.
        -11    1    1    2    0    0  0.16878821961E+02  0.10251634986E+02  0.27107837076E+02  0.33538417995E+02  0.00000000000E+00 0. -1.
         11    1    1    2    0    0 -0.13318227182E+02  0.16815916765E+02 -0.65986762248E+02  0.69385899316E+02  0.00000000000E+00 0.  1.
</event>
<event>
 7    1  0.2723366E-009  0.9782932E+02  0.7561462E-02  0.1284928E+00
          1   -1    0    0  501    0  0.00000000000E+00  0.00000000000E+00  0.30015035908E+02  0.30015035908E+02  0.00000000000E+00 0. -1.
         -1   -1    0    0    0  501 -0.00000000000E+00 -0.00000000000E+00 -0.60453044238E+03  0.60453044238E+03  0.00000000000E+00 0.  1.
         25    2    1    2    0    0 -0.30286806650E+02  0.35300916760E+02 -0.16417115897E+03  0.21157538721E+03  0.12509408322E+03 0.  0.
          5    1    3    3  502    0 -0.55246283384E+02  0.41337279740E+02 -0.30777126638E+02  0.75667869325E+02  0.41800000000E+01 0. -1.
         -5    1    3    3    0  502  0.24959476734E+02 -0.60363629803E+01 -0.13339403233E+03  0.13590751789E+03  0.41800000000E+01 0. -1.
        -11    1    1    2    0    0  0.59459378172E+02 -0.39001515372E+02 -0.24840750860E+03  0.25838503475E+03  0.00000000000E+00 0. -1.
         11    1    1    2    0    0 -0.29172571522E+02  0.37005986121E+01 -0.16193673890E+03  0.16458505632E+03  0.00000000000E+00 0.  1.
</event>
<event>
 7    1  0.2723366E-009  0.1317748E+03  0.7561462E-02  0.1224846E+00
          1   -1    0    0  501    0  0.00000000000E+00  0.00000000000E+00  0.41388668612E+02  0.41388668612E+02  0.00000000000E+00 0. -1.
         -1   -1    0    0    0  501 -0.00000000000E+00 -0.00000000000E+00 -0.54219119094E+03  0.54219119094E+03  0.00000000000E+00 0.  1.
         25    2    1    2    0    0 -0.47925263639E+02  0.91666646940E+02 -0.28052606411E+03  0.32410147126E+03  0.12508911212E+03 0.  0.
          5    1    3    3  502    0  0.26433938911E+02 -0.13367205518E+02 -0.83847196208E+02  0.89023929488E+02  0.41800000000E+01 0. -1.
         -5    1    3    3    0  502 -0.74359202550E+02  0.10503385246E+03 -0.19667886790E+03  0.23507754177E+03  0.41800000000E+01 0. -1.
        -11    1    1    2    0    0  0.24952735454E+02 -0.29717535495E+02 -0.17531932935E+03  0.17956235175E+03  0.00000000000E+00 0.  1.
         11    1    1    2    0    0  0.22972528186E+02 -0.61949111445E+02 -0.44957128863E+02  0.79916036537E+02  0.00000000000E+00 0. -1.
</event>
<event>
 7    1  0.2723366E-009  0.6022396E+02  0.7561462E-02  0.1396894E+00
          1   -1    0    0  501    0  0.00000000000E+00  0.00000000000E+00  0.34912265732E+03  0.34912265732E+03  0.00000000000E+00 0. -1.
         -1   -1    0    0    0  501 -0.00000000000E+00 -0.00000000000E+00 -0.36485973453E+02  0.36485973453E+02  0.00000000000E+00 0.  1.
         25    2    1    2    0    0  0.17385228332E+02  0.96646260240E+01  0.21854545177E+03  0.25259619517E+03  0.12508825752E+03 0.  0.
          5    1    3    3  502    0  0.22284759511E+02  0.29701689719E+02  0.22689684441E+03  0.22995315019E+03  0.41800000000E+01 0.  1.
         -5    1    3    3    0  502 -0.48995311793E+01 -0.20037063695E+02 -0.83513926407E+01  0.22643044988E+02  0.41800000000E+01 0.  1.
        -11    1    1    2    0    0 -0.38806681399E+02 -0.70019665460E+00  0.10147561830E+03  0.10864506388E+03  0.00000000000E+00 0. -1.
         11    1    1    2    0    0  0.21421453067E+02 -0.89644293694E+01 -0.73843861898E+01  0.24367371726E+02  0.00000000000E+00 0.  1.
</event>
<event>
 7    1  0.2723366E-009  0.2426124E+03  0.7561462E-02  0.1118065E+00
          2   -1    0    0  501    0  0.00000000000E+00  0.00000000000E+00  0.81018363776E+03  0.81018363776E+03  0.00000000000E+00 0.  1.
         -2   -1    0    0    0  501 -0.00000000000E+00 -0.00000000000E+00 -0.97470777712E+02  0.97470777712E+02  0.00000000000E+00 0. -1.
         25    2    1    2    0    0 -0.29260385173E+02  0.22828020998E+03  0.55728522749E+03  0.61577779110E+03  0.12508972311E+03 0.  0.
          5    1    3    3  502    0  0.28960613841E+02  0.48535057132E+02  0.54410869603E+02  0.78564521610E+02  0.41800000000E+01 0.  1.
         -5    1    3    3    0  502 -0.58220999014E+02  0.17974515284E+03  0.50287435789E+03  0.53721326949E+03  0.41800000000E+01 0.  1.
        -11    1    1    2    0    0 -0.21654427281E+02 -0.62626610580E+02  0.12932972166E+02  0.67514949031E+02  0.00000000000E+00 0. -1.
         11    1    1    2    0    0  0.50914812454E+02 -0.16565359940E+03  0.14249466039E+03  0.22436167533E+03  0.00000000000E+00 0.  1.
</event>
<event>
 7    1  0.2723366E-009  0.8909874E+02  0.7561462E-02  0.1305049E+00
          1   -1    0    0  501    0  0.00000000000E+00  0.00000000000E+00  0.26572848140E+03  0.26572848140E+03  0.00000000000E+00 0. -1.
         -1   -1    0    0    0  501 -0.00000000000E+00 -0.00000000000E+00 -0.50121544458E+02  0.50121544458E+02  0.00000000000E+00 0.  1.
         25    2    1    2    0    0  0.33179574544E+02  0.75406610187E+00  0.89570410002E+02  0.15738701949E+03  0.12508542191E+03 0.  0.
          5    1    3    3  502    0  0.52597988649E+02 -0.34497394857E+02  0.97548404646E+02  0.11614552213E+03  0.41800000000E+01 0. -1.
         -5    1    3    3    0  502 -0.19418414104E+02  0.35251460959E+02 -0.79779946442E+01  0.41241497361E+02  0.41800000000E+01 0. -1.
        -11    1    1    2    0    0 -0.21327042948E+02  0.32791427146E+02  0.15047647867E+02  0.41911241470E+02  0.00000000000E+00 0.  1.
         11    1    1    2    0    0 -0.11852531596E+02 -0.33545493248E+02  0.11098887907E+03  0.11655176489E+03  0.00000000000E+00 0. -1.
</event>
<event>
 7    1  0.2723366E-009  0.2171265E+03  0.7561462E-02  0.1136044E+00
         -2   -1    0    0    0  501 -0.00000000000E+00  0.00000000000E+00  0.81417545152E+02  0.81417545152E+02  0.00000000000E+00 0. -1.
          2   -1    0    0  501    0  0.00000000000E+00 -0.00000000000E+00 -0.85599890294E+03  0.85599890294E+03  0.00000000000E+00 0.  1.
         25    2    1    2    0    0 -0.20063093469E+03  0.54412870900E+02 -0.61006344112E+03  0.65653530153E+03  0.12509063710E+03 0.  0.
          5    1    3    3  502    0 -0.12893144594E+03  0.72550579211E+02 -0.26421816620E+03  0.30284586186E+03  0.41800000000E+01 0.  1.
         -5    1    3    3    0  502 -0.71699488750E+02 -0.18137708310E+02 -0.34584527492E+03  0.35368943967E+03  0.41800000000E+01 0.  1.
        -11    1    1    2    0    0  0.11262428847E+03 -0.52219750945E+02 -0.14468025308E+03  0.19063973451E+03  0.00000000000E+00 0.  1.
         11    1    1    2    0    0  0.88006646215E+02 -0.21931199550E+01 -0.19837663594E+02  0.90241412057E+02  0.00000000000E+00 0. -1.
</event>
<event>
 7    1  0.2723366E-009  0.1062955E+03  0.7561462E-02  0.1267588E+00
          2   -1    0    0  501    0  0.00000000000E+00  0.00000000000E+00  0.12529560649E+04  0.12529560649E+04  0.00000000000E+00 0. -1.
         -2   -1    0    0    0  501 -0.00000000000E+00 -0.00000000000E+00 -0.15293960481E+02  0.15293960481E+02  0.00000000000E+00 0.  1.
         25    2    1    2    0    0  0.59118803067E+02 -0.35102476200E+02  0.91766324040E+03  0.92869788989E+03  0.12508689461E+03 0.  0.
          5    1    3    3  502    0  0.66168245822E+02  0.26645619359E+02  0.64832084719E+03  0.65224659377E+03  0.41800000000E+01 0. -1.
         -5    1    3    3    0  502 -0.70494427541E+01 -0.61748095559E+02  0.26934239321E+03  0.27645129612E+03  0.41800000000E+01 0. -1.
        -11    1    1    2    0    0 -0.15251166107E+02 -0.81074924796E+01  0.41587956775E+01  0.17765840353E+02  0.00000000000E+00 0.  1.
         11    1    1    2    0    0 -0.43867636960E+02  0.43209968680E+02  0.31584006834E+03  0.32178629513E+03  0.00000000000E+00 0. -1.
</event>
<event>
 7    1  0.2723366E-009  0.1155462E+03  0.7561462E-02  0.1250631E+00
          2   -1    0    0  501    0  0.00000000000E+00  0.00000000000E+00  0.68161764596E+02  0.68161764596E+02  0.00000000000E+00 0. -1.
         -2   -1    0    0    0  501 -0.00000000000E+00 -0.00000000000E+00 -0.23193233680E+03  0.23193233680E+03  0.00000000000E+00 0.  1.
         25    2    1    2    0    0 -0.16846335950E+02 -0.50572594092E+02 -0.12059216976E+03  0.18174378806E+03  0.12508775633E+03 0.  0.
          5    1    3    3  502    0  0.10322681876E+02  0.32135296987E+02 -0.77249964496E+02  0.84405358172E+02  0.41800000000E+01 0.  1.
         -5    1    3    3    0  502 -0.27169017826E+02 -0.82707891079E+02 -0.43342205266E+02  0.97338429891E+02  0.41800000000E+01 0.  1.
        -11    1    1    2    0    0  0.16091759731E+02  0.79437469437E+02 -0.28160951224E+02  0.85803819586E+02  0.00000000000E+00 0.  1.
         11    1    1    2    0    0  0.75457621923E+00 -0.28864875345E+02 -0.15017451213E+02  0.32546493742E+02  0.00000000000E+00 0. -1.
</event>
<event>
 7    1  0.2723366E-009  0.1263785E+03  0.7561462E-02  0.1232931E+00
         -2   -1    0    0    0  501 -0.00000000000E+00  0.00000000000E+00  0.78730476848E+02  0.78730476848E+02  0.00000000000E+00 0.  1.
          2   -1    0    0  501    0  0.00000000000E+00 -0.00000000000E+00 -0.20862672849E+03  0.20862672849E+03  0.00000000000E+00 0. -1.
         25    2    1    2    0    0 -0.65280582191E+02  0.17840184213E+02 -0.78148434746E+02  0.16227575964E+03  0.12508564158E+03 0.  0.
          5    1    3    3  502    0  0.21379227832E+02  0.44777223743E+02 -0.16380602505E+02  0.52420107662E+02  0.41800000000E+01 0. -1.
         -5    1    3    3    0  502 -0.86659810023E+02 -0.26937039530E+02 -0.61767832241E+02  0.10985565198E+03  0.41800000000E+01 0. -1.
        -11    1    1    2    0    0  0.49458971742E+02  0.32610745705E+02 -0.16365324256E+02  0.61461162202E+02  0.00000000000E+00 0.  1.
         11    1    1    2    0    0  0.15821610449E+02 -0.50450929917E+02 -0.35382492643E+02  0.63620283498E+02  0.00000000000E+00 0. -1.
</event>
<event>
 7    1  0.2723366E-009  0.2956366E+03  0.7561462E-02  0.1087442E+00
          2   -1    0    0  501    0  0.00000000000E+00  0.00000000000E+00  0.19447750914E+04  0.19447750914E+04  0.00000000000E+00 0. -1.
         -2   -1    0    0    0  501 -0.00000000000E+00 -0.00000000000E+00 -0.53057408715E+02  0.53057408715E+02  0.00000000000E+00 0.  1.
         25    2    1    2    0    0  0.28527702819E+03 -0.74446606645E+02  0.11616240961E+04  0.12049663475E+04  0.12509227770E+03 0.  0.
          5    1    3    3  502    0  0.21546845894E+03 -0.43561601472E+02  0.10258618122E+04  0.10491588059E+04  0.41800000000E+01 0.  1.
         -5    1    3    3    0  502  0.69808569252E+02 -0.30885005173E+02  0.13576228391E+03  0.15580754159E+03  0.41800000000E+01 0.  1.
        -11    1    1    2    0    0 -0.18450050145E+03  0.52374361147E+02  0.35094189527E+03  0.39992964705E+03  0.00000000000E+00 0.  1.
         11    1    1    2    0    0 -0.10077652675E+03  0.22072245499E+02  0.37915169132E+03  0.39293650556E+03  0.00000000000E+00 0. -1.
</event>
<event>
 7    1  0.2723366E-009  0.1235399E+03  0.7561462E-02  0.1237369E+00
         -3   -1    0    0    0  501 -0.00000000000E+00  0.00000000000E+00  0.29989247916E+02  0.29989247916E+02  0.00000000000E+00 0.  1.
          3   -1    0    0  501    0  0.00000000000E+00 -0.00000000000E+00 -0.57792531243E+03  0.57792531243E+03  0.00000000000E+00 0. -1.
         25    2    1    2    0    0  0.56582286948E+02 -0.39231543553E+02 -0.23666804919E+03  0.27640551884E+03  0.12509027193E+03 0.  0.
          5    1    3    3  502    0  0.80586916617E+02  0.10584264299E+02 -0.17773811679E+03  0.19548551952E+03  0.41800000000E+01 0. -1.
         -5    1    3    3    0  502 -0.24004629669E+02 -0.49815807853E+02 -0.58929932401E+02  0.80919999322E+02  0.41800000000E+01 0. -1.
        -11    1    1    2    0    0 -0.11059868198E+02  0.59419429843E+02 -0.21204917641E+03  0.22049454085E+03  0.00000000000E+00 0. -1.
         11    1    1    2    0    0 -0.45522418751E+02 -0.20187886290E+02 -0.99218838919E+02  0.11101450067E+03  0.00000000000E+00 0.  1.
</event>
<event>
 7    1  0.2723366E-009  0.1134489E+03  0.7561462E-02  0.1254313E+00
          2   -1    0    0  501    0  0.00000000000E+00  0.00000000000E+00  0.56069395372E+03  0.56069395372E+03  0.00000000000E+00 0.  1.
         -2   -1    0    0    0  501 -0.00000000000E+00 -0.00000000000E+00 -0.29566579200E+02  0.29566579200E+02  0.00000000000E+00 0. -1.
         25    2    1    2    0    0  0.82007515280E+00 -0.62819837734E+02  0.35956751904E+03  0.38585475076E+03  0.12509229951E+03 0.  0.
          5    1    3    3  502    0 -0.21998233494E+02  0.25504626780E+02  0.19239763813E+03  0.19536819552E+03  0.41800000000E+01 0. -1.
         -5    1    3    3    0  502  0.22818308647E+02 -0.88324464515E+02  0.16716988092E+03  0.19048655524E+03  0.41800000000E+01 0. -1.
        -11    1    1    2    0    0  0.52308457597E+01  0.81671819577E+02  0.16386291175E+03  0.18316304679E+03  0.00000000000E+00 0.  1.
         11    1    1    2    0    0 -0.60509209125E+01 -0.18851981843E+02  0.76969437188E+01  0.21242735368E+02  0.00000000000E+00 0. -1.
</event>
<event>
 7    1  0.2723366E-009  0.8742174E+02  0.7561462E-02  0.1309218E+00
         -2   -1    0    0    0  501 -0.00000000000E+00  0.00000000000E+00  0.13196989639E+04  0.13196989639E+04  0.00000000000E+00 0. -1.
          2   -1    0    0  501    0  0.00000000000E+00 -0.00000000000E+00 -0.25721209979E+02  0.25721209979E+02  0.00000000000E+00 0.  1.
         25    2    1    2    0    0 -0.28400963567E+02  0.49773909259E+02  0.11851061020E+04  0.11930687110E+04  0.12510962960E+03 0.  0.
          5    1    3    3  502    0 -0.46412659337E+01  0.65041832911E+02  0.28041055457E+03  0.28792278981E+03  0.41800000000E+01 0. -1.
         -5    1    3    3    0  502 -0.23759697633E+02 -0.15267923652E+02  0.90469554741E+03  0.90514592118E+03  0.41800000000E+01 0. -1.
        -11    1    1    2    0    0  0.40010661585E+02 -0.55168989516E+02  0.33570928994E+02  0.75970242320E+02  0.00000000000E+00 0.  1.
         11    1    1    2    0    0 -0.11609698018E+02  0.53950802577E+01  0.75300722917E+02  0.76381220538E+02  0.00000000000E+00 0. -1.
</event>
<event>
 7    1  0.2723366E-009  0.8394217E+02  0.7561462E-02  0.1318222E+00
         -1   -1    0    0    0  501 -0.00000000000E+00  0.00000000000E+00  0.14496926655E+03  0.14496926655E+03  0.00000000000E+00 0.  1.
          1   -1    0    0  501    0  0.00000000000E+00 -0.00000000000E+00 -0.13406778091E+03  0.13406778091E+03  0.00000000000E+00 0. -1.
         25    2    1    2    0    0  0.12036217883E+02  0.62796976839E+02 -0.54616306211E+02  0.15072559176E+03  0.12508769830E+03 0.  0.
          5    1    3    3  502    0  0.19490095378E+02  0.22243336500E+02 -0.90875933368E+02  0.95658441875E+02  0.41800000000E+01 0.  1.
         -5    1    3    3    0  502 -0.74538774952E+01  0.40553640339E+02  0.36259627157E+02  0.55067149881E+02  0.41800000000E+01 0.  1.
        -11    1    1    2    0    0 -0.33885595110E+02 -0.66286658842E+02  0.73666297521E+02  0.10473241183E+03  0.00000000000E+00 0.  1.
         11    1    1    2    0    0  0.21849377227E+02  0.34896820036E+01 -0.81485056692E+01  0.23579043881E+02  0.00000000000E+00 0. -1.
</event>
<event>
 7    1  0.2723366E-009  0.1865252E+03  0.7561462E-02  0.1161633E+00
          1   -1    0    0  501    0  0.00000000000E+00  0.00000000000E+00  0.12268704381E+03  0.12268704381E+03  0.00000000000E+00 0. -1.
         -1   -1    0    0    0  501 -0.00000000000E+00 -0.00000000000E+00 -0.35157323761E+03  0.35157323761E+03  0.00000000000E+00 0.  1.
         25    2    1    2    0    0 -0.17659444151E+03 -0.53695750813E+01 -0.12705776761E+03  0.25100935334E+03  0.12509032754E+03 0.  0.
          5    1    3    3  502    0 -0.80870367293E+02  0.33528135207E+02 -0.59157843170E+00  0.87646873998E+02  0.41800000000E+01 0.  1.
         -5    1    3    3    0  502 -0.95724074217E+02 -0.38897710289E+02 -0.12646618918E+03  0.16336247934E+03  0.41800000000E+01 0.  1.
        -11    1    1    2    0    0  0.10935080922E+03 -0.17968523631E+02 -0.16349488610E+02  0.11201684292E+03  0.00000000000E+00 0. -1.
         11    1    1    2    0    0  0.67243632287E+02  0.23338098713E+02 -0.85478937576E+02  0.11123408517E+03  0.00000000000E+00 0.  1.
</event>
<event>
 7    1  0.2723366E-009  0.1855189E+03  0.7561462E-02  0.1162566E+00
         -1   -1    0    0    0  501 -0.00000000000E+00  0.00000000000E+00  0.10929302245E+03  0.10929302245E+03  0.00000000000E+00 0.  1.
          1   -1    0    0  501    0  0.00000000000E+00 -0.00000000000E+00 -0.69196607270E+03  0.69196607270E+03  0.00000000000E+00 0. -1.
         25    2    1    2    0    0 -0.82137811429E+02 -0.16175476360E+03 -0.55476474753E+03  0.59692695866E+03  0.12508655105E+03 0.  0.
          5    1    3    3  502    0 -0.33503179484E+02 -0.10629084915E+03 -0.47617024134E+03  0.48905600782E+03  0.41800000000E+01 0.  1.
         -5    1    3    3    0  502 -0.48634631945E+02 -0.55463914452E+02 -0.78594506194E+02  0.10787095084E+03  0.41800000000E+01 0.  1.
        -11    1    1    2    0    0  0.51265468249E+02  0.58150019649E+02  0.28251144774E+02  0.82508788629E+02  0.00000000000E+00 0. -1.
         11    1    1    2    0    0  0.30872343180E+02  0.10360474395E+03 -0.56159447485E+02  0.12182334786E+03  0.00000000000E+00 0.  1.
</event>
<event>
 7    1  0.2723366E-009  0.1012256E+03  0.7561462E-02  0.1277740E+00
         -2   -1    0    0    0  501 -0.00000000000E+00  0.00000000000E+00  0.50722613647E+02  0.50722613647E+02  0.00000000000E+00 0.  1.
          2   -1    0    0  501    0  0.00000000000E+00 -0.00000000000E+00 -0.24574796800E+03  0.24574796800E+03  0.00000000000E+00 0. -1.
         25    2    1    2    0    0 -0.35842207507E+01  0.22860039025E+02 -0.11798890911E+03  0.17350396940E+03  0.12508723637E+03 0.  0.
          5    1    3    3  502    0 -0.30016461854E+02 -0.34475337319E+02 -0.79712405761E+01  0.46589161206E+02  0.41800000000E+01 0. -1.
         -5    1    3    3    0  502  0.26432241104E+02  0.57335376344E+02 -0.11001766853E+03  0.12691480819E+03  0.41800000000E+01 0. -1.
        -11    1    1    2    0    0 -0.14562453541E+02  0.32179970380E+02 -0.15927519696E+02  0.38746631215E+02  0.00000000000E+00 0. -1.
         11    1    1    2    0    0  0.18146674292E+02 -0.55040009405E+02 -0.61108925553E+02  0.84219981035E+02  0.00000000000E+00 0.  1.
</event>
<event>
 7    1  0.2723366E-009  0.1034646E+03  0.7561462E-02  0.1273175E+00
          1   -1    0    0  501    0  0.00000000000E+00  0.00000000000E+00  0.44117217677E+03  0.44117217677E+03  0.00000000000E+00 0. -1.
         -1   -1    0    0    0  501 -0.00000000000E+00 -0.00000000000E+00 -0.29036242177E+02  0.29036242177E+02  0.00000000000E+00 0.  1.
         25    2    1    2    0    0  0.43980620270E+02  0.26252081920E+02  0.27248503575E+03  0.30417025017E+03  0.12509188469E+03 0.  0.
          5    1    3    3  502    0  0.86019204315E+02  0.47642160446E+01  0.15316079159E+03  0.17577742104E+03  0.41800000000E+01 0. -1.
         -5    1    3    3    0  502 -0.42038584044E+02  0.21487865875E+02  0.11932424416E+03  0.12839282913E+03  0.41800000000E+01 0. -1.
        -11    1    1    2    0    0 -0.40404317950E+02  0.59850742861E+01  0.27372969063E+02  0.49169192169E+02  0.00000000000E+00 0.  1.
         11    1    1    2    0    0 -0.35763023206E+01 -0.32237156206E+02  0.11227792978E+03  0.11686897661E+03  0.00000000000E+00 0. -1.
</event>
<event>
 7    1  0.2723366E-009  0.1113172E+03  0.7561462E-02  0.1258150E+00
          1   -1    0    0  501    0  0.00000000000E+00  0.00000000000E+00  0.32852322167E+02  0.32852322167E+02  0.00000000000E+00 0. -1.
         -1   -1    0    0    0  501 -0.00000000000E+00 -0.00000000000E+00 -0.39452376686E+03  0.39452376686E+03  0.00000000000E+00 0.  1.
         25    2    1    2    0    0 -0.85279452570E+01 -0.33274334836E+02 -0.18747940299E+03  0.22798223243E+03  0.12508982592E+03 0.  0.
          5    1    3    3  502    0  0.38152591113E+02  0.29409581693E+02 -0.96741863705E+02  0.10815268974E+03  0.41800000000E+01 0. -1.
         -5    1    3    3    0  502 -0.46680536370E+02 -0.62683916529E+02 -0.90737539282E+02  0.11982954269E+03  0.41800000000E+01 0. -1.
        -11    1    1    2    0    0  0.45322578332E+02  0.37701417870E+02 -0.92513191152E+02  0.10970060872E+03  0.00000000000E+00 0.  1.
         11    1    1    2    0    0 -0.36794633075E+02 -0.44270830342E+01 -0.81678850556E+02  0.89693247881E+02  0.00000000000E+00 0. -1.
</event>
<event>
 7    1  0.2723366E-009  0.1069564E+03  0.7561462E-02  0.1266312E+00
         -2   -1    0    0    0  501 -0.00000000000E+00  0.00000000000E+00  0.34141833707E+02  0.34141833707E+02  0.00000000000E+00 0.  1.
          2   -1    0    0  501    0  0.00000000000E+00 -0.00000000000E+00 -0.49856526814E+03  0.49856526814E+03  0.00000000000E+00 0. -1.
         25    2    1    2    0    0  0.42472102435E+02  0.17342581511E+02 -0.38726962319E+03  0.40954965202E+03  0.12509401187E+03 0.  0.
          5    1    3    3  502    0 -0.12277218310E+01  0.66389300239E+02 -0.21822561938E+03  0.22814236749E+03  0.41800000000E+01 0. -1.
         -5    1    3    3    0  502  0.43699824266E+02 -0.49046718728E+02 -0.16904400380E+03  0.18140728453E+03  0.41800000000E+01 0. -1.
        -11    1    1    2    0    0 -0.18053780270E+01 -0.36541666042E+02 -0.33597947411E+01  0.36740181922E+02  0.00000000000E+00 0.  1.
         11    1    1    2    0    0 -0.40666724408E+02  0.19199084531E+02 -0.73794016501E+02  0.86417267905E+02  0.00000000000E+00 0. -1.
</event>
<event>
 7    1  0.2723366E-009  0.9578842E+02  0.7561462E-02  0.1289410E+00
         -1   -1    0    0    0  501 -0.00000000000E+00  0.00000000000E+00  0.32216033255E+02  0.32216033255E+02  0.00000000000E+00 0.  1.
          1   -1    0    0  501    0  0.00000000000E+00 -0.00000000000E+00 -0.49701754971E+03  0.49701754971E+03  0.00000000000E+00 0. -1.
         25    2    1    2    0    0 -0.26049692351E+02 -0.44636040996E+02 -0.33561782660E+03  0.36187805779E+03  0.12508173547E+03 0.  0.
          5    1    3    3  502    0  0.63802882177E+01 -0.52799528149E+02 -0.32055392940E+03  0.32496275525E+03  0.41800000000E+01 0. -1.
         -5    1    3    3    0  502 -0.32429980569E+02  0.81634871534E+01 -0.15063897206E+02  0.36915302535E+02  0.41800000000E+01 0. -1.
        -11    1    1    2    0    0  0.21656297360E+02  0.72835901096E+02 -0.10685634102E+03  0.13111956879E+03  0.00000000000E+00 0.  1.
         11    1    1    2    0    0  0.43933949911E+01 -0.28199860100E+02 -0.22327348834E+02  0.36235956385E+02  0.00000000000E+00 0. -1.
</event>
<event>
 7    1  0.2723366E-009  0.1328790E+03  0.7561462E-02  0.1223245E+00
          2   -1    0    0  501    0  0.00000000000E+00  0.00000000000E+00  0.10726281504E+04  0.10726281504E+04  0.00000000000E+00 0. -1.
         -2   -1    0    0    0  501 -0.00000000000E+00 -0.00000000000E+00 -0.25225354139E+02  0.25225354139E+02  0.00000000000E+00 0.  1.
         25    2    1    2    0    0  0.12128436303E+03  0.16584552448E+02  0.54683547988E+03  0.57416177604E+03  0.12509100257E+03 0.  0.
          5    1    3    3  502    0  0.19147727342E+01 -0.18003714920E+02  0.27049073436E+03  0.27112821668E+03  0.41800000000E+01 0.  1.
         -5    1    3    3    0  502  0.11936959029E+03  0.34588267368E+02  0.27634474551E+03  0.30303355936E+03  0.41800000000E+01 0.  1.
        -11    1    1    2    0    0 -0.27271807650E+02 -0.80094825906E+01  0.22110854084E+02  0.36011014595E+02  0.00000000000E+00 0.  1.
         11    1    1    2    0    0 -0.94012555376E+02 -0.85750698571E+01  0.47845646228E+03  0.48768071388E+03  0.00000000000E+00 0. -1.
</event>
<event>
 7    1  0.2723366E-009  0.7214782E+02  0.7561462E-02  0.1352938E+00
         -3   -1    0    0    0  501 -0.00000000000E+00  0.00000000000E+00  0.27722938475E+02  0.27722938475E+02  0.00000000000E+00 0.  1.
          3   -1    0    0  501    0  0.00000000000E+00 -0.00000000000E+00 -0.55629754290E+03  0.55629754290E+03  0.00000000000E+00 0. -1.
         25    2    1    2    0    0 -0.25895112891E+02 -0.20234151250E+00 -0.42254614651E+03  0.44143491015E+03  0.12509570799E+03 0.  0.
          5    1    3    3  502    0 -0.33231027046E+02 -0.21619907803E+02 -0.34540675882E+02  0.52747059276E+02  0.41800000000E+01 0. -1.
         -5    1    3    3    0  502  0.73359141551E+01  0.21417566290E+02 -0.38800547063E+03  0.38868785087E+03  0.41800000000E+01 0. -1.
        -11    1    1    2    0    0  0.18180069548E+02  0.38375600857E+02 -0.91759336444E+02  0.10110874094E+03  0.00000000000E+00 0. -1.
         11    1    1    2    0    0  0.77150433423E+01 -0.38173259344E+02 -0.14269121475E+02  0.41476830284E+02  0.00000000000E+00 0.  1.
</event>
<event>
 7    1  0.2723366E-009  0.3116411E+03  0.7561462E-02  0.1079562E+00
         -2   -1    0    0    0  501 -0.00000000000E+00  0.00000000000E+00  0.58343929149E+02  0.58343929149E+02  0.00000000000E+00 0.  1.
          2   -1    0    0  501    0  0.00000000000E+00 -0.00000000000E+00 -0.19592064787E+04  0.19592064787E+04  0.00000000000E+00 0. -1.
         25    2    1    2    0    0 -0.27029624194E+03 -0.12834379102E+03 -0.13058162722E+04  0.13454879274E+04  0.12509771750E+03 0.  0.
          5    1    3    3  502    0 -0.11732241703E+03 -0.41609262368E+01 -0.65632561210E+03  0.66675531070E+03  0.41800000000E+01 0. -1.
         -5    1    3    3    0  502 -0.15297382491E+03 -0.12418286478E+03 -0.64949066014E+03  0.67873261674E+03  0.41800000000E+01 0. -1.
        -11    1    1    2    0    0  0.25002777040E+03  0.90683172475E+02 -0.54347915664E+03  0.60506769658E+03  0.00000000000E+00 0.  1.
         11    1    1    2    0    0  0.20268471541E+02  0.37660618544E+02 -0.51567120694E+02  0.66994783860E+02  0.00000000000E+00 0. -1.
</event>
<event>
 7    1  0.2723366E-009  0.6783307E+02  0.7561462E-02  0.1367621E+00
         -1   -1    0    0    0  501 -0.00000000000E+00  0.00000000000E+00  0.12059618890E+03  0.12059618890E+03  0.00000000000E+00 0.  1.
          1   -1    0    0  501    0  0.00000000000E+00 -0.00000000000E+00 -0.10203022232E+03  0.10203022232E+03  0.00000000000E+00 0. -1.
         25    2    1    2    0    0  0.65691875869E+01  0.30544325232E+01  0.31392253915E+02  0.12916949302E+03  0.12508717176E+03 0.  0.
          5    1    3    3  502    0  0.11862269246E+02 -0.20595294345E+02 -0.43827263396E+02  0.50031799863E+02  0.41800000000E+01 0.  1.
         -5    1    3    3    0  502 -0.52930816591E+01  0.23649726868E+02  0.75219517311E+02  0.79137693161E+02  0.41800000000E+01 0.  1.
        -11    1    1    2    0    0  0.36724074007E+02  0.15472748607E+02  0.10057604671E+02  0.41100109158E+02  0.00000000000E+00 0.  1.
         11    1    1    2    0    0 -0.43293261594E+02 -0.18527181130E+02 -0.22883892006E+02  0.52356809045E+02  0.00000000000E+00 0. -1.
</event>
<event>
 7    1  0.2723366E-009  0.3343210E+03  0.7561462E-02  0.1069241E+00
         -1   -1    0    0    0  501 -0.00000000000E+00  0.00000000000E+00  0.24644389784E+03  0.24644389784E+03  0.00000000000E+00 0.  1.
          1   -1    0    0  501    0  0.00000000000E+00 -0.00000000000E+00 -0.48061222126E+03  0.48061222126E+03  0.00000000000E+00 0. -1.
         25    2    1    2    0    0 -0.32071473059E+02  0.32040320386E+03 -0.17489951851E+03  0.38719998722E+03  0.12508875290E+03 0.  0.
          5    1    3    3  502    0 -0.71057263658E+02  0.25716686113E+03 -0.16058325263E+03  0.31142957889E+03  0.41800000000E+01 0.  1.
         -5    1    3    3    0  502  0.38985790599E+02  0.63236342727E+02 -0.14316265884E+02  0.75770408333E+02  0.41800000000E+01 0.  1.
        -11    1    1    2    0    0 -0.16342828837E+02 -0.12618432818E+03 -0.57645254421E+02  0.13968732258E+03  0.00000000000E+00 0. -1.
         11    1    1    2    0    0  0.48414301895E+02 -0.19421887568E+03 -0.16235504917E+01  0.20016880930E+03  0.00000000000E+00 0.  1.
</event>
<event>
 7    1  0.2723366E-009  0.1067697E+03  0.7561462E-02  0.1266672E+00
          2   -1    0    0  501    0  0.00000000000E+00  0.00000000000E+00  0.21243212437E+03  0.21243212437E+03  0.00000000000E+00 0. -1.
         -2   -1    0    0    0  501 -0.00000000000E+00 -0.00000000000E+00 -0.67660838977E+02  0.67660838977E+02  0.00000000000E+00 0.  1.
         25    2    1    2    0    0  0.31706312057E+02  0.76959045549E+01  0.35539977192E+02  0.13407080927E+03  0.12508946697E+03 0.  0.
          5    1    3    3  502    0 -0.20651722873E+02  0.47753190751E+02 -0.10903306112E+02  0.53321809503E+02  0.41800000000E+01 0. -1.
         -5    1    3    3    0  502  0.52358034930E+02 -0.40057286196E+02  0.46443283304E+02  0.80748999766E+02  0.41800000000E+01 0. -1.
        -11    1    1    2    0    0  0.31572452573E+02 -0.25668026706E+00  0.49342106564E+02  0.58579255086E+02  0.00000000000E+00 0.  1.
         11    1    1    2    0    0 -0.63278764631E+02 -0.74392242878E+01  0.59889201633E+02  0.87442898988E+02  0.00000000000E+00 0. -1.
</event>
<event>
 7    1  0.2723366E-009  0.1185315E+03  0.7561462E-02  0.1245539E+00
          2   -1    0    0  501    0  0.00000000000E+00  0.00000000000E+00  0.34829103044E+02  0.34829103044E+02  0.00000000000E+00 0. -1.
         -2   -1    0    0    0  501 -0.00000000000E+00 -0.00000000000E+00 -0.75864330724E+03  0.75864330724E+03  0.00000000000E+00 0.  1.
         25    2    1    2    0    0  0.61397629936E+02  0.73622246670E+02 -0.57029192770E+03  0.59166564551E+03  0.12508176967E+03 0.  0.
          5    1    3    3  502    0  0.52523973880E+02  0.87773681894E+02 -0.23996338511E+03  0.26088864609E+03  0.41800000000E+01 0.  1.
         -5    1    3    3    0  502  0.88736560553E+01 -0.14151435225E+02 -0.33032854260E+03  0.33077699942E+03  0.41800000000E+01 0.  1.
        -11    1    1    2    0    0 -0.13766775075E+01 -0.54441854022E+02 -0.11680883419E+03  0.12888023299E+03  0.00000000000E+00 0.  1.
         11    1    1    2    0    0 -0.60020952428E+02 -0.19180392648E+02 -0.36713442294E+02  0.72926531781E+02  0.00000000000E+00 0. -1.
</event>
<event>
 7    1  0.2723366E-009  0.9854843E+02  0.7561462E-02  0.1283378E+00
         -1   -1    0    0    0  501 -0.00000000000E+00  0.00000000000E+00  0.30500227524E+02  0.30500227524E+02  0.00000000000E+00 0.  1.
          1   -1    0    0  501    0  0.00000000000E+00 -0.00000000000E+00 -0.65691200340E+03  0.65691200340E+03  0.00000000000E+00 0. -1.
         25    2    1    2    0    0 -0.30925432331E+02  0.86125806707E+01 -0.54865402469E+03  0.56364839528E+03  0.12509083010E+03 0.  0.
          5    1    3    3  502    0 -0.44258132201E+02  0.52399468655E+02 -0.44482122393E+03  0.45009763411E+03  0.41800000000E+01 0. -1.
         -5    1    3    3    0  502  0.13332699870E+02 -0.43786887985E+02 -0.10383280077E+03  0.11355076116E+03  0.41800000000E+01 0. -1.
        -11    1    1    2    0    0 -0.24800391665E+02 -0.98338954600E+01  0.16683468982E+01  0.26731036418E+02  0.00000000000E+00 0.  1.
         11    1    1    2    0    0  0.55725823996E+02  0.12213147894E+01 -0.79426098088E+02  0.97032799234E+02  0.00000000000E+00 0. -1.
</event>
<event>
 7    1  0.2723366E-009  0.4121993E+03  0.7561462E-02  0.1039635E+00
          2   -1    0    0  501    0  0.00000000000E+00  0.00000000000E+00  0.33313513240E+03  0.33313513240E+03  0.00000000000E+00 0. -1.
         -2   -1    0    0    0  501 -0.00000000000E+00 -0.00000000000E+00 -0.61515031461E+03  0.61515031461E+03  0.00000000000E+00 0.  1.
         25    2    1    2    0    0  0.40018046541E+03 -0.47916512583E+02  0.41586698859E+02  0.42404909152E+03  0.12509109252E+03 0.  0.
          5    1    3    3  502    0  0.27281997469E+03 -0.89638422029E+02  0.39866075168E+02  0.28995268863E+03  0.41800000000E+01 0.  1.
         -5    1    3    3    0  502  0.12736049072E+03  0.41721909447E+02  0.17206236912E+01  0.13409640290E+03  0.41800000000E+01 0.  1.
        -11    1    1    2    0    0 -0.29136766467E+03  0.31390675719E+02 -0.28163374162E+03  0.40644563591E+03  0.00000000000E+00 0.  1.
         11    1    1    2    0    0 -0.10881280074E+03  0.16525836864E+02 -0.41968139448E+02  0.11779071958E+03  0.00000000000E+00 0. -1.
</event>
<event>
 7    1  0.2723366E-009  0.1054961E+03  0.7561462E-02  0.1269145E+00
         -1   -1    0    0    0  501 -0.00000000000E+00  0.00000000000E+00  0.45732472981E+02  0.45732472981E+02  0.00000000000E+00 0.  1.
          1   -1    0    0  501    0  0.00000000000E+00 -0.00000000000E+00 -0.31129227004E+03  0.31129227004E+03  0.00000000000E+00 0. -1.
         25    2    1    2    0    0 -0.31364585857E+02 -0.35534088977E+02 -0.12774944698E+03  0.18497170322E+03  0.12509276983E+03 0.  0.
          5    1    3    3  502    0  0.22506007763E+02 -0.60629233837E+02 -0.32186520763E+02  0.72359304169E+02  0.41800000000E+01 0. -1.
         -5    1    3    3    0  502 -0.53870593620E+02  0.25095144859E+02 -0.95562926220E+02  0.11261239905E+03  0.41800000000E+01 0. -1.
        -11    1    1    2    0    0  0.17067649890E+02  0.57734307272E+02 -0.43924625478E+02  0.74524678009E+02  0.00000000000E+00 0.  1.
         11    1    1    2    0    0  0.14296935967E+02 -0.22200218295E+02 -0.93885724601E+02  0.97528361794E+02  0.00000000000E+00 0. -1.
</event>
<event>
 7    1  0.2723366E-009  0.1794726E+03  0.7561462E-02  0.1168314E+00
          3   -1    0    0  501    0  0.00000000000E+00  0.00000000000E+00  0.42007232154E+03  0.42007232154E+03  0.00000000000E+00 0. -1.
         -3   -1    0    0    0  501 -0.00000000000E+00 -0.00000000000E+00 -0.88900504109E+02  0.88900504109E+02  0.00000000000E+00 0.  1.
         25    2    1    2    0    0 -0.14185027890E+02  0.15839691438E+03  0.16579278523E+03  0.26158621431E+03  0.12509717174E+03 0.  0.
          5    1    3    3  502    0 -0.52096488093E+02  0.21193899112E+02  0.26247248205E+02  0.62206236581E+02  0.41800000000E+01 0.  1.
         -5    1    3    3    0  502  0.37911460203E+02  0.13720301527E+03  0.13954553702E+03  0.19937997772E+03  0.41800000000E+01 0.  1.
        -11    1    1    2    0    0  0.18123751611E+02 -0.10124936732E+03  0.41519857518E+02  0.11092251044E+03  0.00000000000E+00 0.  1.
         11    1    1    2    0    0 -0.39387237206E+01 -0.57147547065E+02  0.12385917468E+03  0.13646410090E+03  0.00000000000E+00 0. -1.
</event>
<event>
 7    1  0.2723366E-009  0.1535522E+03  0.7561462E-02  0.1196175E+00
          2   -1    0    0  501    0  0.00000000000E+00  0.00000000000E+00  0.71451803467E+03  0.71451803467E+03  0.00000000000E+00 0. -1.
         -2   -1    0    0    0  501 -0.00000000000E+00 -0.00000000000E+00 -0.66537312144E+02  0.66537312144E+02  0.00000000000E+00 0.  1.
         25    2    1    2    0    0 -0.12465203536E+03 -0.50242339922E+02  0.57418682039E+03  0.60282682509E+03  0.12508898313E+03 0.  0.
          5    1    3    3  502    0 -0.13786839286E+03 -0.63337842844E+02  0.55646914743E+03  0.57679698380E+03  0.41800000000E+01 0.  1.
         -5    1    3    3    0  502  0.13216357497E+02  0.13095502922E+02  0.17717672960E+02  0.26029841286E+02  0.41800000000E+01 0.  1.
        -11    1    1    2    0    0  0.30241684048E+02  0.22999141779E+02 -0.19523188789E+02  0.42716213281E+02  0.00000000000E+00 0.  1.
         11    1    1    2    0    0  0.94410351316E+02  0.27243198143E+02  0.93317090927E+02  0.13551230844E+03  0.00000000000E+00 0. -1.
</event>
<event>
 7    1  0.2723366E-009  0.1172521E+03  0.7561462E-02  0.1247700E+00
          3   -1    0    0  501    0  0.00000000000E+00  0.00000000000E+00  0.95018273094E+02  0.95018273094E+02  0.00000000000E+00 0. -1.
         -3   -1    0    0    0  501 -0.00000000000E+00 -0.00000000000E+00 -0.30847137002E+03  0.30847137002E+03  0.00000000000E+00 0.  1.
         25    2    1    2    0    0  0.97470985909E+02  0.59005814539E+02 -0.19363017211E+03  0.25713592609E+03  0.12507582376E+03 0.  0.
          5    1    3    3  502    0  0.50886664410E+02  0.40385893834E+02 -0.19621068214E+03  0.20672826905E+03  0.41800000000E+01 0. -1.
         -5    1    3    3    0  502  0.46584321500E+02  0.18619920705E+02  0.25805100305E+01  0.50407657044E+02  0.41800000000E+01 0. -1.
        -11    1    1    2    0    0 -0.47995593159E+02 -0.48992420062E+02 -0.52369394754E+02  0.86292454439E+02  0.00000000000E+00 0.  1.
         11    1    1    2    0    0 -0.49475392751E+02 -0.10013394477E+02  0.32546469946E+02  0.60061262580E+02  0.00000000000E+00 0. -1.
</event>
<event>
 7    1  0.2723366E-009  0.7181784E+02  0.7561462E-02  0.1354018E+00
         -1   -1    0    0    0  501 -0.00000000000E+00  0.00000000000E+00  0.99558128226E+02  0.99558128226E+02  0.00000000000E+00 0.  1.
          1   -1    0    0  501    0  0.00000000000E+00 -0.00000000000E+00 -0.15689263597E+03  0.15689263597E+03  0.00000000000E+00 0. -1.
         25    2    1    2    0    0 -0.12550103862E+02  0.34177110674E+02 -0.83953008303E+02  0.15498577941E+03  0.12508758617E+03 0.  0.
          5    1    3    3  502    0 -0.34019783548E+02  0.31285360929E+02 -0.11086497944E+03  0.12018583755E+03  0.41800000000E+01 0. -1.
         -5    1    3    3    0  502  0.21469679686E+02  0.28917497451E+01  0.26911971141E+02  0.34799941854E+02  0.41800000000E+01 0. -1.
        -11    1    1    2    0    0  0.18133848258E+01 -0.53248719729E+02  0.47379142765E+02  0.71298651365E+02  0.00000000000E+00 0.  1.
         11    1    1    2    0    0  0.10736719036E+02  0.19071609055E+02 -0.20760642210E+02  0.30166333429E+02  0.00000000000E+00 0. -1.
</event>
<event>
 7    1  0.2723366E-009  0.1499495E+03  0.7561462E-02  0.1200535E+00
          1   -1    0    0  501    0  0.00000000000E+00  0.00000000000E+00  0.61401895578E+03  0.61401895578E+03  0.00000000000E+00 0. -1.
         -1   -1    0    0    0  501 -0.00000000000E+00 -0.00000000000E+00 -0.46572156365E+02  0.46572156365E+02  0.00000000000E+00 0.  1.
         25    2    1    2    0    0 -0.19728990655E+02 -0.12748988978E+03  0.28520057290E+03  0.33708995728E+03  0.12508943778E+03 0.  0.
          5    1    3    3  502    0 -0.87417535554E+01 -0.14660500915E+03  0.27632572228E+03  0.31295818276E+03  0.41800000000E+01 0.  1.
         -5    1    3    3    0  502 -0.10987237100E+02  0.19115119371E+02  0.88748506202E+01  0.24131774514E+02  0.41800000000E+01 0.  1.
        -11    1    1    2    0    0  0.20183220445E+02  0.65436765366E+02  0.54695985373E+02  0.87641220125E+02  0.00000000000E+00 0.  1.
         11    1    1    2    0    0 -0.45422979020E+00  0.62053124413E+02  0.22755024114E+03  0.23585993474E+03  0.00000000000E+00 0. -1.
</event>
<event>
 7    1  0.2723366E-009  0.1096589E+03  0.7561462E-02  0.1261203E+00
          1   -1    0    0  501    0  0.00000000000E+00  0.00000000000E+00  0.10575817236E+04  0.10575817236E+04  0.00000000000E+00 0. -1.
         -1   -1    0    0    0  501 -0.00000000000E+00 -0.00000000000E+00 -0.12046460224E+02  0.12046460224E+02  0.00000000000E+00 0.  1.
         25    2    1    2    0    0  0.31486221606E+02 -0.72107636713E+01  0.69191618507E+03  0.70387400974E+03  0.12508891703E+03 0.  0.
          5    1    3    3  502    0  0.78394609435E+02 -0.78655118018E+01  0.35362490077E+03  0.36231978129E+03  0.41800000000E+01 0. -1.
         -5    1    3    3    0  502 -0.46908387829E+02  0.65474813056E+00  0.33829128430E+03  0.34155422846E+03  0.41800000000E+01 0. -1.
        -11    1    1    2    0    0 -0.62012376163E+02  0.93755439038E+01  0.22907436889E+03  0.23750474122E+03  0.00000000000E+00 0. -1.
         11    1    1    2    0    0  0.30526154557E+02 -0.21647802325E+01  0.12454470940E+03  0.12824943285E+03  0.00000000000E+00 0.  1.
</event>
<event>
 7    1  0.2723366E-009  0.8191119E+02  0.7561462E-02  0.1323714E+00
          2   -1    0    0  501    0  0.00000000000E+00  0.00000000000E+00  0.17874148299E+03  0.17874148299E+03  0.00000000000E+00 0. -1.
         -2   -1    0    0    0  501 -0.00000000000E+00 -0.00000000000E+00 -0.72239073784E+02  0.72239073784E+02  0.00000000000E+00 0.  1.
         25    2    1    2    0    0 -0.15719305698E+02  0.21098645230E+01  0.22947968626E+02  0.12816040283E+03  0.12508769520E+03 0.  0.
          5    1    3    3  502    0 -0.60484908542E+02 -0.22770875522E+02  0.37391775300E+02  0.74783381801E+02  0.41800000000E+01 0. -1.
         -5    1    3    3    0  502  0.44765602844E+02  0.24880740045E+02 -0.14443806674E+02  0.53377021034E+02  0.41800000000E+01 0. -1.
        -11    1    1    2    0    0  0.31173667059E+02 -0.59773720029E+01 -0.56188107020E+01  0.32235035717E+02  0.00000000000E+00 0.  1.
         11    1    1    2    0    0 -0.15454361361E+02  0.38675074799E+01  0.89173251284E+02  0.90585118224E+02  0.00000000000E+00 0. -1.
</event>
<event>
 7    1  0.2723366E-009  0.1362124E+03  0.7561462E-02  0.1218518E+00
          4   -1    0    0  501    0  0.00000000000E+00  0.00000000000E+00  0.12417342938E+03  0.12417342938E+03  0.00000000000E+00 0. -1.
         -4   -1    0    0    0  501 -0.00000000000E+00 -0.00000000000E+00 -0.34793553495E+03  0.34793553495E+03  0.00000000000E+00 0.  1.
         25    2    1    2    0    0 -0.65795357322E+02  0.58823145734E+02 -0.29021419822E+03  0.32811610969E+03  0.12508680615E+03 0.  0.
          5    1    3    3  502    0  0.35093205665E+02  0.74734069472E+01 -0.10462530503E+03  0.11068564382E+03  0.41800000000E+01 0.  1.
         -5    1    3    3    0  502 -0.10088856299E+03  0.51349738787E+02 -0.18558889319E+03  0.21743046588E+03  0.41800000000E+01 0.  1.
        -11    1    1    2    0    0  0.72284624117E+02 -0.90766798458E+01  0.19822347237E+02  0.75500850663E+02  0.00000000000E+00 0. -1.
         11    1    1    2    0    0 -0.64892667953E+01 -0.49746465888E+02  0.46629745410E+02  0.68492003978E+02  0.00000000000E+00 0.  1.
</event>
<event>
 7    1  0.2723366E-009  0.9207518E+02  0.7561462E-02  0.1297903E+00
         -2   -1    0    0    0  501 -0.00000000000E+00  0.00000000000E+00  0.59861973279E+02  0.59861973279E+02  0.00000000000E+00 0. -1.
          2   -1    0    0  501    0  0.00000000000E+00 -0.00000000000E+00 -0.26868471812E+03  0.26868471812E+03  0.00000000000E+00 0.  1.
         25    2    1    2    0    0 -0.90212051149E+01  0.74318675164E+01 -0.18438143868E+03  0.22311564040E+03  0.12508980480E+03 0.  0.
          5    1    3    3  502    0  0.42328380411E+01 -0.57419507586E+02 -0.10357972679E+03  0.11857971568E+03  0.41800000000E+01 0.  1.
         -5    1    3    3    0  502 -0.13254043156E+02  0.64851375102E+02 -0.80801711895E+02  0.10453592472E+03  0.41800000000E+01 0.  1.
        -11    1    1    2    0    0  0.39657817997E+01  0.25993473990E+02 -0.54297345226E+02  0.60329013036E+02  0.00000000000E+00 0.  1.
         11    1    1    2    0    0  0.50554233151E+01 -0.33425341506E+02  0.29856039065E+02  0.45102037963E+02  0.00000000000E+00 0. -1.
</event>
<event>
 7    1  0.2723366E-009  0.1015896E+03  0.7561462E-02  0.1276988E+00
          1   -1    0    0  501    0  0.00000000000E+00  0.00000000000E+00  0.42106960430E+02  0.42106960430E+02  0.00000000000E+00 0. -1.
         -1   -1    0    0    0  501 -0.00000000000E+00 -0.00000000000E+00 -0.36561537708E+03  0.36561537708E+03  0.00000000000E+00 0.  1.
         25    2    1    2    0    0 -0.26781088371E+02  0.46535233296E+02 -0.21274116111E+03  0.25256503861E+03  0.12509013736E+03 0.  0.
          5    1    3    3  502    0  0.22399790115E+02  0.53446165156E+02 -0.18829051407E+03  0.19705083927E+03  0.41800000000E+01 0. -1.
         -5    1    3    3    0  502 -0.49180878485E+02 -0.69109318603E+01 -0.24450647034E+02  0.55514199338E+02  0.41800000000E+01 0. -1.
        -11    1    1    2    0    0  0.54896920340E+02 -0.32771826683E+02 -0.34352832582E+02  0.72579484659E+02  0.00000000000E+00 0.  1.
         11    1    1    2    0    0 -0.28115831970E+02 -0.13763406614E+02 -0.76414422966E+02  0.82577814249E+02  0.00000000000E+00 0. -1.
</event>
<event>
 7    1  0.2723366E-009  0.9313736E+02  0.7561462E-02  0.1295427E+00
         -1   -1    0    0    0  501 -0.00000000000E+00  0.00000000000E+00  0.40911714099E+02  0.40911714099E+02  0.00000000000E+00 0.  1.
          1   -1    0    0  501    0  0.00000000000E+00 -0.00000000000E+00 -0.57842490323E+03  0.57842490323E+03  0.00000000000E+00 0. -1.
         25    2    1    2    0    0  0.39434562826E+02 -0.64254281705E+02 -0.44653414715E+03  0.46981230530E+03  0.12508860928E+03 0.  0.
          5    1    3    3  502    0  0.29896125408E+02 -0.28616429957E+01 -0.15038410395E+02  0.33846617294E+02  0.41800000000E+01 0.  1.
         -5    1    3    3    0  502  0.95384374185E+01 -0.61392638709E+02 -0.43149573676E+03  0.43596568800E+03  0.41800000000E+01 0.  1.
        -11    1    1    2    0    0 -0.52169439226E+02  0.38125549688E+02 -0.12471251464E+02  0.65808358445E+02  0.00000000000E+00 0.  1.
         11    1    1    2    0    0  0.12734876400E+02  0.26128732017E+02 -0.78507790520E+02  0.83715953593E+02  0.00000000000E+00 0. -1.
</event>
<event>
 7    1  0.2723366E-009  0.1160181E+03  0.7561462E-02  0.1249814E+00
          1   -1    0    0  501    0  0.00000000000E+00  0.00000000000E+00  0.18703248245E+03  0.18703248245E+03  0.00000000000E+00 0. -1.
         -1   -1    0    0    0  501 -0.00000000000E+00 -0.00000000000E+00 -0.90926893071E+02  0.90926893071E+02  0.00000000000E+00 0.  1.
         25    2    1    2    0    0 -0.35418524656E+02  0.35670680778E+02  0.10010688140E+01  0.13481320858E+03  0.12508688866E+03 0.  0.
          5    1    3    3  502    0 -0.46968165603E+02 -0.34065155761E+02 -0.19064521316E+02  0.61215780564E+02  0.41800000000E+01 0. -1.
         -5    1    3    3    0  502  0.11549640946E+02  0.69735836539E+02  0.20065590130E+02  0.73597428019E+02  0.41800000000E+01 0. -1.
        -11    1    1    2    0    0 -0.10259111961E+02 -0.53162415751E+02  0.30593362172E+02  0.62188790274E+02  0.00000000000E+00 0. -1.
         11    1    1    2    0    0  0.45677636618E+02  0.17491734972E+02  0.64511158396E+02  0.80957376668E+02  0.00000000000E+00 0.  1.
</event>
<event>
 7    1  0.2723366E-009  0.1405889E+03  0.7561462E-02  0.1212539E+00
         -1   -1    0    0    0  501 -0.00000000000E+00  0.00000000000E+00  0.21282745945E+03  0.21282745945E+03  0.00000000000E+00 0.  1.
          1   -1    0    0  501    0  0.00000000000E+00 -0.00000000000E+00 -0.27503241662E+03  0.27503241662E+03  0.00000000000E+00 0. -1.
         25    2    1    2    0    0  0.94995913104E+02  0.55464309401E+02 -0.21965508123E+03  0.27567372259E+03  0.12508850263E+03 0.  0.
          5    1    3    3  502    0  0.76966621559E+02 -0.93036868411E+01 -0.48010357591E+02  0.91284644158E+02  0.41800000000E+01 0.  1.
         -5    1    3    3    0  502  0.18029291546E+02  0.64767996242E+02 -0.17164472364E+03  0.18438907843E+03  0.41800000000E+01 0.  1.
        -11    1    1    2    0    0  0.14006477828E+02 -0.13268455700E+02  0.49307932460E+02  0.52948140112E+02  0.00000000000E+00 0.  1.
         11    1    1    2    0    0 -0.10900239093E+03 -0.42195853700E+02  0.10814219160E+03  0.15923801337E+03  0.00000000000E+00 0. -1.
</event>
<event>
 7    1  0.2723366E-009  0.1841745E+03  0.7561462E-02  0.1163823E+00
          4   -1    0    0  501    0  0.00000000000E+00  0.00000000000E+00  0.91522333952E+02  0.91522333952E+02  0.00000000000E+00 0. -1.
         -4   -1    0    0    0  501 -0.00000000000E+00 -0.00000000000E+00 -0.43341316949E+03  0.43341316949E+03  0.00000000000E+00 0.  1.
         25    2    1    2    0    0 -0.10102821556E+02  0.16640451785E+03 -0.16623884466E+03  0.26659875340E+03  0.12508801412E+03 0.  0.
          5    1    3    3  502    0 -0.21607308933E+02 -0.96162939660E+01  0.23087092215E+00  0.24018214138E+02  0.41800000000E+01 0.  1.
         -5    1    3    3    0  502  0.11504487377E+02  0.17602081181E+03 -0.16646971558E+03  0.24258053926E+03  0.41800000000E+01 0.  1.
        -11    1    1    2    0    0 -0.25677949658E+00 -0.13091817722E+03 -0.74478412000E+02  0.15062094448E+03  0.00000000000E+00 0. -1.
         11    1    1    2    0    0  0.10359601053E+02 -0.35486340626E+02 -0.10117357887E+03  0.10771580556E+03  0.00000000000E+00 0.  1.
</event>
<event>
 7    1  0.2723366E-009  0.1027775E+03  0.7561462E-02  0.1274561E+00
          1   -1    0    0  501    0  0.00000000000E+00  0.00000000000E+00  0.53796076134E+03  0.53796076134E+03  0.00000000000E+00 0. -1.
         -1   -1    0    0    0  501 -0.00000000000E+00 -0.00000000000E+00 -0.23442900801E+02  0.23442900801E+02  0.00000000000E+00 0.  1.
         25    2    1    2    0    0  0.94302517881E+00  0.68744358810E+01  0.22358025098E+03  0.25629726752E+03  0.12510800751E+03 0.  0.
          5    1    3    3  502    0 -0.12206231314E+02  0.58743637317E+02  0.17055513885E+03  0.18084892811E+03  0.41800000000E+01 0. -1.
         -5    1    3    3    0  502  0.13149256493E+02 -0.51869201436E+02  0.53025112131E+02  0.75448339415E+02  0.41800000000E+01 0. -1.
        -11    1    1    2    0    0 -0.40207356556E+02 -0.26185069245E+02  0.14316703980E+03  0.15099367755E+03  0.00000000000E+00 0.  1.
         11    1    1    2    0    0  0.39264331377E+02  0.19310633364E+02  0.14777056975E+03  0.15411271707E+03  0.00000000000E+00 0. -1.
</event>
<event>
 7    1  0.2723366E-009  0.3324179E+03  0.7561462E-02  0.1070072E+00
         -2   -1    0    0    0  501 -0.00000000000E+00  0.00000000000E+00  0.51054399286E+03  0.51054399286E+03  0.00000000000E+00 0.  1.
          2   -1    0    0  501    0  0.00000000000E+00 -0.00000000000E+00 -0.22611782228E+03  0.22611782228E+03  0.00000000000E+00 0. -1.
         25    2    1    2    0    0  0.31395922530E+03  0.64515538096E+02  0.11902983770E+03  0.36407233477E+03  0.12509161793E+03 0.  0.
          5    1    3    3  502    0  0.32434823325E+03  0.57082098871E+02  0.10778405429E+03  0.34654727987E+03  0.41800000000E+01 0. -1.
         -5    1    3    3    0  502 -0.10389007952E+02  0.74334392253E+01  0.11245783406E+02  0.17525054903E+02  0.41800000000E+01 0. -1.
        -11    1    1    2    0    0 -0.13447425087E+03 -0.11912895836E+02  0.11882020429E+03  0.17984293753E+03  0.00000000000E+00 0.  1.
         11    1    1    2    0    0 -0.17948497443E+03 -0.52602642261E+02  0.46576128587E+02  0.19274654284E+03  0.00000000000E+00 0. -1.
</event>
<event>
 7    1  0.2723366E-009  0.1387926E+03  0.7561462E-02  0.1214963E+00
          1   -1    0    0  501    0  0.00000000000E+00  0.00000000000E+00  0.33424076038E+03  0.33424076038E+03  0.00000000000E+00 0. -1.
         -1   -1    0    0    0  501 -0.00000000000E+00 -0.00000000000E+00 -0.79949348343E+02  0.79949348343E+02  0.00000000000E+00 0.  1.
         25    2    1    2    0    0  0.49600965549E+02 -0.99376625719E+02  0.20020366099E+03  0.26088781972E+03  0.12507989080E+03 0.  0.
          5    1    3    3  502    0  0.84195811356E+02 -0.94740417637E+02  0.18047968731E+03  0.22057894576E+03  0.41800000000E+01 0. -1.
         -5    1    3    3    0  502 -0.34594845807E+02 -0.46362080817E+01  0.19723973687E+02  0.40308873958E+02  0.41800000000E+01 0. -1.
        -11    1    1    2    0    0  0.83306841333E+00  0.29118726570E+02 -0.23257603482E+02  0.37276136599E+02  0.00000000000E+00 0.  1.
         11    1    1    2    0    0 -0.50434033962E+02  0.70257899149E+02  0.77345354526E+02  0.11602615240E+03  0.00000000000E+00 0. -1.
</event>
<event>
 7    1  0.2723366E-009  0.9909923E+02  0.7561462E-02  0.1282202E+00
          2   -1    0    0  501    0  0.00000000000E+00  0.00000000000E+00  0.29400886174E+03  0.29400886174E+03  0.00000000000E+00 0. -1.
         -2   -1    0    0    0  501 -0.00000000000E+00 -0.00000000000E+00 -0.59717347717E+02  0.59717347717E+02  0.00000000000E+00 0.  1.
         25    2    1    2    0    0  0.37091778134E+02  0.47435211722E+02  0.18750681388E+03  0.23330753613E+03  0.12509077443E+03 0.  0.
          5    1    3    3  502    0  0.60149295365E+02  0.38751011700E+02  0.36848724237E+02  0.80590815348E+02  0.41800000000E+01 0.  1.
         -5    1    3    3    0  502 -0.23057517231E+02  0.86842000223E+01  0.15065808965E+03  0.15271672078E+03  0.41800000000E+01 0.  1.
        -11    1    1    2    0    0  0.72393435457E+00 -0.61264971648E+02  0.51288086797E+02  0.79902369672E+02  0.00000000000E+00 0.  1.
         11    1    1    2    0    0 -0.37815712488E+02  0.13829759926E+02 -0.45033866550E+01  0.40516303656E+02  0.00000000000E+00 0. -1.
</event>
<event>
 7    1  0.2723366E-009  0.1088973E+03  0.7561462E-02  0.1262626E+00
          1   -1    0    0  501    0  0.00000000000E+00  0.00000000000E+00  0.19125286636E+02  0.19125286636E+02  0.00000000000E+00 0. -1.
         -1   -1    0    0    0  501 -0.00000000000E+00 -0.00000000000E+00 -0.81094154013E+03  0.81094154013E+03  0.00000000000E+00 0.  1.
         25    2    1    2    0    0  0.14419610490E+02 -0.40046396398E+02 -0.58789450895E+03  0.60256066592E+03  0.12509102057E+03 0.  0.
          5    1    3    3  502    0 -0.45830200433E+02 -0.17534645437E+01 -0.10861102034E+03  0.11797164087E+03  0.41800000000E+01 0. -1.
         -5    1    3    3    0  502  0.60249810923E+02 -0.38292931855E+02 -0.47928348861E+03  0.48458902505E+03  0.41800000000E+01 0. -1.
        -11    1    1    2    0    0 -0.24513004895E+01  0.68925218032E+02 -0.15171542653E+03  0.16665612861E+03  0.00000000000E+00 0.  1.
         11    1    1    2    0    0 -0.11968310000E+02 -0.28878821633E+02 -0.52206318015E+02  0.60850032242E+02  0.00000000000E+00 0. -1.
</event>
<event>
 7    1  0.2723366E-009  0.1517462E+03  0.7561462E-02  0.1198344E+00
         -1   -1    0    0    0  501 -0.00000000000E+00  0.00000000000E+00  0.43566196052E+03  0.43566196052E+03  0.00000000000E+00 0.  1.
          1   -1    0    0  501    0  0.00000000000E+00 -0.00000000000E+00 -0.58645160999E+02  0.58645160999E+02  0.00000000000E+00 0. -1.
         25    2    1    2    0    0  0.38511425957E+01  0.11813325014E+03  0.18222967568E+03  0.25064669752E+03  0.12508323705E+03 0.  0.
          5    1    3    3  502    0  0.49849272345E+02  0.90166594733E+02  0.65836433616E+02  0.12233917259E+03  0.41800000000E+01 0.  1.
         -5    1    3    3    0  502 -0.45998129749E+02  0.27966655409E+02  0.11639324206E+03  0.12830752493E+03  0.41800000000E+01 0.  1.
        -11    1    1    2    0    0  0.28132716482E+02 -0.46934975845E+01  0.37724987947E+02  0.47293269836E+02  0.00000000000E+00 0.  1.
         11    1    1    2    0    0 -0.31983859078E+02 -0.11343975256E+03  0.15706213589E+03  0.19636715416E+03  0.00000000000E+00 0. -1.
</event>
<event>
 7    1  0.2723366E-009  0.1734634E+03  0.7561462E-02  0.1174283E+00
          1   -1    0    0  501    0  0.00000000000E+00  0.00000000000E+00  0.84092860415E+03  0.84092860415E+03  0.00000000000E+00 0. -1.
         -1   -1    0    0    0  501 -0.00000000000E+00 -0.00000000000E+00 -0.42934288817E+02  0.42934288817E+02  0.00000000000E+00 0.  1.
         25    2    1    2    0    0  0.14180950179E+03 -0.58724909282E+02  0.37245933063E+03  0.42181951317E+03  0.12508876429E+03 0.  0.
          5    1    3    3  502    0  0.84263874055E+02  0.27861108342E+02  0.12485046890E+03  0.15323757311E+03  0.41800000000E+01 0. -1.
         -5    1    3    3    0  502  0.57545627733E+02 -0.86586017624E+02  0.24760886173E+03  0.26858194006E+03  0.41800000000E+01 0. -1.
        -11    1    1    2    0    0 -0.99401241035E+02  0.34671027498E+02  0.15641474783E+03  0.18854246261E+03  0.00000000000E+00 0.  1.
         11    1    1    2    0    0 -0.42408260752E+02  0.24053881784E+02  0.26912023687E+03  0.27350091719E+03  0.00000000000E+00 0. -1.
</event>
<event>
 7    1  0.2723366E-009  0.7779951E+02  0.7561462E-02  0.1335415E+00
         -2   -1    0    0    0  501 -0.00000000000E+00  0.00000000000E+00  0.41770207017E+02  0.41770207017E+02  0.00000000000E+00 0.  1.
          2   -1    0    0  501    0  0.00000000000E+00 -0.00000000000E+00 -0.39062745365E+03  0.39062745365E+03  0.00000000000E+00 0. -1.
         25    2    1    2    0    0 -0.61471330120E+02 -0.30835937026E+02 -0.21778517601E+03  0.26039931585E+03  0.12509133211E+03 0.  0.
          5    1    3    3  502    0 -0.10560142826E+02 -0.12071796845E+02  0.14378920287E+02  0.21942439340E+02  0.41800000000E+01 0. -1.
         -5    1    3    3    0  502 -0.50911187294E+02 -0.18764140182E+02 -0.23216409629E+03  0.23845687651E+03  0.41800000000E+01 0. -1.
        -11    1    1    2    0    0  0.41559526143E+02  0.44164174805E+02 -0.29128192464E+02  0.67276445698E+02  0.00000000000E+00 0.  1.
         11    1    1    2    0    0  0.19911803977E+02 -0.13328237779E+02 -0.10194387816E+03  0.10472189912E+03  0.00000000000E+00 0. -1.
</event>
<event>
 7    1  0.2723366E-009  0.9665798E+02  0.7561462E-02  0.1287485E+00
         -2   -1    0    0    0  501 -0.00000000000E+00  0.00000000000E+00  0.11056518359E+02  0.11056518359E+02  0.00000000000E+00 0. -1.
          2   -1    0    0  501    0  0.00000000000E+00 -0.00000000000E+00 -0.15681345748E+04  0.15681345748E+04  0.00000000000E+00 0.  1.
         25    2    1    2    0    0  0.30763427473E+02  0.33044627934E+02 -0.12008163277E+04  0.12081577028E+04  0.12508735376E+03 0.  0.
          5    1    3    3  502    0  0.55065882072E+02  0.47231824206E+02 -0.38217742913E+03  0.38902462174E+03  0.41800000000E+01 0. -1.
         -5    1    3    3    0  502 -0.24302454599E+02 -0.14187196272E+02 -0.81863889858E+03  0.81913308107E+03  0.41800000000E+01 0. -1.
        -11    1    1    2    0    0  0.16077128567E+02 -0.41586654850E+02 -0.25822821999E+03  0.26204911281E+03  0.00000000000E+00 0.  1.
         11    1    1    2    0    0 -0.46840556040E+02  0.85420269154E+01 -0.98033508739E+02  0.10898427753E+03  0.00000000000E+00 0. -1.
</event>
<event>
 7    1  0.2723366E-009  0.1474821E+03  0.7561462E-02  0.1203602E+00
          1   -1    0    0  501    0  0.00000000000E+00  0.00000000000E+00  0.13940515569E+04  0.13940515569E+04  0.00000000000E+00 0. -1.
         -1   -1    0    0    0  501 -0.00000000000E+00 -0.00000000000E+00 -0.40987607550E+02  0.40987607550E+02  0.00000000000E+00 0.  1.
         25    2    1    2    0    0  0.78561096993E+02 -0.87389751542E+02  0.12319491435E+04  0.12438468690E+04  0.12509007463E+03 0.  0.
          5    1    3    3  502    0  0.42272927063E+02  0.21212084240E+02  0.20012911530E+03  0.20568443809E+03  0.41800000000E+01 0.  1.
         -5    1    3    3    0  502  0.36288169930E+02 -0.10860183578E+03  0.10318200282E+04  0.10381624309E+04  0.41800000000E+01 0.  1.
        -11    1    1    2    0    0 -0.82104378228E+02  0.51674179913E+02  0.12127268827E+03  0.15530104544E+03  0.00000000000E+00 0. -1.
         11    1    1    2    0    0  0.35432812356E+01  0.35715571630E+02 -0.15788242331E+00  0.35891249987E+02  0.00000000000E+00 0.  1.
</event>
<event>
 7    1  0.2723366E-009  0.1434821E+03  0.7561462E-02  0.1208719E+00
          2   -1    0    0  501    0  0.00000000000E+00  0.00000000000E+00  0.69734467592E+03  0.69734467592E+03  0.00000000000E+00 0. -1.
         -2   -1    0    0    0  501 -0.00000000000E+00 -0.00000000000E+00 -0.33053959440E+02  0.33053959440E+02  0.00000000000E+00 0.  1.
         25    2    1    2    0    0 -0.10020334814E+03  0.28645618333E+02  0.32149499482E+03  0.36037197181E+03  0.12509054298E+03 0.  0.
          5    1    3    3  502    0 -0.77944896279E+02  0.67528594410E+02  0.28272497136E+03  0.30097574612E+03  0.41800000000E+01 0. -1.
         -5    1    3    3    0  502 -0.22258451857E+02 -0.38882976077E+02  0.38770023460E+02  0.59396225694E+02  0.41800000000E+01 0. -1.
        -11    1    1    2    0    0  0.39996936330E+02 -0.59037735407E+02  0.19284292742E+03  0.20560545657E+03  0.00000000000E+00 0. -1.
         11    1    1    2    0    0  0.60206411806E+02  0.30392117074E+02  0.14995279424E+03  0.16442120698E+03  0.00000000000E+00 0.  1.
</event>
<event>
 7    1  0.2723366E-009  0.1117499E+03  0.7561462E-02  0.1257363E+00
          1   -1    0    0  501    0  0.00000000000E+00  0.00000000000E+00  0.48681205247E+03  0.48681205247E+03  0.00000000000E+00 0. -1.
         -1   -1    0    0    0  501 -0.00000000000E+00 -0.00000000000E+00 -0.29864442243E+02  0.29864442243E+02  0.00000000000E+00 0.  1.
         25    2    1    2    0    0 -0.16027873160E+02 -0.50525751981E+02  0.26957747852E+03  0.30187639156E+03  0.12509034545E+03 0.  0.
          5    1    3    3  502    0  0.46187460543E+02 -0.39029564181E+02  0.19386716216E+03  0.20312197655E+03  0.41800000000E+01 0. -1.
         -5    1    3    3    0  502 -0.62215333703E+02 -0.11496187801E+02  0.75710316355E+02  0.98754415012E+02  0.41800000000E+01 0. -1.
        -11    1    1    2    0    0  0.51638793106E+01  0.73702194132E+02  0.16507738112E+03  0.18085690705E+03  0.00000000000E+00 0. -1.
         11    1    1    2    0    0  0.10863993850E+02 -0.23176442150E+02  0.22292750588E+02  0.33943196106E+02  0.00000000000E+00 0.  1.
</event>
<event>
 7    1  0.2723366E-009  0.8924068E+02  0.7561462E-02  0.1304701E+00
         -2   -1    0    0    0  501 -0.00000000000E+00  0.00000000000E+00  0.13579381848E+02  0.13579381848E+02  0.00000000000E+00 0.  1.
          2   -1    0    0  501    0  0.00000000000E+00 -0.00000000000E+00 -0.12532107989E+04  0.12532107989E+04  0.00000000000E+00 0. -1.
         25    2    1    2    0    0  0.26846362284E+02 -0.65616780758E+01 -0.10044449004E+04  0.10125812244E+04  0.12508954965E+03 0.  0.
          5    1    3    3  502    0 -0.31549831294E+02  0.23813035687E+02 -0.13747012955E+03  0.14310122795E+03  0.41800000000E+01 0. -1.
         -5    1    3    3    0  502  0.58396193578E+02 -0.30374713763E+02 -0.86697477080E+03  0.86947999648E+03  0.41800000000E+01 0. -1.
        -11    1    1    2    0    0 -0.14041464817E+02 -0.30493847135E+02 -0.19572268628E+03  0.19858098442E+03  0.00000000000E+00 0. -1.
         11    1    1    2    0    0 -0.12804897466E+02  0.37055525211E+02 -0.39463830451E+02  0.55627971935E+02  0.00000000000E+00 0.  1.
</event>
<event>
 7    1  0.2723366E-009  0.9040954E+02  0.7561462E-02  0.1301863E+00
          1   -1    0    0  501    0  0.00000000000E+00  0.00000000000E+00  0.37836151937E+02  0.37836151937E+02  0.00000000000E+00 0. -1.
         -1   -1    0    0    0  501 -0.00000000000E+00 -0.00000000000E+00 -0.31004207397E+03  0.31004207397E+03  0.00000000000E+00 0.  1.
         25    2    1    2    0    0  0.18839207517E+01 -0.17500199427E+01 -0.12669860728E+03  0.17806436343E+03  0.12509104169E+03 0.  0.
          5    1    3    3  502    0  0.12106506420E+02 -0.46022447154E+02 -0.12339072668E+03  0.13231544494E+03  0.41800000000E+01 0. -1.
         -5    1    3    3    0  502 -0.10222585668E+02  0.44272427212E+02 -0.33078805979E+01  0.45748918490E+02  0.41800000000E+01 0. -1.
        -11    1    1    2    0    0 -0.39690592862E+02 -0.19313484372E+02 -0.78055977205E+02  0.89672121743E+02  0.00000000000E+00 0.  1.
         11    1    1    2    0    0  0.37806672110E+02  0.21063504315E+02 -0.67451337545E+02  0.80141740726E+02  0.00000000000E+00 0. -1.
</event>
<event>
 7    1  0.2723366E-009  0.2136413E+03  0.7561462E-02  0.1138714E+00
         -1   -1    0    0    0  501 -0.00000000000E+00  0.00000000000E+00  0.49426966763E+02  0.49426966763E+02  0.00000000000E+00 0.  1.
          1   -1    0    0  501    0  0.00000000000E+00 -0.00000000000E+00 -0.10523308267E+04  0.10523308267E+04  0.00000000000E+00 0. -1.
         25    2    1    2    0    0 -0.12220824941E+03  0.14118377523E+03 -0.34361930499E+03  0.41059634174E+03  0.12508962579E+03 0.  0.
          5    1    3    3  502    0 -0.92805939365E+02  0.16308142220E+03 -0.28103795482E+03  0.33794718093E+03  0.41800000000E+01 0. -1.
         -5    1    3    3    0  502 -0.29402310045E+02 -0.21897646965E+02 -0.62581350164E+02  0.72649160814E+02  0.41800000000E+01 0. -1.
        -11    1    1    2    0    0  0.12962557805E+03 -0.10807474776E+03 -0.59499907120E+03  0.61847137065E+03  0.00000000000E+00 0. -1.
         11    1    1    2    0    0 -0.74173286420E+01 -0.33109027474E+02 -0.64285483747E+02  0.72690081064E+02  0.00000000000E+00 0.  1.
</event>
<event>
 7    1  0.2723366E-009  0.1002382E+03  0.7561462E-02  0.1279796E+00
          2   -1    0    0  501    0  0.00000000000E+00  0.00000000000E+00  0.40829508977E+03  0.40829508977E+03  0.00000000000E+00 0. -1.
         -2   -1    0    0    0  501 -0.00000000000E+00 -0.00000000000E+00 -0.33815343038E+02  0.33815343038E+02  0.00000000000E+00 0.  1.
         25    2    1    2    0    0  0.11716246729E+02 -0.46482855927E+02  0.23269972612E+03  0.26850528871E+03  0.12509197095E+03 0.  0.
          5    1    3    3  502    0 -0.10577945302E+02  0.36667498259E+02  0.31633322765E+02  0.49744727002E+02  0.41800000000E+01 0. -1.
         -5    1    3    3    0  502  0.22294192031E+02 -0.83150354185E+02  0.20106640335E+03  0.21876056170E+03  0.41800000000E+01 0. -1.
        -11    1    1    2    0    0  0.22269290951E+02  0.31924780788E+02  0.15285575907E+02  0.41818199132E+02  0.00000000000E+00 0.  1.
         11    1    1    2    0    0 -0.33985537680E+02  0.14558075139E+02  0.12649444470E+03  0.13178694497E+03  0.00000000000E+00 0. -1.
</event>
<event>
 7    1  0.2723366E-009  0.1007919E+03  0.7561462E-02  0.1278640E+00
         -1   -1    0    0    0  501 -0.00000000000E+00  0.00000000000E+00  0.35460069003E+02  0.35460069003E+02  0.00000000000E+00 0.  1.
          1   -1    0    0  501    0  0.00000000000E+00 -0.00000000000E+00 -0.28766457205E+03  0.28766457205E+03  0.00000000000E+00 0. -1.
         25    2    1    2    0    0 -0.13262618943E+02 -0.21878856854E+02 -0.15718100441E+03  0.20250496278E+03  0.12509120818E+03 0.  0.
          5    1    3    3  502    0  0.40936140446E+02 -0.51375958963E+02 -0.79752082435E+02  0.10340756165E+03  0.41800000000E+01 0. -1.
         -5    1    3    3    0  502 -0.54198759390E+02  0.29497102110E+02 -0.77428921974E+02  0.99097401128E+02  0.41800000000E+01 0. -1.
        -11    1    1    2    0    0 -0.51935581023E+01 -0.23950498901E+02 -0.25922499852E+02  0.35673175384E+02  0.00000000000E+00 0.  1.
         11    1    1    2    0    0  0.18456177046E+02  0.45829355755E+02 -0.69100998790E+02  0.84946502894E+02  0.00000000000E+00 0. -1.
</event>
<event>
 7    1  0.3124742E-009  0.9794128E+02  0.7561462E-02  0.1284686E+00
          2   -1    0    0  501    0  0.00000000000E+00  0.00000000000E+00  0.18423831762E+03  0.18423831762E+03  0.00000000000E+00 0. -1.
         -2   -1    0    0    0  501 -0.00000000000E+00 -0.00000000000E+00 -0.79890201935E+02  0.79890201935E+02  0.00000000000E+00 0.  1.
         25    2    1    2    0    0  0.38175709521E+02 -0.12136098444E+02  0.19413935406E+02  0.13277837136E+03  0.12509406592E+03 0.  0.
          5    1    3    3  502    0 -0.32835361969E+02  0.33094326415E+02  0.30289844160E+01  0.46904611533E+02  0.41800000000E+01 0.  1.
         -5    1    3    3    0  502  0.71011071490E+02 -0.45230424859E+02  0.16384950990E+02  0.85873759822E+02  0.41800000000E+01 0.  1.
        -11    1    1    2    0    0 -0.10821959617E+02  0.30145861762E+02 -0.78315357424E+01  0.32973030546E+02  0.00000000000E+00 0.  1.
         11    1    1    2    0    0 -0.27353749904E+02 -0.18009763319E+02  0.92765716018E+02  0.98377117649E+02  0.00000000000E+00 0. -1.
</event>
<event>
 7    1  0.2723366E-009  0.1445690E+03  0.7561462E-02  0.1207310E+00
         -1   -1    0    0    0  501 -0.00000000000E+00  0.00000000000E+00  0.31080833826E+03  0.31080833826E+03  0.00000000000E+00 0.  1.
          1   -1    0    0  501    0  0.00000000000E+00 -0.00000000000E+00 -0.78416500520E+02  0.78416500520E+02  0.00000000000E+00 0. -1.
         25    2    1    2    0    0  0.75405100396E+02  0.73309477827E+02  0.19659872038E+03  0.25566047930E+03  0.12510401718E+03 0.  0.
          5    1    3    3  502    0  0.10195917395E+03  0.20585503532E+02  0.13062626606E+03  0.16703331971E+03  0.41800000000E+01 0. -1.
         -5    1    3    3    0  502 -0.26554073556E+02  0.52723974295E+02  0.65972454321E+02  0.88627159590E+02  0.41800000000E+01 0. -1.
        -11    1    1    2    0    0 -0.33448046755E+02  0.79717470049E+01 -0.23358943083E+01  0.34464140556E+02  0.00000000000E+00 0.  1.
         11    1    1    2    0    0 -0.41957053641E+02 -0.81281224832E+02  0.38129011671E+02  0.99100218927E+02  0.00000000000E+00 0. -1.
</event>
<event>
 7    1  0.2723366E-009  0.1264576E+03  0.7561462E-02  0.1232809E+00
          2   -1    0    0  501    0  0.00000000000E+00  0.00000000000E+00  0.76762526114E+03  0.76762526114E+03  0.00000000000E+00 0. -1.
         -2   -1    0    0    0  501 -0.00000000000E+00 -0.00000000000E+00 -0.30506857200E+02  0.30506857200E+02  0.00000000000E+00 0.  1.
         25    2    1    2    0    0 -0.16335499427E+02 -0.69420585334E+02  0.59868034721E+03  0.61575300080E+03  0.12509010212E+03 0.  0.
          5    1    3    3  502    0 -0.68893317574E+02 -0.32009125256E+02  0.25761225470E+03  0.26861202408E+03  0.41800000000E+01 0.  1.
         -5    1    3    3    0  502  0.52557818147E+02 -0.37411460078E+02  0.34106809250E+03  0.34714097672E+03  0.41800000000E+01 0.  1.
        -11    1    1    2    0    0 -0.33132358158E+02  0.47893002001E+02  0.41741230667E+02  0.71650702268E+02  0.00000000000E+00 0.  1.
         11    1    1    2    0    0  0.49467857585E+02  0.21527583333E+02  0.96696826065E+02  0.11072841528E+03  0.00000000000E+00 0. -1.
</event>
<event>
 7    1  0.2723366E-009  0.1239028E+03  0.7561462E-02  0.1236794E+00
          2   -1    0    0  501    0  0.00000000000E+00  0.00000000000E+00  0.12921693577E+04  0.12921693577E+04  0.00000000000E+00 0. -1.
         -2   -1    0    0    0  501 -0.00000000000E+00 -0.00000000000E+00 -0.16185102061E+02  0.16185102061E+02  0.00000000000E+00 0.  1.
         25    2    1    2    0    0 -0.14764427062E+02 -0.74256192618E+02  0.94767120137E+03  0.95888477592E+03  0.12508931668E+03 0.  0.
          5    1    3    3  502    0  0.48908831578E+02 -0.64830510181E+02  0.49313293706E+03  0.49979259186E+03  0.41800000000E+01 0.  1.
         -5    1    3    3    0  502 -0.63673258641E+02 -0.94256824372E+01  0.45453826430E+03  0.45909218407E+03  0.41800000000E+01 0.  1.
        -11    1    1    2    0    0  0.38030359990E+02  0.20038909506E+02  0.54709081905E+02  0.69576934526E+02  0.00000000000E+00 0.  1.
         11    1    1    2    0    0 -0.23265932927E+02  0.54217283112E+02  0.27360397236E+03  0.27989274931E+03  0.00000000000E+00 0. -1.
</event>
<event>
 7    1  0.2723366E-009  0.1032411E+03  0.7561462E-02  0.1273624E+00
         -3   -1    0    0    0  501 -0.00000000000E+00  0.00000000000E+00  0.41695424335E+03  0.41695424335E+03  0.00000000000E+00 0. -1.
          3   -1    0    0  501    0  0.00000000000E+00 -0.00000000000E+00 -0.33645442152E+02  0.33645442152E+02  0.00000000000E+00 0.  1.
         25    2    1    2    0    0  0.48061008337E+00 -0.43861384878E+02  0.18654586606E+03  0.22884820973E+03  0.12509232944E+03 0.  0.
          5    1    3    3  502    0 -0.61231487875E+02 -0.29619786609E+02  0.82942234389E+02  0.10734762928E+03  0.41800000000E+01 0. -1.
         -5    1    3    3    0  502  0.61712097958E+02 -0.14241598270E+02  0.10360363167E+03  0.12150058045E+03  0.41800000000E+01 0. -1.
        -11    1    1    2    0    0 -0.28130546136E+02  0.36809218534E+02  0.18529420826E+03  0.19099787907E+03  0.00000000000E+00 0. -1.
         11    1    1    2    0    0  0.27649936053E+02  0.70521663441E+01  0.11468726887E+02  0.30753596705E+02  0.00000000000E+00 0.  1.
</event>
<event>
 7    1  0.2723366E-009  0.1328679E+03  0.7561462E-02  0.1223261E+00
          2   -1    0    0  501    0  0.00000000000E+00  0.00000000000E+00  0.58606644308E+03  0.58606644308E+03  0.00000000000E+00 0. -1.
         -2   -1    0    0    0  501 -0.00000000000E+00 -0.00000000000E+00 -0.34317675544E+02  0.34317675544E+02  0.00000000000E+00 0.  1.
         25    2    1    2    0    0 -0.55792941014E+02  0.69024418725E+02  0.36756508668E+03  0.39828257661E+03  0.12509074800E+03 0.  0.
          5    1    3    3  502    0  0.39071726248E+02  0.18687396377E+02  0.14018313404E+03  0.14678079590E+03  0.41800000000E+01 0. -1.
         -5    1    3    3    0  502 -0.94864667262E+02  0.50337022348E+02  0.22738195264E+03  0.25150178071E+03  0.41800000000E+01 0. -1.
        -11    1    1    2    0    0 -0.58319238629E+01 -0.49880311083E+02  0.40232448914E+02  0.64348323330E+02  0.00000000000E+00 0.  1.
         11    1    1    2    0    0  0.61624864877E+02 -0.19144107642E+02  0.14395123194E+03  0.15775321869E+03  0.00000000000E+00 0. -1.
</event>
<event>
 7    1  0.2723366E-009  0.1020281E+03  0.7561462E-02  0.1276088E+00
          2   -1    0    0  501    0  0.00000000000E+00  0.00000000000E+00  0.40821302527E+03  0.40821302527E+03  0.00000000000E+00 0. -1.
         -2   -1    0    0    0  501 -0.00000000000E+00 -0.00000000000E+00 -0.33283615840E+02  0.33283615840E+02  0.00000000000E+00 0.  1.
         25    2    1    2    0    0  0.15494240974E+02 -0.35925484671E+02  0.24491399509E+03  0.27777843598E+03  0.12508909845E+03 0.  0.
          5    1    3    3  502    0 -0.22531830990E+02 -0.64284231828E+02  0.20360310511E+03  0.21473668219E+03  0.41800000000E+01 0.  1.
         -5    1    3    3    0  502  0.38026071964E+02  0.28358747157E+02  0.41310889986E+02  0.63041753789E+02  0.41800000000E+01 0.  1.
        -11    1    1    2    0    0 -0.31465977963E+02 -0.14970842967E+02  0.17054632899E+02  0.38795546286E+02  0.00000000000E+00 0.  1.
         11    1    1    2    0    0  0.15971736989E+02  0.50896327637E+02  0.11296078143E+03  0.12492265884E+03  0.00000000000E+00 0. -1.
</event>
<event>
 7    1  0.2723366E-009  0.1180482E+03  0.7561462E-02  0.1246352E+00
         -2   -1    0    0    0  501 -0.00000000000E+00  0.00000000000E+00  0.16113543438E+03  0.16113543438E+03  0.00000000000E+00 0.  1.
          2   -1    0    0  501    0  0.00000000000E+00 -0.00000000000E+00 -0.12955980013E+03  0.12955980013E+03  0.00000000000E+00 0. -1.
         25    2    1    2    0    0  0.14261662574E+02  0.76945351245E+02  0.68563545739E+02  0.16270258772E+03  0.12508872910E+03 0.  0.
          5    1    3    3  502    0 -0.21140074609E+02 -0.12827300052E+02  0.60836487087E+02  0.65802681877E+02  0.41800000000E+01 0. -1.
         -5    1    3    3    0  502  0.35401737183E+02  0.89772651297E+02  0.77270586522E+01  0.96899905841E+02  0.41800000000E+01 0. -1.
        -11    1    1    2    0    0 -0.38815225531E+02 -0.59035746777E+01 -0.35317148486E+02  0.52808852517E+02  0.00000000000E+00 0. -1.
         11    1    1    2    0    0  0.24553562956E+02 -0.71041776568E+02 -0.16707630022E+01  0.75183794270E+02  0.00000000000E+00 0.  1.
</event>
<event>
 7    1  0.2723366E-009  0.2745574E+03  0.7561462E-02  0.1098699E+00
         -1   -1    0    0    0  501 -0.00000000000E+00  0.00000000000E+00  0.43408284520E+03  0.43408284520E+03  0.00000000000E+00 0.  1.
          1   -1    0    0  501    0  0.00000000000E+00 -0.00000000000E+00 -0.19048450983E+03  0.19048450983E+03  0.00000000000E+00 0. -1.
         25    2    1    2    0    0  0.17942085584E+03 -0.18719328687E+03  0.18861648648E+03  0.34417541777E+03  0.12508944427E+03 0.  0.
          5    1    3    3  502    0  0.12677831175E+02 -0.83107543124E+02  0.93374972248E+02  0.12571375808E+03  0.41800000000E+01 0.  1.
         -5    1    3    3    0  502  0.16674302466E+03 -0.10408574375E+03  0.95241514234E+02  0.21846165970E+03  0.41800000000E+01 0.  1.
        -11    1    1    2    0    0 -0.16473326902E+03  0.13163321085E+03  0.17093233786E+02  0.21155739354E+03  0.00000000000E+00 0.  1.
         11    1    1    2    0    0 -0.14687586813E+02  0.55560076024E+02  0.37888615099E+02  0.68834543714E+02  0.00000000000E+00 0. -1.
</event>
<event>
 7    1  0.2723366E-009  0.1271121E+03  0.7561462E-02  0.1231805E+00
         -4   -1    0    0    0  501 -0.00000000000E+00  0.00000000000E+00  0.71937250767E+02  0.71937250767E+02  0.00000000000E+00 0.  1.
          4   -1    0    0  501    0  0.00000000000E+00 -0.00000000000E+00 -0.28763765622E+03  0.28763765622E+03  0.00000000000E+00 0. -1.
         25    2    1    2    0    0  0.84020616497E+02 -0.29810395650E+02 -0.15670211667E+03  0.21943661456E+03  0.12509496694E+03 0.  0.
          5    1    3    3  502    0  0.66242822428E+02  0.24081381494E+02 -0.14509450541E+03  0.16136267337E+03  0.41800000000E+01 0. -1.
         -5    1    3    3    0  502  0.17777794069E+02 -0.53891777144E+02 -0.11607611262E+02  0.58073941186E+02  0.41800000000E+01 0. -1.
        -11    1    1    2    0    0 -0.61363569941E+02  0.62077051836E+02 -0.45715776917E+02  0.98534158238E+02  0.00000000000E+00 0. -1.
         11    1    1    2    0    0 -0.22657046556E+02 -0.32266656185E+02 -0.13282511859E+02  0.41604134185E+02  0.00000000000E+00 0.  1.
</event>
<event>
 7    1  0.2723366E-009  0.1058279E+03  0.7561462E-02  0.1268497E+00
          1   -1    0    0  501    0  0.00000000000E+00  0.00000000000E+00  0.32592945938E+02  0.32592945938E+02  0.00000000000E+00 0. -1.
         -1   -1    0    0    0  501 -0.00000000000E+00 -0.00000000000E+00 -0.39611277609E+03  0.39611277609E+03  0.00000000000E+00 0.  1.
         25    2    1    2    0    0 -0.10266028215E+02  0.27030585116E+02 -0.18847572642E+03  0.22804989020E+03  0.12509040371E+03 0.  0.
          5    1    3    3  502    0  0.45729748807E+02 -0.10068081267E+02 -0.29718694691E+02  0.55616988416E+02  0.41800000000E+01 0. -1.
         -5    1    3    3    0  502 -0.55995777022E+02  0.37098666382E+02 -0.15875703173E+03  0.17243290178E+03  0.41800000000E+01 0. -1.
        -11    1    1    2    0    0  0.43951083590E+02  0.12222897990E+02 -0.69764964822E+02  0.83356147348E+02  0.00000000000E+00 0.  1.
         11    1    1    2    0    0 -0.33685055375E+02 -0.39253483105E+02 -0.10527913891E+03  0.11729968449E+03  0.00000000000E+00 0. -1.
</event>
<event>
 7    1  0.2723366E-009  0.1060376E+03  0.7561462E-02  0.1268089E+00
          2   -1    0    0  501    0  0.00000000000E+00  0.00000000000E+00  0.70225143588E+03  0.70225143588E+03  0.00000000000E+00 0. -1.
         -2   -1    0    0    0  501 -0.00000000000E+00 -0.00000000000E+00 -0.27238868910E+02  0.27238868910E+02  0.00000000000E+00 0.  1.
         25    2    1    2    0    0  0.30824506601E+02  0.68400632812E+02  0.26626423957E+03  0.30359902772E+03  0.12508767957E+03 0.  0.
          5    1    3    3  502    0 -0.67542095362E+01  0.49611933416E+02  0.25499738507E+03  0.25990017714E+03  0.41800000000E+01 0.  1.
         -5    1    3    3    0  502  0.37578716137E+02  0.18788699396E+02  0.11266854500E+02  0.43698850578E+02  0.41800000000E+01 0.  1.
        -11    1    1    2    0    0  0.26231712986E+02  0.49364292384E+01  0.89342835046E+02  0.93244910176E+02  0.00000000000E+00 0. -1.
         11    1    1    2    0    0 -0.57056219587E+02 -0.73337062051E+02  0.31940549235E+03  0.33264636689E+03  0.00000000000E+00 0.  1.
</event>
<event>
 7    1  0.2723366E-009  0.1533984E+03  0.7561462E-02  0.1196358E+00
          4   -1    0    0  501    0  0.00000000000E+00  0.00000000000E+00  0.78570836257E+02  0.78570836257E+02  0.00000000000E+00 0. -1.
         -4   -1    0    0    0  501 -0.00000000000E+00 -0.00000000000E+00 -0.31096782388E+03  0.31096782388E+03  0.00000000000E+00 0.  1.
         25    2    1    2    0    0 -0.10200636113E+03  0.47228875644E+02 -0.12625605715E+03  0.21029528643E+03  0.12509057167E+03 0.  0.
          5    1    3    3  502    0 -0.35998725661E+02 -0.39964027816E+02 -0.66407999753E+02  0.85560075968E+02  0.41800000000E+01 0.  1.
         -5    1    3    3    0  502 -0.66007635471E+02  0.87192903460E+02 -0.59848057400E+02  0.12473521046E+03  0.41800000000E+01 0.  1.
        -11    1    1    2    0    0 -0.46110176983E+01 -0.35894795279E+02 -0.36461450762E+02  0.51372514090E+02  0.00000000000E+00 0.  1.
         11    1    1    2    0    0  0.10661737883E+03 -0.11334080366E+02 -0.69679479704E+02  0.12787085961E+03  0.00000000000E+00 0. -1.
</event>
<event>
 7    1  0.2723366E-009  0.1059123E+03  0.7561462E-02  0.1268333E+00
         -2   -1    0    0    0  501 -0.00000000000E+00  0.00000000000E+00  0.19885294721E+02  0.19885294721E+02  0.00000000000E+00 0.  1.
          2   -1    0    0  501    0  0.00000000000E+00 -0.00000000000E+00 -0.16039150384E+04  0.16039150384E+04  0.00000000000E+00 0. -1.
         25    2    1    2    0    0  0.21522409352E+02  0.73265366940E+02 -0.14189757907E+04  0.14265247214E+04  0.12509779478E+03 0.  0.
          5    1    3    3  502    0 -0.12459854305E+02 -0.10835358753E+02 -0.86412994077E+03  0.86429779584E+03  0.41800000000E+01 0.  1.
         -5    1    3    3    0  502  0.33982263657E+02  0.84100725693E+02 -0.55484584989E+03  0.56222692558E+03  0.41800000000E+01 0.  1.
        -11    1    1    2    0    0 -0.19420975255E+02  0.92044878454E+01 -0.15571780054E+02  0.26540105697E+02  0.00000000000E+00 0. -1.
         11    1    1    2    0    0 -0.21014340968E+01 -0.82469854785E+02 -0.14948217294E+03  0.17073550597E+03  0.00000000000E+00 0.  1.
</event>
<event>
 7    1  0.2723366E-009  0.1109562E+03  0.7561462E-02  0.1258809E+00
         -1   -1    0    0    0  501 -0.00000000000E+00  0.00000000000E+00  0.59270342139E+02  0.59270342139E+02  0.00000000000E+00 0. -1.
          1   -1    0    0  501    0  0.00000000000E+00 -0.00000000000E+00 -0.36108634515E+03  0.36108634515E+03  0.00000000000E+00 0.  1.
         25    2    1    2    0    0  0.30568686703E+02 -0.74618878308E+02 -0.84291622850E+02  0.17104188694E+03  0.12509127787E+03 0.  0.
          5    1    3    3  502    0  0.73767460636E+01  0.95975590685E+01  0.26774247316E+02  0.29679323474E+02  0.41800000000E+01 0.  1.
         -5    1    3    3    0  502  0.23191940640E+02 -0.84216437377E+02 -0.11106587017E+03  0.14136256347E+03  0.41800000000E+01 0.  1.
        -11    1    1    2    0    0  0.32719877350E+02  0.27714004711E+02 -0.83033812467E+02  0.93451968645E+02  0.00000000000E+00 0.  1.
         11    1    1    2    0    0 -0.63288564053E+02  0.46904873597E+02 -0.13449056770E+03  0.15586283170E+03  0.00000000000E+00 0. -1.
</event>
<event>
 7    1  0.2723366E-009  0.1821154E+03  0.7561462E-02  0.1165771E+00
         -2   -1    0    0    0  501 -0.00000000000E+00  0.00000000000E+00  0.23762909598E+02  0.23762909598E+02  0.00000000000E+00 0.  1.
          2   -1    0    0  501    0  0.00000000000E+00 -0.00000000000E+00 -0.16384983033E+04  0.16384983033E+04  0.00000000000E+00 0. -1.
         25    2    1    2    0    0 -0.15993031230E+03  0.20103901557E+02 -0.10141804440E+04  0.10344997393E+04  0.12508343578E+03 0.  0.
          5    1    3    3  502    0  0.67060293388E+01 -0.93120138073E+01 -0.31079241040E+03  0.31103227999E+03  0.41800000000E+01 0.  1.
         -5    1    3    3    0  502 -0.16663634163E+03  0.29415915365E+02 -0.70338803363E+03  0.72346745931E+03  0.41800000000E+01 0.  1.
        -11    1    1    2    0    0 -0.55268696334E+01 -0.16344404775E+02 -0.52415010031E+02  0.55181692000E+02  0.00000000000E+00 0. -1.
         11    1    1    2    0    0  0.16545718193E+03 -0.37594967827E+01 -0.54813993961E+03  0.57257978157E+03  0.00000000000E+00 0.  1.
</event>
<event>
 7    1  0.2723366E-009  0.1096868E+03  0.7561462E-02  0.1261151E+00
         -2   -1    0    0    0  501 -0.00000000000E+00  0.00000000000E+00  0.25878263455E+03  0.25878263455E+03  0.00000000000E+00 0.  1.
          2   -1    0    0  501    0  0.00000000000E+00 -0.00000000000E+00 -0.66501340856E+02  0.66501340856E+02  0.00000000000E+00 0. -1.
         25    2    1    2    0    0 -0.14863292054E+02  0.69391075696E+02  0.79374401786E+02  0.16426928020E+03  0.12509221368E+03 0.  0.
          5    1    3    3  502    0 -0.60610407389E+02  0.51943196510E+00  0.28586766088E+02  0.67145862783E+02  0.41800000000E+01 0.  1.
         -5    1    3    3    0  502  0.45747115336E+02  0.68871643731E+02  0.50787635697E+02  0.97123417421E+02  0.41800000000E+01 0.  1.
        -11    1    1    2    0    0 -0.87827395545E+00 -0.53345841356E+02  0.82693524478E+01  0.53990113401E+02  0.00000000000E+00 0. -1.
         11    1    1    2    0    0  0.15741566009E+02 -0.16045234340E+02  0.10463753946E+03  0.10702458181E+03  0.00000000000E+00 0.  1.
</event>
<event>
 7    1  0.2723366E-009  0.8439157E+02  0.7561462E-02  0.1317031E+00
          3   -1    0    0  501    0  0.00000000000E+00  0.00000000000E+00  0.25238911349E+02  0.25238911349E+02  0.00000000000E+00 0. -1.
         -3   -1    0    0    0  501 -0.00000000000E+00 -0.00000000000E+00 -0.15864632251E+04  0.15864632251E+04  0.00000000000E+00 0.  1.
         25    2    1    2    0    0 -0.18996788838E+02  0.48558473064E+02 -0.14598039298E+04  0.14660811939E+04  0.12509096861E+03 0.  0.
          5    1    3    3  502    0  0.30635589151E+02  0.55987644816E+02 -0.11834055061E+04  0.11851325749E+04  0.41800000000E+01 0. -1.
         -5    1    3    3    0  502 -0.49632377990E+02 -0.74291717520E+01 -0.27639842369E+03  0.28094861907E+03  0.41800000000E+01 0. -1.
        -11    1    1    2    0    0  0.96819233996E+01 -0.71843593711E+01  0.16426052092E+02  0.20375717106E+02  0.00000000000E+00 0. -1.
         11    1    1    2    0    0  0.93148654385E+01 -0.41374113693E+02 -0.11784643602E+03  0.12524522540E+03  0.00000000000E+00 0.  1.
</event>
<event>
 7    1  0.2723366E-009  0.7570190E+02  0.7561462E-02  0.1341711E+00
          1   -1    0    0  501    0  0.00000000000E+00  0.00000000000E+00  0.76718395268E+02  0.76718395268E+02  0.00000000000E+00 0. -1.
         -1   -1    0    0    0  501 -0.00000000000E+00 -0.00000000000E+00 -0.18293199354E+03  0.18293199354E+03  0.00000000000E+00 0.  1.
         25    2    1    2    0    0 -0.34602250513E+01 -0.41234997316E+01 -0.11323657332E+03  0.16882229501E+03  0.12509783909E+03 0.  0.
          5    1    3    3  502    0 -0.28477427855E+02 -0.33059973351E+02  0.53406485429E+01  0.44157905997E+02  0.41800000000E+01 0.  1.
         -5    1    3    3    0  502  0.25017202804E+02  0.28936473620E+02 -0.11857722187E+03  0.12466438901E+03  0.41800000000E+01 0.  1.
        -11    1    1    2    0    0 -0.23875916341E+02 -0.21124022517E+02 -0.25953015004E+02  0.41107696314E+02  0.00000000000E+00 0.  1.
         11    1    1    2    0    0  0.27336141392E+02  0.25247522249E+02  0.32975990057E+02  0.49720397486E+02  0.00000000000E+00 0. -1.
</event>
<event>
 7    1  0.2723366E-009  0.2033775E+03  0.7561462E-02  0.1146920E+00
         -1   -1    0    0    0  501 -0.00000000000E+00  0.00000000000E+00  0.24092179498E+02  0.24092179498E+02  0.00000000000E+00 0.  1.
          1   -1    0    0  501    0  0.00000000000E+00 -0.00000000000E+00 -0.18215640990E+04  0.18215640990E+04  0.00000000000E+00 0. -1.
         25    2    1    2    0    0  0.12857771398E+03  0.12066056727E+03 -0.10707755819E+04  0.10923822851E+04  0.12509000349E+03 0.  0.
          5    1    3    3  502    0  0.13327715336E+03  0.13842403835E+03 -0.10252593336E+04  0.10431194503E+04  0.41800000000E+01 0.  1.
         -5    1    3    3    0  502 -0.46994393798E+01 -0.17763471083E+02 -0.45516248264E+02  0.49262834789E+02  0.41800000000E+01 0.  1.
        -11    1    1    2    0    0  0.18380827207E+00 -0.47725702274E+02 -0.23473610306E+03  0.23953875369E+03  0.00000000000E+00 0.  1.
         11    1    1    2    0    0 -0.12876152225E+03 -0.72934864996E+02 -0.49196023459E+03  0.51373523975E+03  0.00000000000E+00 0. -1.
</event>
<event>
 7    1  0.2723366E-009  0.2030246E+03  0.7561462E-02  0.1147212E+00
          3   -1    0    0  501    0  0.00000000000E+00  0.00000000000E+00  0.10085333445E+03  0.10085333445E+03  0.00000000000E+00 0.  1.
         -3   -1    0    0    0  501 -0.00000000000E+00 -0.00000000000E+00 -0.52124146826E+03  0.52124146826E+03  0.00000000000E+00 0. -1.
         25    2    1    2    0    0 -0.18735296174E+03  0.17087179517E+02 -0.31374765044E+03  0.38662359183E+03  0.12508840722E+03 0.  0.
          5    1    3    3  502    0 -0.73261752302E+02 -0.29448739908E+02 -0.45076863439E+02  0.91015980191E+02  0.41800000000E+01 0. -1.
         -5    1    3    3    0  502 -0.11409120944E+03  0.46535919424E+02 -0.26867078700E+03  0.29560761163E+03  0.41800000000E+01 0. -1.
        -11    1    1    2    0    0  0.40389211379E+02  0.28942337862E+02 -0.28749641944E+01  0.49771605719E+02  0.00000000000E+00 0.  1.
         11    1    1    2    0    0  0.14696375036E+03 -0.46029517379E+02 -0.10376551917E+03  0.18569960516E+03  0.00000000000E+00 0. -1.
</event>
<event>
 7    1  0.2723366E-009  0.8797920E+02  0.7561462E-02  0.1307820E+00
          2   -1    0    0  501    0  0.00000000000E+00  0.00000000000E+00  0.42336830941E+03  0.42336830941E+03  0.00000000000E+00 0. -1.
         -2   -1    0    0    0  501 -0.00000000000E+00 -0.00000000000E+00 -0.50465072312E+02  0.50465072312E+02  0.00000000000E+00 0.  1.
         25    2    1    2    0    0 -0.55928940561E+02 -0.44040982155E+02  0.30868703139E+03  0.34059252551E+03  0.12509168869E+03 0.  0.
          5    1    3    3  502    0 -0.59316313829E+02 -0.21533173855E+01  0.47840840815E+02  0.76349723718E+02  0.41800000000E+01 0. -1.
         -5    1    3    3    0  502  0.33873732673E+01 -0.41887664770E+02  0.26084619058E+03  0.26424280179E+03  0.41800000000E+01 0. -1.
        -11    1    1    2    0    0  0.41946627588E+02  0.20133685851E+02  0.86149922228E+02  0.97911664125E+02  0.00000000000E+00 0. -1.
         11    1    1    2    0    0  0.13982312973E+02  0.23907296304E+02 -0.21933716528E+02  0.35329192085E+02  0.00000000000E+00 0.  1.
</event>
<event>
 7    1  0.2723366E-009  0.8840310E+02  0.7561462E-02  0.1306766E+00
         -1   -1    0    0    0  501 -0.00000000000E+00  0.00000000000E+00  0.37801475127E+02  0.37801475127E+02  0.00000000000E+00 0.  1.
          1   -1    0    0  501    0  0.00000000000E+00 -0.00000000000E+00 -0.55781913404E+03  0.55781913404E+03  0.00000000000E+00 0. -1.
         25    2    1    2    0    0 -0.12225994911E+02 -0.51802521572E+02 -0.44591501371E+03  0.46617499246E+03  0.12508376376E+03 0.  0.
          5    1    3    3  502    0  0.16587593802E+02 -0.90820476837E+01 -0.38823246465E+03  0.38871525679E+03  0.41800000000E+01 0. -1.
         -5    1    3    3    0  502 -0.28813588713E+02 -0.42720473888E+02 -0.57682549057E+02  0.77459735666E+02  0.41800000000E+01 0. -1.
        -11    1    1    2    0    0 -0.21435002551E+02 -0.18164895192E+02 -0.14877051505E+02  0.31792285435E+02  0.00000000000E+00 0.  1.
         11    1    1    2    0    0  0.33660997462E+02  0.69967416764E+02 -0.59225593700E+02  0.97653331268E+02  0.00000000000E+00 0. -1.
</event>
<event>
 7    1  0.2723366E-009  0.1210515E+03  0.7561462E-02  0.1241372E+00
         -2   -1    0    0    0  501 -0.00000000000E+00  0.00000000000E+00  0.22219175497E+02  0.22219175497E+02  0.00000000000E+00 0.  1.
          2   -1    0    0  501    0  0.00000000000E+00 -0.00000000000E+00 -0.10122462696E+04  0.10122462696E+04  0.00000000000E+00 0. -1.
         25    2    1    2    0    0  0.27533219060E+02  0.99646959889E+02 -0.55211667839E+03  0.57547149553E+03  0.12508805238E+03 0.  0.
          5    1    3    3  502    0  0.38373864515E+01  0.69000568936E+02 -0.52107505610E+03  0.52565434512E+03  0.41800000000E+01 0.  1.
         -5    1    3    3    0  502  0.23695832608E+02  0.30646390953E+02 -0.31041622287E+02  0.49817150417E+02  0.41800000000E+01 0.  1.
        -11    1    1    2    0    0 -0.56420135597E+02 -0.83611051569E+02 -0.27869200516E+03  0.29638365911E+03  0.00000000000E+00 0.  1.
         11    1    1    2    0    0  0.28886916537E+02 -0.16035908320E+02 -0.15921841051E+03  0.16261029042E+03  0.00000000000E+00 0. -1.
</event>
<event>
 7    1  0.2723366E-009  0.8773283E+02  0.7561462E-02  0.1308437E+00
          1   -1    0    0  501    0  0.00000000000E+00  0.00000000000E+00  0.26547280733E+02  0.26547280733E+02  0.00000000000E+00 0. -1.
         -1   -1    0    0    0  501 -0.00000000000E+00 -0.00000000000E+00 -0.70865923670E+03  0.70865923670E+03  0.00000000000E+00 0.  1.
         25    2    1    2    0    0 -0.55102443254E+02 -0.45965058004E+02 -0.48256114218E+03  0.50364795422E+03  0.12508772937E+03 0.  0.
          5    1    3    3  502    0 -0.18376883300E+02 -0.11248343240E+02 -0.43018893937E+03  0.43074845446E+03  0.41800000000E+01 0.  1.
         -5    1    3    3    0  502 -0.36725559954E+02 -0.34716714764E+02 -0.52372202808E+02  0.72899499758E+02  0.41800000000E+01 0.  1.
        -11    1    1    2    0    0  0.56371575958E+02 -0.45217296970E+00 -0.16297313745E+03  0.17244768067E+03  0.00000000000E+00 0.  1.
         11    1    1    2    0    0 -0.12691327043E+01  0.46417230974E+02 -0.36577676336E+02  0.59110882545E+02  0.00000000000E+00 0. -1.
</event>
<event>
 7    1  0.2723366E-009  0.1122120E+03  0.7561462E-02  0.1256528E+00
         -2   -1    0    0    0  501 -0.00000000000E+00  0.00000000000E+00  0.10384952956E+02  0.10384952956E+02  0.00000000000E+00 0. -1.
          2   -1    0    0  501    0  0.00000000000E+00 -0.00000000000E+00 -0.12190903270E+04  0.12190903270E+04  0.00000000000E+00 0.  1.
         25    2    1    2    0    0 -0.21490456810E+02 -0.17790734585E+02 -0.66402412097E+03  0.67627909681E+03  0.12508810324E+03 0.  0.
          5    1    3    3  502    0  0.38367939625E+02  0.31756627690E+02 -0.28497427006E+03  0.28932402111E+03  0.41800000000E+01 0.  1.
         -5    1    3    3    0  502 -0.59858396435E+02 -0.49547362275E+02 -0.37904985091E+03  0.38695507570E+03  0.41800000000E+01 0.  1.
        -11    1    1    2    0    0  0.57886824251E+02  0.16562750022E+02 -0.32986699226E+03  0.33531692724E+03  0.00000000000E+00 0. -1.
         11    1    1    2    0    0 -0.36396367441E+02  0.12279845630E+01 -0.21481426080E+03  0.21787925591E+03  0.00000000000E+00 0.  1.
</event>
<event>
 7    1  0.2723366E-009  0.1108427E+03  0.7561462E-02  0.1259017E+00
          1   -1    0    0  501    0  0.00000000000E+00  0.00000000000E+00  0.36874190129E+03  0.36874190129E+03  0.00000000000E+00 0. -1.
         -1   -1    0    0    0  501 -0.00000000000E+00 -0.00000000000E+00 -0.47376708862E+02  0.47376708862E+02  0.00000000000E+00 0.  1.
         25    2    1    2    0    0  0.73748310591E+02 -0.90783057024E+01  0.17131105139E+03  0.22475917967E+03  0.12509190049E+03 0.  0.
          5    1    3    3  502    0  0.85527182618E+02  0.38675772887E+02  0.93088444542E+02  0.13226354480E+03  0.41800000000E+01 0.  1.
         -5    1    3    3    0  502 -0.11778872027E+02 -0.47754078589E+02  0.78222606848E+02  0.92495634871E+02  0.41800000000E+01 0.  1.
        -11    1    1    2    0    0 -0.28173923951E+02 -0.86368497128E+01 -0.39939330934E+01  0.29737462322E+02  0.00000000000E+00 0.  1.
         11    1    1    2    0    0 -0.45574386640E+02  0.17715155415E+02  0.15404807413E+03  0.16162196816E+03  0.00000000000E+00 0. -1.
</event>
<event>
 7    1  0.2723366E-009  0.1114465E+03  0.7561462E-02  0.1257914E+00
         -2   -1    0    0    0  501 -0.00000000000E+00  0.00000000000E+00  0.87287059001E+03  0.87287059001E+03  0.00000000000E+00 0. -1.
          2   -1    0    0  501    0  0.00000000000E+00 -0.00000000000E+00 -0.18504160427E+02  0.18504160427E+02  0.00000000000E+00 0.  1.
         25    2    1    2    0    0  0.65563388062E+01 -0.33923480035E+02  0.67455261883E+03  0.68692227992E+03  0.12508874855E+03 0.  0.
          5    1    3    3  502    0  0.63144651111E+02 -0.26634293308E+02  0.44943330208E+03  0.45464755356E+03  0.41800000000E+01 0.  1.
         -5    1    3    3    0  502 -0.56588312305E+02 -0.72891867269E+01  0.22511931675E+03  0.23227472636E+03  0.41800000000E+01 0.  1.
        -11    1    1    2    0    0 -0.71963201539E+01 -0.31138770387E+02  0.52146659292E+02  0.61161132431E+02  0.00000000000E+00 0.  1.
         11    1    1    2    0    0  0.63998134766E+00  0.65062250422E+02  0.12766715147E+03  0.14329133808E+03  0.00000000000E+00 0. -1.
</event>
<event>
 7    1  0.2723366E-009  0.1993332E+03  0.7561462E-02  0.1150303E+00
         -1   -1    0    0    0  501 -0.00000000000E+00  0.00000000000E+00  0.20307365186E+03  0.20307365186E+03  0.00000000000E+00 0.  1.
          1   -1    0    0  501    0  0.00000000000E+00 -0.00000000000E+00 -0.28204761362E+03  0.28204761362E+03  0.00000000000E+00 0. -1.
         25    2    1    2    0    0  0.19128899515E+03  0.31445597802E+02 -0.13192670970E+03  0.26576761589E+03  0.12508982227E+03 0.  0.
          5    1    3    3  502    0  0.18974481689E+03  0.33218549390E+02 -0.72061663064E+02  0.20571077571E+03  0.41800000000E+01 0. -1.
         -5    1    3    3    0  502  0.15441782648E+01 -0.17729515878E+01 -0.59865046636E+02  0.60056840182E+02  0.41800000000E+01 0. -1.
        -11    1    1    2    0    0 -0.15480099444E+03 -0.46632246973E+02  0.70170721055E+02  0.17624370749E+03  0.00000000000E+00 0.  1.
         11    1    1    2    0    0 -0.36488000716E+02  0.15186649171E+02 -0.17217973124E+02  0.43109942099E+02  0.00000000000E+00 0. -1.
</event>
<event>
 7    1  0.2723366E-009  0.1159539E+03  0.7561462E-02  0.1249925E+00
         -1   -1    0    0    0  501 -0.00000000000E+00  0.00000000000E+00  0.77695189787E+02  0.77695189787E+02  0.00000000000E+00 0.  1.
          1   -1    0    0  501    0  0.00000000000E+00 -0.00000000000E+00 -0.22734747114E+03  0.22734747114E+03  0.00000000000E+00 0. -1.
         25    2    1    2    0    0  0.98868074905E+01 -0.50131660022E+02 -0.14839328787E+03  0.20069594164E+03  0.12508941126E+03 0.  0.
          5    1    3    3  502    0 -0.55359312490E+02 -0.98267981918E+01 -0.79883432752E+02  0.97775532063E+02  0.41800000000E+01 0. -1.
         -5    1    3    3    0  502  0.65246119981E+02 -0.40304861831E+02 -0.68509855117E+02  0.10292040958E+03  0.41800000000E+01 0. -1.
        -11    1    1    2    0    0 -0.44343947199E+02  0.93242281832E+01  0.16252349638E+02  0.48140063909E+02  0.00000000000E+00 0.  1.
         11    1    1    2    0    0  0.34457139709E+02  0.40807431839E+02 -0.17511343119E+02  0.56206655372E+02  0.00000000000E+00 0. -1.
</event>
<event>
 7    1  0.2723366E-009  0.1526775E+03  0.7561462E-02  0.1197221E+00
         -2   -1    0    0    0  501 -0.00000000000E+00  0.00000000000E+00  0.14030623160E+03  0.14030623160E+03  0.00000000000E+00 0. -1.
          2   -1    0    0  501    0  0.00000000000E+00 -0.00000000000E+00 -0.25629016588E+03  0.25629016588E+03  0.00000000000E+00 0.  1.
         25    2    1    2    0    0 -0.11476842854E+03  0.75641209721E+02  0.14217248070E+02  0.18639653574E+03  0.12509258010E+03 0.  0.
          5    1    3    3  502    0 -0.10812817760E+03  0.24620160467E+02  0.51874224523E+02  0.12250005169E+03  0.41800000000E+01 0.  1.
         -5    1    3    3    0  502 -0.66402509374E+01  0.51021049254E+02 -0.37656976453E+02  0.63896484058E+02  0.41800000000E+01 0.  1.
        -11    1    1    2    0    0  0.67681960402E+02 -0.21516409394E+02 -0.11757138727E+03  0.13735659701E+03  0.00000000000E+00 0.  1.
         11    1    1    2    0    0  0.47086468138E+02 -0.54124800327E+02 -0.12629795080E+02  0.72843264726E+02  0.00000000000E+00 0. -1.
</event>
<event>
 7    1  0.2723366E-009  0.1779665E+03  0.7561462E-02  0.1169786E+00
         -2   -1    0    0    0  501 -0.00000000000E+00  0.00000000000E+00  0.56778186638E+02  0.56778186638E+02  0.00000000000E+00 0.  1.
          2   -1    0    0  501    0  0.00000000000E+00 -0.00000000000E+00 -0.69514131771E+03  0.69514131771E+03  0.00000000000E+00 0. -1.
         25    2    1    2    0    0  0.15955242282E+03  0.54626000032E+02 -0.36161531379E+03  0.41815765209E+03  0.12509680780E+03 0.  0.
          5    1    3    3  502    0  0.11998148057E+03  0.34876764209E+02 -0.12278111341E+03  0.17522733397E+03  0.41800000000E+01 0.  1.
         -5    1    3    3    0  502  0.39570942251E+02  0.19749235822E+02 -0.23883420039E+03  0.24293031812E+03  0.41800000000E+01 0.  1.
        -11    1    1    2    0    0 -0.10482276541E+03  0.57784380044E+01 -0.15107609736E+03  0.18397062180E+03  0.00000000000E+00 0. -1.
         11    1    1    2    0    0 -0.54729657405E+02 -0.60404438036E+02 -0.12567171993E+03  0.14979123046E+03  0.00000000000E+00 0.  1.
</event>
<event>
 7    1  0.2723366E-009  0.1520306E+03  0.7561462E-02  0.1198000E+00
         -1   -1    0    0    0  501 -0.00000000000E+00  0.00000000000E+00  0.96161294287E+02  0.96161294287E+02  0.00000000000E+00 0.  1.
          1   -1    0    0  501    0  0.00000000000E+00 -0.00000000000E+00 -0.25577791641E+03  0.25577791641E+03  0.00000000000E+00 0. -1.
         25    2    1    2    0    0 -0.79878153049E+02 -0.75685100647E+02 -0.60772274531E+02  0.17733470239E+03  0.12508226703E+03 0.  0.
          5    1    3    3  502    0 -0.46861169350E+02 -0.10944327698E+03 -0.45688627773E+02  0.12758809967E+03  0.41800000000E+01 0. -1.
         -5    1    3    3    0  502 -0.33016983699E+02  0.33758176338E+02 -0.15083646758E+02  0.49746602716E+02  0.41800000000E+01 0. -1.
        -11    1    1    2    0    0  0.55728368631E-01  0.55093700639E+02 -0.65732175653E+02  0.85767347352E+02  0.00000000000E+00 0. -1.
         11    1    1    2    0    0  0.79822424681E+02  0.20591400008E+02 -0.33112171939E+02  0.88837160956E+02  0.00000000000E+00 0.  1.
</event>
<event>
 7    1  0.2723366E-009  0.9495358E+02  0.7561462E-02  0.1291281E+00
         -2   -1    0    0    0  501 -0.00000000000E+00  0.00000000000E+00  0.82794876855E+02  0.82794876855E+02  0.00000000000E+00 0.  1.
          2   -1    0    0  501    0  0.00000000000E+00 -0.00000000000E+00 -0.21675863442E+03  0.21675863442E+03  0.00000000000E+00 0. -1.
         25    2    1    2    0    0  0.97291566836E+01  0.71090336646E+02 -0.37167242720E+02  0.14892850275E+03  0.12509917084E+03 0.  0.
          5    1    3    3  502    0 -0.33342448566E+02  0.14067230239E+02 -0.63042946808E+02  0.72811341048E+02  0.41800000000E+01 0.  1.
         -5    1    3    3    0  502  0.43071605250E+02  0.57023106406E+02  0.25875704088E+02  0.76117161699E+02  0.41800000000E+01 0.  1.
        -11    1    1    2    0    0  0.13811208726E+02 -0.43427419271E+02  0.17429145223E+01  0.45604034713E+02  0.00000000000E+00 0.  1.
         11    1    1    2    0    0 -0.23540365409E+02 -0.27662917374E+02 -0.98539429371E+02  0.10502097382E+03  0.00000000000E+00 0. -1.
</event>
<event>
 7    1  0.2723366E-009  0.1087275E+03  0.7561462E-02  0.1262945E+00
          2   -1    0    0  501    0  0.00000000000E+00  0.00000000000E+00  0.41190082359E+03  0.41190082359E+03  0.00000000000E+00 0. -1.
         -2   -1    0    0    0  501 -0.00000000000E+00 -0.00000000000E+00 -0.38444676836E+02  0.38444676836E+02  0.00000000000E+00 0.  1.
         25    2    1    2    0    0 -0.30412562974E+02 -0.56882834228E+02  0.22407823913E+03  0.26461294996E+03  0.12509346593E+03 0.  0.
          5    1    3    3  502    0  0.43484027003E+02 -0.33607225777E+02  0.13868411964E+03  0.14923492778E+03  0.41800000000E+01 0. -1.
         -5    1    3    3    0  502 -0.73896589977E+02 -0.23275608451E+02  0.85394119494E+02  0.11537802218E+03  0.41800000000E+01 0. -1.
        -11    1    1    2    0    0 -0.16188852228E+02  0.15919762903E+02 -0.13385773970E+01  0.22744440569E+02  0.00000000000E+00 0.  1.
         11    1    1    2    0    0  0.46601415202E+02  0.40963071325E+02  0.15071648502E+03  0.16298810990E+03  0.00000000000E+00 0. -1.
</event>
<event>
 7    1  0.2723366E-009  0.1476804E+03  0.7561462E-02  0.1203353E+00
          4   -1    0    0  501    0  0.00000000000E+00  0.00000000000E+00  0.55140692179E+03  0.55140692179E+03  0.00000000000E+00 0. -1.
         -4   -1    0    0    0  501 -0.00000000000E+00 -0.00000000000E+00 -0.41327324238E+02  0.41327324238E+02  0.00000000000E+00 0.  1.
         25    2    1    2    0    0 -0.64110937786E+02  0.76690193976E+02  0.33512540867E+03  0.37141995470E+03  0.12510853297E+03 0.  0.
          5    1    3    3  502    0  0.33100393723E+02  0.48100919702E+02  0.11418948364E+03  0.12832008851E+03  0.41800000000E+01 0. -1.
         -5    1    3    3    0  502 -0.97211331508E+02  0.28589274274E+02  0.22093592503E+03  0.24309986620E+03  0.41800000000E+01 0. -1.
        -11    1    1    2    0    0  0.44570717725E+02  0.10718426591E+02  0.63912164917E+02  0.78652389484E+02  0.00000000000E+00 0. -1.
         11    1    1    2    0    0  0.19540220060E+02 -0.87408620568E+02  0.11104202397E+03  0.14266190184E+03  0.00000000000E+00 0.  1.
</event>
<event>
 7    1  0.2723366E-009  0.1069302E+03  0.7561462E-02  0.1266363E+00
         -1   -1    0    0    0  501 -0.00000000000E+00  0.00000000000E+00  0.10794652730E+03  0.10794652730E+03  0.00000000000E+00 0.  1.
          1   -1    0    0  501    0  0.00000000000E+00 -0.00000000000E+00 -0.23716472604E+03  0.23716472604E+03  0.00000000000E+00 0. -1.
         25    2    1    2    0    0 -0.29165283175E+02 -0.38708830679E+02  0.45415246662E+02  0.14162947275E+03  0.12508947041E+03 0.  0.
          5    1    3    3  502    0 -0.12411107895E+02 -0.77331247111E+02 -0.15120554445E+01  0.78446899815E+02  0.41800000000E+01 0.  1.
         -5    1    3    3    0  502 -0.16754175279E+02  0.38622416432E+02  0.46927302106E+02  0.63182572940E+02  0.41800000000E+01 0.  1.
        -11    1    1    2    0    0  0.51198038936E+02  0.47077785641E+02 -0.16295675798E+03  0.17717918067E+03  0.00000000000E+00 0. -1.
         11    1    1    2    0    0 -0.22032755761E+02 -0.83689549620E+01 -0.11676687422E+02  0.26302599924E+02  0.00000000000E+00 0.  1.
</event>
<event>
 7    1  0.2723366E-009  0.1499864E+03  0.7561462E-02  0.1200490E+00
         -2   -1    0    0    0  501 -0.00000000000E+00  0.00000000000E+00  0.13310972512E+03  0.13310972512E+03  0.00000000000E+00 0. -1.
          2   -1    0    0  501    0  0.00000000000E+00 -0.00000000000E+00 -0.33631547437E+03  0.33631547437E+03  0.00000000000E+00 0.  1.
         25    2    1    2    0    0 -0.60903404480E+02 -0.12106149011E+03 -0.23930072896E+03  0.30212039203E+03  0.12508710298E+03 0.  0.
          5    1    3    3  502    0  0.61733024148E+01 -0.22918296409E+01 -0.12176884587E+03  0.12201838538E+03  0.41800000000E+01 0. -1.
         -5    1    3    3    0  502 -0.67076706895E+02 -0.11876966047E+03 -0.11753188309E+03  0.18010200665E+03  0.41800000000E+01 0. -1.
        -11    1    1    2    0    0  0.41552702221E+00 -0.10708780199E+02 -0.10508005901E+02  0.15008958127E+02  0.00000000000E+00 0.  1.
         11    1    1    2    0    0  0.60487877458E+02  0.13177027031E+03  0.46602985608E+02  0.15229584933E+03  0.00000000000E+00 0. -1.
</event>
<event>
 7    1  0.2723366E-009  0.1513772E+03  0.7561462E-02  0.1198791E+00
         -2   -1    0    0    0  501 -0.00000000000E+00  0.00000000000E+00  0.19830315732E+03  0.19830315732E+03  0.00000000000E+00 0.  1.
          2   -1    0    0  501    0  0.00000000000E+00 -0.00000000000E+00 -0.17976492320E+03  0.17976492320E+03  0.00000000000E+00 0. -1.
         25    2    1    2    0    0 -0.13314310250E+03  0.30860132069E+02 -0.61107869301E+02  0.19509363704E+03  0.12509165452E+03 0.  0.
          5    1    3    3  502    0 -0.42490960423E+02  0.56711949502E+02 -0.70774543195E+02  0.10024088636E+03  0.41800000000E+01 0.  1.
         -5    1    3    3    0  502 -0.90652142077E+02 -0.25851817433E+02  0.96666738932E+01  0.94852750682E+02  0.41800000000E+01 0.  1.
        -11    1    1    2    0    0  0.91586173126E+02 -0.27920617873E+02  0.98392298845E+02  0.13729032188E+03  0.00000000000E+00 0.  1.
         11    1    1    2    0    0  0.41556929375E+02 -0.29395141956E+01 -0.18746195421E+02  0.45684121591E+02  0.00000000000E+00 0. -1.
</event>
<event>
 7    1  0.2723366E-009  0.1336931E+03  0.7561462E-02  0.1222076E+00
          1   -1    0    0  501    0  0.00000000000E+00  0.00000000000E+00  0.22703125132E+03  0.22703125132E+03  0.00000000000E+00 0. -1.
         -1   -1    0    0    0  501 -0.00000000000E+00 -0.00000000000E+00 -0.12846982483E+03  0.12846982483E+03  0.00000000000E+00 0.  1.
         25    2    1    2    0    0 -0.91031655001E+02  0.45990041676E+02  0.12143111796E+03  0.20197705029E+03  0.12508943316E+03 0.  0.
          5    1    3    3  502    0 -0.10604486590E+03  0.24819384131E+01  0.51085613214E+02  0.11780868338E+03  0.41800000000E+01 0. -1.
         -5    1    3    3    0  502  0.15013210896E+02  0.43508103262E+02  0.70345504749E+02  0.84168366916E+02  0.41800000000E+01 0. -1.
        -11    1    1    2    0    0  0.45743711591E+02  0.59213302204E+01 -0.59671573113E+02  0.75420461013E+02  0.00000000000E+00 0.  1.
         11    1    1    2    0    0  0.45287943410E+02 -0.51911371896E+02  0.36801881638E+02  0.78103564851E+02  0.00000000000E+00 0. -1.
</event>
<event>
 7    1  0.2823410E-009  0.1682940E+03  0.7561462E-02  0.1179639E+00
         -1   -1    0    0    0  501 -0.00000000000E+00  0.00000000000E+00  0.42373986167E+02  0.42373986167E+02  0.00000000000E+00 0.  1.
          1   -1    0    0  501    0  0.00000000000E+00 -0.00000000000E+00 -0.75648006476E+03  0.75648006476E+03  0.00000000000E+00 0. -1.
         25    2    1    2    0    0 -0.11368606629E+03 -0.84209037544E+02 -0.40904583031E+03  0.45053560941E+03  0.12509260722E+03 0.  0.
          5    1    3    3  502    0 -0.27110127789E+02 -0.95201011980E+02 -0.25279426029E+03  0.27151538105E+03  0.41800000000E+01 0.  1.
         -5    1    3    3    0  502 -0.86575938499E+02  0.10991974437E+02 -0.15625157002E+03  0.17902022837E+03  0.41800000000E+01 0.  1.
        -11    1    1    2    0    0  0.16470920539E+02  0.40174748859E+02 -0.28649608557E+02  0.52020205111E+02  0.00000000000E+00 0.  1.
         11    1    1    2    0    0  0.97215145749E+02  0.44034288685E+02 -0.27641063972E+03  0.29629823640E+03  0.00000000000E+00 0. -1.
</event>
<event>
 7    1  0.2723366E-009  0.1061219E+03  0.7561462E-02  0.1267925E+00
         -2   -1    0    0    0  501 -0.00000000000E+00  0.00000000000E+00  0.39618140414E+02  0.39618140414E+02  0.00000000000E+00 0.  1.
          2   -1    0    0  501    0  0.00000000000E+00 -0.00000000000E+00 -0.35261807117E+03  0.35261807117E+03  0.00000000000E+00 0. -1.
         25    2    1    2    0    0  0.87979295976E+01  0.34137671757E+02 -0.12589958486E+03  0.18094579923E+03  0.12509153686E+03 0.  0.
          5    1    3    3  502    0  0.22150095695E+02  0.75046440275E+02 -0.10962171003E+03  0.13474786323E+03  0.41800000000E+01 0. -1.
         -5    1    3    3    0  502 -0.13352166098E+02 -0.40908768518E+02 -0.16277874835E+02  0.46197935996E+02  0.41800000000E+01 0. -1.
        -11    1    1    2    0    0 -0.36075225401E+02  0.11170061851E+02 -0.40180886989E+02  0.55142504918E+02  0.00000000000E+00 0. -1.
         11    1    1    2    0    0  0.27277295803E+02 -0.45307733608E+02 -0.14691945891E+03  0.15614790743E+03  0.00000000000E+00 0.  1.
</event>
<event>
 7    1  0.2723366E-009  0.1054285E+03  0.7561462E-02  0.1269278E+00
          2   -1    0    0  501    0  0.00000000000E+00  0.00000000000E+00  0.38648182774E+03  0.38648182774E+03  0.00000000000E+00 0. -1.
         -2   -1    0    0    0  501 -0.00000000000E+00 -0.00000000000E+00 -0.51044043707E+02  0.51044043707E+02  0.00000000000E+00 0.  1.
         25    2    1    2    0    0 -0.34798821071E+01  0.60376597846E+02  0.80514040881E+02  0.16058381760E+03  0.12508880265E+03 0.  0.
          5    1    3    3  502    0 -0.10627302455E+02  0.81740679154E+02  0.10059266402E+03  0.13011854073E+03  0.41800000000E+01 0.  1.
         -5    1    3    3    0  502  0.71474203482E+01 -0.21364081308E+02 -0.20078623141E+02  0.30465276874E+02  0.41800000000E+01 0.  1.
        -11    1    1    2    0    0  0.44043225434E+02 -0.20688392778E+02  0.86937837692E+02  0.99629327635E+02  0.00000000000E+00 0.  1.
         11    1    1    2    0    0 -0.40563343327E+02 -0.39688205068E+02  0.16798590546E+03  0.17731272621E+03  0.00000000000E+00 0. -1.
</event>
<event>
 7    1  0.2723366E-009  0.2595601E+03  0.7561462E-02  0.1107408E+00
         -1   -1    0    0    0  501 -0.00000000000E+00  0.00000000000E+00  0.22760540855E+03  0.22760540855E+03  0.00000000000E+00 0.  1.
          1   -1    0    0  501    0  0.00000000000E+00 -0.00000000000E+00 -0.37415477864E+03  0.37415477864E+03  0.00000000000E+00 0. -1.
         25    2    1    2    0    0  0.65771000952E+02 -0.23741145951E+03 -0.18323598666E+03  0.33153126877E+03  0.12509008630E+03 0.  0.
          5    1    3    3  502    0 -0.32290737152E+02 -0.88607130155E+02 -0.38645943902E+02  0.10200439500E+03  0.41800000000E+01 0. -1.
         -5    1    3    3    0  502  0.98061738104E+02 -0.14880432935E+03 -0.14459004276E+03  0.22952687376E+03  0.41800000000E+01 0. -1.
        -11    1    1    2    0    0 -0.33612338149E+02  0.10775088918E+03  0.69651752487E+02  0.13263261296E+03  0.00000000000E+00 0.  1.
         11    1    1    2    0    0 -0.32158662802E+02  0.12966057033E+03 -0.32965135916E+02  0.13759630546E+03  0.00000000000E+00 0. -1.
</event>
<event>
 7    1  0.2723366E-009  0.1004902E+03  0.7561462E-02  0.1279269E+00
         -1   -1    0    0    0  501 -0.00000000000E+00  0.00000000000E+00  0.58139115442E+03  0.58139115442E+03  0.00000000000E+00 0.  1.
          1   -1    0    0  501    0  0.00000000000E+00 -0.00000000000E+00 -0.25681107692E+02  0.25681107692E+02  0.00000000000E+00 0. -1.
         25    2    1    2    0    0  0.33532576107E+02  0.33366482569E+01  0.20070654426E+03  0.23888326867E+03  0.12508609939E+03 0.  0.
          5    1    3    3  502    0  0.69409505559E+02  0.52524324226E+01  0.55167128757E+02  0.88916545163E+02  0.41800000000E+01 0. -1.
         -5    1    3    3    0  502 -0.35876929452E+02 -0.19157841657E+01  0.14553941550E+03  0.14996672351E+03  0.41800000000E+01 0. -1.
        -11    1    1    2    0    0 -0.46514168972E+02  0.32643819277E+02  0.25159935985E+03  0.25793686190E+03  0.00000000000E+00 0.  1.
         11    1    1    2    0    0  0.12981592865E+02 -0.35980467534E+02  0.10340414262E+03  0.11025213153E+03  0.00000000000E+00 0. -1.
</event>
<event>
 7    1  0.2723366E-009  0.9809237E+02  0.7561462E-02  0.1284359E+00
         -2   -1    0    0    0  501 -0.00000000000E+00  0.00000000000E+00  0.30081555663E+02  0.30081555663E+02  0.00000000000E+00 0. -1.
          2   -1    0    0  501    0  0.00000000000E+00 -0.00000000000E+00 -0.62504385419E+03  0.62504385419E+03  0.00000000000E+00 0.  1.
         25    2    1    2    0    0 -0.42726634779E+02 -0.18948445018E+02 -0.49576583026E+03  0.51343506630E+03  0.12508876837E+03 0.  0.
          5    1    3    3  502    0  0.52609911874E+01 -0.43394124321E+02 -0.40815413542E+03  0.41050943804E+03  0.41800000000E+01 0. -1.
         -5    1    3    3    0  502 -0.47987625966E+02  0.24445679303E+02 -0.87611694832E+02  0.10292562827E+03  0.41800000000E+01 0. -1.
        -11    1    1    2    0    0  0.49239354191E+02  0.47832221639E+02 -0.83767865184E+02  0.10830277312E+03  0.00000000000E+00 0.  1.
         11    1    1    2    0    0 -0.65127194126E+01 -0.28883776622E+02 -0.15428603090E+02  0.33387570432E+02  0.00000000000E+00 0. -1.
</event>
<event>
 7    1  0.2723366E-009  0.1088352E+03  0.7561462E-02  0.1262742E+00
          1   -1    0    0  501    0  0.00000000000E+00  0.00000000000E+00  0.88960473827E+03  0.88960473827E+03  0.00000000000E+00 0. -1.
         -1   -1    0    0    0  501 -0.00000000000E+00 -0.00000000000E+00 -0.16887192325E+02  0.16887192325E+02  0.00000000000E+00 0.  1.
         25    2    1    2    0    0 -0.48665287842E+02  0.22604557732E+02  0.42092427845E+03  0.44238456351E+03  0.12509027766E+03 0.  0.
          5    1    3    3  502    0 -0.81061067148E+02  0.24027943489E+02  0.17612655487E+03  0.19541308658E+03  0.41800000000E+01 0. -1.
         -5    1    3    3    0  502  0.32395779307E+02 -0.14233857566E+01  0.24479772358E+03  0.24697147692E+03  0.41800000000E+01 0. -1.
        -11    1    1    2    0    0  0.13008158569E+02  0.32320640500E+02  0.91441378256E+02  0.97853776877E+02  0.00000000000E+00 0. -1.
         11    1    1    2    0    0  0.35657129272E+02 -0.54925198233E+02  0.36035188924E+03  0.36625359022E+03  0.00000000000E+00 0.  1.
</event>
<event>
 7    1  0.2723366E-009  0.9499155E+02  0.7561462E-02  0.1291195E+00
         -1   -1    0    0    0  501 -0.00000000000E+00  0.00000000000E+00  0.77228515359E+02  0.77228515359E+02  0.00000000000E+00 0.  1.
          1   -1    0    0  501    0  0.00000000000E+00 -0.00000000000E+00 -0.17868091465E+03  0.17868091465E+03  0.00000000000E+00 0. -1.
         25    2    1    2    0    0 -0.23355759376E+02 -0.39012788974E+02 -0.56404763548E+02  0.14455345067E+03  0.12508682404E+03 0.  0.
          5    1    3    3  502    0  0.16763437075E+02 -0.44259953156E+02  0.24899657616E+02  0.53641603493E+02  0.41800000000E+01 0.  1.
         -5    1    3    3    0  502 -0.40119196450E+02  0.52471641821E+01 -0.81304421164E+02  0.90911847174E+02  0.41800000000E+01 0.  1.
        -11    1    1    2    0    0  0.43087931360E+02  0.59426115888E+02 -0.31024233811E+02  0.79690251361E+02  0.00000000000E+00 0. -1.
         11    1    1    2    0    0 -0.19732171984E+02 -0.20413326913E+02 -0.14023401933E+02  0.31665727982E+02  0.00000000000E+00 0.  1.
</event>
<event>
 7    1  0.2723366E-009  0.1268847E+03  0.7561462E-02  0.1232153E+00
         -2   -1    0    0    0  501 -0.00000000000E+00  0.00000000000E+00  0.22151547950E+03  0.22151547950E+03  0.00000000000E+00 0. -1.
          2   -1    0    0  501    0  0.00000000000E+00 -0.00000000000E+00 -0.98027361613E+02  0.98027361613E+02  0.00000000000E+00 0.  1.
         25    2    1    2    0    0 -0.11781706114E+02  0.83718530784E+02  0.12318161304E+03  0.19485648885E+03  0.12509092877E+03 0.  0.
          5    1    3    3  502    0  0.18039955464E+02  0.10921569678E+03  0.81995422566E+02  0.13781955644E+03  0.41800000000E+01 0. -1.
         -5    1    3    3    0  502 -0.29821661578E+02 -0.25497165996E+02  0.41186190470E+02  0.57036932408E+02  0.41800000000E+01 0. -1.
        -11    1    1    2    0    0  0.32688582625E+02 -0.73127071751E+02 -0.30731656243E+02  0.85793628856E+02  0.00000000000E+00 0.  1.
         11    1    1    2    0    0 -0.20906876511E+02 -0.10591459033E+02  0.31038161089E+02  0.38892723403E+02  0.00000000000E+00 0. -1.
</event>
<event>
 7    1  0.2723366E-009  0.8652365E+02  0.7561462E-02  0.1311495E+00
         -1   -1    0    0    0  501 -0.00000000000E+00  0.00000000000E+00  0.33140770541E+03  0.33140770541E+03  0.00000000000E+00 0.  1.
          1   -1    0    0  501    0  0.00000000000E+00 -0.00000000000E+00 -0.44409684748E+02  0.44409684748E+02  0.00000000000E+00 0. -1.
         25    2    1    2    0    0  0.49782643551E+02 -0.10767945391E+02  0.20211083349E+03  0.24308562706E+03  0.12509025870E+03 0.  0.
          5    1    3    3  502    0  0.21258120984E+02 -0.44913657132E+02  0.19049317021E+03  0.19691181935E+03  0.41800000000E+01 0.  1.
         -5    1    3    3    0  502  0.28524522566E+02  0.34145711741E+02  0.11617663283E+02  0.46173807707E+02  0.41800000000E+01 0.  1.
        -11    1    1    2    0    0 -0.27460614005E+02  0.35692598030E+02  0.88278065748E+02  0.99101280354E+02  0.00000000000E+00 0.  1.
         11    1    1    2    0    0 -0.22322029545E+02 -0.24924652639E+02 -0.33908785761E+01  0.33630482746E+02  0.00000000000E+00 0. -1.
</event>
<event>
 7    1  0.2723366E-009  0.7930146E+02  0.7561462E-02  0.1331046E+00
          2   -1    0    0  501    0  0.00000000000E+00  0.00000000000E+00  0.32902701701E+03  0.32902701701E+03  0.00000000000E+00 0. -1.
         -2   -1    0    0    0  501 -0.00000000000E+00 -0.00000000000E+00 -0.41039479392E+02  0.41039479392E+02  0.00000000000E+00 0.  1.
         25    2    1    2    0    0  0.27209264626E+01  0.38028364387E+02  0.13924809837E+03  0.19102642156E+03  0.12508997120E+03 0.  0.
          5    1    3    3  502    0 -0.22780455837E+02  0.26373708761E+02 -0.12038426924E+02  0.37106843098E+02  0.41800000000E+01 0.  1.
         -5    1    3    3    0  502  0.25501382299E+02  0.11654655626E+02  0.15128652530E+03  0.15391957846E+03  0.41800000000E+01 0.  1.
        -11    1    1    2    0    0 -0.33387445959E+02  0.12828786940E+02  0.31689527095E+02  0.47786247494E+02  0.00000000000E+00 0.  1.
         11    1    1    2    0    0  0.30666519497E+02 -0.50857151327E+02  0.11704991215E+03  0.13125382734E+03  0.00000000000E+00 0. -1.
</event>
<event>
 7    1  0.2723366E-009  0.1501001E+03  0.7561462E-02  0.1200350E+00
         -3   -1    0    0    0  501 -0.00000000000E+00  0.00000000000E+00  0.14218196193E+03  0.14218196193E+03  0.00000000000E+00 0.  1.
          3   -1    0    0  501    0  0.00000000000E+00 -0.00000000000E+00 -0.23602471787E+03  0.23602471787E+03  0.00000000000E+00 0. -1.
         25    2    1    2    0    0 -0.99163324639E+02  0.10890688461E+03 -0.48049901837E+02  0.19912479807E+03  0.12509123738E+03 0.  0.
          5    1    3    3  502    0 -0.92325935830E+02  0.85300267303E+02 -0.86966465596E+02  0.15290798726E+03  0.41800000000E+01 0. -1.
         -5    1    3    3    0  502 -0.68373888091E+01  0.23606617309E+02  0.38916563760E+02  0.46216810809E+02  0.41800000000E+01 0. -1.
        -11    1    1    2    0    0  0.31056263942E+02 -0.17944456820E+02 -0.54358175484E+02  0.65125312303E+02  0.00000000000E+00 0. -1.
         11    1    1    2    0    0  0.68107060697E+02 -0.90962427792E+02  0.85653213789E+01  0.11395656943E+03  0.00000000000E+00 0.  1.
</event>
<event>
 7    1  0.2723366E-009  0.1686683E+03  0.7561462E-02  0.1179244E+00
          3   -1    0    0  501    0  0.00000000000E+00  0.00000000000E+00  0.25091816884E+02  0.25091816884E+02  0.00000000000E+00 0. -1.
         -3   -1    0    0    0  501 -0.00000000000E+00 -0.00000000000E+00 -0.11904050613E+04  0.11904050613E+04  0.00000000000E+00 0.  1.
         25    2    1    2    0    0  0.32931129140E+02 -0.12671593451E+03 -0.52699926499E+03  0.55724143585E+03  0.12509358578E+03 0.  0.
          5    1    3    3  502    0 -0.22236087757E+02 -0.12327534555E+03 -0.38014437462E+03  0.40027299731E+03  0.41800000000E+01 0. -1.
         -5    1    3    3    0  502  0.55167216897E+02 -0.34405889607E+01 -0.14685489037E+03  0.15696843854E+03  0.41800000000E+01 0. -1.
        -11    1    1    2    0    0 -0.46740440957E+02  0.23281560583E+02 -0.14748270833E+03  0.15645398410E+03  0.00000000000E+00 0. -1.
         11    1    1    2    0    0  0.13809311818E+02  0.10343437393E+03 -0.49083127110E+03  0.50180145825E+03  0.00000000000E+00 0.  1.
</event>
<event>
 7    1  0.2723366E-009  0.1195269E+03  0.7561462E-02  0.1243880E+00
          4   -1    0    0  501    0  0.00000000000E+00  0.00000000000E+00  0.16766261099E+02  0.16766261099E+02  0.00000000000E+00 0. -1.
         -4   -1    0    0    0  501 -0.00000000000E+00 -0.00000000000E+00 -0.10163727556E+04  0.10163727556E+04  0.00000000000E+00 0.  1.
         25    2    1    2    0    0 -0.68961293604E+02  0.11184983522E+02 -0.49503802551E+03  0.51535521172E+03  0.12509030211E+03 0.  0.
          5    1    3    3  502    0 -0.36844286478E+01 -0.40534956743E+02 -0.61478404039E+02  0.73849335107E+02  0.41800000000E+01 0. -1.
         -5    1    3    3    0  502 -0.65276864956E+02  0.51719940264E+02 -0.43355962147E+03  0.44150587662E+03  0.41800000000E+01 0. -1.
        -11    1    1    2    0    0 -0.22110644738E+02 -0.83477085149E+01 -0.74095669731E+02  0.77773601698E+02  0.00000000000E+00 0. -1.
         11    1    1    2    0    0  0.91071938342E+02 -0.28372750068E+01 -0.43047279928E+03  0.44001020329E+03  0.00000000000E+00 0.  1.
</event>
<event>
 7    1  0.2723366E-009  0.1188072E+03  0.7561462E-02  0.1245078E+00
          2   -1    0    0  501    0  0.00000000000E+00  0.00000000000E+00  0.74760476159E+03  0.74760476159E+03  0.00000000000E+00 0. -1.
         -2   -1    0    0    0  501 -0.00000000000E+00 -0.00000000000E+00 -0.25298243811E+02  0.25298243811E+02  0.00000000000E+00 0.  1.
         25    2    1    2    0    0  0.38447071064E+02 -0.65875124182E+02  0.45093515635E+03  0.47413806771E+03  0.12508670098E+03 0.  0.
          5    1    3    3  502    0 -0.43015478623E+02 -0.84044943855E+01  0.18311840148E+03  0.18833690103E+03  0.41800000000E+01 0. -1.
         -5    1    3    3    0  502  0.81462549687E+02 -0.57470629797E+02  0.26781675487E+03  0.28580116669E+03  0.41800000000E+01 0. -1.
        -11    1    1    2    0    0  0.11864246991E+02  0.29277600598E+02  0.15032825232E+02  0.34984626451E+02  0.00000000000E+00 0.  1.
         11    1    1    2    0    0 -0.50311318056E+02  0.36597523584E+02  0.25633853620E+03  0.26378031124E+03  0.00000000000E+00 0. -1.
</event>
<event>
 7    1  0.2723366E-009  0.1487458E+03  0.7561462E-02  0.1202023E+00
         -2   -1    0    0    0  501 -0.00000000000E+00  0.00000000000E+00  0.48458074242E+02  0.48458074242E+02  0.00000000000E+00 0.  1.
          2   -1    0    0  501    0  0.00000000000E+00 -0.00000000000E+00 -0.58123810240E+03  0.58123810240E+03  0.00000000000E+00 0. -1.
         25    2    1    2    0    0  0.10258097645E+03  0.56457270435E+02 -0.18792501571E+03  0.25430992950E+03  0.12508976215E+03 0.  0.
          5    1    3    3  502    0  0.53189725089E+02 -0.34364845797E+02 -0.44717984361E+02  0.77635430101E+02  0.41800000000E+01 0. -1.
         -5    1    3    3    0  502  0.49391251362E+02  0.90822116232E+02 -0.14320703135E+03  0.17667449939E+03  0.41800000000E+01 0. -1.
        -11    1    1    2    0    0 -0.44108060451E+02  0.65608858351E+01 -0.44609545730E+02  0.63075968403E+02  0.00000000000E+00 0.  1.
         11    1    1    2    0    0 -0.58472916000E+02 -0.63018156270E+02 -0.30024546671E+03  0.31231027874E+03  0.00000000000E+00 0. -1.
</event>
<event>
 7    1  0.2874489E-009  0.9763811E+02  0.7561462E-02  0.1285343E+00
          2   -1    0    0  501    0  0.00000000000E+00  0.00000000000E+00  0.11804280243E+04  0.11804280243E+04  0.00000000000E+00 0. -1.
         -2   -1    0    0    0  501 -0.00000000000E+00 -0.00000000000E+00 -0.11510983944E+02  0.11510983944E+02  0.00000000000E+00 0.  1.
         25    2    1    2    0    0 -0.57632165578E+01  0.41201635926E+02  0.71295152625E+03  0.72503423534E+03  0.12507587364E+03 0.  0.
          5    1    3    3  502    0  0.12702178924E+02  0.63924366641E+02  0.66825149826E+03  0.67143518475E+03  0.41800000000E+01 0.  1.
         -5    1    3    3    0  502 -0.18465395482E+02 -0.22722730714E+02  0.44700027990E+02  0.53599050586E+02  0.41800000000E+01 0.  1.
        -11    1    1    2    0    0 -0.28185655542E+02 -0.56511431728E+02  0.27746008012E+03  0.28455591569E+03  0.00000000000E+00 0.  1.
         11    1    1    2    0    0  0.33948872100E+02  0.15309795802E+02  0.17850543399E+03  0.18234885721E+03  0.00000000000E+00 0. -1.
</event>
<event>
 7    1  0.2723366E-009  0.9807863E+02  0.7561462E-02  0.1284389E+00
          2   -1    0    0  501    0  0.00000000000E+00  0.00000000000E+00  0.59108506879E+02  0.59108506879E+02  0.00000000000E+00 0.  1.
         -2   -1    0    0    0  501 -0.00000000000E+00 -0.00000000000E+00 -0.25690858011E+03  0.25690858011E+03  0.00000000000E+00 0. -1.
         25    2    1    2    0    0 -0.94540146530E+01  0.27023104915E+02 -0.17656080835E+03  0.21826449811E+03  0.12508415366E+03 0.  0.
          5    1    3    3  502    0  0.22545044462E+02  0.63737924936E+02 -0.55034537653E+02  0.87275854849E+02  0.41800000000E+01 0.  1.
         -5    1    3    3    0  502 -0.31999059115E+02 -0.36714820020E+02 -0.12152627070E+03  0.13098864326E+03  0.41800000000E+01 0.  1.
        -11    1    1    2    0    0 -0.21657656846E+02 -0.40270124495E+02 -0.38511803398E+02  0.59782071124E+02  0.00000000000E+00 0. -1.
         11    1    1    2    0    0  0.31111671499E+02  0.13247019580E+02  0.17272538523E+02  0.37970517750E+02  0.00000000000E+00 0.  1.
</event>
<event>
 7    1  0.2723366E-009  0.1316361E+03  0.7561462E-02  0.1225048E+00
         -1   -1    0    0    0  501 -0.00000000000E+00  0.00000000000E+00  0.14946024656E+03  0.14946024656E+03  0.00000000000E+00 0.  1.
          1   -1    0    0  501    0  0.00000000000E+00 -0.00000000000E+00 -0.15331952917E+03  0.15331952917E+03  0.00000000000E+00 0. -1.
         25    2    1    2    0    0 -0.77467455660E+02 -0.56534885504E+02 -0.45741094979E+02  0.16412859175E+03  0.12509415212E+03 0.  0.
          5    1    3    3  502    0  0.15450351120E+02  0.26772833054E+02 -0.12777411756E+00  0.31192734181E+02  0.41800000000E+01 0.  1.
         -5    1    3    3    0  502 -0.92917806781E+02 -0.83307718558E+02 -0.45613320862E+02  0.13293585757E+03  0.41800000000E+01 0.  1.
        -11    1    1    2    0    0  0.47886219696E+02  0.60728633880E+02 -0.10799335825E+02  0.78087660126E+02  0.00000000000E+00 0.  1.
         11    1    1    2    0    0  0.29581235965E+02 -0.41937483755E+01  0.52681148190E+02  0.60563523851E+02  0.00000000000E+00 0. -1.
</event>
<event>
 7    1  0.2723366E-009  0.1006928E+03  0.7561462E-02  0.1278846E+00
          1   -1    0    0  501    0  0.00000000000E+00  0.00000000000E+00  0.50156746984E+03  0.50156746984E+03  0.00000000000E+00 0. -1.
         -1   -1    0    0    0  501 -0.00000000000E+00 -0.00000000000E+00 -0.33410534453E+02  0.33410534453E+02  0.00000000000E+00 0.  1.
         25    2    1    2    0    0  0.75649801296E+01  0.55673501037E+02  0.34537904097E+03  0.37160595018E+03  0.12509009803E+03 0.  0.
          5    1    3    3  502    0  0.47762922890E+02  0.37494770141E+02  0.30702018817E+03  0.31299524427E+03  0.41800000000E+01 0.  1.
         -5    1    3    3    0  502 -0.40197942760E+02  0.18178730896E+02  0.38358852800E+02  0.58610705910E+02  0.41800000000E+01 0.  1.
        -11    1    1    2    0    0 -0.30152562742E+02 -0.65088780268E+02  0.52323998692E+02  0.88789229053E+02  0.00000000000E+00 0.  1.
         11    1    1    2    0    0  0.22587582612E+02  0.94152792305E+01  0.70453895723E+02  0.74582825059E+02  0.00000000000E+00 0. -1.
</event>
<event>
 7    1  0.2723366E-009  0.9207097E+02  0.7561462E-02  0.1297913E+00
          1   -1    0    0  501    0  0.00000000000E+00  0.00000000000E+00  0.97098299732E+02  0.97098299732E+02  0.00000000000E+00 0. -1.
         -1   -1    0    0    0  501 -0.00000000000E+00 -0.00000000000E+00 -0.20111326473E+03  0.20111326473E+03  0.00000000000E+00 0.  1.
         25    2    1    2    0    0  0.21245708829E+02  0.62806387693E+02  0.48025855816E+01  0.14165402528E+03  0.12508707196E+03 0.  0.
          5    1    3    3  502    0  0.36618408559E+02  0.56877352138E+02  0.55868432200E+02  0.87833337339E+02  0.41800000000E+01 0.  1.
         -5    1    3    3    0  502 -0.15372699731E+02  0.59290355558E+01 -0.51065846619E+02  0.53820687942E+02  0.41800000000E+01 0.  1.
        -11    1    1    2    0    0 -0.47003374705E+02 -0.55222488054E+02 -0.40292897593E+02  0.82959978405E+02  0.00000000000E+00 0. -1.
         11    1    1    2    0    0  0.25757665877E+02 -0.75838996392E+01 -0.68524652989E+02  0.73597560778E+02  0.00000000000E+00 0.  1.
</event>
<event>
 7    1  0.2723366E-009  0.1181760E+03  0.7561462E-02  0.1246137E+00
          2   -1    0    0  501    0  0.00000000000E+00  0.00000000000E+00  0.63579518584E+03  0.63579518584E+03  0.00000000000E+00 0. -1.
         -2   -1    0    0    0  501 -0.00000000000E+00 -0.00000000000E+00 -0.48032031716E+02  0.48032031716E+02  0.00000000000E+00 0.  1.
         25    2    1    2    0    0  0.97236961002E+02 -0.76410966104E+01  0.49948864469E+03  0.52406806046E+03  0.12508002588E+03 0.  0.
          5    1    3    3  502    0  0.81763760923E+02 -0.27833457969E+02  0.14633556114E+03  0.16997524184E+03  0.41800000000E+01 0.  1.
         -5    1    3    3    0  502  0.15473200079E+02  0.20192361358E+02  0.35315308355E+03  0.35409281862E+03  0.41800000000E+01 0.  1.
        -11    1    1    2    0    0 -0.80228512899E+02 -0.27702091502E+02  0.85442284821E+02  0.12043423181E+03  0.00000000000E+00 0. -1.
         11    1    1    2    0    0 -0.17008448104E+02  0.35343188113E+02  0.28322246112E+01  0.39324925291E+02  0.00000000000E+00 0.  1.
</event>
<event>
 7    1  0.2723366E-009  0.7584248E+02  0.7561462E-02  0.1341282E+00
         -2   -1    0    0    0  501 -0.00000000000E+00  0.00000000000E+00  0.97653609252E+02  0.97653609252E+02  0.00000000000E+00 0.  1.
          2   -1    0    0  501    0  0.00000000000E+00 -0.00000000000E+00 -0.15841144953E+03  0.15841144953E+03  0.00000000000E+00 0. -1.
         25    2    1    2    0    0  0.40037098514E+02 -0.46063718645E+02 -0.45509407124E+02  0.14642988150E+03  0.12508304692E+03 0.  0.
          5    1    3    3  502    0  0.41059737447E+02 -0.10222513597E+02 -0.83698806568E+02  0.93879520900E+02  0.41800000000E+01 0.  1.
         -5    1    3    3    0  502 -0.10226389336E+01 -0.35841205049E+02  0.38189399444E+02  0.52550360604E+02  0.41800000000E+01 0.  1.
        -11    1    1    2    0    0 -0.30348834744E+02  0.53053591244E+02  0.26199987847E+02  0.66499433662E+02  0.00000000000E+00 0.  1.
         11    1    1    2    0    0 -0.96882637702E+01 -0.69898725984E+01 -0.41448420997E+02  0.43135743612E+02  0.00000000000E+00 0. -1.
</event>
<event>
 7    1  0.2723366E-009  0.1752117E+03  0.7561462E-02  0.1172519E+00
         -1   -1    0    0    0  501 -0.00000000000E+00  0.00000000000E+00  0.75574806957E+03  0.75574806957E+03  0.00000000000E+00 0.  1.
          1   -1    0    0  501    0  0.00000000000E+00 -0.00000000000E+00 -0.40935722866E+02  0.40935722866E+02  0.00000000000E+00 0. -1.
         25    2    1    2    0    0 -0.43961677303E+02  0.13056739810E+03  0.38993505611E+03  0.43206273288E+03  0.12509349563E+03 0.  0.
          5    1    3    3  502    0 -0.83117085267E+02  0.55078669256E+02  0.18633711457E+03  0.21137904895E+03  0.41800000000E+01 0. -1.
         -5    1    3    3    0  502  0.39155407964E+02  0.75488728840E+02  0.20359794154E+03  0.22068368393E+03  0.41800000000E+01 0.  1.
        -11    1    1    2    0    0  0.79353852691E+01 -0.12918742524E+03  0.25013270981E+03  0.28163581750E+03  0.00000000000E+00 0. -1.
         11    1    1    2    0    0  0.36026292034E+02 -0.13799728604E+01  0.74744580791E+02  0.82985242064E+02  0.00000000000E+00 0.  1.
</event>
<event>
 7    1  0.2723366E-009  0.1249462E+03  0.7561462E-02  0.1235153E+00
          2   -1    0    0  501    0  0.00000000000E+00  0.00000000000E+00  0.22677511530E+03  0.22677511530E+03  0.00000000000E+00 0. -1.
         -2   -1    0    0    0  501 -0.00000000000E+00 -0.00000000000E+00 -0.10333166790E+03  0.10333166790E+03  0.00000000000E+00 0.  1.
         25    2    1    2    0    0  0.21038360858E+02  0.10445104175E+03  0.47430295810E+02  0.17102684823E+03  0.12509163483E+03 0.  0.
          5    1    3    3  502    0 -0.11573416544E+02  0.23800909454E+01 -0.34091559907E+02  0.36322385113E+02  0.41800000000E+01 0.  1.
         -5    1    3    3    0  502  0.32611777402E+02  0.10207095081E+03  0.81521855717E+02  0.13470446312E+03  0.41800000000E+01 0.  1.
        -11    1    1    2    0    0 -0.12492476228E+02  0.95985431585E+01  0.33581205248E+02  0.37093009301E+02  0.00000000000E+00 0. -1.
         11    1    1    2    0    0 -0.85458846303E+01 -0.11404958491E+03  0.42431946342E+02  0.12198692566E+03  0.00000000000E+00 0.  1.
</event>
<event>
 7    1  0.2723366E-009  0.8846842E+02  0.7561462E-02  0.1306604E+00
          1   -1    0    0  501    0  0.00000000000E+00  0.00000000000E+00  0.32840200107E+03  0.32840200107E+03  0.00000000000E+00 0. -1.
         -1   -1    0    0    0  501 -0.00000000000E+00 -0.00000000000E+00 -0.38526798453E+02  0.38526798453E+02  0.00000000000E+00 0.  1.
         25    2    1    2    0    0 -0.15773006069E+02 -0.19069425443E+02  0.18249149568E+03  0.22262818250E+03  0.12509089072E+03 0.  0.
          5    1    3    3  502    0  0.41195053261E+02  0.13320969784E+02  0.13432301129E+03  0.14119002943E+03  0.41800000000E+01 0.  1.
         -5    1    3    3    0  502 -0.56968059331E+02 -0.32390395227E+02  0.48168484389E+02  0.81438153069E+02  0.41800000000E+01 0.  1.
        -11    1    1    2    0    0  0.26838351584E+01  0.41616879370E+02  0.91888653423E+01  0.42703663378E+02  0.00000000000E+00 0.  1.
         11    1    1    2    0    0  0.13089170911E+02 -0.22547453927E+02  0.98194841596E+02  0.10159695364E+03  0.00000000000E+00 0. -1.
</event>
<event>
 7    1  0.2723366E-009  0.8983367E+02  0.7561462E-02  0.1303255E+00
          1   -1    0    0  501    0  0.00000000000E+00  0.00000000000E+00  0.92553358373E+02  0.92553358373E+02  0.00000000000E+00 0. -1.
         -1   -1    0    0    0  501 -0.00000000000E+00 -0.00000000000E+00 -0.14133735471E+03  0.14133735471E+03  0.00000000000E+00 0.  1.
         25    2    1    2    0    0  0.35919639996E+02 -0.46899523058E+02 -0.59234499876E+02  0.15048403116E+03  0.12508769667E+03 0.  0.
          5    1    3    3  502    0 -0.31791224539E+02 -0.40437731279E+02 -0.63947434047E+02  0.82174441220E+02  0.41800000000E+01 0. -1.
         -5    1    3    3    0  502  0.67710864535E+02 -0.64617917787E+01  0.47129341704E+01  0.68309589938E+02  0.41800000000E+01 0. -1.
        -11    1    1    2    0    0 -0.53453760043E+01  0.14069789889E+02 -0.22971980420E+02  0.27463501535E+02  0.00000000000E+00 0.  1.
         11    1    1    2    0    0 -0.30574263991E+02  0.32829733169E+02  0.33422483957E+02  0.55943180393E+02  0.00000000000E+00 0. -1.
</event>
<event>
 7    1  0.2723366E-009  0.1187678E+03  0.7561462E-02  0.1245144E+00
         -2   -1    0    0    0  501 -0.00000000000E+00  0.00000000000E+00  0.94618185358E+02  0.94618185358E+02  0.00000000000E+00 0.  1.
          2   -1    0    0  501    0  0.00000000000E+00 -0.00000000000E+00 -0.22000144777E+03  0.22000144777E+03  0.00000000000E+00 0. -1.
         25    2    1    2    0    0 -0.19184420355E+02  0.90529936435E+02 -0.91364417223E+02  0.18043397519E+03  0.12508097895E+03 0.  0.
          5    1    3    3  502    0  0.38103404007E+02  0.54316263479E+02  0.14874963044E+00  0.66480225644E+02  0.41800000000E+01 0.  1.
         -5    1    3    3    0  502 -0.57287824362E+02  0.36213672956E+02 -0.91513166853E+02  0.11395374955E+03  0.41800000000E+01 0.  1.
        -11    1    1    2    0    0 -0.14325884625E+02 -0.16246297302E+02  0.25362721139E+02  0.33353272251E+02  0.00000000000E+00 0.  1.
         11    1    1    2    0    0  0.33510304980E+02 -0.74283639133E+02 -0.59381566327E+02  0.10083238568E+03  0.00000000000E+00 0. -1.
</event>
<event>
 7    1  0.2723366E-009  0.1468928E+03  0.7561462E-02  0.1204344E+00
         -1   -1    0    0    0  501 -0.00000000000E+00  0.00000000000E+00  0.31168409444E+03  0.31168409444E+03  0.00000000000E+00 0.  1.
          1   -1    0    0  501    0  0.00000000000E+00 -0.00000000000E+00 -0.96094860079E+02  0.96094860079E+02  0.00000000000E+00 0. -1.
         25    2    1    2    0    0 -0.98032159724E+01  0.11453241512E+03  0.38905459373E+02  0.17428509111E+03  0.12509149075E+03 0.  0.
          5    1    3    3  502    0 -0.38240199408E+02  0.16300381630E+02 -0.29531135720E+02  0.51162248475E+02  0.41800000000E+01 0.  1.
         -5    1    3    3    0  502  0.28436983436E+02  0.98232033494E+02  0.68436595093E+02  0.12312284264E+03  0.41800000000E+01 0.  1.
        -11    1    1    2    0    0 -0.35295275783E+02 -0.93410262402E+02  0.95002417102E+02  0.13782849078E+03  0.00000000000E+00 0.  1.
         11    1    1    2    0    0  0.45098491755E+02 -0.21122152722E+02  0.81681357884E+02  0.95665372627E+02  0.00000000000E+00 0. -1.
</event>
<event>
 7    1  0.2723366E-009  0.2283967E+03  0.7561462E-02  0.1127773E+00
         -2   -1    0    0    0  501 -0.00000000000E+00  0.00000000000E+00  0.16452139543E+03  0.16452139543E+03  0.00000000000E+00 0.  1.
          2   -1    0    0  501    0  0.00000000000E+00 -0.00000000000E+00 -0.37051395428E+03  0.37051395428E+03  0.00000000000E+00 0. -1.
         25    2    1    2    0    0  0.19459907633E+03  0.99285738106E+02 -0.16038349203E+03  0.29849180928E+03  0.12509211561E+03 0.  0.
          5    1    3    3  502    0  0.51418968652E+02  0.21718011985E+01  0.13287819259E+02  0.53316654043E+02  0.41800000000E+01 0.  1.
         -5    1    3    3    0  502  0.14318010768E+03  0.97113936907E+02 -0.17367131129E+03  0.24517515523E+03  0.41800000000E+01 0.  1.
        -11    1    1    2    0    0 -0.15582783304E+03 -0.39352198736E+02 -0.32217745280E+02  0.16391733345E+03  0.00000000000E+00 0.  1.
         11    1    1    2    0    0 -0.38771243294E+02 -0.59933539369E+02 -0.13391321546E+02  0.72626206982E+02  0.00000000000E+00 0. -1.
</event>
<event>
 7    1  0.2723366E-009  0.6247463E+02  0.7561462E-02  0.1387731E+00
         -3   -1    0    0    0  501 -0.00000000000E+00  0.00000000000E+00  0.26372532832E+03  0.26372532832E+03  0.00000000000E+00 0.  1.
          3   -1    0    0  501    0  0.00000000000E+00 -0.00000000000E+00 -0.49408292628E+02  0.49408292628E+02  0.00000000000E+00 0. -1.
         25    2    1    2    0    0 -0.32666911684E+02 -0.17880340569E+01  0.97654294536E+02  0.16203329542E+03  0.12509237946E+03 0.  0.
          5    1    3    3  502    0 -0.35531099698E+02 -0.36653000228E+02 -0.69195389741E+01  0.51684174475E+02  0.41800000000E+01 0.  1.
         -5    1    3    3    0  502  0.28641880143E+01  0.34864966172E+02  0.10457383351E+03  0.11034912095E+03  0.41800000000E+01 0.  1.
        -11    1    1    2    0    0  0.23598430895E+02 -0.82242503865E+01  0.12984356420E+03  0.13222660624E+03  0.00000000000E+00 0.  1.
         11    1    1    2    0    0  0.90684807886E+01  0.10012284443E+02 -0.13180823039E+02  0.18873719283E+02  0.00000000000E+00 0. -1.
</event>
<event>
 7    1  0.2855879E-009  0.2377580E+03  0.7561462E-02  0.1121295E+00
         -2   -1    0    0    0  501 -0.00000000000E+00  0.00000000000E+00  0.42539246053E+02  0.42539246053E+02  0.00000000000E+00 0.  1.
          2   -1    0    0  501    0  0.00000000000E+00 -0.00000000000E+00 -0.14143120116E+04  0.14143120116E+04  0.00000000000E+00 0. -1.
         25    2    1    2    0    0  0.21752466865E+03  0.12394061525E+02 -0.62711635311E+03  0.67556998398E+03  0.12509711699E+03 0.  0.
          5    1    3    3  502    0  0.20885156105E+03  0.44368651347E+02 -0.57789372486E+03  0.61608942647E+03  0.41800000000E+01 0.  1.
         -5    1    3    3    0  502  0.86731076078E+01 -0.31974589822E+02 -0.49222628255E+02  0.59480557514E+02  0.41800000000E+01 0.  1.
        -11    1    1    2    0    0 -0.75246049040E+02 -0.37533297811E+02 -0.37678707727E+03  0.38605597773E+03  0.00000000000E+00 0. -1.
         11    1    1    2    0    0 -0.14227861961E+03  0.25139236286E+02 -0.36786933515E+03  0.39522529593E+03  0.00000000000E+00 0.  1.
</event>
<event>
 7    1  0.2723366E-009  0.9118452E+02  0.7561462E-02  0.1300008E+00
          1   -1    0    0  501    0  0.00000000000E+00  0.00000000000E+00  0.36567230005E+02  0.36567230005E+02  0.00000000000E+00 0. -1.
         -1   -1    0    0    0  501 -0.00000000000E+00 -0.00000000000E+00 -0.36088867219E+03  0.36088867219E+03  0.00000000000E+00 0.  1.
         25    2    1    2    0    0 -0.32972939912E+02  0.19624153975E+02 -0.18389614771E+03  0.22569460225E+03  0.12509171897E+03 0.  0.
          5    1    3    3  502    0 -0.68071753247E+02  0.32516087262E+02 -0.60810404509E+02  0.96986788881E+02  0.41800000000E+01 0. -1.
         -5    1    3    3    0  502  0.35098813335E+02 -0.12891933287E+02 -0.12308574320E+03  0.12870781337E+03  0.41800000000E+01 0. -1.
        -11    1    1    2    0    0  0.47338070982E+02 -0.25382176821E+02 -0.14579913754E+03  0.15537868700E+03  0.00000000000E+00 0.  1.
         11    1    1    2    0    0 -0.14365131069E+02  0.57580228458E+01  0.53738430719E+01  0.16382612951E+02  0.00000000000E+00 0. -1.
</event>
<event>
 7    1  0.2723366E-009  0.1380823E+03  0.7561462E-02  0.1215933E+00
         -1   -1    0    0    0  501 -0.00000000000E+00  0.00000000000E+00  0.56658423813E+03  0.56658423813E+03  0.00000000000E+00 0.  1.
          1   -1    0    0  501    0  0.00000000000E+00 -0.00000000000E+00 -0.36889657329E+02  0.36889657329E+02  0.00000000000E+00 0. -1.
         25    2    1    2    0    0 -0.89857244372E+02  0.21091616256E+02  0.33766551560E+03  0.37173157388E+03  0.12508869633E+03 0.  0.
          5    1    3    3  502    0  0.22134323226E+02  0.26017653672E+02  0.35625149379E+02  0.49532516951E+02  0.41800000000E+01 0. -1.
         -5    1    3    3    0  502 -0.11199156760E+03 -0.49260374161E+01  0.30204036622E+03  0.32219905693E+03  0.41800000000E+01 0. -1.
        -11    1    1    2    0    0  0.88723947126E+02  0.17944381999E+02  0.13926143744E+03  0.16609541714E+03  0.00000000000E+00 0. -1.
         11    1    1    2    0    0  0.11332972459E+01 -0.39035998255E+02  0.52767627767E+02  0.65646904440E+02  0.00000000000E+00 0.  1.
</event>
<event>
 7    1  0.2723366E-009  0.9402547E+02  0.7561462E-02  0.1293386E+00
         -2   -1    0    0    0  501 -0.00000000000E+00  0.00000000000E+00  0.41757754538E+02  0.41757754538E+02  0.00000000000E+00 0.  1.
          2   -1    0    0  501    0  0.00000000000E+00 -0.00000000000E+00 -0.29108006410E+03  0.29108006410E+03  0.00000000000E+00 0. -1.
         25    2    1    2    0    0  0.15560871377E+02  0.70767000435E+01 -0.14635393777E+03  0.19328455800E+03  0.12508886784E+03 0.  0.
          5    1    3    3  502    0 -0.29850239859E+02 -0.28432407214E+02 -0.64793857740E+01  0.41939163554E+02  0.41800000000E+01 0.  1.
         -5    1    3    3    0  502  0.45411111236E+02  0.35509107257E+02 -0.13987455200E+03  0.15134539444E+03  0.41800000000E+01 0.  1.
        -11    1    1    2    0    0 -0.44933688612E+02 -0.27829276080E+02 -0.83049008326E+02  0.98441062385E+02  0.00000000000E+00 0. -1.
         11    1    1    2    0    0  0.29372817235E+02  0.20752576036E+02 -0.19919363457E+02  0.41112198251E+02  0.00000000000E+00 0.  1.
</event>
<event>
 7    1  0.2723366E-009  0.1065304E+03  0.7561462E-02  0.1267133E+00
          2   -1    0    0  501    0  0.00000000000E+00  0.00000000000E+00  0.41386534591E+03  0.41386534591E+03  0.00000000000E+00 0. -1.
         -2   -1    0    0    0  501 -0.00000000000E+00 -0.00000000000E+00 -0.32877177433E+02  0.32877177433E+02  0.00000000000E+00 0.  1.
         25    2    1    2    0    0  0.30045873001E+02  0.37021963435E+00  0.27690745192E+03  0.30533284308E+03  0.12509003395E+03 0.  0.
          5    1    3    3  502    0  0.33469927746E+02  0.59962946085E+02  0.14597599870E+03  0.16137613071E+03  0.41800000000E+01 0. -1.
         -5    1    3    3    0  502 -0.34240547453E+01 -0.59592726451E+02  0.13093145321E+03  0.14395671237E+03  0.41800000000E+01 0. -1.
        -11    1    1    2    0    0  0.22317648253E+02  0.18270492031E+02  0.72171474622E+01  0.29731725817E+02  0.00000000000E+00 0.  1.
         11    1    1    2    0    0 -0.52363521254E+02 -0.18640711665E+02  0.96863569098E+02  0.11167795444E+03  0.00000000000E+00 0. -1.
</event>
<event>
 7    1  0.2723366E-009  0.1206436E+03  0.7561462E-02  0.1242039E+00
          2   -1    0    0  501    0  0.00000000000E+00  0.00000000000E+00  0.34893533905E+02  0.34893533905E+02  0.00000000000E+00 0. -1.
         -2   -1    0    0    0  501 -0.00000000000E+00 -0.00000000000E+00 -0.46307767436E+03  0.46307767436E+03  0.00000000000E+00 0.  1.
         25    2    1    2    0    0  0.81802839061E+01  0.70953581272E+02 -0.24526139036E+03  0.28443173581E+03  0.12508770922E+03 0.  0.
          5    1    3    3  502    0 -0.58372180743E+02  0.36508808627E+02 -0.11559389243E+03  0.13460915630E+03  0.41800000000E+01 0. -1.
         -5    1    3    3    0  502  0.66552464649E+02  0.34444772644E+02 -0.12966749792E+03  0.14982257951E+03  0.41800000000E+01 0. -1.
        -11    1    1    2    0    0 -0.29612807051E+02 -0.69767105833E+02 -0.17491422381E+03  0.19062883594E+03  0.00000000000E+00 0.  1.
         11    1    1    2    0    0  0.21432523145E+02 -0.11864754386E+01 -0.80085262813E+01  0.22910636515E+02  0.00000000000E+00 0. -1.
</event>
<event>
 7    1  0.2723366E-009  0.9597479E+02  0.7561462E-02  0.1288996E+00
         -2   -1    0    0    0  501 -0.00000000000E+00  0.00000000000E+00  0.75246450292E+02  0.75246450292E+02  0.00000000000E+00 0.  1.
          2   -1    0    0  501    0  0.00000000000E+00 -0.00000000000E+00 -0.18038820061E+03  0.18038820061E+03  0.00000000000E+00 0. -1.
         25    2    1    2    0    0 -0.31650620538E+02 -0.90442765090E+01 -0.32705465816E+02  0.13341811995E+03  0.12508871460E+03 0.  0.
          5    1    3    3  502    0 -0.23179621018E+02  0.56383157169E+02 -0.36653669769E+01  0.61214888369E+02  0.41800000000E+01 0. -1.
         -5    1    3    3    0  502 -0.84709995204E+01 -0.65427433678E+02 -0.29040098839E+02  0.72203231584E+02  0.41800000000E+01 0. -1.
        -11    1    1    2    0    0  0.36202510784E+01 -0.22356088380E+02  0.13613341915E+02  0.26423928240E+02  0.00000000000E+00 0.  1.
         11    1    1    2    0    0  0.28030369460E+02  0.31400364889E+02 -0.86049626414E+02  0.95792602706E+02  0.00000000000E+00 0. -1.
</event>
<event>
 7    1  0.2723366E-009  0.1233801E+03  0.7561462E-02  0.1237623E+00
         -1   -1    0    0    0  501 -0.00000000000E+00  0.00000000000E+00  0.36773772847E+02  0.36773772847E+02  0.00000000000E+00 0.  1.
          1   -1    0    0  501    0  0.00000000000E+00 -0.00000000000E+00 -0.56075188173E+03  0.56075188173E+03  0.00000000000E+00 0. -1.
         25    2    1    2    0    0  0.84885118347E+02  0.11068831327E+01 -0.37471660944E+03  0.40406149057E+03  0.12508573963E+03 0.  0.
          5    1    3    3  502    0  0.92208469532E+02 -0.43804344502E+02 -0.29480137621E+03  0.31200408052E+03  0.41800000000E+01 0.  1.
         -5    1    3    3    0  502 -0.73233511852E+01  0.44911227634E+02 -0.79915233240E+02  0.92057410044E+02  0.41800000000E+01 0.  1.
        -11    1    1    2    0    0 -0.62281039031E+02  0.22490367272E+02 -0.14637985130E+03  0.16066052817E+03  0.00000000000E+00 0.  1.
         11    1    1    2    0    0 -0.22604079315E+02 -0.23597250405E+02 -0.28816481290E+01  0.32803635839E+02  0.00000000000E+00 0. -1.
</event>
<event>
 7    1  0.2723366E-009  0.7383996E+02  0.7561462E-02  0.1347501E+00
         -2   -1    0    0    0  501 -0.00000000000E+00  0.00000000000E+00  0.24585252341E+03  0.24585252341E+03  0.00000000000E+00 0. -1.
          2   -1    0    0  501    0  0.00000000000E+00 -0.00000000000E+00 -0.55750418768E+02  0.55750418768E+02  0.00000000000E+00 0.  1.
         25    2    1    2    0    0 -0.18092379773E+02 -0.75318812463E+01  0.14815210934E+03  0.19488608649E+03  0.12508987076E+03 0.  0.
          5    1    3    3  502    0 -0.36797642052E+02 -0.90609749546E+01  0.16498395535E+03  0.16933205736E+03  0.41800000000E+01 0.  1.
         -5    1    3    3    0  502  0.18705262279E+02  0.15290937082E+01 -0.16831846015E+02  0.25554029130E+02  0.41800000000E+01 0.  1.
        -11    1    1    2    0    0  0.37531214164E+02  0.38497229005E+02  0.44885352253E+02  0.70038014853E+02  0.00000000000E+00 0. -1.
         11    1    1    2    0    0 -0.19438834391E+02 -0.30965347759E+02 -0.29353569466E+01  0.36678840831E+02  0.00000000000E+00 0.  1.
</event>
<event>
 7    1  0.2723366E-009  0.1109845E+03  0.7561462E-02  0.1258758E+00
          1   -1    0    0  501    0  0.00000000000E+00  0.00000000000E+00  0.37566511837E+03  0.37566511837E+03  0.00000000000E+00 0. -1.
         -1   -1    0    0    0  501 -0.00000000000E+00 -0.00000000000E+00 -0.82021407113E+02  0.82021407113E+02  0.00000000000E+00 0.  1.
         25    2    1    2    0    0 -0.59594968270E+02 -0.28946668111E+02 -0.22314957672E+01  0.14156941386E+03  0.12508976589E+03 0.  0.
          5    1    3    3  502    0 -0.23666854986E+02 -0.71989587413E+02  0.23901579065E+02  0.79569960428E+02  0.41800000000E+01 0.  1.
         -5    1    3    3    0  502 -0.35928113284E+02  0.43042919301E+02 -0.26133074832E+02  0.61999453435E+02  0.41800000000E+01 0.  1.
        -11    1    1    2    0    0  0.19209711603E+02  0.42995620633E+02  0.59375937852E+02  0.75783496946E+02  0.00000000000E+00 0.  1.
         11    1    1    2    0    0  0.40385256667E+02 -0.14048952521E+02  0.23649926917E+03  0.24033361467E+03  0.00000000000E+00 0. -1.
</event>
<event>
 7    1  0.2723366E-009  0.1338302E+03  0.7561462E-02  0.1221881E+00
         -2   -1    0    0    0  501 -0.00000000000E+00  0.00000000000E+00  0.37790803218E+02  0.37790803218E+02  0.00000000000E+00 0.  1.
          2   -1    0    0  501    0  0.00000000000E+00 -0.00000000000E+00 -0.56157208251E+03  0.56157208251E+03  0.00000000000E+00 0. -1.
         25    2    1    2    0    0 -0.58652278436E+01 -0.79801860998E+02 -0.39494644478E+03  0.42193943683E+03  0.12508979253E+03 0.  0.
          5    1    3    3  502    0  0.54903751623E+02 -0.15285104575E+02 -0.19476352446E+03  0.20297378950E+03  0.41800000000E+01 0.  1.
         -5    1    3    3    0  502 -0.60768979466E+02 -0.64516756423E+02 -0.20018292032E+03  0.21896564734E+03  0.41800000000E+01 0.  1.
        -11    1    1    2    0    0  0.46224107705E+02  0.21752907111E+02 -0.59080783430E+02  0.78105032306E+02  0.00000000000E+00 0. -1.
         11    1    1    2    0    0 -0.40358879861E+02  0.58048953886E+02 -0.69754051080E+02  0.99318416585E+02  0.00000000000E+00 0.  1.
</event>
<event>
 7    1  0.2723366E-009  0.9249029E+02  0.7561462E-02  0.1296931E+00
          1   -1    0    0  501    0  0.00000000000E+00  0.00000000000E+00  0.76622596119E+02  0.76622596119E+02  0.00000000000E+00 0. -1.
         -1   -1    0    0    0  501 -0.00000000000E+00 -0.00000000000E+00 -0.16528276437E+03  0.16528276437E+03  0.00000000000E+00 0.  1.
         25    2    1    2    0    0 -0.15791437935E+02  0.50794090026E+00 -0.61997130731E+02  0.14050742873E+03  0.12509622614E+03 0.  0.
          5    1    3    3  502    0  0.30946134694E+02 -0.20314949960E+02  0.21112941209E+02  0.42820428896E+02  0.41800000000E+01 0. -1.
         -5    1    3    3    0  502 -0.46737572628E+02  0.20822890860E+02 -0.83110071940E+02  0.97686999835E+02  0.41800000000E+01 0. -1.
        -11    1    1    2    0    0  0.50294874544E+02 -0.22894457124E+02 -0.23802942369E+02  0.60169017258E+02  0.00000000000E+00 0.  1.
         11    1    1    2    0    0 -0.34503436609E+02  0.22386516224E+02 -0.28600951518E+01  0.41228914499E+02  0.00000000000E+00 0. -1.
</event>
<event>
 7    1  0.2723366E-009  0.1325493E+03  0.7561462E-02  0.1223721E+00
         -2   -1    0    0    0  501 -0.00000000000E+00  0.00000000000E+00  0.52106865668E+02  0.52106865668E+02  0.00000000000E+00 0.  1.
          2   -1    0    0  501    0  0.00000000000E+00 -0.00000000000E+00 -0.38264210435E+03  0.38264210435E+03  0.00000000000E+00 0. -1.
         25    2    1    2    0    0 -0.63049273931E+02  0.45925361291E+02 -0.11145534636E+03  0.18480726244E+03  0.12508828988E+03 0.  0.
          5    1    3    3  502    0  0.32497191230E+02 -0.97282962966E+01 -0.12596426463E+02  0.36425946059E+02  0.41800000000E+01 0. -1.
         -5    1    3    3    0  502 -0.95546465161E+02  0.55653657587E+02 -0.98858919897E+02  0.14838131638E+03  0.41800000000E+01 0. -1.
        -11    1    1    2    0    0  0.84162043696E+02 -0.19405813549E+02 -0.16032975850E+03  0.18211388376E+03  0.00000000000E+00 0.  1.
         11    1    1    2    0    0 -0.21112769765E+02 -0.26519547742E+02 -0.58750133818E+02  0.67827823813E+02  0.00000000000E+00 0. -1.
</event>
<event>
 7    1  0.2723366E-009  0.1584587E+03  0.7561462E-02  0.1190448E+00
         -2   -1    0    0    0  501 -0.00000000000E+00  0.00000000000E+00  0.26147985068E+03  0.26147985068E+03  0.00000000000E+00 0. -1.
          2   -1    0    0  501    0  0.00000000000E+00 -0.00000000000E+00 -0.31703482078E+03  0.31703482078E+03  0.00000000000E+00 0.  1.
         25    2    1    2    0    0 -0.14829490946E+03  0.21604657330E+02  0.19356172351E+03  0.27490330451E+03  0.12509014604E+03 0.  0.
          5    1    3    3  502    0 -0.13462606974E+03  0.33821812181E+02  0.80972726217E+02  0.16075493281E+03  0.41800000000E+01 0. -1.
         -5    1    3    3    0  502 -0.13668839722E+02 -0.12217154851E+02  0.11258899729E+03  0.11414837170E+03  0.41800000000E+01 0. -1.
        -11    1    1    2    0    0  0.67552861290E+02 -0.37034007230E+02 -0.60818195937E+02  0.98151717850E+02  0.00000000000E+00 0. -1.
         11    1    1    2    0    0  0.80742048170E+02  0.15429349900E+02 -0.18829849767E+03  0.20545964910E+03  0.00000000000E+00 0.  1.
</event>
<event>
 7    1  0.2723366E-009  0.1105793E+03  0.7561462E-02  0.1259501E+00
         -1   -1    0    0    0  501 -0.00000000000E+00  0.00000000000E+00  0.37764428637E+02  0.37764428637E+02  0.00000000000E+00 0.  1.
          1   -1    0    0  501    0  0.00000000000E+00 -0.00000000000E+00 -0.37330009584E+03  0.37330009584E+03  0.00000000000E+00 0. -1.
         25    2    1    2    0    0  0.23916899916E+02  0.11136567597E+02 -0.26295638177E+03  0.29238550560E+03  0.12508870424E+03 0.  0.
          5    1    3    3  502    0  0.19105840278E+02  0.67750548117E+02 -0.15615196830E+03  0.17133615936E+03  0.41800000000E+01 0. -1.
         -5    1    3    3    0  502  0.48110596378E+01 -0.56613980519E+02 -0.10680441348E+03  0.12104934623E+03  0.41800000000E+01 0. -1.
        -11    1    1    2    0    0 -0.38186130417E+02 -0.43750386670E+02 -0.48971276932E+02  0.75963562675E+02  0.00000000000E+00 0. -1.
         11    1    1    2    0    0  0.14269230502E+02  0.32613819072E+02 -0.23608008498E+02  0.42715456205E+02  0.00000000000E+00 0.  1.
</event>
<event>
 7    1  0.2723366E-009  0.1356597E+03  0.7561462E-02  0.1219291E+00
         -1   -1    0    0    0  501 -0.00000000000E+00  0.00000000000E+00  0.28762591210E+02  0.28762591210E+02  0.00000000000E+00 0.  1.
          1   -1    0    0  501    0  0.00000000000E+00 -0.00000000000E+00 -0.74146865401E+03  0.74146865401E+03  0.00000000000E+00 0. -1.
         25    2    1    2    0    0 -0.32724057055E+02 -0.86384434996E+02 -0.34473463469E+03  0.37818330439E+03  0.12509000296E+03 0.  0.
          5    1    3    3  502    0  0.44951099534E+02 -0.95816666222E+01 -0.98623768875E+02  0.10888769385E+03  0.41800000000E+01 0.  1.
         -5    1    3    3    0  502 -0.77675156588E+02 -0.76802768374E+02 -0.24611086582E+03  0.26929561054E+03  0.41800000000E+01 0.  1.
        -11    1    1    2    0    0 -0.21564043703E+02  0.34969763677E+02 -0.46740965871E+02  0.62230300039E+02  0.00000000000E+00 0.  1.
         11    1    1    2    0    0  0.54288100758E+02  0.51414671320E+02 -0.32123046224E+03  0.32981764080E+03  0.00000000000E+00 0. -1.
</event>
<event>
 7    1  0.2723366E-009  0.6151756E+02  0.7561462E-02  0.1391571E+00
         -2   -1    0    0    0  501 -0.00000000000E+00  0.00000000000E+00  0.15292650425E+03  0.15292650425E+03  0.00000000000E+00 0.  1.
          2   -1    0    0  501    0  0.00000000000E+00 -0.00000000000E+00 -0.13369502918E+03  0.13369502918E+03  0.00000000000E+00 0. -1.
         25    2    1    2    0    0 -0.35740736482E+02 -0.27708891957E+02  0.90785000060E+02  0.16103997419E+03  0.12508706614E+03 0.  0.
          5    1    3    3  502    0 -0.49817233650E+02 -0.35319914260E+02  0.11584036440E+03  0.13101799699E+03  0.41800000000E+01 0. -1.
         -5    1    3    3    0  502  0.14076497169E+02  0.76110223032E+01 -0.25055364338E+02  0.30021977203E+02  0.41800000000E+01 0. -1.
        -11    1    1    2    0    0  0.13413780983E+02  0.11860461527E+02  0.21849068793E+02  0.28248572973E+02  0.00000000000E+00 0.  1.
         11    1    1    2    0    0  0.22326955498E+02  0.15848430430E+02 -0.93402593786E+02  0.97332986262E+02  0.00000000000E+00 0. -1.
</event>
<event>
 7    1  0.2723366E-009  0.9163033E+02  0.7561462E-02  0.1298951E+00
          2   -1    0    0  501    0  0.00000000000E+00  0.00000000000E+00  0.12771822140E+03  0.12771822140E+03  0.00000000000E+00 0. -1.
         -2   -1    0    0    0  501 -0.00000000000E+00 -0.00000000000E+00 -0.15627991310E+03  0.15627991310E+03  0.00000000000E+00 0.  1.
         25    2    1    2    0    0 -0.41234569346E+02 -0.65287295654E+02 -0.61907969291E+02  0.15950776574E+03  0.12508960783E+03 0.  0.
          5    1    3    3  502    0 -0.17313120459E+02 -0.61953844392E+02  0.25051466634E+02  0.69159752425E+02  0.41800000000E+01 0. -1.
         -5    1    3    3    0  502 -0.23921448887E+02 -0.33334512621E+01 -0.86959435926E+02  0.90348013319E+02  0.41800000000E+01 0. -1.
        -11    1    1    2    0    0  0.21505240285E+01  0.53386998942E+02 -0.20214315578E+02  0.57126307110E+02  0.00000000000E+00 0.  1.
         11    1    1    2    0    0  0.39084045318E+02  0.11900296711E+02  0.53560593173E+02  0.67364061645E+02  0.00000000000E+00 0. -1.
</event>
<event>
 7    1  0.2723366E-009  0.1095287E+03  0.7561462E-02  0.1261445E+00
          2   -1    0    0  501    0  0.00000000000E+00  0.00000000000E+00  0.96879515267E+03  0.96879515267E+03  0.00000000000E+00 0. -1.
         -2   -1    0    0    0  501 -0.00000000000E+00 -0.00000000000E+00 -0.17750854151E+02  0.17750854151E+02  0.00000000000E+00 0.  1.
         25    2    1    2    0    0  0.14175528312E+02  0.49798698664E+02  0.72592017976E+03  0.73843600659E+03  0.12508705952E+03 0.  0.
          5    1    3    3  502    0  0.65343222668E+02  0.46437354276E+01  0.30338104959E+03  0.31040108678E+03  0.41800000000E+01 0.  1.
         -5    1    3    3    0  502 -0.51167694356E+02  0.45154963236E+02  0.42253913017E+03  0.42803491981E+03  0.41800000000E+01 0.  1.
        -11    1    1    2    0    0  0.16182801911E+02 -0.52143121743E+02  0.63953051174E+02  0.84087935979E+02  0.00000000000E+00 0.  1.
         11    1    1    2    0    0 -0.30358330222E+02  0.23444230793E+01  0.16117106759E+03  0.16402206425E+03  0.00000000000E+00 0. -1.
</event>
<event>
 7    1  0.2723366E-009  0.1644848E+03  0.7561462E-02  0.1183724E+00
         -1   -1    0    0    0  501 -0.00000000000E+00  0.00000000000E+00  0.58237894932E+02  0.58237894932E+02  0.00000000000E+00 0.  1.
          1   -1    0    0  501    0  0.00000000000E+00 -0.00000000000E+00 -0.55214699491E+03  0.55214699491E+03  0.00000000000E+00 0. -1.
         25    2    1    2    0    0 -0.12530973784E+03  0.64892154939E+02 -0.23529032620E+03  0.30153206401E+03  0.12508607377E+03 0.  0.
          5    1    3    3  502    0  0.11149885221E+02  0.23305968644E+01  0.87688280485E+01  0.14970516609E+02  0.41800000000E+01 0. -1.
         -5    1    3    3    0  502 -0.13645962306E+03  0.62561558075E+02 -0.24405915425E+03  0.28656154740E+03  0.41800000000E+01 0. -1.
        -11    1    1    2    0    0  0.14203786214E+02  0.21604275585E+02 -0.60515337993E+02  0.65807282262E+02  0.00000000000E+00 0. -1.
         11    1    1    2    0    0  0.11110595163E+03 -0.86496430524E+02 -0.19810343578E+03  0.24304554357E+03  0.00000000000E+00 0.  1.
</event>
<event>
 7    1  0.2723366E-009  0.1166666E+03  0.7561462E-02  0.1248700E+00
          1   -1    0    0  501    0  0.00000000000E+00  0.00000000000E+00  0.46168595035E+02  0.46168595035E+02  0.00000000000E+00 0.  1.
         -1   -1    0    0    0  501 -0.00000000000E+00 -0.00000000000E+00 -0.49248018311E+03  0.49248018311E+03  0.00000000000E+00 0. -1.
         25    2    1    2    0    0  0.35075828577E+02 -0.89302963774E+02 -0.16929186936E+03  0.23133161077E+03  0.12509693850E+03 0.  0.
          5    1    3    3  502    0  0.34176015589E+02  0.11641211608E+01 -0.12660412669E+03  0.13120759320E+03  0.41800000000E+01 0.  1.
         -5    1    3    3    0  502  0.89981298825E+00 -0.90467084935E+02 -0.42687742677E+02  0.10012401757E+03  0.41800000000E+01 0.  1.
        -11    1    1    2    0    0 -0.47542060383E+02  0.60614031805E+02 -0.26108374384E+03  0.27221136944E+03  0.00000000000E+00 0.  1.
         11    1    1    2    0    0  0.12466231805E+02  0.28688931969E+02 -0.15935974871E+02  0.35105797926E+02  0.00000000000E+00 0. -1.
</event>
<event>
 7    1  0.3715940E-009  0.2487995E+03  0.7561462E-02  0.1114066E+00
         -2   -1    0    0    0  501 -0.00000000000E+00  0.00000000000E+00  0.30722967741E+02  0.30722967741E+02  0.00000000000E+00 0. -1.
          2   -1    0    0  501    0  0.00000000000E+00 -0.00000000000E+00 -0.21680014813E+04  0.21680014813E+04  0.00000000000E+00 0.  1.
         25    2    1    2    0    0 -0.34204506101E+02 -0.23071245220E+03 -0.10282716568E+04  0.10617836976E+04  0.12507532359E+03 0.  0.
          5    1    3    3  502    0 -0.67637089386E+02 -0.20718645617E+03 -0.93115859806E+03  0.95633404761E+03  0.41800000000E+01 0.  1.
         -5    1    3    3    0  502  0.33432583284E+02 -0.23525996034E+02 -0.97113058729E+02  0.10544965002E+03  0.41800000000E+01 0.  1.
        -11    1    1    2    0    0  0.43350037502E+01  0.17704789938E+03 -0.95230570091E+03  0.96863352147E+03  0.00000000000E+00 0.  1.
         11    1    1    2    0    0  0.29869502351E+02  0.53664552822E+02 -0.15670115586E+03  0.16830722994E+03  0.00000000000E+00 0. -1.
</event>
<event>
 7    1  0.2723366E-009  0.1803800E+03  0.7561462E-02  0.1167436E+00
         -1   -1    0    0    0  501 -0.00000000000E+00  0.00000000000E+00  0.84345893929E+02  0.84345893929E+02  0.00000000000E+00 0.  1.
          1   -1    0    0  501    0  0.00000000000E+00 -0.00000000000E+00 -0.59151677546E+03  0.59151677546E+03  0.00000000000E+00 0. -1.
         25    2    1    2    0    0  0.13964250002E+03  0.10696365790E+03 -0.13561210420E+03  0.25491101028E+03  0.12509088069E+03 0.  0.
          5    1    3    3  502    0  0.12210553043E+03  0.10302945255E+03 -0.50184946510E+02  0.16751367082E+03  0.41800000000E+01 0. -1.
         -5    1    3    3    0  502  0.17536969594E+02  0.39342053537E+01 -0.85427157689E+02  0.87397339463E+02  0.41800000000E+01 0. -1.
        -11    1    1    2    0    0 -0.84546140218E+02 -0.34160298234E+02 -0.10436520213E+03  0.13858957831E+03  0.00000000000E+00 0.  1.
         11    1    1    2    0    0 -0.55096359807E+02 -0.72803359668E+02 -0.26719357520E+03  0.28236208079E+03  0.00000000000E+00 0. -1.
</event>
<event>
 7    1  0.2723366E-009  0.1517356E+03  0.7561462E-02  0.1198356E+00
          2   -1    0    0  501    0  0.00000000000E+00  0.00000000000E+00  0.66867497030E+03  0.66867497030E+03  0.00000000000E+00 0. -1.
         -2   -1    0    0    0  501 -0.00000000000E+00 -0.00000000000E+00 -0.41504957363E+02  0.41504957363E+02  0.00000000000E+00 0.  1.
         25    2    1    2    0    0  0.10509915278E+03  0.63031564372E+02  0.26387432599E+03  0.31669560606E+03  0.12509051505E+03 0.  0.
          5    1    3    3  502    0  0.82756512681E+02  0.94459812035E+02  0.24067117924E+03  0.27149840773E+03  0.41800000000E+01 0. -1.
         -5    1    3    3    0  502  0.22342640100E+02 -0.31428247662E+02  0.23203146751E+02  0.45197198330E+02  0.41800000000E+01 0. -1.
        -11    1    1    2    0    0  0.71775617939E+00 -0.27351384359E+02  0.15251353073E+03  0.15494834770E+03  0.00000000000E+00 0.  1.
         11    1    1    2    0    0 -0.10581690896E+03 -0.35680180014E+02  0.21078215622E+03  0.23853597391E+03  0.00000000000E+00 0. -1.
</event>
<event>
 7    1  0.2723366E-009  0.5371087E+02  0.7561462E-02  0.1426295E+00
          2   -1    0    0  501    0  0.00000000000E+00  0.00000000000E+00  0.59468865760E+03  0.59468865760E+03  0.00000000000E+00 0. -1.
         -2   -1    0    0    0  501 -0.00000000000E+00 -0.00000000000E+00 -0.21043594956E+02  0.21043594956E+02  0.00000000000E+00 0.  1.
         25    2    1    2    0    0 -0.22963283793E+02  0.23113904850E+02  0.34695043574E+03  0.37025275081E+03  0.12510367549E+03 0.  0.
          5    1    3    3  502    0  0.28226138015E+01  0.12406184450E+02  0.34117301718E+03  0.34143576353E+03  0.41800000000E+01 0. -1.
         -5    1    3    3    0  502 -0.25785897595E+02  0.10707720400E+02  0.57774185597E+01  0.28816987285E+02  0.41800000000E+01 0. -1.
        -11    1    1    2    0    0 -0.16555084459E+02 -0.20277941454E+02  0.15126798948E+02  0.30233851516E+02  0.00000000000E+00 0.  1.
         11    1    1    2    0    0  0.39518368252E+02 -0.28359633958E+01  0.21156782796E+03  0.21524565023E+03  0.00000000000E+00 0. -1.
</event>
<event>
 7    1  0.2723366E-009  0.2066945E+03  0.7561462E-02  0.1144211E+00
          2   -1    0    0  501    0  0.00000000000E+00  0.00000000000E+00  0.19471480417E+04  0.19471480417E+04  0.00000000000E+00 0.  1.
         -2   -1    0    0    0  501 -0.00000000000E+00 -0.00000000000E+00 -0.26597538167E+02  0.26597538167E+02  0.00000000000E+00 0. -1.
         25    2    1    2    0    0 -0.88392912259E+02 -0.17781883598E+03  0.11179812670E+04  0.11423495458E+04  0.12509007158E+03 0.  0.
          5    1    3    3  502    0 -0.73603248804E+01 -0.65100156912E+02  0.14085321915E+03  0.15540047155E+03  0.41800000000E+01 0. -1.
         -5    1    3    3    0  502 -0.81032587378E+02 -0.11271867907E+03  0.97712804789E+03  0.98694907427E+03  0.41800000000E+01 0. -1.
        -11    1    1    2    0    0  0.12312569845E+02  0.97309164311E+02  0.49153672549E+03  0.50122751854E+03  0.00000000000E+00 0.  1.
         11    1    1    2    0    0  0.76080342414E+02  0.80509671672E+02  0.31103251101E+03  0.33016851552E+03  0.00000000000E+00 0. -1.
</event>
<event>
 7    1  0.2723366E-009  0.1114054E+03  0.7561462E-02  0.1257989E+00
          2   -1    0    0  501    0  0.00000000000E+00  0.00000000000E+00  0.17064374365E+03  0.17064374365E+03  0.00000000000E+00 0. -1.
         -2   -1    0    0    0  501 -0.00000000000E+00 -0.00000000000E+00 -0.85240755342E+02  0.85240755342E+02  0.00000000000E+00 0.  1.
         25    2    1    2    0    0 -0.32217744142E+01  0.43711699688E+02  0.72128492023E+02  0.15090176608E+03  0.12509089145E+03 0.  0.
          5    1    3    3  502    0 -0.49505256689E+02 -0.66997012545E+01  0.64829162203E+02  0.81950894496E+02  0.41800000000E+01 0.  1.
         -5    1    3    3    0  502  0.46283482275E+02  0.50411400942E+02  0.72993298199E+01  0.68950871585E+02  0.41800000000E+01 0.  1.
        -11    1    1    2    0    0  0.42427752376E+02  0.37062463300E+01  0.65339148181E+01  0.43087613956E+02  0.00000000000E+00 0. -1.
         11    1    1    2    0    0 -0.39205977962E+02 -0.47417946018E+02  0.67405814719E+01  0.61895118960E+02  0.00000000000E+00 0.  1.
</event>
<event>
 7    1  0.2723366E-009  0.1152675E+03  0.7561462E-02  0.1251115E+00
         -2   -1    0    0    0  501 -0.00000000000E+00  0.00000000000E+00  0.75130258767E+02  0.75130258767E+02  0.00000000000E+00 0.  1.
          2   -1    0    0  501    0  0.00000000000E+00 -0.00000000000E+00 -0.24976038337E+03  0.24976038337E+03  0.00000000000E+00 0. -1.
         25    2    1    2    0    0  0.70213234280E+02  0.41699782800E+02 -0.11226753133E+03  0.18687072914E+03  0.12509156913E+03 0.  0.
          5    1    3    3  502    0  0.86770277859E+02  0.44782187477E+02 -0.29189912688E+02  0.10200023940E+03  0.41800000000E+01 0. -1.
         -5    1    3    3    0  502 -0.16557043579E+02 -0.30824046765E+01 -0.83077618639E+02  0.84870489744E+02  0.41800000000E+01 0. -1.
        -11    1    1    2    0    0 -0.39163628351E+02  0.21757769570E+02 -0.15888290277E+01  0.44829841624E+02  0.00000000000E+00 0. -1.
         11    1    1    2    0    0 -0.31049605929E+02 -0.63457552371E+02 -0.60773764252E+02  0.93190071374E+02  0.00000000000E+00 0.  1.
</event>
<event>
 7    1  0.2723366E-009  0.1242103E+03  0.7561462E-02  0.1236309E+00
         -1   -1    0    0    0  501 -0.00000000000E+00  0.00000000000E+00  0.95075650610E+02  0.95075650610E+02  0.00000000000E+00 0.  1.
          1   -1    0    0  501    0  0.00000000000E+00 -0.00000000000E+00 -0.19324274296E+03  0.19324274296E+03  0.00000000000E+00 0. -1.
         25    2    1    2    0    0 -0.25423515084E+02 -0.48027612159E+02 -0.10783593848E+03  0.17386474743E+03  0.12508938453E+03 0.  0.
          5    1    3    3  502    0 -0.15463493677E+02  0.41650972562E+02 -0.24204507988E+02  0.50766659916E+02  0.41800000000E+01 0.  1.
         -5    1    3    3    0  502 -0.99600214068E+01 -0.89678584721E+02 -0.83631430493E+02  0.12309808752E+03  0.41800000000E+01 0.  1.
        -11    1    1    2    0    0  0.47077679484E+02 -0.12895414966E+02 -0.15210359901E+01  0.48835572928E+02  0.00000000000E+00 0.  1.
         11    1    1    2    0    0 -0.21654164400E+02  0.60923027125E+02  0.11189882120E+02  0.65618073210E+02  0.00000000000E+00 0. -1.
</event>
<event>
 7    1  0.2723366E-009  0.1097891E+03  0.7561462E-02  0.1260961E+00
         -1   -1    0    0    0  501 -0.00000000000E+00  0.00000000000E+00  0.91942800577E+02  0.91942800577E+02  0.00000000000E+00 0.  1.
          1   -1    0    0  501    0  0.00000000000E+00 -0.00000000000E+00 -0.15671490564E+03  0.15671490564E+03  0.00000000000E+00 0. -1.
         25    2    1    2    0    0 -0.19845110108E+02 -0.18336272982E+02 -0.83819344588E+02  0.15298261514E+03  0.12509176913E+03 0.  0.
          5    1    3    3  502    0  0.15086715318E+02 -0.66457450903E+02 -0.41882657181E+02  0.80098883464E+02  0.41800000000E+01 0. -1.
         -5    1    3    3    0  502 -0.34931825426E+02  0.48121177921E+02 -0.41936687407E+02  0.72883731674E+02  0.41800000000E+01 0. -1.
        -11    1    1    2    0    0  0.34960454724E+01  0.53131814366E+02  0.11270240778E+01  0.53258635122E+02  0.00000000000E+00 0. -1.
         11    1    1    2    0    0  0.16349064636E+02 -0.34795541383E+02  0.17920215444E+02  0.42416455960E+02  0.00000000000E+00 0.  1.
</event>
<event>
 7    1  0.3576111E-009  0.2118181E+03  0.7561462E-02  0.1140134E+00
          2   -1    0    0  501    0  0.00000000000E+00  0.00000000000E+00  0.11759565265E+04  0.11759565265E+04  0.00000000000E+00 0.  1.
         -2   -1    0    0    0  501 -0.00000000000E+00 -0.00000000000E+00 -0.45130582781E+02  0.45130582781E+02  0.00000000000E+00 0. -1.
         25    2    1    2    0    0  0.70777983033E+01  0.20116356682E+03  0.51666756571E+03  0.56842772601E+03  0.12509128829E+03 0.  0.
          5    1    3    3  502    0 -0.99397102507E+01  0.10589319325E+03  0.12136003103E+03  0.16142458223E+03  0.41800000000E+01 0.  1.
         -5    1    3    3    0  502  0.17017508554E+02  0.95270373561E+02  0.39530753468E+03  0.40700314378E+03  0.41800000000E+01 0.  1.
        -11    1    1    2    0    0  0.40431007922E+02 -0.70174023219E+02  0.24773847614E+03  0.26064038923E+03  0.00000000000E+00 0.  1.
         11    1    1    2    0    0 -0.47508806226E+02 -0.13098954360E+03  0.36641990190E+03  0.39201899407E+03  0.00000000000E+00 0. -1.
</event>
<event>
 7    1  0.2723366E-009  0.9321869E+02  0.7561462E-02  0.1295239E+00
         -1   -1    0    0    0  501 -0.00000000000E+00  0.00000000000E+00  0.60787013665E+02  0.60787013665E+02  0.00000000000E+00 0.  1.
          1   -1    0    0  501    0  0.00000000000E+00 -0.00000000000E+00 -0.23733574692E+03  0.23733574692E+03  0.00000000000E+00 0. -1.
         25    2    1    2    0    0 -0.37453766121E+02  0.18255750285E+01 -0.46007404225E+02  0.13845483351E+03  0.12508773864E+03 0.  0.
          5    1    3    3  502    0 -0.69594467545E+02 -0.20248447957E+02 -0.62611615422E+02  0.95870101404E+02  0.41800000000E+01 0.  1.
         -5    1    3    3    0  502  0.32140701424E+02  0.22074022986E+02  0.16604211197E+02  0.42584732102E+02  0.41800000000E+01 0.  1.
        -11    1    1    2    0    0  0.43481406679E+02 -0.25354462175E+02 -0.12500244330E+03  0.13475567636E+03  0.00000000000E+00 0. -1.
         11    1    1    2    0    0 -0.60276405575E+01  0.23528887147E+02 -0.55388857327E+01  0.24912250726E+02  0.00000000000E+00 0.  1.
</event>
<event>
 7    1  0.2723366E-009  0.9564041E+02  0.7561462E-02  0.1289740E+00
         -2   -1    0    0    0  501 -0.00000000000E+00  0.00000000000E+00  0.24292884921E+02  0.24292884921E+02  0.00000000000E+00 0. -1.
          2   -1    0    0  501    0  0.00000000000E+00 -0.00000000000E+00 -0.98079368023E+03  0.98079368023E+03  0.00000000000E+00 0.  1.
         25    2    1    2    0    0 -0.40546578420E+02 -0.44673626310E+02 -0.81760628509E+03  0.82931728492E+03  0.12508942292E+03 0.  0.
          5    1    3    3  502    0 -0.45112859286E+02 -0.81266572298E+02 -0.69548903832E+03  0.70168504378E+03  0.41800000000E+01 0.  1.
         -5    1    3    3    0  502  0.45662808651E+01  0.36592945987E+02 -0.12211724677E+03  0.12763224113E+03  0.41800000000E+01 0.  1.
        -11    1    1    2    0    0  0.14290270539E+02  0.23006807503E+02 -0.13911487694E+03  0.14172675827E+03  0.00000000000E+00 0.  1.
         11    1    1    2    0    0  0.26256307881E+02  0.21666818807E+02  0.22036671799E+00  0.34042521973E+02  0.00000000000E+00 0. -1.
</event>
<event>
 7    1  0.2723366E-009  0.1156686E+03  0.7561462E-02  0.1250419E+00
          4   -1    0    0  501    0  0.00000000000E+00  0.00000000000E+00  0.92899245484E+02  0.92899245484E+02  0.00000000000E+00 0. -1.
         -4   -1    0    0    0  501 -0.00000000000E+00 -0.00000000000E+00 -0.15675425113E+03  0.15675425113E+03  0.00000000000E+00 0.  1.
         25    2    1    2    0    0  0.44779266977E+02 -0.35045548615E+02 -0.49233474346E+02  0.14595860933E+03  0.12508639979E+03 0.  0.
          5    1    3    3  502    0  0.77899489273E+02  0.12015807810E+02 -0.36040423847E+02  0.86770355637E+02  0.41800000000E+01 0.  1.
         -5    1    3    3    0  502 -0.33120222296E+02 -0.47061356425E+02 -0.13193050499E+02  0.59188253691E+02  0.41800000000E+01 0.  1.
        -11    1    1    2    0    0 -0.95560187432E+01  0.53909519752E+02  0.11517025138E+02  0.55948151732E+02  0.00000000000E+00 0. -1.
         11    1    1    2    0    0 -0.35223248234E+02 -0.18863971137E+02 -0.26138556435E+02  0.47746735550E+02  0.00000000000E+00 0.  1.
</event>
<event>
 7    1  0.2723366E-009  0.9952832E+02  0.7561462E-02  0.1281291E+00
         -2   -1    0    0    0  501 -0.00000000000E+00  0.00000000000E+00  0.17326541971E+02  0.17326541971E+02  0.00000000000E+00 0.  1.
          2   -1    0    0  501    0  0.00000000000E+00 -0.00000000000E+00 -0.13364715930E+04  0.13364715930E+04  0.00000000000E+00 0. -1.
         25    2    1    2    0    0  0.43900064902E+02  0.46550859091E+02 -0.10892699557E+04  0.10982945392E+04  0.12509060770E+03 0.  0.
          5    1    3    3  502    0  0.51756365131E+02 -0.26865852364E+02 -0.67055571262E+03  0.67309949597E+03  0.41800000000E+01 0. -1.
         -5    1    3    3    0  502 -0.78563002291E+01  0.73416711455E+02 -0.41871424313E+03  0.42519504321E+03  0.41800000000E+01 0. -1.
        -11    1    1    2    0    0 -0.24055273703E+02 -0.38125180202E+02 -0.22955741180E+03  0.23394185361E+03  0.00000000000E+00 0. -1.
         11    1    1    2    0    0 -0.19844791199E+02 -0.84256788881E+01 -0.31768347411E+00  0.21561742166E+02  0.00000000000E+00 0.  1.
</event>
<event>
 7    1  0.2723366E-009  0.1300410E+03  0.7561462E-02  0.1227395E+00
          2   -1    0    0  501    0  0.00000000000E+00  0.00000000000E+00  0.63455394304E+03  0.63455394304E+03  0.00000000000E+00 0. -1.
         -2   -1    0    0    0  501 -0.00000000000E+00 -0.00000000000E+00 -0.39160827406E+02  0.39160827406E+02  0.00000000000E+00 0.  1.
         25    2    1    2    0    0  0.85235590583E+02 -0.75916303395E+02  0.35196903802E+03  0.39058710460E+03  0.12509073320E+03 0.  0.
          5    1    3    3  502    0  0.40714409612E+01 -0.43243592334E+02  0.25978368337E+03  0.26342289091E+03  0.41800000000E+01 0. -1.
         -5    1    3    3    0  502  0.81164149622E+02 -0.32672711062E+02  0.92185354644E+02  0.12716421369E+03  0.41800000000E+01 0. -1.
        -11    1    1    2    0    0 -0.15293062383E+02 -0.98443367819E+01  0.10170816814E+03  0.10332153788E+03  0.00000000000E+00 0. -1.
         11    1    1    2    0    0 -0.69942528200E+02  0.85760640177E+02  0.14171590947E+03  0.17980612796E+03  0.00000000000E+00 0.  1.
</event>
<event>
 7    1  0.2723366E-009  0.1069457E+03  0.7561462E-02  0.1266333E+00
         -2   -1    0    0    0  501 -0.00000000000E+00  0.00000000000E+00  0.22147109307E+02  0.22147109307E+02  0.00000000000E+00 0.  1.
          2   -1    0    0  501    0  0.00000000000E+00 -0.00000000000E+00 -0.64248958577E+03  0.64248958577E+03  0.00000000000E+00 0. -1.
         25    2    1    2    0    0 -0.14648790956E+02 -0.28070654099E+02 -0.24607564937E+03  0.27784965252E+03  0.12507859727E+03 0.  0.
          5    1    3    3  502    0 -0.53751663808E+02  0.16971213671E+02 -0.60121834429E+02  0.82518911958E+02  0.41800000000E+01 0. -1.
         -5    1    3    3    0  502  0.39102872853E+02 -0.45041867770E+02 -0.18595381494E+03  0.19533074056E+03  0.41800000000E+01 0. -1.
        -11    1    1    2    0    0  0.21369662974E+01  0.61677919753E+02 -0.23143087825E+03  0.23951823275E+03  0.00000000000E+00 0.  1.
         11    1    1    2    0    0  0.12511824658E+02 -0.33607265654E+02 -0.14283594884E+03  0.14726880981E+03  0.00000000000E+00 0. -1.
</event>
<event>
 7    1  0.2723366E-009  0.1543307E+03  0.7561462E-02  0.1195250E+00
          2   -1    0    0  501    0  0.00000000000E+00  0.00000000000E+00  0.64532217460E+03  0.64532217460E+03  0.00000000000E+00 0. -1.
         -2   -1    0    0    0  501 -0.00000000000E+00 -0.00000000000E+00 -0.71732622919E+02  0.71732622919E+02  0.00000000000E+00 0.  1.
         25    2    1    2    0    0  0.11870362727E+03  0.23002229197E+02  0.53174864506E+03  0.55948518252E+03  0.12508954496E+03 0.  0.
          5    1    3    3  502    0  0.15338488228E+02  0.59077707028E+02  0.14173155086E+03  0.15437211405E+03  0.41800000000E+01 0. -1.
         -5    1    3    3    0  502  0.10336513904E+03 -0.36075477830E+02  0.39001709420E+03  0.40511306846E+03  0.41800000000E+01 0. -1.
        -11    1    1    2    0    0 -0.79797124559E+02  0.17571903188E+02 -0.84479586451E+01  0.82144512141E+02  0.00000000000E+00 0. -1.
         11    1    1    2    0    0 -0.38906502709E+02 -0.40574132385E+02  0.50288865265E+02  0.75425102860E+02  0.00000000000E+00 0.  1.
</event>
<event>
 7    1  0.2723366E-009  0.1078630E+03  0.7561462E-02  0.1264579E+00
          2   -1    0    0  501    0  0.00000000000E+00  0.00000000000E+00  0.32061339811E+03  0.32061339811E+03  0.00000000000E+00 0.  1.
         -2   -1    0    0    0  501 -0.00000000000E+00 -0.00000000000E+00 -0.51599456195E+02  0.51599456195E+02  0.00000000000E+00 0. -1.
         25    2    1    2    0    0 -0.36459976711E+02  0.57454312173E+02  0.16754708471E+03  0.21988670095E+03  0.12509119782E+03 0.  0.
          5    1    3    3  502    0 -0.24082502877E+02 -0.21493824995E+02 -0.17859246850E+01  0.32597751222E+02  0.41800000000E+01 0. -1.
         -5    1    3    3    0  502 -0.12377473834E+02  0.78948137168E+02  0.16933300939E+03  0.18728894973E+03  0.41800000000E+01 0. -1.
        -11    1    1    2    0    0 -0.23087093756E+02 -0.46129944411E+01  0.55759740692E+02  0.60526376877E+02  0.00000000000E+00 0.  1.
         11    1    1    2    0    0  0.59547070466E+02 -0.52841317731E+02  0.45707116514E+02  0.91799776474E+02  0.00000000000E+00 0. -1.
</event>
<event>
 7    1  0.2723366E-009  0.1253240E+03  0.7561462E-02  0.1234564E+00
         -1   -1    0    0    0  501 -0.00000000000E+00  0.00000000000E+00  0.69164431282E+02  0.69164431282E+02  0.00000000000E+00 0.  1.
          1   -1    0    0  501    0  0.00000000000E+00 -0.00000000000E+00 -0.27360964615E+03  0.27360964615E+03  0.00000000000E+00 0. -1.
         25    2    1    2    0    0 -0.60054233993E+02  0.30872042405E+02 -0.17410168014E+03  0.22476233385E+03  0.12508843939E+03 0.  0.
          5    1    3    3  502    0  0.29657552094E+02 -0.21468358709E+02 -0.32719429395E+02  0.49279755293E+02  0.41800000000E+01 0. -1.
         -5    1    3    3    0  502 -0.89711786086E+02  0.52340401115E+02 -0.14138225075E+03  0.17548257856E+03  0.41800000000E+01 0. -1.
        -11    1    1    2    0    0  0.38984747283E+01  0.28128379250E+02 -0.22408069282E+02  0.36173545491E+02  0.00000000000E+00 0. -1.
         11    1    1    2    0    0  0.56155759265E+02 -0.59000421656E+02 -0.79354654433E+01  0.81838198086E+02  0.00000000000E+00 0.  1.
</event>
<event>
 7    1  0.2723366E-009  0.8286787E+02  0.7561462E-02  0.1321104E+00
         -2   -1    0    0    0  501 -0.00000000000E+00  0.00000000000E+00  0.94083569458E+02  0.94083569458E+02  0.00000000000E+00 0.  1.
          2   -1    0    0  501    0  0.00000000000E+00 -0.00000000000E+00 -0.17813996132E+03  0.17813996132E+03  0.00000000000E+00 0. -1.
         25    2    1    2    0    0  0.11535937478E+02 -0.71977583989E+02 -0.50543673294E+02  0.15334985511E+03  0.12509062596E+03 0.  0.
          5    1    3    3  502    0 -0.21479835128E+02 -0.23154346402E+02  0.36308763107E+02  0.48304303667E+02  0.41800000000E+01 0. -1.
         -5    1    3    3    0  502  0.33015772605E+02 -0.48823237588E+02 -0.86852436401E+02  0.10504555144E+03  0.41800000000E+01 0. -1.
        -11    1    1    2    0    0 -0.13811764662E+02  0.33364284098E+02 -0.61370468251E+02  0.71205861204E+02  0.00000000000E+00 0. -1.
         11    1    1    2    0    0  0.22758271844E+01  0.38613299892E+02  0.27857749686E+02  0.47667814461E+02  0.00000000000E+00 0.  1.
</event>
<event>
 7    1  0.2723366E-009  0.1004721E+03  0.7561462E-02  0.1279306E+00
         -1   -1    0    0    0  501 -0.00000000000E+00  0.00000000000E+00  0.29410326101E+03  0.29410326101E+03  0.00000000000E+00 0.  1.
          1   -1    0    0  501    0  0.00000000000E+00 -0.00000000000E+00 -0.45939895230E+02  0.45939895230E+02  0.00000000000E+00 0. -1.
         25    2    1    2    0    0  0.12393490017E+02 -0.27188072592E+02  0.92188398775E+02  0.15823318720E+03  0.12508497422E+03 0.  0.
          5    1    3    3  502    0 -0.44489639035E+02  0.61023163903E+00 -0.19223003715E+01  0.44731063064E+02  0.41800000000E+01 0. -1.
         -5    1    3    3    0  502  0.56883129052E+02 -0.27798304231E+02  0.94110699146E+02  0.11350212413E+03  0.41800000000E+01 0. -1.
        -11    1    1    2    0    0  0.19496525180E+02  0.49952752014E+02  0.10023058874E+03  0.11367305242E+03  0.00000000000E+00 0.  1.
         11    1    1    2    0    0 -0.31890015197E+02 -0.22764679422E+02  0.55744378269E+02  0.68136916624E+02  0.00000000000E+00 0. -1.
</event>
<event>
 7    1  0.2723366E-009  0.1030271E+03  0.7561462E-02  0.1274056E+00
         -2   -1    0    0    0  501 -0.00000000000E+00  0.00000000000E+00  0.20336066934E+02  0.20336066934E+02  0.00000000000E+00 0.  1.
          2   -1    0    0  501    0  0.00000000000E+00 -0.00000000000E+00 -0.57907885744E+03  0.57907885744E+03  0.00000000000E+00 0. -1.
         25    2    1    2    0    0 -0.52822326797E+01 -0.41887906552E+01 -0.28913135343E+03  0.31510708817E+03  0.12510031787E+03 0.  0.
          5    1    3    3  502    0 -0.58518687635E+02 -0.23749302791E+02 -0.19619319184E+03  0.20614972013E+03  0.41800000000E+01 0.  1.
         -5    1    3    3    0  502  0.53236454955E+02  0.19560512136E+02 -0.92938161581E+02  0.10895736804E+03  0.41800000000E+01 0.  1.
        -11    1    1    2    0    0  0.11380005162E+02 -0.39844653037E+02 -0.87012963064E+02  0.96376120664E+02  0.00000000000E+00 0.  1.
         11    1    1    2    0    0 -0.60977724819E+01  0.44033443692E+02 -0.18259847402E+03  0.18793171554E+03  0.00000000000E+00 0. -1.
</event>
<event>
 7    1  0.2723366E-009  0.1121789E+03  0.7561462E-02  0.1256587E+00
          1   -1    0    0  501    0  0.00000000000E+00  0.00000000000E+00  0.55778109069E+03  0.55778109069E+03  0.00000000000E+00 0. -1.
         -1   -1    0    0    0  501 -0.00000000000E+00 -0.00000000000E+00 -0.32411377141E+02  0.32411377141E+02  0.00000000000E+00 0.  1.
         25    2    1    2    0    0 -0.71047523855E+02 -0.29311699567E+02  0.32527854763E+03  0.35687653731E+03  0.12509117856E+03 0.  0.
          5    1    3    3  502    0 -0.13313695393E+02 -0.51179495334E+02  0.26582066553E+03  0.27106215865E+03  0.41800000000E+01 0.  1.
         -5    1    3    3    0  502 -0.57733828462E+02  0.21867795768E+02  0.59457882098E+02  0.85814378656E+02  0.41800000000E+01 0.  1.
        -11    1    1    2    0    0  0.37180937639E+02  0.55373725601E+02  0.71362393681E+02  0.97679388012E+02  0.00000000000E+00 0.  1.
         11    1    1    2    0    0  0.33866586216E+02 -0.26062026034E+02  0.12872877224E+03  0.13563654251E+03  0.00000000000E+00 0. -1.
</event>
<event>
 7    1  0.2723366E-009  0.1108952E+03  0.7561462E-02  0.1258921E+00
          2   -1    0    0  501    0  0.00000000000E+00  0.00000000000E+00  0.64344642945E+02  0.64344642945E+02  0.00000000000E+00 0.  1.
         -2   -1    0    0    0  501 -0.00000000000E+00 -0.00000000000E+00 -0.27608692822E+03  0.27608692822E+03  0.00000000000E+00 0. -1.
         25    2    1    2    0    0 -0.77473828780E+02 -0.12203001133E+00 -0.12533092009E+03  0.19328229448E+03  0.12509195335E+03 0.  0.
          5    1    3    3  502    0 -0.49698725585E+02  0.35346836719E+02 -0.13393704603E+03  0.14722760234E+03  0.41800000000E+01 0.  1.
         -5    1    3    3    0  502 -0.27775103195E+02 -0.35468866730E+02  0.86061259462E+01  0.46054692143E+02  0.41800000000E+01 0.  1.
        -11    1    1    2    0    0  0.17643055298E+02  0.39861527233E+02 -0.15632344768E+02  0.46309706937E+02  0.00000000000E+00 0.  1.
         11    1    1    2    0    0  0.59830773482E+02 -0.39739497222E+02 -0.70779020424E+02  0.10083956975E+03  0.00000000000E+00 0. -1.
</event>
<event>
 7    1  0.2723366E-009  0.1022251E+03  0.7561462E-02  0.1275685E+00
         -1   -1    0    0    0  501 -0.00000000000E+00  0.00000000000E+00  0.26969685620E+03  0.26969685620E+03  0.00000000000E+00 0.  1.
          1   -1    0    0  501    0  0.00000000000E+00 -0.00000000000E+00 -0.65817731282E+02  0.65817731282E+02  0.00000000000E+00 0. -1.
         25    2    1    2    0    0  0.66779675245E+02 -0.16997723080E+02  0.17065960709E+03  0.22253621117E+03  0.12509682719E+03 0.  0.
          5    1    3    3  502    0 -0.23569888043E+02  0.14429110439E+02  0.12964575326E+01  0.27980208229E+02  0.41800000000E+01 0.  1.
         -5    1    3    3    0  502  0.90349563289E+02 -0.31426833519E+02  0.16936314956E+03  0.19455600294E+03  0.41800000000E+01 0.  1.
        -11    1    1    2    0    0 -0.45616499602E+02  0.31197221033E+02 -0.16015781458E+02  0.57538134240E+02  0.00000000000E+00 0. -1.
         11    1    1    2    0    0 -0.21163175643E+02 -0.14199497952E+02  0.49235299279E+02  0.55440242067E+02  0.00000000000E+00 0.  1.
</event>
<event>
 7    1  0.2723366E-009  0.1566089E+03  0.7561462E-02  0.1192579E+00
         -1   -1    0    0    0  501 -0.00000000000E+00  0.00000000000E+00  0.22062760792E+03  0.22062760792E+03  0.00000000000E+00 0.  1.
          1   -1    0    0  501    0  0.00000000000E+00 -0.00000000000E+00 -0.15981519290E+03  0.15981519290E+03  0.00000000000E+00 0. -1.
         25    2    1    2    0    0  0.50138981781E+02 -0.12585432969E+03  0.10372671416E+03  0.21156525938E+03  0.12508955971E+03 0.  0.
          5    1    3    3  502    0  0.30609674599E+02 -0.14370024370E+03  0.56885673771E+02  0.15760762830E+03  0.41800000000E+01 0. -1.
         -5    1    3    3    0  502  0.19529307182E+02  0.17845914013E+02  0.46841040393E+02  0.53957631074E+02  0.41800000000E+01 0. -1.
        -11    1    1    2    0    0 -0.25605136719E+02  0.10224439878E+03  0.10085218255E+02  0.10588319855E+03  0.00000000000E+00 0.  1.
         11    1    1    2    0    0 -0.24533845062E+02  0.23609930911E+02 -0.52999517398E+02  0.62994342885E+02  0.00000000000E+00 0. -1.
</event>
<event>
 7    1  0.2723366E-009  0.7344136E+02  0.7561462E-02  0.1348767E+00
         -2   -1    0    0    0  501 -0.00000000000E+00  0.00000000000E+00  0.51478755909E+02  0.51478755909E+02  0.00000000000E+00 0.  1.
          2   -1    0    0  501    0  0.00000000000E+00 -0.00000000000E+00 -0.26971117160E+03  0.26971117160E+03  0.00000000000E+00 0. -1.
         25    2    1    2    0    0  0.12857789349E+01  0.37112942616E+02 -0.14815776432E+03  0.19742642586E+03  0.12508975483E+03 0.  0.
          5    1    3    3  502    0  0.25780954955E+01 -0.33900638300E+02 -0.13435824254E+01  0.34280861530E+02  0.41800000000E+01 0. -1.
         -5    1    3    3    0  502 -0.12923165606E+01  0.71013580915E+02 -0.14681418190E+03  0.16314556433E+03  0.41800000000E+01 0. -1.
        -11    1    1    2    0    0 -0.90742085961E+01 -0.11160027361E+02  0.22832652587E+02  0.26985505304E+02  0.00000000000E+00 0.  1.
         11    1    1    2    0    0  0.77884296612E+01 -0.25952915254E+02 -0.92907303958E+02  0.96777996339E+02  0.00000000000E+00 0. -1.
</event>
<event>
 7    1  0.2723366E-009  0.7751778E+02  0.7561462E-02  0.1336247E+00
         -2   -1    0    0    0  501 -0.00000000000E+00  0.00000000000E+00  0.18737319969E+02  0.18737319969E+02  0.00000000000E+00 0.  1.
          2   -1    0    0  501    0  0.00000000000E+00 -0.00000000000E+00 -0.64405763082E+03  0.64405763082E+03  0.00000000000E+00 0. -1.
         25    2    1    2    0    0 -0.32373629714E+01 -0.64582371669E+00 -0.29785292145E+03  0.32306842226E+03  0.12508375209E+03 0.  0.
          5    1    3    3  502    0  0.30889132796E+02 -0.39416438742E+00 -0.28447045391E+03  0.28617338352E+03  0.41800000000E+01 0.  1.
         -5    1    3    3    0  502 -0.34126495767E+02 -0.25165932928E+00 -0.13382467541E+02  0.36895038735E+02  0.41800000000E+01 0.  1.
        -11    1    1    2    0    0  0.38521880021E+02 -0.24944127543E+02 -0.14319873092E+03  0.15037294064E+03  0.00000000000E+00 0.  1.
         11    1    1    2    0    0 -0.35284517049E+02  0.25589951260E+02 -0.18426865849E+03  0.18935358790E+03  0.00000000000E+00 0. -1.
</event>
<event>
 7    1  0.2723366E-009  0.7861529E+02  0.7561462E-02  0.1333028E+00
          2   -1    0    0  501    0  0.00000000000E+00  0.00000000000E+00  0.94684555950E+03  0.94684555950E+03  0.00000000000E+00 0. -1.
         -2   -1    0    0    0  501 -0.00000000000E+00 -0.00000000000E+00 -0.14046764204E+02  0.14046764204E+02  0.00000000000E+00 0.  1.
         25    2    1    2    0    0  0.33648906631E+02  0.68643993330E+01  0.60174491127E+03  0.61556749324E+03  0.12508809532E+03 0.  0.
          5    1    3    3  502    0  0.41221560499E+02 -0.16229733113E+02  0.58273155758E+03  0.58442806391E+03  0.41800000000E+01 0.  1.
         -5    1    3    3    0  502 -0.75726538677E+01  0.23094132446E+02  0.19013353690E+02  0.31139429323E+02  0.41800000000E+01 0.  1.
        -11    1    1    2    0    0 -0.96713405105E+01 -0.43348126619E+02  0.24319004309E+03  0.24721244298E+03  0.00000000000E+00 0. -1.
         11    1    1    2    0    0 -0.23977566121E+02  0.36483727286E+02  0.87863840936E+02  0.98112387484E+02  0.00000000000E+00 0.  1.
</event>
<event>
 7    1  0.2723366E-009  0.8149889E+02  0.7561462E-02  0.1324851E+00
         -1   -1    0    0    0  501 -0.00000000000E+00  0.00000000000E+00  0.38609367279E+03  0.38609367279E+03  0.00000000000E+00 0.  1.
          1   -1    0    0  501    0  0.00000000000E+00 -0.00000000000E+00 -0.45345973716E+02  0.45345973716E+02  0.00000000000E+00 0. -1.
         25    2    1    2    0    0 -0.30852848073E+02  0.24951079375E+01  0.29604669651E+03  0.32287757652E+03  0.12509260212E+03 0.  0.
          5    1    3    3  502    0  0.30143724149E+02  0.35461892649E+02  0.55757004708E+02  0.72749611063E+02  0.41800000000E+01 0. -1.
         -5    1    3    3    0  502 -0.60996572221E+02 -0.32966784711E+02  0.24028969180E+03  0.25012796545E+03  0.41800000000E+01 0. -1.
        -11    1    1    2    0    0 -0.16224277019E+01  0.11377547008E+02  0.66218727055E+02  0.67208635311E+02  0.00000000000E+00 0.  1.
         11    1    1    2    0    0  0.32475275775E+02 -0.13872654946E+02 -0.21517724494E+02  0.41353434673E+02  0.00000000000E+00 0. -1.
</event>
<event>
 7    1  0.2723366E-009  0.1215464E+03  0.7561462E-02  0.1240568E+00
         -2   -1    0    0    0  501 -0.00000000000E+00  0.00000000000E+00  0.24872138780E+02  0.24872138780E+02  0.00000000000E+00 0.  1.
          2   -1    0    0  501    0  0.00000000000E+00 -0.00000000000E+00 -0.61143870268E+03  0.61143870268E+03  0.00000000000E+00 0. -1.
         25    2    1    2    0    0  0.54973229949E+02  0.98673981945E+01 -0.37720492737E+03  0.40131034858E+03  0.12508803737E+03 0.  0.
          5    1    3    3  502    0  0.26158840558E+02 -0.57314301936E+02 -0.19397036623E+03  0.20398820927E+03  0.41800000000E+01 0. -1.
         -5    1    3    3    0  502  0.28814389390E+02  0.67181700130E+02 -0.18323456114E+03  0.19732213931E+03  0.41800000000E+01 0. -1.
        -11    1    1    2    0    0 -0.57215305464E+02  0.31494129537E+02 -0.12701338063E+03  0.14282111271E+03  0.00000000000E+00 0. -1.
         11    1    1    2    0    0  0.22420755153E+01 -0.41361527732E+02 -0.82348255901E+02  0.92179380172E+02  0.00000000000E+00 0.  1.
</event>
<event>
 7    1  0.2848674E-009  0.2036433E+03  0.7561462E-02  0.1146701E+00
         -3   -1    0    0    0  501 -0.00000000000E+00  0.00000000000E+00  0.74645567562E+02  0.74645567562E+02  0.00000000000E+00 0.  1.
          3   -1    0    0  501    0  0.00000000000E+00 -0.00000000000E+00 -0.58788042736E+03  0.58788042736E+03  0.00000000000E+00 0. -1.
         25    2    1    2    0    0  0.17453984962E+03 -0.23955482735E+02 -0.21794536753E+03  0.30689612627E+03  0.12508806831E+03 0.  0.
          5    1    3    3  502    0  0.14217475919E+03  0.36927305775E+02 -0.15093574803E+03  0.21065697352E+03  0.41800000000E+01 0. -1.
         -5    1    3    3    0  502  0.32365090432E+02 -0.60882788509E+02 -0.67009619508E+02  0.96239152750E+02  0.41800000000E+01 0. -1.
        -11    1    1    2    0    0 -0.10237700818E+03  0.50769474536E+02 -0.22021963488E+03  0.24810336341E+03  0.00000000000E+00 0. -1.
         11    1    1    2    0    0 -0.72162841442E+02 -0.26813991801E+02 -0.75069857380E+02  0.10752650524E+03  0.00000000000E+00 0.  1.
</event>
<event>
 7    1  0.2723366E-009  0.2935930E+03  0.7561462E-02  0.1088488E+00
          2   -1    0    0  501    0  0.00000000000E+00  0.00000000000E+00  0.18369177388E+03  0.18369177388E+03  0.00000000000E+00 0. -1.
         -2   -1    0    0    0  501 -0.00000000000E+00 -0.00000000000E+00 -0.51244989264E+03  0.51244989264E+03  0.00000000000E+00 0.  1.
         25    2    1    2    0    0  0.55441864301E+02 -0.28124561391E+03 -0.15928550051E+03  0.35098760909E+03  0.12509010911E+03 0.  0.
          5    1    3    3  502    0 -0.98983631559E+01 -0.61598623881E+02  0.13484949387E+02  0.63966274842E+02  0.41800000000E+01 0. -1.
         -5    1    3    3    0  502  0.65340227457E+02 -0.21964699003E+03 -0.17277044990E+03  0.28702133424E+03  0.41800000000E+01 0. -1.
        -11    1    1    2    0    0 -0.22305956579E+02  0.24627626473E+03 -0.16387309397E+03  0.29665458903E+03  0.00000000000E+00 0.  1.
         11    1    1    2    0    0 -0.33135907722E+02  0.34969349179E+02 -0.55995242825E+01  0.48499468397E+02  0.00000000000E+00 0. -1.
</event>
<event>
 7    1  0.2723366E-009  0.1407411E+03  0.7561462E-02  0.1212335E+00
          2   -1    0    0  501    0  0.00000000000E+00  0.00000000000E+00  0.21584536853E+03  0.21584536853E+03  0.00000000000E+00 0. -1.
         -2   -1    0    0    0  501 -0.00000000000E+00 -0.00000000000E+00 -0.10829472517E+03  0.10829472517E+03  0.00000000000E+00 0.  1.
         25    2    1    2    0    0  0.33062447145E+02 -0.97539505281E+02  0.28023557597E+02  0.16443705216E+03  0.12508854400E+03 0.  0.
          5    1    3    3  502    0 -0.36002634750E+02 -0.72176563376E+02 -0.10222122987E+02  0.81410135782E+02  0.41800000000E+01 0. -1.
         -5    1    3    3    0  502  0.69065081895E+02 -0.25362941905E+02  0.38245680584E+02  0.83026916374E+02  0.41800000000E+01 0. -1.
        -11    1    1    2    0    0  0.21090476510E+02  0.52534388598E+02  0.44673916122E+01  0.56785806084E+02  0.00000000000E+00 0.  1.
         11    1    1    2    0    0 -0.54152923655E+02  0.45005116682E+02  0.75059694158E+02  0.10291723546E+03  0.00000000000E+00 0. -1.
</event>
<event>
 7    1  0.2723366E-009  0.1167125E+03  0.7561462E-02  0.1248621E+00
         -1   -1    0    0    0  501 -0.00000000000E+00  0.00000000000E+00  0.62856060149E+02  0.62856060149E+02  0.00000000000E+00 0.  1.
          1   -1    0    0  501    0  0.00000000000E+00 -0.00000000000E+00 -0.22997433553E+03  0.22997433553E+03  0.00000000000E+00 0. -1.
         25    2    1    2    0    0 -0.37914899194E+02 -0.23548888939E+02 -0.64962697848E+02  0.14784981745E+03  0.12508927475E+03 0.  0.
          5    1    3    3  502    0 -0.82985487477E+02 -0.12190000450E+02 -0.28697311199E+02  0.88747931316E+02  0.41800000000E+01 0.  1.
         -5    1    3    3    0  502  0.45070588283E+02 -0.11358888489E+02 -0.36265386649E+02  0.59101886135E+02  0.41800000000E+01 0.  1.
        -11    1    1    2    0    0  0.55271596506E+02  0.47719038525E+02 -0.75425111484E+02  0.10498096713E+03  0.00000000000E+00 0.  1.
         11    1    1    2    0    0 -0.17356697311E+02 -0.24170149586E+02 -0.26730466053E+02  0.39999611098E+02  0.00000000000E+00 0. -1.
</event>
<event>
 7    1  0.2723366E-009  0.1357971E+03  0.7561462E-02  0.1219099E+00
          1   -1    0    0  501    0  0.00000000000E+00  0.00000000000E+00  0.16775802555E+03  0.16775802555E+03  0.00000000000E+00 0. -1.
         -1   -1    0    0    0  501 -0.00000000000E+00 -0.00000000000E+00 -0.12504275821E+03  0.12504275821E+03  0.00000000000E+00 0.  1.
         25    2    1    2    0    0 -0.29978877552E+02 -0.78711811951E+02  0.66417580884E+02  0.16478204843E+03  0.12509015146E+03 0.  0.
          5    1    3    3  502    0 -0.74430461751E+02 -0.72658875540E+02  0.57247711339E+02  0.11880226717E+03  0.41800000000E+01 0.  1.
         -5    1    3    3    0  502  0.44451584198E+02 -0.60529364104E+01  0.91698695450E+01  0.45979781257E+02  0.41800000000E+01 0.  1.
        -11    1    1    2    0    0  0.59088136992E+02  0.31462889470E+02 -0.27548657267E+02  0.72389570134E+02  0.00000000000E+00 0.  1.
         11    1    1    2    0    0 -0.29109259439E+02  0.47248922480E+02  0.38463437147E+01  0.55629165198E+02  0.00000000000E+00 0. -1.
</event>
<event>
 7    1  0.2723366E-009  0.1451729E+03  0.7561462E-02  0.1206533E+00
          3   -1    0    0  501    0  0.00000000000E+00  0.00000000000E+00  0.32995529772E+02  0.32995529772E+02  0.00000000000E+00 0. -1.
         -3   -1    0    0    0  501 -0.00000000000E+00 -0.00000000000E+00 -0.79779373285E+03  0.79779373285E+03  0.00000000000E+00 0.  1.
         25    2    1    2    0    0 -0.11212753534E+03  0.14873786996E+02 -0.50622134391E+03  0.53357384278E+03  0.12508870030E+03 0.  0.
          5    1    3    3  502    0 -0.66810354857E+02  0.54898661618E+02 -0.15842584569E+03  0.18053727467E+03  0.41800000000E+01 0.  1.
         -5    1    3    3    0  502 -0.45317180484E+02 -0.40024874621E+02 -0.34779549822E+03  0.35303656810E+03  0.41800000000E+01 0.  1.
        -11    1    1    2    0    0  0.11184621083E+03  0.15390932197E+02 -0.22670902699E+03  0.25326554955E+03  0.00000000000E+00 0.  1.
         11    1    1    2    0    0  0.28132451318E+00 -0.30264719194E+02 -0.31867832178E+02  0.43949870296E+02  0.00000000000E+00 0. -1.
</event>
<event>
 7    1  0.2723366E-009  0.1274023E+03  0.7561462E-02  0.1231362E+00
          1   -1    0    0  501    0  0.00000000000E+00  0.00000000000E+00  0.20905837724E+02  0.20905837724E+02  0.00000000000E+00 0. -1.
         -1   -1    0    0    0  501 -0.00000000000E+00 -0.00000000000E+00 -0.83907596681E+03  0.83907596681E+03  0.00000000000E+00 0.  1.
         25    2    1    2    0    0  0.32680086941E+02  0.58860058488E+02 -0.33898732605E+03  0.36754912425E+03  0.12508979553E+03 0.  0.
          5    1    3    3  502    0  0.80102715720E+02  0.26564936718E+02 -0.20555027211E+03  0.22223979773E+03  0.41800000000E+01 0.  1.
         -5    1    3    3    0  502 -0.47422628778E+02  0.32295121770E+02 -0.13343705394E+03  0.14530932652E+03  0.41800000000E+01 0.  1.
        -11    1    1    2    0    0 -0.29930907667E+02 -0.83131058103E+02 -0.35151620798E+03  0.36245037802E+03  0.00000000000E+00 0. -1.
         11    1    1    2    0    0 -0.27491792739E+01  0.24270999615E+02 -0.12766659506E+03  0.12998230227E+03  0.00000000000E+00 0.  1.
</event>
<event>
 7    1  0.2723366E-009  0.2071105E+03  0.7561462E-02  0.1143875E+00
         -4   -1    0    0    0  501 -0.00000000000E+00  0.00000000000E+00  0.29797872525E+03  0.29797872525E+03  0.00000000000E+00 0.  1.
          4   -1    0    0  501    0  0.00000000000E+00 -0.00000000000E+00 -0.15328706268E+03  0.15328706268E+03  0.00000000000E+00 0. -1.
         25    2    1    2    0    0  0.16473404093E+03  0.76249283041E+02  0.43077465266E+02  0.22462106678E+03  0.12509075994E+03 0.  0.
          5    1    3    3  502    0  0.18337999304E+03  0.74062281356E+02  0.50242867270E+02  0.20409620643E+03  0.41800000000E+01 0. -1.
         -5    1    3    3    0  502 -0.18645952112E+02  0.21870016842E+01 -0.71654020040E+01  0.20524860350E+02  0.41800000000E+01 0. -1.
        -11    1    1    2    0    0 -0.77831120262E+01 -0.33656295804E+02  0.39711997175E+02  0.52634264502E+02  0.00000000000E+00 0.  1.
         11    1    1    2    0    0 -0.15695092890E+03 -0.42592987237E+02  0.61902200126E+02  0.17401045665E+03  0.00000000000E+00 0. -1.
</event>
<event>
 7    1  0.2723366E-009  0.1209968E+03  0.7561462E-02  0.1241462E+00
          1   -1    0    0  501    0  0.00000000000E+00  0.00000000000E+00  0.28579224824E+03  0.28579224824E+03  0.00000000000E+00 0. -1.
         -1   -1    0    0    0  501 -0.00000000000E+00 -0.00000000000E+00 -0.63719110416E+02  0.63719110416E+02  0.00000000000E+00 0.  1.
         25    2    1    2    0    0 -0.62012035114E+02 -0.56375788888E+02  0.10718180192E+03  0.18482370142E+03  0.12509252524E+03 0.  0.
          5    1    3    3  502    0 -0.85868695557E+02 -0.60049514504E+02  0.11815665661E+03  0.15798052086E+03  0.41800000000E+01 0. -1.
         -5    1    3    3    0  502  0.23856660443E+02  0.36737256156E+01 -0.10974854686E+02  0.26843180564E+02  0.41800000000E+01 0. -1.
        -11    1    1    2    0    0  0.99477994449E+01  0.59640111415E+02  0.36823780938E+02  0.70794720467E+02  0.00000000000E+00 0.  1.
         11    1    1    2    0    0  0.52064235669E+02 -0.32643225273E+01  0.78067554964E+02  0.93892936771E+02  0.00000000000E+00 0. -1.
</event>
<event>
 7    1  0.2723366E-009  0.1156363E+03  0.7561462E-02  0.1250475E+00
          1   -1    0    0  501    0  0.00000000000E+00  0.00000000000E+00  0.13475142318E+03  0.13475142318E+03  0.00000000000E+00 0. -1.
         -1   -1    0    0    0  501 -0.00000000000E+00 -0.00000000000E+00 -0.11129506661E+03  0.11129506661E+03  0.00000000000E+00 0.  1.
         25    2    1    2    0    0 -0.61350989193E+02 -0.12012620665E+02  0.23905921389E+02  0.14186956693E+03  0.12508890443E+03 0.  0.
          5    1    3    3  502    0 -0.91058836957E+02 -0.35787510942E+02  0.31449850943E+02  0.10285437886E+03  0.41800000000E+01 0.  1.
         -5    1    3    3    0  502  0.29707847763E+02  0.23774890277E+02 -0.75439295544E+01  0.39015188062E+02  0.41800000000E+01 0.  1.
        -11    1    1    2    0    0  0.56510169053E+02 -0.22050623777E+02 -0.20891592893E+02  0.64156744532E+02  0.00000000000E+00 0.  1.
         11    1    1    2    0    0  0.48408201403E+01  0.34063244442E+02  0.20442028079E+02  0.40020178330E+02  0.00000000000E+00 0. -1.
</event>
<event>
 7    1  0.2723366E-009  0.1739918E+03  0.7561462E-02  0.1173748E+00
         -1   -1    0    0    0  501 -0.00000000000E+00  0.00000000000E+00  0.21802092100E+02  0.21802092100E+02  0.00000000000E+00 0.  1.
          1   -1    0    0  501    0  0.00000000000E+00 -0.00000000000E+00 -0.15950070259E+04  0.15950070259E+04  0.00000000000E+00 0. -1.
         25    2    1    2    0    0  0.88819046847E+02 -0.11252249411E+03 -0.10408539477E+04  0.10580998249E+04  0.12509262268E+03 0.  0.
          5    1    3    3  502    0  0.67308871623E+02 -0.17284515579E+01 -0.56568084452E+03  0.56968918017E+03  0.41800000000E+01 0.  1.
         -5    1    3    3    0  502  0.21510175224E+02 -0.11079404255E+03 -0.47517310321E+03  0.48841064476E+03  0.41800000000E+01 0.  1.
        -11    1    1    2    0    0 -0.42856432690E+02  0.11380001612E+03 -0.34517562904E+03  0.36596903199E+03  0.00000000000E+00 0.  1.
         11    1    1    2    0    0 -0.45962614158E+02 -0.12775220104E+01 -0.18717535704E+03  0.19274026109E+03  0.00000000000E+00 0. -1.
</event>
<event>
 7    1  0.2723366E-009  0.1242529E+03  0.7561462E-02  0.1236242E+00
          2   -1    0    0  501    0  0.00000000000E+00  0.00000000000E+00  0.47312745794E+03  0.47312745794E+03  0.00000000000E+00 0. -1.
         -2   -1    0    0    0  501 -0.00000000000E+00 -0.00000000000E+00 -0.40572893253E+02  0.40572893253E+02  0.00000000000E+00 0.  1.
         25    2    1    2    0    0  0.47471698327E+02  0.68282670798E+02  0.19172548099E+03  0.24355468748E+03  0.12507653841E+03 0.  0.
          5    1    3    3  502    0  0.83401214136E+02  0.31398487787E+02  0.77441633279E+02  0.11813681272E+03  0.41800000000E+01 0.  1.
         -5    1    3    3    0  502 -0.35929515809E+02  0.36884183011E+02  0.11428384771E+03  0.12541787476E+03  0.41800000000E+01 0.  1.
        -11    1    1    2    0    0 -0.15758332334E+02  0.12969587057E+02  0.87284149662E+01  0.22197307364E+02  0.00000000000E+00 0.  1.
         11    1    1    2    0    0 -0.31713365993E+02 -0.81252257855E+02  0.23210066873E+03  0.24794835635E+03  0.00000000000E+00 0. -1.
</event>
<event>
 7    1  0.2723366E-009  0.3044801E+03  0.7561462E-02  0.1083022E+00
         -1   -1    0    0    0  501 -0.00000000000E+00  0.00000000000E+00  0.82560213220E+02  0.82560213220E+02  0.00000000000E+00 0.  1.
          1   -1    0    0  501    0  0.00000000000E+00 -0.00000000000E+00 -0.11914369668E+04  0.11914369668E+04  0.00000000000E+00 0. -1.
         25    2    1    2    0    0 -0.24587701628E+02 -0.29211114338E+03 -0.54144701305E+03  0.62828811501E+03  0.12509041674E+03 0.  0.
          5    1    3    3  502    0  0.10303853674E+02 -0.22289845657E+03 -0.29501782204E+03  0.36992280149E+03  0.41800000000E+01 0.  1.
         -5    1    3    3    0  502 -0.34891555302E+02 -0.69212686814E+02 -0.24642919101E+03  0.25836531352E+03  0.41800000000E+01 0.  1.
        -11    1    1    2    0    0  0.58266938798E+02  0.12810884736E+03 -0.25906469044E+03  0.29482439988E+03  0.00000000000E+00 0. -1.
         11    1    1    2    0    0 -0.33679237170E+02  0.16400229602E+03 -0.30836505012E+03  0.35088466517E+03  0.00000000000E+00 0.  1.
</event>
<event>
 7    1  0.2723366E-009  0.1060207E+03  0.7561462E-02  0.1268121E+00
         -4   -1    0    0    0  501 -0.00000000000E+00  0.00000000000E+00  0.15349765995E+02  0.15349765995E+02  0.00000000000E+00 0.  1.
          4   -1    0    0  501    0  0.00000000000E+00 -0.00000000000E+00 -0.11556507955E+04  0.11556507955E+04  0.00000000000E+00 0. -1.
         25    2    1    2    0    0 -0.48847397706E+02  0.64618008914E+01 -0.89373139690E+03  0.90378816489E+03  0.12509761810E+03 0.  0.
          5    1    3    3  502    0 -0.77487125288E+02  0.37711169545E+02 -0.46418375792E+03  0.47213390093E+03  0.41800000000E+01 0.  1.
         -5    1    3    3    0  502  0.28639727581E+02 -0.31249368654E+02 -0.42954763899E+03  0.43165426396E+03  0.41800000000E+01 0.  1.
        -11    1    1    2    0    0  0.14805813967E+02  0.29897011362E+02 -0.18516768367E+03  0.18814918148E+03  0.00000000000E+00 0. -1.
         11    1    1    2    0    0  0.34041583740E+02 -0.36358812253E+02 -0.61401948897E+02  0.79063215090E+02  0.00000000000E+00 0.  1.
</event>
<event>
 7    1  0.2723366E-009  0.6454296E+02  0.7561462E-02  0.1379699E+00
          1   -1    0    0  501    0  0.00000000000E+00  0.00000000000E+00  0.58232424045E+03  0.58232424045E+03  0.00000000000E+00 0. -1.
         -1   -1    0    0    0  501 -0.00000000000E+00 -0.00000000000E+00 -0.21411439012E+02  0.21411439012E+02  0.00000000000E+00 0.  1.
         25    2    1    2    0    0  0.15793806333E+02  0.14948949288E+02  0.31204861974E+03  0.33688970464E+03  0.12508963430E+03 0.  0.
          5    1    3    3  502    0  0.20553765900E+02  0.16223579900E+02  0.18041861017E+01  0.26577985720E+02  0.41800000000E+01 0. -1.
         -5    1    3    3    0  502 -0.47599595666E+01 -0.12746306115E+01  0.31024443364E+03  0.31031171892E+03  0.41800000000E+01 0. -1.
        -11    1    1    2    0    0 -0.55286696328E+02 -0.59817566419E+01  0.15221384992E+03  0.16205386855E+03  0.00000000000E+00 0.  1.
         11    1    1    2    0    0  0.39492889995E+02 -0.89671926464E+01  0.96650331780E+02  0.10479210627E+03  0.00000000000E+00 0. -1.
</event>
<event>
 7    1  0.2723366E-009  0.1554765E+03  0.7561462E-02  0.1193901E+00
          1   -1    0    0  501    0  0.00000000000E+00  0.00000000000E+00  0.16284218338E+03  0.16284218338E+03  0.00000000000E+00 0. -1.
         -1   -1    0    0    0  501 -0.00000000000E+00 -0.00000000000E+00 -0.22256645634E+03  0.22256645634E+03  0.00000000000E+00 0.  1.
         25    2    1    2    0    0 -0.80049131798E+02 -0.12417285872E+03  0.20188976746E+02  0.19463060036E+03  0.12508682373E+03 0.  0.
          5    1    3    3  502    0 -0.14523767034E+02 -0.37367750469E+01 -0.41427417173E+02  0.44256147485E+02  0.41800000000E+01 0.  1.
         -5    1    3    3    0  502 -0.65525364764E+02 -0.12043608368E+03  0.61616393919E+02  0.15037445288E+03  0.41800000000E+01 0.  1.
        -11    1    1    2    0    0  0.39430105675E+02  0.15798858346E+02 -0.59732033485E+02  0.73295654598E+02  0.00000000000E+00 0.  1.
         11    1    1    2    0    0  0.40619026123E+02  0.10837400038E+03 -0.20181216222E+02  0.11748238476E+03  0.00000000000E+00 0. -1.
</event>
<event>
 7    1  0.2723366E-009  0.1203342E+03  0.7561462E-02  0.1242547E+00
         -1   -1    0    0    0  501 -0.00000000000E+00  0.00000000000E+00  0.88851452318E+02  0.88851452318E+02  0.00000000000E+00 0.  1.
          1   -1    0    0  501    0  0.00000000000E+00 -0.00000000000E+00 -0.18509988137E+03  0.18509988137E+03  0.00000000000E+00 0. -1.
         25    2    1    2    0    0  0.35387094569E+02 -0.56806656117E+02 -0.73609010197E+02  0.15982932061E+03  0.12509149733E+03 0.  0.
          5    1    3    3  502    0  0.74411919734E+02 -0.18387037266E+02 -0.12687122241E+02  0.77805220960E+02  0.41800000000E+01 0. -1.
         -5    1    3    3    0  502 -0.39024825165E+02 -0.38419618851E+02 -0.60921887956E+02  0.82024099653E+02  0.41800000000E+01 0. -1.
        -11    1    1    2    0    0 -0.51706396273E+02  0.70672234403E+02 -0.74834258546E+01  0.87886960316E+02  0.00000000000E+00 0.  1.
         11    1    1    2    0    0  0.16319301704E+02 -0.13865578286E+02 -0.15155992996E+02  0.26235052754E+02  0.00000000000E+00 0. -1.
</event>
<event>
 7    1  0.2723366E-009  0.5823489E+02  0.7561462E-02  0.1405392E+00
          4   -1    0    0  501    0  0.00000000000E+00  0.00000000000E+00  0.36911862967E+02  0.36911862967E+02  0.00000000000E+00 0. -1.
         -4   -1    0    0    0  501 -0.00000000000E+00 -0.00000000000E+00 -0.37478818579E+03  0.37478818579E+03  0.00000000000E+00 0.  1.
         25    2    1    2    0    0  0.34845931990E+02 -0.14729934535E+02 -0.23518908192E+03  0.26906049235E+03  0.12509370224E+03 0.  0.
          5    1    3    3  502    0  0.24349224480E+02 -0.16919218827E+02 -0.24916398543E+03  0.25095678658E+03  0.41800000000E+01 0.  1.
         -5    1    3    3    0  502  0.10496707510E+02  0.21892842920E+01  0.13974903509E+02  0.18103705763E+02  0.41800000000E+01 0.  1.
        -11    1    1    2    0    0 -0.50977251659E+02 -0.29774901599E+01 -0.17236134935E+02  0.53894619229E+02  0.00000000000E+00 0. -1.
         11    1    1    2    0    0  0.16131319669E+02  0.17707424695E+02 -0.85451105967E+02  0.88744937177E+02  0.00000000000E+00 0.  1.
</event>
<event>
 7    1  0.2723366E-009  0.1428788E+03  0.7561462E-02  0.1209507E+00
          1   -1    0    0  501    0  0.00000000000E+00  0.00000000000E+00  0.11199604640E+04  0.11199604640E+04  0.00000000000E+00 0. -1.
         -1   -1    0    0    0  501 -0.00000000000E+00 -0.00000000000E+00 -0.23728062243E+02  0.23728062243E+02  0.00000000000E+00 0.  1.
         25    2    1    2    0    0  0.10157852618E+03 -0.15826922418E+02  0.79571774971E+03  0.81202386987E+03  0.12508932643E+03 0.  0.
          5    1    3    3  502    0  0.31453657310E+02  0.47908423529E+02  0.17744597195E+03  0.18651835021E+03  0.41800000000E+01 0.  1.
         -5    1    3    3    0  502  0.70124868873E+02 -0.63735345947E+02  0.61827177776E+03  0.62550551966E+03  0.41800000000E+01 0.  1.
        -11    1    1    2    0    0 -0.47055773733E+01  0.34470585140E+02  0.13093299743E+03  0.13547624705E+03  0.00000000000E+00 0.  1.
         11    1    1    2    0    0 -0.96872948810E+02 -0.18643662722E+02  0.16958165465E+03  0.19618840936E+03  0.00000000000E+00 0. -1.
</event>
<event>
 7    1  0.2723366E-009  0.1602514E+03  0.7561462E-02  0.1188413E+00
         -1   -1    0    0    0  501 -0.00000000000E+00  0.00000000000E+00  0.10429058248E+03  0.10429058248E+03  0.00000000000E+00 0.  1.
          1   -1    0    0  501    0  0.00000000000E+00 -0.00000000000E+00 -0.27995226029E+03  0.27995226029E+03  0.00000000000E+00 0. -1.
         25    2    1    2    0    0  0.13852801663E+01 -0.13238684436E+03 -0.11348456889E+03  0.21460501220E+03  0.12509343838E+03 0.  0.
          5    1    3    3  502    0  0.46044917671E+02 -0.89284873659E+02 -0.20315615014E+02  0.10257738406E+03  0.41800000000E+01 0. -1.
         -5    1    3    3    0  502 -0.44659637505E+02 -0.43101970697E+02 -0.93168953873E+02  0.11202762814E+03  0.41800000000E+01 0. -1.
        -11    1    1    2    0    0 -0.11451574435E+02  0.14280492596E+03 -0.58022069067E+02  0.15456696262E+03  0.00000000000E+00 0.  1.
         11    1    1    2    0    0  0.10066294269E+02 -0.10418081600E+02 -0.41550398599E+01  0.15070867950E+02  0.00000000000E+00 0. -1.
</event>
<event>
 7    1  0.2723366E-009  0.1028062E+03  0.7561462E-02  0.1274503E+00
          1   -1    0    0  501    0  0.00000000000E+00  0.00000000000E+00  0.10906693081E+03  0.10906693081E+03  0.00000000000E+00 0. -1.
         -1   -1    0    0    0  501 -0.00000000000E+00 -0.00000000000E+00 -0.48660496483E+03  0.48660496483E+03  0.00000000000E+00 0.  1.
         25    2    1    2    0    0 -0.47135923749E+02 -0.84207210667E+02  0.35584258497E+02  0.16194860392E+03  0.12509380969E+03 0.  0.
          5    1    3    3  502    0 -0.18211566426E+02 -0.95916238715E+01 -0.44157794104E+02  0.48898298338E+02  0.41800000000E+01 0.  1.
         -5    1    3    3    0  502 -0.28924357323E+02 -0.74615586795E+02  0.79742052601E+02  0.11305030558E+03  0.41800000000E+01 0.  1.
        -11    1    1    2    0    0 -0.72502881465E+01  0.12851163373E+02 -0.45863516141E+01  0.15451656849E+02  0.00000000000E+00 0. -1.
         11    1    1    2    0    0  0.54386211895E+02  0.71356047294E+02 -0.40853594090E+03  0.41827163487E+03  0.00000000000E+00 0.  1.
</event>
<event>
 7    1  0.2723366E-009  0.6880717E+02  0.7561462E-02  0.1364197E+00
         -1   -1    0    0    0  501 -0.00000000000E+00  0.00000000000E+00  0.34886956367E+03  0.34886956367E+03  0.00000000000E+00 0.  1.
          1   -1    0    0  501    0  0.00000000000E+00 -0.00000000000E+00 -0.34671446645E+02  0.34671446645E+02  0.00000000000E+00 0. -1.
         25    2    1    2    0    0 -0.88426023375E+00  0.11339227681E+02  0.21202280958E+03  0.24643440889E+03  0.12508751378E+03 0.  0.
          5    1    3    3  502    0  0.33550594708E+02 -0.27818637763E+02  0.17966608760E+03  0.18492402344E+03  0.41800000000E+01 0.  1.
         -5    1    3    3    0  502 -0.34434854941E+02  0.39157865444E+02  0.32356721977E+02  0.61510385449E+02  0.41800000000E+01 0.  1.
        -11    1    1    2    0    0 -0.12443622268E+02  0.10266988310E+02 -0.12023520550E+02  0.20120134953E+02  0.00000000000E+00 0. -1.
         11    1    1    2    0    0  0.13327882501E+02 -0.21606215991E+02  0.11419882799E+03  0.11698646647E+03  0.00000000000E+00 0.  1.
</event>
<event>
 7    1  0.2723366E-009  0.1474970E+03  0.7561462E-02  0.1203583E+00
         -2   -1    0    0    0  501 -0.00000000000E+00  0.00000000000E+00  0.26317353125E+02  0.26317353125E+02  0.00000000000E+00 0.  1.
          2   -1    0    0  501    0  0.00000000000E+00 -0.00000000000E+00 -0.11988647299E+04  0.11988647299E+04  0.00000000000E+00 0. -1.
         25    2    1    2    0    0 -0.95956146909E+02 -0.79822982087E+02 -0.85331663265E+03  0.87142250052E+03  0.12509439742E+03 0.  0.
          5    1    3    3  502    0 -0.57882923517E+02 -0.98669420108E+02 -0.76284464561E+03  0.77138545037E+03  0.41800000000E+01 0. -1.
         -5    1    3    3    0  502 -0.38073223393E+02  0.18846438021E+02 -0.90471987035E+02  0.10003705015E+03  0.41800000000E+01 0. -1.
        -11    1    1    2    0    0 -0.79119178186E+01  0.96778344504E+01 -0.19902971516E+01  0.12657812053E+02  0.00000000000E+00 0.  1.
         11    1    1    2    0    0  0.10386806473E+03  0.70145147636E+02 -0.31724044698E+03  0.34110177046E+03  0.00000000000E+00 0. -1.
</event>
<event>
 7    1  0.2723366E-009  0.1889874E+03  0.7561462E-02  0.1159378E+00
         -2   -1    0    0    0  501 -0.00000000000E+00  0.00000000000E+00  0.34609325289E+03  0.34609325289E+03  0.00000000000E+00 0.  1.
          2   -1    0    0  501    0  0.00000000000E+00 -0.00000000000E+00 -0.10465760602E+03  0.10465760602E+03  0.00000000000E+00 0. -1.
         25    2    1    2    0    0  0.14781677839E+03  0.51448853077E+02  0.14715362097E+03  0.24859317091E+03  0.12509033536E+03 0.  0.
          5    1    3    3  502    0 -0.79404305625E+01  0.42235936159E+02  0.43069869985E+02  0.60986972718E+02  0.41800000000E+01 0. -1.
         -5    1    3    3    0  502  0.15575720896E+03  0.92129169173E+01  0.10408375099E+03  0.18760619819E+03  0.41800000000E+01 0. -1.
        -11    1    1    2    0    0 -0.86188645431E+02  0.15657525022E+02  0.42592840914E+02  0.97405291377E+02  0.00000000000E+00 0.  1.
         11    1    1    2    0    0 -0.61628132961E+02 -0.67106378099E+02  0.51689184990E+02  0.10475239663E+03  0.00000000000E+00 0. -1.
</event>
<event>
 7    1  0.2723366E-009  0.1385045E+03  0.7561462E-02  0.1215356E+00
         -2   -1    0    0    0  501 -0.00000000000E+00  0.00000000000E+00  0.12218258588E+03  0.12218258588E+03  0.00000000000E+00 0.  1.
          2   -1    0    0  501    0  0.00000000000E+00 -0.00000000000E+00 -0.25464703657E+03  0.25464703657E+03  0.00000000000E+00 0. -1.
         25    2    1    2    0    0  0.67922788668E+01  0.13137236739E+03 -0.21459288140E+02  0.18279122980E+03  0.12508916292E+03 0.  0.
          5    1    3    3  502    0 -0.10730279545E+02  0.56641479326E+02 -0.70837803693E+02  0.91426817245E+02  0.41800000000E+01 0. -1.
         -5    1    3    3    0  502  0.17522558412E+02  0.74730888062E+02  0.49378515554E+02  0.91364412558E+02  0.41800000000E+01 0. -1.
        -11    1    1    2    0    0  0.21514894363E+02 -0.87646393455E+02 -0.10954003930E+03  0.14192885956E+03  0.00000000000E+00 0.  1.
         11    1    1    2    0    0 -0.28307173230E+02 -0.43725973933E+02 -0.14651232458E+01  0.52109533089E+02  0.00000000000E+00 0. -1.
</event>
<event>
 7    1  0.2723366E-009  0.9182024E+02  0.7561462E-02  0.1298503E+00
         -1   -1    0    0    0  501 -0.00000000000E+00  0.00000000000E+00  0.10140603138E+03  0.10140603138E+03  0.00000000000E+00 0.  1.
          1   -1    0    0  501    0  0.00000000000E+00 -0.00000000000E+00 -0.24277354116E+03  0.24277354116E+03  0.00000000000E+00 0. -1.
         25    2    1    2    0    0 -0.13193209074E+02 -0.66824330657E+02  0.22851019619E+02  0.14424967961E+03  0.12508496727E+03 0.  0.
          5    1    3    3  502    0  0.63478338856E+01  0.20405593329E+02 -0.32430058545E+02  0.39062313441E+02  0.41800000000E+01 0.  1.
         -5    1    3    3    0  502 -0.19541042959E+02 -0.87229923986E+02  0.55281078164E+02  0.10518736617E+03  0.41800000000E+01 0.  1.
        -11    1    1    2    0    0  0.18129780915E+02  0.28792760843E+02 -0.29373045483E+01  0.34151717248E+02  0.00000000000E+00 0.  1.
         11    1    1    2    0    0 -0.49365718411E+01  0.38031569813E+02 -0.16128122485E+03  0.16577817568E+03  0.00000000000E+00 0. -1.
</event>
<event>
 7    1  0.2723366E-009  0.1153422E+03  0.7561462E-02  0.1250985E+00
          2   -1    0    0  501    0  0.00000000000E+00  0.00000000000E+00  0.44471465839E+03  0.44471465839E+03  0.00000000000E+00 0. -1.
         -2   -1    0    0    0  501 -0.00000000000E+00 -0.00000000000E+00 -0.48939556586E+02  0.48939556586E+02  0.00000000000E+00 0.  1.
         25    2    1    2    0    0  0.56396448320E+02  0.80196344712E+02  0.24420811913E+03  0.29137222095E+03  0.12509257614E+03 0.  0.
          5    1    3    3  502    0 -0.13956368971E+02 -0.45674360118E+00  0.14387578434E+03  0.14461224903E+03  0.41800000000E+01 0. -1.
         -5    1    3    3    0  502  0.70352817291E+02  0.80653088313E+02  0.10033233479E+03  0.14675997193E+03  0.41800000000E+01 0. -1.
        -11    1    1    2    0    0 -0.62928014068E+02 -0.57008459244E+02  0.51394854884E+02  0.99253868883E+02  0.00000000000E+00 0.  1.
         11    1    1    2    0    0  0.65315657478E+01 -0.23187885468E+02  0.10017212779E+03  0.10302812514E+03  0.00000000000E+00 0. -1.
</event>
<event>
 7    1  0.2723366E-009  0.2178901E+03  0.7561462E-02  0.1135466E+00
         -2   -1    0    0    0  501 -0.00000000000E+00  0.00000000000E+00  0.10317968423E+04  0.10317968423E+04  0.00000000000E+00 0. -1.
          2   -1    0    0  501    0  0.00000000000E+00 -0.00000000000E+00 -0.55226599051E+02  0.55226599051E+02  0.00000000000E+00 0.  1.
         25    2    1    2    0    0  0.18527178335E+03  0.83172898965E+02  0.36507276796E+03  0.43608448638E+03  0.12509271971E+03 0.  0.
          5    1    3    3  502    0  0.14158248702E+03  0.31012002922E+02  0.14247651536E+03  0.20328397572E+03  0.41800000000E+01 0. -1.
         -5    1    3    3    0  502  0.43689296331E+02  0.52160896044E+02  0.22259625261E+03  0.23280051066E+03  0.41800000000E+01 0. -1.
        -11    1    1    2    0    0 -0.16137784927E+03 -0.10309886726E+03  0.54057720798E+03  0.57349446767E+03  0.00000000000E+00 0. -1.
         11    1    1    2    0    0 -0.23893934072E+02  0.19925968299E+02  0.70920267318E+02  0.77444487309E+02  0.00000000000E+00 0.  1.
</event>
<event>
 7    1  0.2723366E-009  0.1607126E+03  0.7561462E-02  0.1187895E+00
          2   -1    0    0  501    0  0.00000000000E+00  0.00000000000E+00  0.28807084478E+03  0.28807084478E+03  0.00000000000E+00 0. -1.
         -2   -1    0    0    0  501 -0.00000000000E+00 -0.00000000000E+00 -0.20546889290E+03  0.20546889290E+03  0.00000000000E+00 0.  1.
         25    2    1    2    0    0 -0.13967773495E+03 -0.77026161840E+02  0.19227861528E+03  0.27939311826E+03  0.12508616784E+03 0.  0.
          5    1    3    3  502    0 -0.34988089357E+01 -0.63918396185E+01  0.99935668010E+02  0.10028812202E+03  0.41800000000E+01 0. -1.
         -5    1    3    3    0  502 -0.13617892602E+03 -0.70634322222E+02  0.92342947275E+02  0.17910499624E+03  0.41800000000E+01 0. -1.
        -11    1    1    2    0    0  0.67612338919E+02  0.34966329390E+02 -0.10616250368E+03  0.13063135057E+03  0.00000000000E+00 0.  1.
         11    1    1    2    0    0  0.72065396033E+02  0.42059832450E+02 -0.35141597284E+01  0.83515268841E+02  0.00000000000E+00 0. -1.
</event>
<event>
 7    1  0.2723366E-009  0.8895264E+02  0.7561462E-02  0.1305408E+00
          2   -1    0    0  501    0  0.00000000000E+00  0.00000000000E+00  0.80903350555E+03  0.80903350555E+03  0.00000000000E+00 0. -1.
         -2   -1    0    0    0  501 -0.00000000000E+00 -0.00000000000E+00 -0.20326310535E+02  0.20326310535E+02  0.00000000000E+00 0.  1.
         25    2    1    2    0    0 -0.46800817999E+02 -0.60359127007E+01  0.27777063404E+03  0.30826942088E+03  0.12508701733E+03 0.  0.
          5    1    3    3  502    0  0.11241376349E+02 -0.12218327823E+02  0.23539760163E+03  0.23601940457E+03  0.41800000000E+01 0.  1.
         -5    1    3    3    0  502 -0.58042194348E+02  0.61824151222E+01  0.42373032407E+02  0.72250016311E+02  0.41800000000E+01 0.  1.
        -11    1    1    2    0    0  0.63805339604E+02  0.31881025042E+02  0.34543347989E+03  0.35272058368E+03  0.00000000000E+00 0. -1.
         11    1    1    2    0    0 -0.17004521605E+02 -0.25845112341E+02  0.16550308109E+03  0.16836981154E+03  0.00000000000E+00 0.  1.
</event>
<event>
 7    1  0.2723366E-009  0.1445134E+03  0.7561462E-02  0.1207382E+00
          1   -1    0    0  501    0  0.00000000000E+00  0.00000000000E+00  0.22001910870E+04  0.22001910870E+04  0.00000000000E+00 0. -1.
         -1   -1    0    0    0  501 -0.00000000000E+00 -0.00000000000E+00 -0.12793794320E+02  0.12793794320E+02  0.00000000000E+00 0.  1.
         25    2    1    2    0    0 -0.21832605677E+02 -0.11207038278E+03  0.15465314721E+04  0.15557772883E+04  0.12508774185E+03 0.  0.
          5    1    3    3  502    0 -0.34533070345E+02 -0.12208991399E+03  0.15129719407E+04  0.15182885252E+04  0.41800000000E+01 0.  1.
         -5    1    3    3    0  502  0.12700464668E+02  0.10019531212E+02  0.33559531400E+02  0.37488763067E+02  0.41800000000E+01 0.  1.
        -11    1    1    2    0    0 -0.12724200978E+02 -0.11443347465E+02  0.63295546807E+02  0.65568145752E+02  0.00000000000E+00 0.  1.
         11    1    1    2    0    0  0.34556806654E+02  0.12351373024E+03  0.57757027382E+03  0.59163944734E+03  0.00000000000E+00 0. -1.
</event>
<event>
 7    1  0.2723366E-009  0.1114490E+03  0.7561462E-02  0.1257910E+00
         -1   -1    0    0    0  501 -0.00000000000E+00  0.00000000000E+00  0.37294776991E+02  0.37294776991E+02  0.00000000000E+00 0.  1.
          1   -1    0    0  501    0  0.00000000000E+00 -0.00000000000E+00 -0.44086426106E+03  0.44086426106E+03  0.00000000000E+00 0. -1.
         25    2    1    2    0    0 -0.65583117341E+02  0.26061070395E+01 -0.25630658263E+03  0.29265845015E+03  0.12509183454E+03 0.  0.
          5    1    3    3  502    0 -0.13176267899E+02  0.60029631995E+02 -0.13678823669E+03  0.15001888164E+03  0.41800000000E+01 0. -1.
         -5    1    3    3    0  502 -0.52406849442E+02 -0.57423524955E+02 -0.11951834595E+03  0.14263956851E+03  0.41800000000E+01 0. -1.
        -11    1    1    2    0    0  0.55067688312E+01 -0.20124105569E+02 -0.11147691967E+03  0.11341255551E+03  0.00000000000E+00 0. -1.
         11    1    1    2    0    0  0.60076348510E+02  0.17517998529E+02 -0.35785981762E+02  0.72088032387E+02  0.00000000000E+00 0.  1.
</event>
<event>
 7    1  0.2723366E-009  0.9978145E+02  0.7561462E-02  0.1280756E+00
         -2   -1    0    0    0  501 -0.00000000000E+00  0.00000000000E+00  0.10873975464E+03  0.10873975464E+03  0.00000000000E+00 0.  1.
          2   -1    0    0  501    0  0.00000000000E+00 -0.00000000000E+00 -0.14622299403E+03  0.14622299403E+03  0.00000000000E+00 0. -1.
         25    2    1    2    0    0 -0.36209760853E+02  0.42490608983E+02 -0.55338917609E+02  0.14774909353E+03  0.12510315824E+03 0.  0.
          5    1    3    3  502    0 -0.58208276496E+02  0.69036727491E+02 -0.10458164068E+02  0.91000652695E+02  0.41800000000E+01 0. -1.
         -5    1    3    3    0  502  0.21998515643E+02 -0.26546118508E+02 -0.44880753541E+02  0.56748440831E+02  0.41800000000E+01 0. -1.
        -11    1    1    2    0    0 -0.75526825731E+01 -0.26962754002E+02  0.45313984806E+02  0.53267160018E+02  0.00000000000E+00 0.  1.
         11    1    1    2    0    0  0.43762443426E+02 -0.15527854981E+02 -0.27458306585E+02  0.53946495118E+02  0.00000000000E+00 0. -1.
</event>
<event>
 7    1  0.2723366E-009  0.8149051E+02  0.7561462E-02  0.1324874E+00
          1   -1    0    0  501    0  0.00000000000E+00  0.00000000000E+00  0.23392107203E+03  0.23392107203E+03  0.00000000000E+00 0. -1.
         -1   -1    0    0    0  501 -0.00000000000E+00 -0.00000000000E+00 -0.59280194383E+02  0.59280194383E+02  0.00000000000E+00 0.  1.
         25    2    1    2    0    0 -0.31157745654E+02  0.83316848248E+01  0.97672680566E+02  0.16194423297E+03  0.12508301234E+03 0.  0.
          5    1    3    3  502    0  0.14859011333E+02  0.29309574114E+02  0.10551851339E+03  0.11059597832E+03  0.41800000000E+01 0. -1.
         -5    1    3    3    0  502 -0.46016756987E+02 -0.20977889290E+02 -0.78458328212E+01  0.51348254647E+02  0.41800000000E+01 0. -1.
        -11    1    1    2    0    0 -0.69608450613E+01 -0.32986529549E+02 -0.82441623895E+01  0.34706349695E+02  0.00000000000E+00 0.  1.
         11    1    1    2    0    0  0.38118590716E+02  0.24654844724E+02  0.85212359470E+02  0.96550683752E+02  0.00000000000E+00 0. -1.
</event>
<event>
 7    1  0.2723366E-009  0.2130570E+03  0.7561462E-02  0.1139168E+00
         -1   -1    0    0    0  501 -0.00000000000E+00  0.00000000000E+00  0.58692634015E+02  0.58692634015E+02  0.00000000000E+00 0.  1.
          1   -1    0    0  501    0  0.00000000000E+00 -0.00000000000E+00 -0.92510274337E+03  0.92510274337E+03  0.00000000000E+00 0. -1.
         25    2    1    2    0    0  0.92710868740E+02  0.17007254573E+03 -0.29974608135E+03  0.37817386931E+03  0.12509111139E+03 0.  0.
          5    1    3    3  502    0  0.49906382865E+02  0.16480623307E+03 -0.28384322269E+03  0.33201835638E+03  0.41800000000E+01 0.  1.
         -5    1    3    3    0  502  0.42804485874E+02  0.52663126680E+01 -0.15902858664E+02  0.46155512930E+02  0.41800000000E+01 0.  1.
        -11    1    1    2    0    0  0.13607399161E+02 -0.41647282738E+02 -0.16527777936E+03  0.17098655450E+03  0.00000000000E+00 0. -1.
         11    1    1    2    0    0 -0.10631826790E+03 -0.12842526300E+03 -0.40138624864E+03  0.43463495357E+03  0.00000000000E+00 0.  1.
</event>
<event>
 7    1  0.2723366E-009  0.1402520E+03  0.7561462E-02  0.1212990E+00
          2   -1    0    0  501    0  0.00000000000E+00  0.00000000000E+00  0.18333576100E+04  0.18333576100E+04  0.00000000000E+00 0. -1.
         -2   -1    0    0    0  501 -0.00000000000E+00 -0.00000000000E+00 -0.14036781828E+02  0.14036781828E+02  0.00000000000E+00 0.  1.
         25    2    1    2    0    0  0.22057446821E+02 -0.10870183833E+03  0.12281894263E+04  0.12395158149E+04  0.12509023888E+03 0.  0.
          5    1    3    3  502    0  0.46915161765E+01 -0.11846821780E+03  0.63559926441E+03  0.64657607926E+03  0.41800000000E+01 0.  1.
         -5    1    3    3    0  502  0.17365930644E+02  0.97663794745E+01  0.59259016191E+03  0.59293973564E+03  0.41800000000E+01 0.  1.
        -11    1    1    2    0    0  0.16216025673E+02  0.10122399364E+03  0.41372383119E+03  0.42623545708E+03  0.00000000000E+00 0.  1.
         11    1    1    2    0    0 -0.38273472494E+02  0.74778446881E+01  0.17740757068E+03  0.18164311986E+03  0.00000000000E+00 0. -1.
</event>
<event>
 7    1  0.2723366E-009  0.1243315E+03  0.7561462E-02  0.1236118E+00
         -2   -1    0    0    0  501 -0.00000000000E+00  0.00000000000E+00  0.24860063386E+03  0.24860063386E+03  0.00000000000E+00 0.  1.
          2   -1    0    0  501    0  0.00000000000E+00 -0.00000000000E+00 -0.67253520915E+02  0.67253520915E+02  0.00000000000E+00 0. -1.
         25    2    1    2    0    0  0.60657258496E+02 -0.34381304625E+02  0.91034432005E+02  0.16969257869E+03  0.12508767460E+03 0.  0.
          5    1    3    3  502    0  0.78659647775E+01 -0.72143953618E+02  0.24655203492E+02  0.76759200782E+02  0.41800000000E+01 0. -1.
         -5    1    3    3    0  502  0.52791293718E+02  0.37762648993E+02  0.66379228514E+02  0.92933377908E+02  0.41800000000E+01 0. -1.
        -11    1    1    2    0    0 -0.32510661841E+02 -0.27735046077E+02  0.16880455028E+02  0.45946987673E+02  0.00000000000E+00 0. -1.
         11    1    1    2    0    0 -0.28146596655E+02  0.62116350702E+02  0.73432225908E+02  0.10021458841E+03  0.00000000000E+00 0.  1.
</event>
<event>
 7    1  0.2723366E-009  0.8433104E+02  0.7561462E-02  0.1317191E+00
         -3   -1    0    0    0  501 -0.00000000000E+00  0.00000000000E+00  0.37668641685E+02  0.37668641685E+02  0.00000000000E+00 0.  1.
          3   -1    0    0  501    0  0.00000000000E+00 -0.00000000000E+00 -0.44279598969E+03  0.44279598969E+03  0.00000000000E+00 0. -1.
         25    2    1    2    0    0  0.44251243391E+02  0.57609774627E+01 -0.29526332095E+03  0.32375797116E+03  0.12508970298E+03 0.  0.
          5    1    3    3  502    0  0.28172385708E+02  0.20391410138E+02 -0.29922576948E+03  0.30126902670E+03  0.41800000000E+01 0.  1.
         -5    1    3    3    0  502  0.16078857683E+02 -0.14630432676E+02  0.39624485397E+01  0.22488944464E+02  0.41800000000E+01 0.  1.
        -11    1    1    2    0    0  0.10205887548E+02 -0.43862432216E+02 -0.39303260684E+02  0.59773065849E+02  0.00000000000E+00 0.  1.
         11    1    1    2    0    0 -0.54457130940E+02  0.38101454754E+02 -0.70560766373E+02  0.96933594361E+02  0.00000000000E+00 0. -1.
</event>
<event>
 7    1  0.2723366E-009  0.1104546E+03  0.7561462E-02  0.1259730E+00
          2   -1    0    0  501    0  0.00000000000E+00  0.00000000000E+00  0.51448882683E+03  0.51448882683E+03  0.00000000000E+00 0. -1.
         -2   -1    0    0    0  501 -0.00000000000E+00 -0.00000000000E+00 -0.34915512414E+02  0.34915512414E+02  0.00000000000E+00 0.  1.
         25    2    1    2    0    0  0.89327396009E+01  0.55687352111E+02  0.38567248282E+03  0.40935496575E+03  0.12508936387E+03 0.  0.
          5    1    3    3  502    0  0.18154844486E+02 -0.28068639286E+02  0.34614752760E+02  0.48302177987E+02  0.41800000000E+01 0.  1.
         -5    1    3    3    0  502 -0.92221048849E+01  0.83755991396E+02  0.35105773006E+03  0.36105278776E+03  0.41800000000E+01 0.  1.
        -11    1    1    2    0    0  0.11156460406E+02  0.20892104943E+02  0.13732551277E+02  0.27377538646E+02  0.00000000000E+00 0. -1.
         11    1    1    2    0    0 -0.20089200007E+02 -0.76579457053E+02  0.80168280315E+02  0.11267183485E+03  0.00000000000E+00 0.  1.
</event>
<event>
 7    1  0.2723366E-009  0.1079999E+03  0.7561462E-02  0.1264319E+00
         -1   -1    0    0    0  501 -0.00000000000E+00  0.00000000000E+00  0.31521234601E+03  0.31521234601E+03  0.00000000000E+00 0.  1.
          1   -1    0    0  501    0  0.00000000000E+00 -0.00000000000E+00 -0.64251818765E+02  0.64251818765E+02  0.00000000000E+00 0. -1.
         25    2    1    2    0    0 -0.10186047822E+02  0.88101782911E+02  0.16613013331E+03  0.22608408609E+03  0.12509641507E+03 0.  0.
          5    1    3    3  502    0  0.28233168940E+02 -0.18185902988E+01 -0.49135144118E+01  0.29017824228E+02  0.41800000000E+01 0.  1.
         -5    1    3    3    0  502 -0.38419216762E+02  0.89920373210E+02  0.17104364773E+03  0.19706626186E+03  0.41800000000E+01 0.  1.
        -11    1    1    2    0    0  0.11296846976E+02 -0.44491733538E+02  0.97658535330E+02  0.10790886260E+03  0.00000000000E+00 0.  1.
         11    1    1    2    0    0 -0.11107991537E+01 -0.43610049374E+02 -0.12828141398E+02  0.45471216092E+02  0.00000000000E+00 0. -1.
</event>
<event>
 7    1  0.2723366E-009  0.1150722E+03  0.7561462E-02  0.1251455E+00
          2   -1    0    0  501    0  0.00000000000E+00  0.00000000000E+00  0.13777011178E+03  0.13777011178E+03  0.00000000000E+00 0. -1.
         -2   -1    0    0    0  501 -0.00000000000E+00 -0.00000000000E+00 -0.20276854888E+03  0.20276854888E+03  0.00000000000E+00 0.  1.
         25    2    1    2    0    0 -0.98198226702E+02 -0.23285468348E+02  0.43069910942E+02  0.16639713757E+03  0.12509150811E+03 0.  0.
          5    1    3    3  502    0 -0.27834875951E+02 -0.27087650650E+02 -0.40994109663E+02  0.56626059054E+02  0.41800000000E+01 0. -1.
         -5    1    3    3    0  502 -0.70363350751E+02  0.38021823024E+01  0.84064020605E+02  0.10977107852E+03  0.41800000000E+01 0. -1.
        -11    1    1    2    0    0  0.68042204345E+02  0.46517362985E+02 -0.10827043471E+03  0.13607385371E+03  0.00000000000E+00 0.  1.
         11    1    1    2    0    0  0.30156022358E+02 -0.23231894638E+02  0.20208667212E+00  0.38067669379E+02  0.00000000000E+00 0. -1.
</event>
<event>
 7    1  0.2723366E-009  0.1147719E+03  0.7561462E-02  0.1251980E+00
          2   -1    0    0  501    0  0.00000000000E+00  0.00000000000E+00  0.33585197577E+03  0.33585197577E+03  0.00000000000E+00 0. -1.
         -2   -1    0    0    0  501 -0.00000000000E+00 -0.00000000000E+00 -0.60074278682E+02  0.60074278682E+02  0.00000000000E+00 0.  1.
         25    2    1    2    0    0  0.58023294221E+02 -0.12583823736E+02  0.54255994722E+02  0.14871353036E+03  0.12508775262E+03 0.  0.
          5    1    3    3  502    0 -0.25080242809E+02 -0.40545460608E+02  0.51606694981E+01  0.48135827249E+02  0.41800000000E+01 0. -1.
         -5    1    3    3    0  502  0.83103537030E+02  0.27961636872E+02  0.49095325223E+02  0.10057770311E+03  0.41800000000E+01 0. -1.
        -11    1    1    2    0    0  0.91530102443E+01 -0.17923446541E+02  0.12021276199E+03  0.12188574846E+03  0.00000000000E+00 0. -1.
         11    1    1    2    0    0 -0.67176304466E+02  0.30507270277E+02  0.10130894037E+03  0.12532697563E+03  0.00000000000E+00 0.  1.
</event>
<event>
 7    1  0.2723366E-009  0.1538222E+03  0.7561462E-02  0.1195853E+00
          2   -1    0    0  501    0  0.00000000000E+00  0.00000000000E+00  0.27408425379E+04  0.27408425379E+04  0.00000000000E+00 0. -1.
         -2   -1    0    0    0  501 -0.00000000000E+00 -0.00000000000E+00 -0.16028015066E+02  0.16028015066E+02  0.00000000000E+00 0.  1.
         25    2    1    2    0    0  0.55715780666E+02  0.94398626748E+02  0.23501795533E+04  0.23560576952E+04  0.12509428963E+03 0.  0.
          5    1    3    3  502    0  0.73685937399E+02  0.11581424114E+03  0.20252757310E+04  0.20299265541E+04  0.41800000000E+01 0. -1.
         -5    1    3    3    0  502 -0.17970156732E+02 -0.21415614393E+02  0.32490382230E+03  0.32613114113E+03  0.41800000000E+01 0. -1.
        -11    1    1    2    0    0 -0.58248106103E+02 -0.11828947473E+02  0.14157593865E+03  0.15354644987E+03  0.00000000000E+00 0.  1.
         11    1    1    2    0    0  0.25323254362E+01 -0.82569679275E+02  0.23305903080E+03  0.24726640784E+03  0.00000000000E+00 0. -1.
</event>
<event>
 7    1  0.2723366E-009  0.1316813E+03  0.7561462E-02  0.1224982E+00
         -2   -1    0    0    0  501 -0.00000000000E+00  0.00000000000E+00  0.62490506562E+02  0.62490506562E+02  0.00000000000E+00 0.  1.
          2   -1    0    0  501    0  0.00000000000E+00 -0.00000000000E+00 -0.47397727654E+03  0.47397727654E+03  0.00000000000E+00 0. -1.
         25    2    1    2    0    0  0.26996712420E+02  0.77240956637E+02 -0.52310628729E+02  0.15836497228E+03  0.12509226476E+03 0.  0.
          5    1    3    3  502    0  0.10109945334E+02 -0.32934902246E+02 -0.27046101853E+02  0.43998668231E+02  0.41800000000E+01 0. -1.
         -5    1    3    3    0  502  0.16886767086E+02  0.11017585888E+03 -0.25264526876E+02  0.11436630405E+03  0.41800000000E+01 0. -1.
        -11    1    1    2    0    0  0.25993741460E+02 -0.52612164957E+02 -0.20463918049E+03  0.21288707966E+03  0.00000000000E+00 0. -1.
         11    1    1    2    0    0 -0.52990453880E+02 -0.24628791680E+02 -0.15453696076E+03  0.16521573116E+03  0.00000000000E+00 0.  1.
</event>
<event>
 7    1  0.2723366E-009  0.1211973E+03  0.7561462E-02  0.1241135E+00
          1   -1    0    0  501    0  0.00000000000E+00  0.00000000000E+00  0.29218632087E+03  0.29218632087E+03  0.00000000000E+00 0. -1.
         -1   -1    0    0    0  501 -0.00000000000E+00 -0.00000000000E+00 -0.65942292507E+02  0.65942292507E+02  0.00000000000E+00 0.  1.
         25    2    1    2    0    0 -0.18359920636E+02 -0.53106553875E+02  0.39177894583E+02  0.14261825585E+03  0.12509063405E+03 0.  0.
          5    1    3    3  502    0 -0.25536730259E+00  0.40116221744E+02  0.22256682625E+02  0.46067437317E+02  0.41800000000E+01 0. -1.
         -5    1    3    3    0  502 -0.18104553333E+02 -0.93222775619E+02  0.16921211959E+02  0.96550818534E+02  0.41800000000E+01 0. -1.
        -11    1    1    2    0    0  0.47296714731E+02  0.60830526416E+02  0.13374708910E+03  0.15435548585E+03  0.00000000000E+00 0.  1.
         11    1    1    2    0    0 -0.28936794096E+02 -0.77239725407E+01  0.53319044676E+02  0.61154871674E+02  0.00000000000E+00 0. -1.
</event>
<event>
 7    1  0.2723366E-009  0.1710946E+03  0.7561462E-02  0.1176711E+00
         -1   -1    0    0    0  501 -0.00000000000E+00  0.00000000000E+00  0.32028222599E+02  0.32028222599E+02  0.00000000000E+00 0.  1.
          1   -1    0    0  501    0  0.00000000000E+00 -0.00000000000E+00 -0.95749128264E+03  0.95749128264E+03  0.00000000000E+00 0. -1.
         25    2    1    2    0    0 -0.10902572312E+03 -0.87577727127E+02 -0.44479909142E+03  0.48275307336E+03  0.12509129271E+03 0.  0.
          5    1    3    3  502    0 -0.21978722907E+02  0.31936950156E+02 -0.76578181001E+02  0.85934412497E+02  0.41800000000E+01 0.  1.
         -5    1    3    3    0  502 -0.87047000215E+02 -0.11951467728E+03 -0.36822091042E+03  0.39681866086E+03  0.41800000000E+01 0.  1.
        -11    1    1    2    0    0  0.72621560068E+02  0.15099134748E+02 -0.16601389008E+03  0.18183092849E+03  0.00000000000E+00 0.  1.
         11    1    1    2    0    0  0.36404163054E+02  0.72478592378E+02 -0.31465007854E+03  0.32493550339E+03  0.00000000000E+00 0. -1.
</event>
<event>
 7    1  0.2723366E-009  0.1029268E+03  0.7561462E-02  0.1274259E+00
          1   -1    0    0  501    0  0.00000000000E+00  0.00000000000E+00  0.19047390745E+03  0.19047390745E+03  0.00000000000E+00 0. -1.
         -1   -1    0    0    0  501 -0.00000000000E+00 -0.00000000000E+00 -0.10452537089E+03  0.10452537089E+03  0.00000000000E+00 0.  1.
         25    2    1    2    0    0 -0.63146763263E+02  0.10197689406E+02  0.11392757310E+03  0.18088135409E+03  0.12508823193E+03 0.  0.
          5    1    3    3  502    0 -0.67522349862E+02 -0.36156804411E+02  0.25460717754E+02  0.80822662568E+02  0.41800000000E+01 0.  1.
         -5    1    3    3    0  502  0.43755865989E+01  0.46354493817E+02  0.88466855343E+02  0.10005869152E+03  0.41800000000E+01 0.  1.
        -11    1    1    2    0    0  0.46124700897E+02  0.17957672252E+02 -0.53197937390E+02  0.72663516073E+02  0.00000000000E+00 0.  1.
         11    1    1    2    0    0  0.17022062365E+02 -0.28155361658E+02  0.25218900850E+02  0.41454408178E+02  0.00000000000E+00 0. -1.
</event>
<event>
 7    1  0.2723366E-009  0.7606755E+02  0.7561462E-02  0.1340597E+00
         -2   -1    0    0    0  501 -0.00000000000E+00  0.00000000000E+00  0.19167729008E+03  0.19167729008E+03  0.00000000000E+00 0.  1.
          2   -1    0    0  501    0  0.00000000000E+00 -0.00000000000E+00 -0.67611629633E+02  0.67611629633E+02  0.00000000000E+00 0. -1.
         25    2    1    2    0    0  0.18376888606E+02  0.35097802691E+01  0.11005842221E+03  0.16765990921E+03  0.12508781021E+03 0.  0.
          5    1    3    3  502    0 -0.34542487143E+02 -0.81282557426E-01 -0.10115080810E+02  0.36235028421E+02  0.41800000000E+01 0.  1.
         -5    1    3    3    0  502  0.52919375749E+02  0.35910628265E+01  0.12017350302E+03  0.13142488079E+03  0.41800000000E+01 0.  1.
        -11    1    1    2    0    0 -0.23728974200E+02 -0.29352255612E+02  0.39712851041E+02  0.54788043074E+02  0.00000000000E+00 0.  1.
         11    1    1    2    0    0  0.53520855938E+01  0.25842475343E+02 -0.25705612800E+02  0.36840967434E+02  0.00000000000E+00 0. -1.
</event>
<event>
 7    1  0.2723366E-009  0.1173719E+03  0.7561462E-02  0.1247497E+00
         -1   -1    0    0    0  501 -0.00000000000E+00  0.00000000000E+00  0.96552128709E+02  0.96552128709E+02  0.00000000000E+00 0.  1.
          1   -1    0    0  501    0  0.00000000000E+00 -0.00000000000E+00 -0.16022948221E+03  0.16022948221E+03  0.00000000000E+00 0. -1.
         25    2    1    2    0    0  0.54087844128E+02 -0.24838585890E+02 -0.19979701698E+02  0.13996041028E+03  0.12508907919E+03 0.  0.
          5    1    3    3  502    0  0.42601203429E+01 -0.70124469523E+02 -0.17159748469E+02  0.72439762691E+02  0.41800000000E+01 0.  1.
         -5    1    3    3    0  502  0.49827723785E+02  0.45285883633E+02 -0.28199532292E+01  0.67520647585E+02  0.41800000000E+01 0.  1.
        -11    1    1    2    0    0 -0.73751725233E+02  0.22466029056E+02 -0.10013189949E+02  0.77745118235E+02  0.00000000000E+00 0.  1.
         11    1    1    2    0    0  0.19663881105E+02  0.23725568335E+01 -0.33684461857E+02  0.39076082411E+02  0.00000000000E+00 0. -1.
</event>
<event>
 7    1  0.2723366E-009  0.7942934E+02  0.7561462E-02  0.1330679E+00
          2   -1    0    0  501    0  0.00000000000E+00  0.00000000000E+00  0.76176839638E+02  0.76176839638E+02  0.00000000000E+00 0. -1.
         -2   -1    0    0    0  501 -0.00000000000E+00 -0.00000000000E+00 -0.25842781931E+03  0.25842781931E+03  0.00000000000E+00 0.  1.
         25    2    1    2    0    0 -0.12018879704E+01 -0.33101738227E+02 -0.19676457722E+03  0.23550280738E+03  0.12509238117E+03 0.  0.
          5    1    3    3  502    0  0.57973204957E+01  0.22064999927E+02  0.70144423986E+01  0.24231135939E+02  0.41800000000E+01 0. -1.
         -5    1    3    3    0  502 -0.69992084660E+01 -0.55166738154E+02 -0.20377901962E+03  0.21127167144E+03  0.41800000000E+01 0. -1.
        -11    1    1    2    0    0  0.34446805944E+01  0.56394036405E+02 -0.17771720247E+02  0.59228263583E+02  0.00000000000E+00 0.  1.
         11    1    1    2    0    0 -0.22427926240E+01 -0.23292298179E+02  0.32285317797E+02  0.39873587981E+02  0.00000000000E+00 0. -1.
</event>
<event>
 7    1  0.2723366E-009  0.1366063E+03  0.7561462E-02  0.1217970E+00
          2   -1    0    0  501    0  0.00000000000E+00  0.00000000000E+00  0.24145346885E+03  0.24145346885E+03  0.00000000000E+00 0. -1.
         -2   -1    0    0    0  501 -0.00000000000E+00 -0.00000000000E+00 -0.11341150061E+03  0.11341150061E+03  0.00000000000E+00 0.  1.
         25    2    1    2    0    0 -0.84227745188E+02 -0.81356166922E+02  0.24523036547E+02  0.17309222922E+03  0.12508557686E+03 0.  0.
          5    1    3    3  502    0 -0.10036011478E+02  0.63370398105E+01  0.53165055587E+02  0.54634010795E+02  0.41800000000E+01 0. -1.
         -5    1    3    3    0  502 -0.74191733711E+02 -0.87693206732E+02 -0.28642019040E+02  0.11845821843E+03  0.41800000000E+01 0. -1.
        -11    1    1    2    0    0  0.57915196057E+02 -0.23280446256E+01  0.21928807926E+02  0.61971463943E+02  0.00000000000E+00 0.  1.
         11    1    1    2    0    0  0.26312549131E+02  0.83684211547E+02  0.81590123771E+02  0.11980127629E+03  0.00000000000E+00 0. -1.
</event>
<event>
 7    1  0.2723366E-009  0.1464095E+03  0.7561462E-02  0.1204956E+00
         -4   -1    0    0    0  501 -0.00000000000E+00  0.00000000000E+00  0.42193596418E+02  0.42193596418E+02  0.00000000000E+00 0.  1.
          4   -1    0    0  501    0  0.00000000000E+00 -0.00000000000E+00 -0.57602850642E+03  0.57602850642E+03  0.00000000000E+00 0. -1.
         25    2    1    2    0    0  0.45523088879E+02 -0.96587490069E+02 -0.21953779507E+03  0.27430982946E+03  0.12509014437E+03 0.  0.
          5    1    3    3  502    0  0.96242536316E+01  0.27079821745E+02 -0.15289855164E+02  0.32820650126E+02  0.41800000000E+01 0. -1.
         -5    1    3    3    0  502  0.35898835248E+02 -0.12366731181E+03 -0.20424793990E+03  0.24148917934E+03  0.41800000000E+01 0. -1.
        -11    1    1    2    0    0  0.37206129398E+01  0.84037043889E+02 -0.23624947960E+03  0.25077855633E+03  0.00000000000E+00 0.  1.
         11    1    1    2    0    0 -0.49243701819E+02  0.12550446180E+02 -0.78047635341E+02  0.93133717044E+02  0.00000000000E+00 0. -1.
</event>
<event>
 7    1  0.2723366E-009  0.1076055E+03  0.7561462E-02  0.1265069E+00
         -2   -1    0    0    0  501 -0.00000000000E+00  0.00000000000E+00  0.96576580062E+02  0.96576580062E+02  0.00000000000E+00 0.  1.
          2   -1    0    0  501    0  0.00000000000E+00 -0.00000000000E+00 -0.17792721855E+03  0.17792721855E+03  0.00000000000E+00 0. -1.
         25    2    1    2    0    0 -0.55268242942E+02 -0.14672823216E+02  0.32990903213E+01  0.13758049713E+03  0.12509052232E+03 0.  0.
          5    1    3    3  502    0 -0.10529230255E+02 -0.53582515897E+02 -0.36708396791E+02  0.65931248241E+02  0.41800000000E+01 0. -1.
         -5    1    3    3    0  502 -0.44739012687E+02  0.38909692680E+02  0.40007487113E+02  0.71649248885E+02  0.41800000000E+01 0. -1.
        -11    1    1    2    0    0  0.77600321720E+02  0.11581898630E+02 -0.42768086320E+02  0.89359160216E+02  0.00000000000E+00 0. -1.
         11    1    1    2    0    0 -0.22332078778E+02  0.30909245867E+01 -0.41881642490E+02  0.47564141273E+02  0.00000000000E+00 0.  1.
</event>
<event>
 7    1  0.2723366E-009  0.1609583E+03  0.7561462E-02  0.1187619E+00
          2   -1    0    0  501    0  0.00000000000E+00  0.00000000000E+00  0.41584654449E+03  0.41584654449E+03  0.00000000000E+00 0.  1.
         -2   -1    0    0    0  501 -0.00000000000E+00 -0.00000000000E+00 -0.69763720139E+02  0.69763720139E+02  0.00000000000E+00 0. -1.
         25    2    1    2    0    0 -0.11593651247E+03 -0.60618279042E+02  0.20146106926E+03  0.27083097181E+03  0.12508797779E+03 0.  0.
          5    1    3    3  502    0  0.16424231444E+02 -0.24064551053E+02  0.31751248166E+01  0.29604253301E+02  0.41800000000E+01 0. -1.
         -5    1    3    3    0  502 -0.13236074392E+03 -0.36553727989E+02  0.19828594444E+03  0.24122671851E+03  0.41800000000E+01 0. -1.
        -11    1    1    2    0    0  0.12707443633E+03  0.42795528030E+02  0.13876005607E+03  0.19296041757E+03  0.00000000000E+00 0. -1.
         11    1    1    2    0    0 -0.11137923858E+02  0.17822751012E+02  0.58616990160E+01  0.21818875243E+02  0.00000000000E+00 0.  1.
</event>
<event>
 7    1  0.2723366E-009  0.1114616E+03  0.7561462E-02  0.1257887E+00
          2   -1    0    0  501    0  0.00000000000E+00  0.00000000000E+00  0.88264968361E+03  0.88264968361E+03  0.00000000000E+00 0. -1.
         -2   -1    0    0    0  501 -0.00000000000E+00 -0.00000000000E+00 -0.17214139392E+02  0.17214139392E+02  0.00000000000E+00 0.  1.
         25    2    1    2    0    0  0.92654969099E+01  0.41373042258E+02  0.63027436967E+03  0.64396396203E+03  0.12508487232E+03 0.  0.
          5    1    3    3  502    0 -0.80684826703E+01 -0.42384315008E+02  0.28223124313E+03  0.28554067586E+03  0.41800000000E+01 0. -1.
         -5    1    3    3    0  502  0.17333979580E+02  0.83757357265E+02  0.34804312654E+03  0.35842328618E+03  0.41800000000E+01 0. -1.
        -11    1    1    2    0    0 -0.25268798075E+02 -0.62513168414E+02  0.11922876102E+03  0.13697410644E+03  0.00000000000E+00 0.  1.
         11    1    1    2    0    0  0.16003301165E+02  0.21140126156E+02  0.11593241354E+03  0.11892575453E+03  0.00000000000E+00 0. -1.
</event>
<event>
 7    1  0.2723366E-009  0.1273171E+03  0.7561462E-02  0.1231492E+00
          1   -1    0    0  501    0  0.00000000000E+00  0.00000000000E+00  0.10043595262E+03  0.10043595262E+03  0.00000000000E+00 0. -1.
         -1   -1    0    0    0  501 -0.00000000000E+00 -0.00000000000E+00 -0.24326787010E+03  0.24326787010E+03  0.00000000000E+00 0.  1.
         25    2    1    2    0    0 -0.10224163643E+03 -0.37214015956E+02 -0.10421007691E+03  0.19582120656E+03  0.12509184469E+03 0.  0.
          5    1    3    3  502    0 -0.14154863202E+02  0.30594563147E+02 -0.72634262591E+02  0.80184761324E+02  0.41800000000E+01 0.  1.
         -5    1    3    3    0  502 -0.88086773226E+02 -0.67808579103E+02 -0.31575814318E+02  0.11563644524E+03  0.41800000000E+01 0.  1.
        -11    1    1    2    0    0  0.53467583149E+02  0.25629320791E+02 -0.67647868763E+02  0.89954870241E+02  0.00000000000E+00 0.  1.
         11    1    1    2    0    0  0.48774053279E+02  0.11584695165E+02  0.29026028192E+02  0.57927745925E+02  0.00000000000E+00 0. -1.
</event>
<event>
 7    1  0.2723366E-009  0.8045048E+02  0.7561462E-02  0.1327778E+00
         -1   -1    0    0    0  501 -0.00000000000E+00  0.00000000000E+00  0.29126285887E+02  0.29126285887E+02  0.00000000000E+00 0.  1.
          1   -1    0    0  501    0  0.00000000000E+00 -0.00000000000E+00 -0.52363374698E+03  0.52363374698E+03  0.00000000000E+00 0. -1.
         25    2    1    2    0    0  0.46216537285E+02 -0.87360244314E+01 -0.19614257708E+03  0.23734469222E+03  0.12509318902E+03 0.  0.
          5    1    3    3  502    0 -0.46305875498E+01 -0.14191033157E+02 -0.18395584441E+03  0.18460783530E+03  0.41800000000E+01 0.  1.
         -5    1    3    3    0  502  0.50847124835E+02  0.54550087257E+01 -0.12186732674E+02  0.52736856916E+02  0.41800000000E+01 0.  1.
        -11    1    1    2    0    0 -0.18956288140E+02 -0.36583686936E+02 -0.72015010565E+02  0.82969083137E+02  0.00000000000E+00 0.  1.
         11    1    1    2    0    0 -0.27260249145E+02  0.45319711368E+02 -0.22634987345E+03  0.23244625751E+03  0.00000000000E+00 0. -1.
</event>
<event>
 7    1  0.2723366E-009  0.2045102E+03  0.7561462E-02  0.1145989E+00
         -2   -1    0    0    0  501 -0.00000000000E+00  0.00000000000E+00  0.19905085295E+03  0.19905085295E+03  0.00000000000E+00 0. -1.
          2   -1    0    0  501    0  0.00000000000E+00 -0.00000000000E+00 -0.24401513977E+03  0.24401513977E+03  0.00000000000E+00 0.  1.
         25    2    1    2    0    0  0.10162971945E+03 -0.11106520550E+03  0.21924571414E+02  0.19695759923E+03  0.12509008481E+03 0.  0.
          5    1    3    3  502    0 -0.28180296968E+02 -0.81640893680E+01 -0.11514144473E+01  0.29657708065E+02  0.41800000000E+01 0.  1.
         -5    1    3    3    0  502  0.12981001641E+03 -0.10290111613E+03  0.23075985862E+02  0.16729989117E+03  0.41800000000E+01 0.  1.
        -11    1    1    2    0    0 -0.56335421985E+02  0.14599408086E+03  0.20895851764E+01  0.15650021656E+03  0.00000000000E+00 0. -1.
         11    1    1    2    0    0 -0.45294297461E+02 -0.34928875366E+02 -0.68978443410E+02  0.89608176926E+02  0.00000000000E+00 0.  1.
</event>
<event>
 7    1  0.2723366E-009  0.1377488E+03  0.7561462E-02  0.1216391E+00
          3   -1    0    0  501    0  0.00000000000E+00  0.00000000000E+00  0.68041606206E+03  0.68041606206E+03  0.00000000000E+00 0. -1.
         -3   -1    0    0    0  501 -0.00000000000E+00 -0.00000000000E+00 -0.33715874171E+02  0.33715874171E+02  0.00000000000E+00 0.  1.
         25    2    1    2    0    0  0.71527052494E+02  0.75882801466E+02  0.41298348910E+03  0.44393448454E+03  0.12509254773E+03 0.  0.
          5    1    3    3  502    0 -0.25964339543E+02 -0.70378004791E+01  0.13715153083E+03  0.13982736633E+03  0.41800000000E+01 0. -1.
         -5    1    3    3    0  502  0.97491392038E+02  0.82920601945E+02  0.27583195827E+03  0.30410711822E+03  0.41800000000E+01 0. -1.
        -11    1    1    2    0    0 -0.27925446326E+02 -0.71061919738E+02  0.20233301428E+03  0.21625974119E+03  0.00000000000E+00 0. -1.
         11    1    1    2    0    0 -0.43601606168E+02 -0.48208817277E+01  0.31383684504E+02  0.53937710501E+02  0.00000000000E+00 0.  1.
</event>
<event>
 7    1  0.2723366E-009  0.9354769E+02  0.7561462E-02  0.1294481E+00
         -1   -1    0    0    0  501 -0.00000000000E+00  0.00000000000E+00  0.37008403984E+02  0.37008403984E+02  0.00000000000E+00 0.  1.
          1   -1    0    0  501    0  0.00000000000E+00 -0.00000000000E+00 -0.49265771520E+03  0.49265771520E+03  0.00000000000E+00 0. -1.
         25    2    1    2    0    0  0.45329952192E+02 -0.27281574566E+02 -0.36757841760E+03  0.39186740085E+03  0.12508828038E+03 0.  0.
          5    1    3    3  502    0 -0.14007744648E+02 -0.40377741039E+02 -0.40038563055E+02  0.58712331014E+02  0.41800000000E+01 0.  1.
         -5    1    3    3    0  502  0.59337696839E+02  0.13096166473E+02 -0.32753985454E+03  0.33315506984E+03  0.41800000000E+01 0.  1.
        -11    1    1    2    0    0 -0.19392089272E+02 -0.20908224377E+02  0.58367549805E+01  0.29107983125E+02  0.00000000000E+00 0.  1.
         11    1    1    2    0    0 -0.25937862920E+02  0.48189798943E+02 -0.93907648598E+02  0.10869073521E+03  0.00000000000E+00 0. -1.
</event>
<event>
 7    1  0.2723366E-009  0.9085388E+02  0.7561462E-02  0.1300797E+00
         -1   -1    0    0    0  501 -0.00000000000E+00  0.00000000000E+00  0.10868802964E+03  0.10868802964E+03  0.00000000000E+00 0.  1.
          1   -1    0    0  501    0  0.00000000000E+00 -0.00000000000E+00 -0.17616475932E+03  0.17616475932E+03  0.00000000000E+00 0. -1.
         25    2    1    2    0    0 -0.62075457151E+02 -0.39051522949E+01 -0.97715184231E+02  0.17048208857E+03  0.12508905907E+03 0.  0.
          5    1    3    3  502    0 -0.65390069533E+02 -0.13887247975E+01  0.67187269856E+01  0.65881738308E+02  0.41800000000E+01 0. -1.
         -5    1    3    3    0  502  0.33146123820E+01 -0.25164274974E+01 -0.10443391122E+03  0.10460035026E+03  0.41800000000E+01 0. -1.
        -11    1    1    2    0    0 -0.19493761898E+02 -0.17220459090E+02  0.60073638475E+01  0.26695306415E+02  0.00000000000E+00 0.  1.
         11    1    1    2    0    0  0.81569219049E+02  0.21125611385E+02  0.24231090706E+02  0.87675393980E+02  0.00000000000E+00 0. -1.
</event>
<event>
 7    1  0.2723366E-009  0.1093415E+03  0.7561462E-02  0.1261794E+00
          2   -1    0    0  501    0  0.00000000000E+00  0.00000000000E+00  0.52393420102E+03  0.52393420102E+03  0.00000000000E+00 0. -1.
         -2   -1    0    0    0  501 -0.00000000000E+00 -0.00000000000E+00 -0.32860145323E+02  0.32860145323E+02  0.00000000000E+00 0.  1.
         25    2    1    2    0    0  0.30624408184E+02 -0.61083705838E+02  0.22140101136E+03  0.26330701178E+03  0.12507238354E+03 0.  0.
          5    1    3    3  502    0 -0.22867336645E+02 -0.80543989032E+02  0.15065619327E+03  0.17240942615E+03  0.41800000000E+01 0.  1.
         -5    1    3    3    0  502  0.53491744829E+02  0.19460283194E+02  0.70744818088E+02  0.90897585629E+02  0.41800000000E+01 0.  1.
        -11    1    1    2    0    0 -0.36493449202E+02  0.33376381392E+02  0.25825949220E+03  0.26295193473E+03  0.00000000000E+00 0. -1.
         11    1    1    2    0    0  0.58690410182E+01  0.27707324445E+02  0.11413552137E+02  0.30535399830E+02  0.00000000000E+00 0.  1.
</event>
<event>
 7    1  0.2723366E-009  0.8325872E+02  0.7561462E-02  0.1320050E+00
          1   -1    0    0  501    0  0.00000000000E+00  0.00000000000E+00  0.64361012140E+02  0.64361012140E+02  0.00000000000E+00 0. -1.
         -1   -1    0    0    0  501 -0.00000000000E+00 -0.00000000000E+00 -0.19155082425E+03  0.19155082425E+03  0.00000000000E+00 0.  1.
         25    2    1    2    0    0 -0.17118089320E+02 -0.15784731217E+01 -0.93215753785E+02  0.15694484965E+03  0.12508792315E+03 0.  0.
          5    1    3    3  502    0  0.95311757300E+01 -0.31680604957E+02 -0.10866982029E+03  0.11367104417E+03  0.41800000000E+01 0.  1.
         -5    1    3    3    0  502 -0.26649265050E+02  0.30102131835E+02  0.15454066505E+02  0.43273805475E+02  0.41800000000E+01 0.  1.
        -11    1    1    2    0    0  0.13225710502E+02  0.46151029154E+02 -0.20840532956E+02  0.52337030142E+02  0.00000000000E+00 0. -1.
         11    1    1    2    0    0  0.38923788181E+01 -0.44572556032E+02 -0.13133525371E+02  0.46629956603E+02  0.00000000000E+00 0.  1.
</event>
<event>
 7    1  0.2723366E-009  0.1349938E+03  0.7561462E-02  0.1220228E+00
          1   -1    0    0  501    0  0.00000000000E+00  0.00000000000E+00  0.10545590559E+03  0.10545590559E+03  0.00000000000E+00 0. -1.
         -1   -1    0    0    0  501 -0.00000000000E+00 -0.00000000000E+00 -0.25441839068E+03  0.25441839068E+03  0.00000000000E+00 0.  1.
         25    2    1    2    0    0 -0.89101531422E+02  0.82295227220E+02 -0.45381309193E+02  0.18005065728E+03  0.12508872307E+03 0.  0.
          5    1    3    3  502    0 -0.94340909284E+02  0.89390101696E+02  0.36245582786E+01  0.13008230959E+03  0.41800000000E+01 0. -1.
         -5    1    3    3    0  502  0.52393778622E+01 -0.70948744760E+01 -0.49005867471E+02  0.49968347690E+02  0.41800000000E+01 0. -1.
        -11    1    1    2    0    0  0.73164847969E+02 -0.86907839076E+02 -0.11342328004E+03  0.16053319883E+03  0.00000000000E+00 0.  1.
         11    1    1    2    0    0  0.15936683453E+02  0.46126118560E+01  0.98421041458E+01  0.19290440162E+02  0.00000000000E+00 0. -1.
</event>
<event>
 7    1  0.2723366E-009  0.1032971E+03  0.7561462E-02  0.1273511E+00
          1   -1    0    0  501    0  0.00000000000E+00  0.00000000000E+00  0.30660808170E+03  0.30660808170E+03  0.00000000000E+00 0. -1.
         -1   -1    0    0    0  501 -0.00000000000E+00 -0.00000000000E+00 -0.51113357877E+02  0.51113357877E+02  0.00000000000E+00 0.  1.
         25    2    1    2    0    0 -0.48279685202E+02 -0.26433789488E+02  0.18322167067E+03  0.22857945996E+03  0.12509482676E+03 0.  0.
          5    1    3    3  502    0  0.22701874516E+02  0.83058727437E+01 -0.44246877630E+01  0.24928154572E+02  0.41800000000E+01 0. -1.
         -5    1    3    3    0  502 -0.70981559718E+02 -0.34739662232E+02  0.18764635844E+03  0.20365130539E+03  0.41800000000E+01 0. -1.
        -11    1    1    2    0    0  0.15525683417E+02 -0.32208486791E+02  0.90146559346E+01  0.36874076104E+02  0.00000000000E+00 0.  1.
         11    1    1    2    0    0  0.32754001786E+02  0.58642276279E+02  0.63258397212E+02  0.92267903510E+02  0.00000000000E+00 0. -1.
</event>
<event>
 7    1  0.2723366E-009  0.1624560E+03  0.7561462E-02  0.1185952E+00
         -2   -1    0    0    0  501 -0.00000000000E+00  0.00000000000E+00  0.27215924619E+03  0.27215924619E+03  0.00000000000E+00 0.  1.
          2   -1    0    0  501    0  0.00000000000E+00 -0.00000000000E+00 -0.42720548988E+03  0.42720548988E+03  0.00000000000E+00 0. -1.
         25    2    1    2    0    0  0.62101162501E+02  0.11962627017E+03  0.22236015697E+03  0.28854486301E+03  0.12508836741E+03 0.  0.
          5    1    3    3  502    0  0.20005416365E+02  0.12525540777E+03  0.20773129747E+03  0.24343150619E+03  0.41800000000E+01 0.  1.
         -5    1    3    3    0  502  0.42095746135E+02 -0.56291376003E+01  0.14628859500E+02  0.45113356815E+02  0.41800000000E+01 0.  1.
        -11    1    1    2    0    0 -0.66177252245E+02 -0.43733696424E+02 -0.25191069651E+03  0.26410426716E+03  0.00000000000E+00 0. -1.
         11    1    1    2    0    0  0.40760897445E+01 -0.75892573744E+02 -0.12549570415E+03  0.14671560591E+03  0.00000000000E+00 0.  1.
</event>
<event>
 7    1  0.2723366E-009  0.1200960E+03  0.7561462E-02  0.1242939E+00
         -2   -1    0    0    0  501 -0.00000000000E+00  0.00000000000E+00  0.39346177535E+02  0.39346177535E+02  0.00000000000E+00 0.  1.
          2   -1    0    0  501    0  0.00000000000E+00 -0.00000000000E+00 -0.43391385085E+03  0.43391385085E+03  0.00000000000E+00 0. -1.
         25    2    1    2    0    0 -0.15814259291E+02  0.68359398821E+02 -0.25509972499E+03  0.29265411803E+03  0.12508982734E+03 0.  0.
          5    1    3    3  502    0 -0.57936686734E+02  0.58676027695E+02 -0.90856318906E+02  0.12276758115E+03  0.41800000000E+01 0. -1.
         -5    1    3    3    0  502  0.42122427443E+02  0.96833711267E+01 -0.16424340609E+03  0.16988653688E+03  0.41800000000E+01 0. -1.
        -11    1    1    2    0    0 -0.29090059281E+02  0.36733424503E+01 -0.43815463751E+02  0.52721151898E+02  0.00000000000E+00 0.  1.
         11    1    1    2    0    0  0.44904318571E+02 -0.72032741272E+02 -0.95652484568E+02  0.12788475846E+03  0.00000000000E+00 0. -1.
</event>
<event>
 7    1  0.2723366E-009  0.1120658E+03  0.7561462E-02  0.1256791E+00
          4   -1    0    0  501    0  0.00000000000E+00  0.00000000000E+00  0.61280738501E+03  0.61280738501E+03  0.00000000000E+00 0.  1.
         -4   -1    0    0    0  501 -0.00000000000E+00 -0.00000000000E+00 -0.33204573045E+02  0.33204573045E+02  0.00000000000E+00 0. -1.
         25    2    1    2    0    0 -0.75464695499E+02 -0.62468502348E+02  0.32490058129E+03  0.36167028576E+03  0.12509106215E+03 0.  0.
          5    1    3    3  502    0 -0.81059035623E+02 -0.67708191198E+02  0.13447067611E+03  0.17104035063E+03  0.41800000000E+01 0.  1.
         -5    1    3    3    0  502  0.55943401236E+01  0.52396888497E+01  0.19042990518E+03  0.19062993513E+03  0.41800000000E+01 0.  1.
        -11    1    1    2    0    0  0.73098619531E+02  0.33110044387E+02  0.23643744343E+03  0.24968449666E+03  0.00000000000E+00 0.  1.
         11    1    1    2    0    0  0.23660759676E+01  0.29358457961E+02  0.18264787236E+02  0.34657175622E+02  0.00000000000E+00 0. -1.
</event>
<event>
 7    1  0.2723366E-009  0.7749694E+02  0.7561462E-02  0.1336309E+00
          1   -1    0    0  501    0  0.00000000000E+00  0.00000000000E+00  0.12874906840E+03  0.12874906840E+03  0.00000000000E+00 0. -1.
         -1   -1    0    0    0  501 -0.00000000000E+00 -0.00000000000E+00 -0.10715522131E+03  0.10715522131E+03  0.00000000000E+00 0.  1.
         25    2    1    2    0    0  0.29532159434E+02 -0.37144354718E+02  0.16039951702E+02  0.13473878090E+03  0.12508160336E+03 0.  0.
          5    1    3    3  502    0  0.33007317183E+02 -0.26597966848E+02  0.68658842097E+02  0.80798786044E+02  0.41800000000E+01 0. -1.
         -5    1    3    3    0  502 -0.34751577490E+01 -0.10546387870E+02 -0.52618890395E+02  0.53939994854E+02  0.41800000000E+01 0. -1.
        -11    1    1    2    0    0 -0.60303583749E+02  0.13679059349E+02  0.82034138934E+01  0.62377358690E+02  0.00000000000E+00 0.  1.
         11    1    1    2    0    0  0.30771424315E+02  0.23465295369E+02 -0.26495185019E+01  0.38788150116E+02  0.00000000000E+00 0. -1.
</event>
<event>
 7    1  0.2723366E-009  0.1730451E+03  0.7561462E-02  0.1174709E+00
          1   -1    0    0  501    0  0.00000000000E+00  0.00000000000E+00  0.92420308292E+03  0.92420308292E+03  0.00000000000E+00 0. -1.
         -1   -1    0    0    0  501 -0.00000000000E+00 -0.00000000000E+00 -0.41536205166E+02  0.41536205166E+02  0.00000000000E+00 0.  1.
         25    2    1    2    0    0  0.14391762635E+03 -0.36286120091E+02  0.29351778476E+03  0.35189480812E+03  0.12509316658E+03 0.  0.
          5    1    3    3  502    0  0.14955730844E+03 -0.13687585211E+02  0.17324616817E+03  0.22931734710E+03  0.41800000000E+01 0.  1.
         -5    1    3    3    0  502 -0.56396820842E+01 -0.22598534881E+02  0.12027161659E+03  0.12257746101E+03  0.41800000000E+01 0.  1.
        -11    1    1    2    0    0 -0.64969770300E+02  0.61346694055E+02  0.29188596508E+03  0.30525711218E+03  0.00000000000E+00 0.  1.
         11    1    1    2    0    0 -0.78947856051E+02 -0.25060573963E+02  0.29726312792E+03  0.30858736779E+03  0.00000000000E+00 0. -1.
</event>
<event>
 7    1  0.2723366E-009  0.1160825E+03  0.7561462E-02  0.1249703E+00
         -1   -1    0    0    0  501 -0.00000000000E+00  0.00000000000E+00  0.24177998650E+02  0.24177998650E+02  0.00000000000E+00 0.  1.
          1   -1    0    0  501    0  0.00000000000E+00 -0.00000000000E+00 -0.92955627643E+03  0.92955627643E+03  0.00000000000E+00 0. -1.
         25    2    1    2    0    0 -0.69467986368E+02 -0.49868375077E+02 -0.29677617192E+03  0.33322180737E+03  0.12509204902E+03 0.  0.
          5    1    3    3  502    0  0.17240748223E+01 -0.39092894144E+02 -0.14600814875E+02  0.41974790072E+02  0.41800000000E+01 0. -1.
         -5    1    3    3    0  502 -0.71192061190E+02 -0.10775480933E+02 -0.28217535704E+03  0.29124701730E+03  0.41800000000E+01 0. -1.
        -11    1    1    2    0    0 -0.16513972169E+02  0.27111042928E+02 -0.14139852606E+03  0.14491812549E+03  0.00000000000E+00 0. -1.
         11    1    1    2    0    0  0.85981958537E+02  0.22757332149E+02 -0.46720357980E+03  0.47559434221E+03  0.00000000000E+00 0.  1.
</event>
<event>
 7    1  0.2723366E-009  0.8923809E+02  0.7561462E-02  0.1304707E+00
          3   -1    0    0  501    0  0.00000000000E+00  0.00000000000E+00  0.11830103150E+04  0.11830103150E+04  0.00000000000E+00 0. -1.
         -3   -1    0    0    0  501 -0.00000000000E+00 -0.00000000000E+00 -0.11421754266E+02  0.11421754266E+02  0.00000000000E+00 0.  1.
         25    2    1    2    0    0 -0.37469157811E+02  0.18985281508E+02  0.69443092911E+03  0.70685642689E+03  0.12508922512E+03 0.  0.
          5    1    3    3  502    0  0.19088705135E+02  0.10062067114E+02  0.56306249148E+03  0.56349131809E+03  0.41800000000E+01 0. -1.
         -5    1    3    3    0  502 -0.56557862946E+02  0.89232143936E+01  0.13136843763E+03  0.14336510880E+03  0.41800000000E+01 0. -1.
        -11    1    1    2    0    0 -0.22321893062E+01 -0.49165816463E+02  0.19997152933E+03  0.20593900243E+03  0.00000000000E+00 0.  1.
         11    1    1    2    0    0  0.39701347117E+02  0.30180534955E+02  0.27718610227E+03  0.28163663992E+03  0.00000000000E+00 0. -1.
</event>
<event>
 7    1  0.2723366E-009  0.1396510E+03  0.7561462E-02  0.1213799E+00
         -1   -1    0    0    0  501 -0.00000000000E+00  0.00000000000E+00  0.22673404077E+03  0.22673404077E+03  0.00000000000E+00 0.  1.
          1   -1    0    0  501    0  0.00000000000E+00 -0.00000000000E+00 -0.10851828803E+03  0.10851828803E+03  0.00000000000E+00 0. -1.
         25    2    1    2    0    0  0.10793149936E+03  0.29024463559E+02  0.30350956653E+02  0.17047279522E+03  0.12509262688E+03 0.  0.
          5    1    3    3  502    0 -0.24986363587E+02 -0.12428335781E+02  0.85329739697E+01  0.29479924361E+02  0.41800000000E+01 0.  1.
         -5    1    3    3    0  502  0.13291786295E+03  0.41452799340E+02  0.21817982683E+02  0.14099287086E+03  0.41800000000E+01 0.  1.
        -11    1    1    2    0    0 -0.26019857731E+02 -0.80165372551E+01  0.74305526304E+02  0.79136648306E+02  0.00000000000E+00 0.  1.
         11    1    1    2    0    0 -0.81911641630E+02 -0.21007926304E+02  0.13559269788E+02  0.85642885281E+02  0.00000000000E+00 0. -1.
</event>
<event>
 7    1  0.2723366E-009  0.8453126E+02  0.7561462E-02  0.1316663E+00
         -1   -1    0    0    0  501 -0.00000000000E+00  0.00000000000E+00  0.18048673719E+03  0.18048673719E+03  0.00000000000E+00 0.  1.
          1   -1    0    0  501    0  0.00000000000E+00 -0.00000000000E+00 -0.11185514613E+03  0.11185514613E+03  0.00000000000E+00 0. -1.
         25    2    1    2    0    0 -0.25411374827E+02 -0.65045154032E+02  0.10112824140E+03  0.17536027736E+03  0.12509074960E+03 0.  0.
          5    1    3    3  502    0 -0.20113003726E+02 -0.37476227612E+02  0.12880922294E+03  0.13571399659E+03  0.41800000000E+01 0. -1.
         -5    1    3    3    0  502 -0.52983711010E+01 -0.27568926420E+02 -0.27680981543E+02  0.39646280777E+02  0.41800000000E+01 0. -1.
        -11    1    1    2    0    0  0.33623655288E+02  0.12773721235E+01  0.15205113701E+02  0.36923940163E+02  0.00000000000E+00 0.  1.
         11    1    1    2    0    0 -0.82122804615E+01  0.63767781908E+02 -0.47701764043E+02  0.80057665796E+02  0.00000000000E+00 0. -1.
</event>
<event>
 7    1  0.2723366E-009  0.1686085E+03  0.7561462E-02  0.1179307E+00
          2   -1    0    0  501    0  0.00000000000E+00  0.00000000000E+00  0.45759873386E+02  0.45759873386E+02  0.00000000000E+00 0. -1.
         -2   -1    0    0    0  501 -0.00000000000E+00 -0.00000000000E+00 -0.83713332505E+03  0.83713332505E+03  0.00000000000E+00 0.  1.
         25    2    1    2    0    0  0.79686157826E+01 -0.14607740660E+03 -0.58546069207E+03  0.61629061536E+03  0.12509113905E+03 0.  0.
          5    1    3    3  502    0  0.19892191362E+02  0.15266317996E+02 -0.40591168557E+02  0.47894416242E+02  0.41800000000E+01 0.  1.
         -5    1    3    3    0  502 -0.11923575579E+02 -0.16134372459E+03 -0.54486952351E+03  0.56839619912E+03  0.41800000000E+01 0.  1.
        -11    1    1    2    0    0 -0.20929963616E+02  0.91243998007E+02 -0.18343198507E+03  0.20593888340E+03  0.00000000000E+00 0.  1.
         11    1    1    2    0    0  0.12961347834E+02  0.54833408592E+02 -0.22480774532E+02  0.60663699681E+02  0.00000000000E+00 0. -1.
</event>
<event>
 7    1  0.2723366E-009  0.1413997E+03  0.7561462E-02  0.1211458E+00
          1   -1    0    0  501    0  0.00000000000E+00  0.00000000000E+00  0.69444261589E+03  0.69444261589E+03  0.00000000000E+00 0. -1.
         -1   -1    0    0    0  501 -0.00000000000E+00 -0.00000000000E+00 -0.58994216876E+02  0.58994216876E+02  0.00000000000E+00 0.  1.
         25    2    1    2    0    0  0.12125227759E+03 -0.13308522948E+02  0.55493707443E+03  0.58179113534E+03  0.12508611824E+03 0.  0.
          5    1    3    3  502    0  0.98074310161E+02 -0.31467462631E+02  0.19449214404E+03  0.22012141652E+03  0.41800000000E+01 0. -1.
         -5    1    3    3    0  502  0.23177967425E+02  0.18158939683E+02  0.36044493039E+03  0.36166971881E+03  0.41800000000E+01 0. -1.
        -11    1    1    2    0    0 -0.27694412284E+02  0.43586715380E+02  0.16098196397E+02  0.54091904723E+02  0.00000000000E+00 0.  1.
         11    1    1    2    0    0 -0.93557865302E+02 -0.30278192432E+02  0.64413128187E+02  0.11755379271E+03  0.00000000000E+00 0. -1.
</event>
<event>
 7    1  0.2723366E-009  0.7629917E+02  0.7561462E-02  0.1339894E+00
         -1   -1    0    0    0  501 -0.00000000000E+00  0.00000000000E+00  0.67175328997E+02  0.67175328997E+02  0.00000000000E+00 0.  1.
          1   -1    0    0  501    0  0.00000000000E+00 -0.00000000000E+00 -0.22803043151E+03  0.22803043151E+03  0.00000000000E+00 0. -1.
         25    2    1    2    0    0 -0.30171002056E+00 -0.33675263915E+02 -0.34951810994E+02  0.13417152126E+03  0.12508498550E+03 0.  0.
          5    1    3    3  502    0  0.23698759395E+02 -0.13399955892E+02 -0.76849147222E+02  0.81636106249E+02  0.41800000000E+01 0.  1.
         -5    1    3    3    0  502 -0.24000469415E+02 -0.20275308024E+02  0.41897336228E+02  0.52535415013E+02  0.41800000000E+01 0.  1.
        -11    1    1    2    0    0  0.43550820506E+02  0.13192629334E+02 -0.91196608118E+02  0.10191928555E+03  0.00000000000E+00 0. -1.
         11    1    1    2    0    0 -0.43249110485E+02  0.20482634581E+02 -0.34706683400E+02  0.59114953690E+02  0.00000000000E+00 0.  1.
</event>
<event>
 7    1  0.3585162E-009  0.1326025E+03  0.7561462E-02  0.1223644E+00
          1   -1    0    0  501    0  0.00000000000E+00  0.00000000000E+00  0.72065614426E+03  0.72065614426E+03  0.00000000000E+00 0.  1.
         -1   -1    0    0    0  501 -0.00000000000E+00 -0.00000000000E+00 -0.36530698267E+02  0.36530698267E+02  0.00000000000E+00 0. -1.
         25    2    1    2    0    0 -0.71000238979E+02  0.48961729908E+02  0.16971062324E+03  0.22778174160E+03  0.12507814051E+03 0.  0.
          5    1    3    3  502    0 -0.81216933340E+02  0.81646797092E+02  0.14563245071E+03  0.18571126201E+03  0.41800000000E+01 0. -1.
         -5    1    3    3    0  502  0.10216694361E+02 -0.32685067184E+02  0.24078172532E+02  0.42070479590E+02  0.41800000000E+01 0. -1.
        -11    1    1    2    0    0  0.44041588402E+02 -0.69014046549E+02  0.44274370336E+03  0.45024947196E+03  0.00000000000E+00 0.  1.
         11    1    1    2    0    0  0.26958650577E+02  0.20052316641E+02  0.71671119385E+02  0.79155628969E+02  0.00000000000E+00 0. -1.
</event>
<event>
 7    1  0.2723366E-009  0.8792308E+02  0.7561462E-02  0.1307961E+00
          2   -1    0    0  501    0  0.00000000000E+00  0.00000000000E+00  0.84550947991E+02  0.84550947991E+02  0.00000000000E+00 0. -1.
         -2   -1    0    0    0  501 -0.00000000000E+00 -0.00000000000E+00 -0.14376931801E+03  0.14376931801E+03  0.00000000000E+00 0.  1.
         25    2    1    2    0    0 -0.15834717427E+02  0.10680199901E+02 -0.20360534735E+02  0.12816750709E+03  0.12509018168E+03 0.  0.
          5    1    3    3  502    0  0.54073701316E+02  0.42808881104E+01  0.18001438267E+01  0.54433483214E+02  0.41800000000E+01 0.  1.
         -5    1    3    3    0  502 -0.69908418743E+02  0.63993117907E+01 -0.22160678562E+02  0.73734023875E+02  0.41800000000E+01 0.  1.
        -11    1    1    2    0    0  0.30061105624E+02 -0.18082375828E+02 -0.62448551783E+02  0.71627257428E+02  0.00000000000E+00 0.  1.
         11    1    1    2    0    0 -0.14226388197E+02  0.74021759268E+01  0.23590716502E+02  0.28525501480E+02  0.00000000000E+00 0. -1.
</event>
<event>
 7    1  0.2723366E-009  0.1082691E+03  0.7561462E-02  0.1263809E+00
         -2   -1    0    0    0  501 -0.00000000000E+00  0.00000000000E+00  0.12516842997E+04  0.12516842997E+04  0.00000000000E+00 0.  1.
          2   -1    0    0  501    0  0.00000000000E+00 -0.00000000000E+00 -0.11098945316E+02  0.11098945316E+02  0.00000000000E+00 0. -1.
         25    2    1    2    0    0 -0.26637887358E+02  0.55872894535E+01  0.91311107835E+03  0.92204157641E+03  0.12509209558E+03 0.  0.
          5    1    3    3  502    0 -0.39131714636E+02 -0.51299140399E+02  0.35095601366E+03  0.35686200249E+03  0.41800000000E+01 0. -1.
         -5    1    3    3    0  502  0.12493827278E+02  0.56886429852E+02  0.56215506470E+03  0.56517957393E+03  0.41800000000E+01 0. -1.
        -11    1    1    2    0    0 -0.94814144043E+01 -0.41491943488E+02  0.12913578789E+03  0.13596885786E+03  0.00000000000E+00 0.  1.
         11    1    1    2    0    0  0.36119301762E+02  0.35904654035E+02  0.19833848810E+03  0.20477281070E+03  0.00000000000E+00 0. -1.
</event>
<event>
 7    1  0.2723366E-009  0.7823834E+02  0.7561462E-02  0.1334126E+00
          1   -1    0    0  501    0  0.00000000000E+00  0.00000000000E+00  0.67130382404E+02  0.67130382404E+02  0.00000000000E+00 0. -1.
         -1   -1    0    0    0  501 -0.00000000000E+00 -0.00000000000E+00 -0.23262635354E+03  0.23262635354E+03  0.00000000000E+00 0.  1.
         25    2    1    2    0    0  0.13172462180E+02 -0.23472669081E+02 -0.15684378406E+03  0.20240608619E+03  0.12507506215E+03 0.  0.
          5    1    3    3  502    0  0.57529093243E+02  0.54374505067E+01 -0.30766876098E+02  0.65599051077E+02  0.41800000000E+01 0. -1.
         -5    1    3    3    0  502 -0.44356631063E+02 -0.28910119588E+02 -0.12607690796E+03  0.13680703511E+03  0.41800000000E+01 0. -1.
        -11    1    1    2    0    0  0.12858176359E+02  0.73711204530E+01 -0.46424970909E+02  0.48733397583E+02  0.00000000000E+00 0.  1.
         11    1    1    2    0    0 -0.26030638539E+02  0.16101548628E+02  0.37772783831E+02  0.48617252178E+02  0.00000000000E+00 0. -1.
</event>
<event>
 7    1  0.2723366E-009  0.9280305E+02  0.7561462E-02  0.1296202E+00
         -1   -1    0    0    0  501 -0.00000000000E+00  0.00000000000E+00  0.24917664019E+02  0.24917664019E+02  0.00000000000E+00 0.  1.
          1   -1    0    0  501    0  0.00000000000E+00 -0.00000000000E+00 -0.49452112090E+03  0.49452112090E+03  0.00000000000E+00 0. -1.
         25    2    1    2    0    0  0.20976093199E+02 -0.18478349962E+01 -0.29584691670E+03  0.32189441329E+03  0.12508878530E+03 0.  0.
          5    1    3    3  502    0  0.19762522947E+02  0.43531679420E+02 -0.25862865561E+03  0.26304337728E+03  0.41800000000E+01 0. -1.
         -5    1    3    3    0  502  0.12135702518E+01 -0.45379514416E+02 -0.37218261089E+02  0.58851036013E+02  0.41800000000E+01 0. -1.
        -11    1    1    2    0    0  0.16097987474E+02 -0.35761571156E+02 -0.94393379366E+02  0.10221616917E+03  0.00000000000E+00 0.  1.
         11    1    1    2    0    0 -0.37074080673E+02  0.37609406152E+02 -0.79363160813E+02  0.95328202454E+02  0.00000000000E+00 0. -1.
</event>
<event>
 7    1  0.2723366E-009  0.1383075E+03  0.7561462E-02  0.1215625E+00
         -2   -1    0    0    0  501 -0.00000000000E+00  0.00000000000E+00  0.11735849009E+03  0.11735849009E+03  0.00000000000E+00 0.  1.
          2   -1    0    0  501    0  0.00000000000E+00 -0.00000000000E+00 -0.18044094290E+03  0.18044094290E+03  0.00000000000E+00 0. -1.
         25    2    1    2    0    0  0.36888261478E+01  0.80373373575E+02 -0.75415662998E+01  0.14892568582E+03  0.12509395691E+03 0.  0.
          5    1    3    3  502    0  0.51633268289E+02  0.73468635107E+02  0.21315669810E+02  0.92387579891E+02  0.41800000000E+01 0. -1.
         -5    1    3    3    0  502 -0.47944442141E+02  0.69047384680E+01 -0.28857236110E+02  0.56538105924E+02  0.41800000000E+01 0. -1.
        -11    1    1    2    0    0  0.52749620224E+02 -0.22761571572E+02 -0.24486063341E+02  0.62451412091E+02  0.00000000000E+00 0. -1.
         11    1    1    2    0    0 -0.56438446372E+02 -0.57611802002E+02 -0.31054823172E+02  0.86422335082E+02  0.00000000000E+00 0.  1.
</event>
<event>
 7    1  0.2723366E-009  0.6522100E+02  0.7561462E-02  0.1377142E+00
         -1   -1    0    0    0  501 -0.00000000000E+00  0.00000000000E+00  0.66794966830E+02  0.66794966830E+02  0.00000000000E+00 0.  1.
          1   -1    0    0  501    0  0.00000000000E+00 -0.00000000000E+00 -0.24762971229E+03  0.24762971229E+03  0.00000000000E+00 0. -1.
         25    2    1    2    0    0 -0.28086598571E+02 -0.37545430191E+02 -0.15620184210E+03  0.20553473292E+03  0.12508794751E+03 0.  0.
          5    1    3    3  502    0  0.68784206704E+01 -0.39896291074E+01 -0.15663369467E+03  0.15689109763E+03  0.41800000000E+01 0.  1.
         -5    1    3    3    0  502 -0.34965019242E+02 -0.33555801084E+02  0.43185256866E+00  0.48643635283E+02  0.41800000000E+01 0.  1.
        -11    1    1    2    0    0 -0.30207012866E+01  0.41365691528E+02 -0.52530964768E+02  0.66930914616E+02  0.00000000000E+00 0. -1.
         11    1    1    2    0    0  0.31107299858E+02 -0.38202613369E+01  0.27898061410E+02  0.41959031585E+02  0.00000000000E+00 0.  1.
</event>
<event>
 7    1  0.2723366E-009  0.9774514E+02  0.7561462E-02  0.1285110E+00
         -2   -1    0    0    0  501 -0.00000000000E+00  0.00000000000E+00  0.28194672715E+02  0.28194672715E+02  0.00000000000E+00 0. -1.
          2   -1    0    0  501    0  0.00000000000E+00 -0.00000000000E+00 -0.58484415910E+03  0.58484415910E+03  0.00000000000E+00 0.  1.
         25    2    1    2    0    0  0.35710266790E+02  0.35522316648E+02 -0.19633548554E+03  0.23818648285E+03  0.12509244420E+03 0.  0.
          5    1    3    3  502    0  0.56326119411E+02 -0.15402810359E+02 -0.16437523301E+03  0.17448944931E+03  0.41800000000E+01 0.  1.
         -5    1    3    3    0  502 -0.20615852620E+02  0.50925127007E+02 -0.31960252533E+02  0.63697033541E+02  0.41800000000E+01 0.  1.
        -11    1    1    2    0    0 -0.41349901265E+02 -0.50835704422E+02 -0.34874646878E+03  0.35484952116E+03  0.00000000000E+00 0.  1.
         11    1    1    2    0    0  0.56396344750E+01  0.15313387774E+02 -0.11567532063E+02  0.20002827804E+02  0.00000000000E+00 0. -1.
</event>
<event>
 7    1  0.2723366E-009  0.1365285E+03  0.7561462E-02  0.1218078E+00
         -1   -1    0    0    0  501 -0.00000000000E+00  0.00000000000E+00  0.76424311729E+02  0.76424311729E+02  0.00000000000E+00 0.  1.
          1   -1    0    0  501    0  0.00000000000E+00 -0.00000000000E+00 -0.32932633062E+03  0.32932633062E+03  0.00000000000E+00 0. -1.
         25    2    1    2    0    0 -0.10860999364E+03  0.26273068004E+02 -0.97565725906E+02  0.19404517343E+03  0.12509218056E+03 0.  0.
          5    1    3    3  502    0  0.13361192849E+02  0.20332630445E+02 -0.62081680360E+02  0.66809765540E+02  0.41800000000E+01 0. -1.
         -5    1    3    3    0  502 -0.12197118649E+03  0.59404375583E+01 -0.35484045546E+02  0.12723540788E+03  0.41800000000E+01 0. -1.
        -11    1    1    2    0    0  0.95050013439E+02 -0.43273950554E+02 -0.15841414093E+03  0.18974240406E+03  0.00000000000E+00 0. -1.
         11    1    1    2    0    0  0.13559980198E+02  0.17000882550E+02  0.30778479416E+01  0.21963064868E+02  0.00000000000E+00 0.  1.
</event>
<event>
 7    1  0.2723366E-009  0.1641967E+03  0.7561462E-02  0.1184039E+00
         -1   -1    0    0    0  501 -0.00000000000E+00  0.00000000000E+00  0.10286528989E+03  0.10286528989E+03  0.00000000000E+00 0.  1.
          1   -1    0    0  501    0  0.00000000000E+00 -0.00000000000E+00 -0.38843487610E+03  0.38843487610E+03  0.00000000000E+00 0. -1.
         25    2    1    2    0    0  0.76974907401E+02  0.12911080601E+03 -0.24007559073E+03  0.30964255382E+03  0.12508990875E+03 0.  0.
          5    1    3    3  502    0  0.70240602541E+01  0.31290095688E+02 -0.16427302066E+03  0.16742611871E+03  0.41800000000E+01 0.  1.
         -5    1    3    3    0  502  0.69950847147E+02  0.97820710326E+02 -0.75802570074E+02  0.14221643511E+03  0.41800000000E+01 0.  1.
        -11    1    1    2    0    0 -0.81482037115E+02 -0.48168162244E+02 -0.20813397154E+02  0.96915900282E+02  0.00000000000E+00 0. -1.
         11    1    1    2    0    0  0.45071297142E+01 -0.80942643770E+02 -0.24680598325E+02  0.84741711880E+02  0.00000000000E+00 0.  1.
</event>
<event>
 7    1  0.2723366E-009  0.1867707E+03  0.7561462E-02  0.1161407E+00
          1   -1    0    0  501    0  0.00000000000E+00  0.00000000000E+00  0.84557585110E+03  0.84557585110E+03  0.00000000000E+00 0. -1.
         -1   -1    0    0    0  501 -0.00000000000E+00 -0.00000000000E+00 -0.43744989846E+02  0.43744989846E+02  0.00000000000E+00 0.  1.
         25    2    1    2    0    0 -0.13875828664E+03 -0.59911276703E+02  0.47860627407E+03  0.51725870814E+03  0.12509749150E+03 0.  0.
          5    1    3    3  502    0 -0.92238451813E+02  0.27238687153E+02  0.26287021298E+03  0.27994302875E+03  0.41800000000E+01 0. -1.
         -5    1    3    3    0  502 -0.46519834830E+02 -0.87149963856E+02  0.21573606109E+03  0.23731567939E+03  0.41800000000E+01 0. -1.
        -11    1    1    2    0    0  0.55859802053E+02  0.75629315290E+02  0.21633689807E+03  0.23588506584E+03  0.00000000000E+00 0. -1.
         11    1    1    2    0    0  0.82898484591E+02 -0.15718038587E+02  0.10688768911E+03  0.13617706697E+03  0.00000000000E+00 0.  1.
</event>
<event>
 7    1  0.2723366E-009  0.1135076E+03  0.7561462E-02  0.1254209E+00
          2   -1    0    0  501    0  0.00000000000E+00  0.00000000000E+00  0.60370994140E+03  0.60370994140E+03  0.00000000000E+00 0. -1.
         -2   -1    0    0    0  501 -0.00000000000E+00 -0.00000000000E+00 -0.23104919510E+02  0.23104919510E+02  0.00000000000E+00 0.  1.
         25    2    1    2    0    0  0.27138547579E+02 -0.23698755977E+02  0.26307958755E+03  0.29352413172E+03  0.12508962673E+03 0.  0.
          5    1    3    3  502    0 -0.48355963536E+02 -0.70378887170E+00  0.12974492936E+03  0.13852802468E+03  0.41800000000E+01 0. -1.
         -5    1    3    3    0  502  0.75494511115E+02 -0.22994967105E+02  0.13333465819E+03  0.15499610704E+03  0.41800000000E+01 0. -1.
        -11    1    1    2    0    0 -0.48750586734E+02 -0.18411901516E+02  0.13445732943E+03  0.14420260490E+03  0.00000000000E+00 0.  1.
         11    1    1    2    0    0  0.21612039155E+02  0.42110657493E+02  0.18306810491E+03  0.18908812429E+03  0.00000000000E+00 0. -1.
</event>
<event>
 7    1  0.2723366E-009  0.9935756E+02  0.7561462E-02  0.1281653E+00
         -1   -1    0    0    0  501 -0.00000000000E+00  0.00000000000E+00  0.47740099443E+02  0.47740099443E+02  0.00000000000E+00 0.  1.
          1   -1    0    0  501    0  0.00000000000E+00 -0.00000000000E+00 -0.53712154773E+03  0.53712154773E+03  0.00000000000E+00 0. -1.
         25    2    1    2    0    0  0.50203167901E+02 -0.84162483139E+02 -0.37662965866E+03  0.40877998677E+03  0.12508995230E+03 0.  0.
          5    1    3    3  502    0  0.48193600011E+01 -0.92501227878E+01  0.83123231107E+01  0.13977056840E+02  0.41800000000E+01 0.  1.
         -5    1    3    3    0  502  0.45383807900E+02 -0.74912360352E+02 -0.38494198177E+03  0.39480292993E+03  0.41800000000E+01 0.  1.
        -11    1    1    2    0    0 -0.25468852278E+02  0.25098696455E+02  0.10432453435E+02  0.37248397077E+02  0.00000000000E+00 0.  1.
         11    1    1    2    0    0 -0.24734315623E+02  0.59063786685E+02 -0.12318424306E+03  0.13883326333E+03  0.00000000000E+00 0. -1.
</event>
<event>
 7    1  0.2723366E-009  0.9287283E+02  0.7561462E-02  0.1296040E+00
          1   -1    0    0  501    0  0.00000000000E+00  0.00000000000E+00  0.50578555546E+03  0.50578555546E+03  0.00000000000E+00 0. -1.
         -1   -1    0    0    0  501 -0.00000000000E+00 -0.00000000000E+00 -0.26850183826E+02  0.26850183826E+02  0.00000000000E+00 0.  1.
         25    2    1    2    0    0 -0.11954562378E+02 -0.36405519449E+02  0.22890659295E+03  0.26365391809E+03  0.12508751665E+03 0.  0.
          5    1    3    3  502    0  0.24491672600E+02 -0.42762021028E+02  0.21983977464E+03  0.22533404400E+03  0.41800000000E+01 0. -1.
         -5    1    3    3    0  502 -0.36446234977E+02  0.63565015791E+01  0.90668183079E+01  0.38319874094E+02  0.41800000000E+01 0. -1.
        -11    1    1    2    0    0 -0.88114769189E+01  0.63954626394E+02  0.16923789343E+03  0.18113337886E+03  0.00000000000E+00 0. -1.
         11    1    1    2    0    0  0.20766039297E+02 -0.27549106945E+02  0.80790885253E+02  0.87848442339E+02  0.00000000000E+00 0.  1.
</event>
<event>
 7    1  0.2723366E-009  0.1222697E+03  0.7561462E-02  0.1239399E+00
         -1   -1    0    0    0  501 -0.00000000000E+00  0.00000000000E+00  0.35284884169E+02  0.35284884169E+02  0.00000000000E+00 0.  1.
          1   -1    0    0  501    0  0.00000000000E+00 -0.00000000000E+00 -0.56194013543E+03  0.56194013543E+03  0.00000000000E+00 0. -1.
         25    2    1    2    0    0  0.13281143827E+02 -0.78683190308E+02 -0.39300406265E+03  0.42008142519E+03  0.12509507308E+03 0.  0.
          5    1    3    3  502    0 -0.46389615683E+02  0.20364721937E+01 -0.10007015303E+03  0.11039769740E+03  0.41800000000E+01 0.  1.
         -5    1    3    3    0  502  0.59670759510E+02 -0.80719662502E+02 -0.29293390962E+03  0.30968372779E+03  0.41800000000E+01 0.  1.
        -11    1    1    2    0    0 -0.34319942866E+02  0.60888418121E+02 -0.42233850198E+02  0.81663676394E+02  0.00000000000E+00 0.  1.
         11    1    1    2    0    0  0.21038799039E+02  0.17794772187E+02 -0.91417338409E+02  0.95479918014E+02  0.00000000000E+00 0. -1.
</event>
<event>
 7    1  0.2723366E-009  0.1779589E+03  0.7561462E-02  0.1169793E+00
          2   -1    0    0  501    0  0.00000000000E+00  0.00000000000E+00  0.21542468504E+04  0.21542468504E+04  0.00000000000E+00 0. -1.
         -2   -1    0    0    0  501 -0.00000000000E+00 -0.00000000000E+00 -0.15296852050E+02  0.15296852050E+02  0.00000000000E+00 0.  1.
         25    2    1    2    0    0  0.11602100911E+02 -0.14298014560E+03  0.12631872224E+04  0.12774454591E+04  0.12508801380E+03 0.  0.
          5    1    3    3  502    0  0.36548818747E+02  0.60314127918E+01  0.18525359582E+03  0.18896709040E+03  0.41800000000E+01 0.  1.
         -5    1    3    3    0  502 -0.24946717837E+02 -0.14901155840E+03  0.10779336266E+04  0.10884783687E+04  0.41800000000E+01 0.  1.
        -11    1    1    2    0    0  0.34494309713E+02  0.94503662452E+02  0.59732685281E+03  0.60573935707E+03  0.00000000000E+00 0. -1.
         11    1    1    2    0    0 -0.46096410623E+02  0.48476483152E+02  0.27843592310E+03  0.28635888630E+03  0.00000000000E+00 0.  1.
</event>
<event>
 7    1  0.2723366E-009  0.1705157E+03  0.7561462E-02  0.1177311E+00
         -2   -1    0    0    0  501 -0.00000000000E+00  0.00000000000E+00  0.57835258718E+02  0.57835258718E+02  0.00000000000E+00 0.  1.
          2   -1    0    0  501    0  0.00000000000E+00 -0.00000000000E+00 -0.74950737739E+03  0.74950737739E+03  0.00000000000E+00 0. -1.
         25    2    1    2    0    0 -0.82418759700E+02 -0.11963449084E+03 -0.55785658737E+03  0.58987846842E+03  0.12508945634E+03 0.  0.
          5    1    3    3  502    0  0.15533079437E+02 -0.75589429221E+02 -0.31428220986E+03  0.32364458624E+03  0.41800000000E+01 0.  1.
         -5    1    3    3    0  502 -0.97951839137E+02 -0.44045061624E+02 -0.24357437750E+03  0.26623388218E+03  0.41800000000E+01 0.  1.
        -11    1    1    2    0    0  0.70427735029E+02  0.51909939932E+02 -0.29142609894E+02  0.92217132012E+02  0.00000000000E+00 0.  1.
         11    1    1    2    0    0  0.11991024671E+02  0.67724550913E+02 -0.10467292141E+03  0.12524703567E+03  0.00000000000E+00 0. -1.
</event>
<event>
 7    1  0.2723366E-009  0.1465811E+03  0.7561462E-02  0.1204738E+00
          1   -1    0    0  501    0  0.00000000000E+00  0.00000000000E+00  0.29220803514E+03  0.29220803514E+03  0.00000000000E+00 0. -1.
         -1   -1    0    0    0  501 -0.00000000000E+00 -0.00000000000E+00 -0.99079435483E+02  0.99079435483E+02  0.00000000000E+00 0.  1.
         25    2    1    2    0    0  0.84804078512E+02  0.80703678583E+02  0.10843448010E+03  0.20275536434E+03  0.12508751268E+03 0.  0.
          5    1    3    3  502    0  0.62329765186E+02  0.13690474012E+02  0.11506268017E+03  0.13164088071E+03  0.41800000000E+01 0. -1.
         -5    1    3    3    0  502  0.22474313326E+02  0.67013204571E+02 -0.66282000714E+01  0.71114483634E+02  0.41800000000E+01 0. -1.
        -11    1    1    2    0    0 -0.55077207432E+02  0.15903667385E+02  0.10551741428E+01  0.57337063121E+02  0.00000000000E+00 0.  1.
         11    1    1    2    0    0 -0.29726871079E+02 -0.96607345968E+02  0.83638945423E+02  0.13119504316E+03  0.00000000000E+00 0. -1.
</event>
<event>
 7    1  0.3040273E-009  0.1524591E+03  0.7561462E-02  0.1197483E+00
          2   -1    0    0  501    0  0.00000000000E+00  0.00000000000E+00  0.11784624999E+04  0.11784624999E+04  0.00000000000E+00 0. -1.
         -2   -1    0    0    0  501 -0.00000000000E+00 -0.00000000000E+00 -0.21761713934E+02  0.21761713934E+02  0.00000000000E+00 0.  1.
         25    2    1    2    0    0 -0.66071683431E+02 -0.90521571516E+02  0.48876841557E+03  0.51681880091E+03  0.12508991429E+03 0.  0.
          5    1    3    3  502    0  0.28254867825E+01 -0.92663424277E+02  0.34595419768E+03  0.35818469100E+03  0.41800000000E+01 0.  1.
         -5    1    3    3    0  502 -0.68897170213E+02  0.21418527605E+01  0.14281421789E+03  0.15863410991E+03  0.41800000000E+01 0.  1.
        -11    1    1    2    0    0  0.47398068071E+02 -0.31910620994E+01  0.27108636163E+03  0.27521732357E+03  0.00000000000E+00 0. -1.
         11    1    1    2    0    0  0.18673615360E+02  0.93712633616E+02  0.39684600881E+03  0.40818808939E+03  0.00000000000E+00 0.  1.
</event>
<event>
 7    1  0.2723366E-009  0.1108240E+03  0.7561462E-02  0.1259052E+00
         -1   -1    0    0    0  501 -0.00000000000E+00  0.00000000000E+00  0.16151618673E+03  0.16151618673E+03  0.00000000000E+00 0.  1.
          1   -1    0    0  501    0  0.00000000000E+00 -0.00000000000E+00 -0.11467219916E+03  0.11467219916E+03  0.00000000000E+00 0. -1.
         25    2    1    2    0    0 -0.76740708988E+02  0.26511236831E+02  0.45619424153E+01  0.14920173857E+03  0.12509342660E+03 0.  0.
          5    1    3    3  502    0  0.16367274371E+02 -0.80149188390E+01 -0.37011352525E+02  0.41466121233E+02  0.41800000000E+01 0.  1.
         -5    1    3    3    0  502 -0.93107983359E+02  0.34526155670E+02  0.41573294941E+02  0.10773561734E+03  0.41800000000E+01 0.  1.
        -11    1    1    2    0    0  0.59663387252E+02 -0.47670043870E+02  0.57712339983E+02  0.95722865854E+02  0.00000000000E+00 0.  1.
         11    1    1    2    0    0  0.17077321736E+02  0.21158807039E+02 -0.15430294835E+02  0.31263781469E+02  0.00000000000E+00 0. -1.
</event>
<event>
 7    1  0.2723366E-009  0.7774398E+02  0.7561462E-02  0.1335578E+00
          1   -1    0    0  501    0  0.00000000000E+00  0.00000000000E+00  0.17063629166E+03  0.17063629166E+03  0.00000000000E+00 0. -1.
         -1   -1    0    0    0  501 -0.00000000000E+00 -0.00000000000E+00 -0.78475466097E+02  0.78475466097E+02  0.00000000000E+00 0.  1.
         25    2    1    2    0    0  0.29350431780E+02 -0.12973387376E+02  0.29716316399E+02  0.13251429526E+03  0.12508885786E+03 0.  0.
          5    1    3    3  502    0 -0.36876992628E+02 -0.12111682651E+02  0.49706150571E+02  0.63204266047E+02  0.41800000000E+01 0. -1.
         -5    1    3    3    0  502  0.66227424408E+02 -0.86170472470E+00 -0.19989834172E+02  0.69310029209E+02  0.41800000000E+01 0. -1.
        -11    1    1    2    0    0 -0.31567492110E+02 -0.50113910115E+01 -0.16240986788E+02  0.35852339531E+02  0.00000000000E+00 0.  1.
         11    1    1    2    0    0  0.22170603298E+01  0.17984778388E+02  0.78685495956E+02  0.80745122974E+02  0.00000000000E+00 0. -1.
</event>
<event>
 7    1  0.2723366E-009  0.1306212E+03  0.7561462E-02  0.1226537E+00
          3   -1    0    0  501    0  0.00000000000E+00  0.00000000000E+00  0.28885637480E+03  0.28885637480E+03  0.00000000000E+00 0. -1.
         -3   -1    0    0    0  501 -0.00000000000E+00 -0.00000000000E+00 -0.84677307557E+02  0.84677307557E+02  0.00000000000E+00 0.  1.
         25    2    1    2    0    0  0.18356302330E+02 -0.73882673506E+02  0.10379650902E+02  0.14680175820E+03  0.12508963098E+03 0.  0.
          5    1    3    3  502    0  0.51670523536E+02 -0.91979296047E+02  0.20014114434E+02  0.10746195178E+03  0.41800000000E+01 0. -1.
         -5    1    3    3    0  502 -0.33314221206E+02  0.18096622541E+02 -0.96344635315E+01  0.39339806424E+02  0.41800000000E+01 0. -1.
        -11    1    1    2    0    0 -0.49676056417E+02  0.70178143994E+02  0.13636727773E+03  0.16121016380E+03  0.00000000000E+00 0. -1.
         11    1    1    2    0    0  0.31319754087E+02  0.37045295119E+01  0.57432138606E+02  0.65521760353E+02  0.00000000000E+00 0.  1.
</event>
<event>
 7    1  0.2723366E-009  0.1209965E+03  0.7561462E-02  0.1241462E+00
         -4   -1    0    0    0  501 -0.00000000000E+00  0.00000000000E+00  0.74539538127E+02  0.74539538127E+02  0.00000000000E+00 0.  1.
          4   -1    0    0  501    0  0.00000000000E+00 -0.00000000000E+00 -0.20538083765E+03  0.20538083765E+03  0.00000000000E+00 0. -1.
         25    2    1    2    0    0 -0.53286224028E+02  0.25249776583E+02 -0.90241255430E+02  0.16512855609E+03  0.12508790096E+03 0.  0.
          5    1    3    3  502    0 -0.55701140777E+02 -0.42612150252E+02 -0.45734472633E+02  0.83830345460E+02  0.41800000000E+01 0.  1.
         -5    1    3    3    0  502  0.24149167488E+01  0.67861926835E+02 -0.44506782797E+02  0.81298210630E+02  0.41800000000E+01 0.  1.
        -11    1    1    2    0    0  0.33599169349E+02  0.30004850405E+02 -0.30597230698E+01  0.45150383543E+02  0.00000000000E+00 0.  1.
         11    1    1    2    0    0  0.19687054679E+02 -0.55254626989E+02 -0.37540321020E+02  0.69641436142E+02  0.00000000000E+00 0. -1.
</event>
<event>
 7    1  0.2723366E-009  0.2572557E+03  0.7561462E-02  0.1108803E+00
          2   -1    0    0  501    0  0.00000000000E+00  0.00000000000E+00  0.13147762584E+04  0.13147762584E+04  0.00000000000E+00 0. -1.
         -2   -1    0    0    0  501 -0.00000000000E+00 -0.00000000000E+00 -0.66198454402E+02  0.66198454402E+02  0.00000000000E+00 0.  1.
         25    2    1    2    0    0 -0.15947615499E+03  0.18453534041E+03  0.92585452252E+03  0.96557748707E+03  0.12508937124E+03 0.  0.
          5    1    3    3  502    0 -0.12134518427E+03  0.88499676844E+02  0.71638866841E+03  0.73197475583E+03  0.41800000000E+01 0.  1.
         -5    1    3    3    0  502 -0.38130970727E+02  0.96035663569E+02  0.20946585411E+03  0.23360273124E+03  0.41800000000E+01 0.  1.
        -11    1    1    2    0    0  0.41723089447E+02 -0.11897092778E+03  0.14091749155E+03  0.18908367798E+03  0.00000000000E+00 0.  1.
         11    1    1    2    0    0  0.11775306555E+03 -0.65564412629E+02  0.18180578994E+03  0.22631354777E+03  0.00000000000E+00 0. -1.
</event>
<event>
 7    1  0.2723366E-009  0.1440430E+03  0.7561462E-02  0.1207990E+00
          1   -1    0    0  501    0  0.00000000000E+00  0.00000000000E+00  0.57999591063E+02  0.57999591063E+02  0.00000000000E+00 0. -1.
         -1   -1    0    0    0  501 -0.00000000000E+00 -0.00000000000E+00 -0.45776787618E+03  0.45776787618E+03  0.00000000000E+00 0.  1.
         25    2    1    2    0    0  0.49366280325E+02 -0.95707945685E+02 -0.13042270226E+03  0.21036758057E+03  0.12508955668E+03 0.  0.
          5    1    3    3  502    0  0.33430475881E+02  0.12298688404E+02  0.51685428555E+01  0.36235903319E+02  0.41800000000E+01 0.  1.
         -5    1    3    3    0  502  0.15935804444E+02 -0.10800663409E+03 -0.13559124512E+03  0.17413167725E+03  0.41800000000E+01 0.  1.
        -11    1    1    2    0    0 -0.11628722438E+02 -0.18962478041E+02 -0.56195465637E+02  0.60437845074E+02  0.00000000000E+00 0.  1.
         11    1    1    2    0    0 -0.37737557887E+02  0.11467042373E+03 -0.21315011722E+03  0.24496204160E+03  0.00000000000E+00 0. -1.
</event>
<event>
 7    1  0.2723366E-009  0.1313447E+03  0.7561462E-02  0.1225474E+00
          2   -1    0    0  501    0  0.00000000000E+00  0.00000000000E+00  0.21113598310E+03  0.21113598310E+03  0.00000000000E+00 0. -1.
         -2   -1    0    0    0  501 -0.00000000000E+00 -0.00000000000E+00 -0.10391468908E+03  0.10391468908E+03  0.00000000000E+00 0.  1.
         25    2    1    2    0    0 -0.22891728930E+01  0.95823801482E+02  0.25645406586E+02  0.15966743669E+03  0.12509421337E+03 0.  0.
          5    1    3    3  502    0  0.12764206782E+01 -0.20971545835E+02  0.36414183900E+02  0.42248078933E+02  0.41800000000E+01 0. -1.
         -5    1    3    3    0  502 -0.35655935713E+01  0.11679534732E+03 -0.10768777314E+02  0.11741935776E+03  0.41800000000E+01 0. -1.
        -11    1    1    2    0    0  0.40501021976E+02 -0.56441364188E+02  0.71315884032E+02  0.99558604288E+02  0.00000000000E+00 0. -1.
         11    1    1    2    0    0 -0.38211849083E+02 -0.39382437294E+02  0.10260003403E+02  0.55824631189E+02  0.00000000000E+00 0.  1.
</event>
<event>
 7    1  0.2723366E-009  0.1220856E+03  0.7561462E-02  0.1239696E+00
          2   -1    0    0  501    0  0.00000000000E+00  0.00000000000E+00  0.16720870249E+03  0.16720870249E+03  0.00000000000E+00 0. -1.
         -2   -1    0    0    0  501 -0.00000000000E+00 -0.00000000000E+00 -0.12642503052E+03  0.12642503052E+03  0.00000000000E+00 0.  1.
         25    2    1    2    0    0 -0.56884737713E+02  0.78185651842E+02  0.20446645193E+02  0.15941910814E+03  0.12509003638E+03 0.  0.
          5    1    3    3  502    0 -0.26114194207E+02  0.96914778128E+02  0.50392420318E+02  0.11238902875E+03  0.41800000000E+01 0. -1.
         -5    1    3    3    0  502 -0.30770543506E+02 -0.18729126286E+02 -0.29945775125E+02  0.47030079385E+02  0.41800000000E+01 0. -1.
        -11    1    1    2    0    0 -0.25517294707E+00 -0.37028745032E+02 -0.29997803795E+02  0.47655653436E+02  0.00000000000E+00 0.  1.
         11    1    1    2    0    0  0.57139910660E+02 -0.41156906810E+02  0.50334830564E+02  0.86558971437E+02  0.00000000000E+00 0. -1.
</event>
<event>
 7    1  0.2723366E-009  0.1286927E+03  0.7561462E-02  0.1229409E+00
          1   -1    0    0  501    0  0.00000000000E+00  0.00000000000E+00  0.18606932864E+04  0.18606932864E+04  0.00000000000E+00 0. -1.
         -1   -1    0    0    0  501 -0.00000000000E+00 -0.00000000000E+00 -0.14959808190E+02  0.14959808190E+02  0.00000000000E+00 0.  1.
         25    2    1    2    0    0 -0.17298536370E+02  0.68190181274E+02  0.15704499459E+04  0.15769930131E+04  0.12507913763E+03 0.  0.
          5    1    3    3  502    0 -0.38201261875E+02 -0.26347785397E+02  0.51138250687E+03  0.51350081104E+03  0.41800000000E+01 0. -1.
         -5    1    3    3    0  502  0.20902725505E+02  0.94537966671E+02  0.10590674390E+04  0.10634922021E+04  0.41800000000E+01 0. -1.
        -11    1    1    2    0    0  0.40470923001E+02 -0.78653257084E+02  0.23417731813E+03  0.25032628065E+03  0.00000000000E+00 0.  1.
         11    1    1    2    0    0 -0.23172386630E+02  0.10463075810E+02  0.41106214201E+02  0.48333800839E+02  0.00000000000E+00 0. -1.
</event>
<event>
 7    1  0.2723366E-009  0.2087019E+03  0.7561462E-02  0.1142598E+00
          1   -1    0    0  501    0  0.00000000000E+00  0.00000000000E+00  0.11987710451E+04  0.11987710451E+04  0.00000000000E+00 0. -1.
         -1   -1    0    0    0  501 -0.00000000000E+00 -0.00000000000E+00 -0.51126812504E+02  0.51126812504E+02  0.00000000000E+00 0.  1.
         25    2    1    2    0    0 -0.12184970254E+03  0.13604794442E+03  0.26989275860E+03  0.34906449604E+03  0.12509007980E+03 0.  0.
          5    1    3    3  502    0 -0.14017467735E+03  0.86759241266E+02  0.22961207870E+03  0.28269291679E+03  0.41800000000E+01 0. -1.
         -5    1    3    3    0  502  0.18324974804E+02  0.49288703157E+02  0.40280679896E+02  0.66371579259E+02  0.41800000000E+01 0. -1.
        -11    1    1    2    0    0  0.62225453554E+02 -0.12426032873E+03  0.67550561672E+03  0.68965243028E+03  0.00000000000E+00 0.  1.
         11    1    1    2    0    0  0.59624248988E+02 -0.11787615689E+02  0.20224585725E+03  0.21118093125E+03  0.00000000000E+00 0. -1.
</event>
<event>
 7    1  0.2723366E-009  0.1025648E+03  0.7561462E-02  0.1274993E+00
         -1   -1    0    0    0  501 -0.00000000000E+00  0.00000000000E+00  0.40111563516E+03  0.40111563516E+03  0.00000000000E+00 0.  1.
          1   -1    0    0  501    0  0.00000000000E+00 -0.00000000000E+00 -0.35511923003E+02  0.35511923003E+02  0.00000000000E+00 0. -1.
         25    2    1    2    0    0 -0.49978096216E+02  0.40905485565E+00  0.21407305596E+03  0.25292534244E+03  0.12508388438E+03 0.  0.
          5    1    3    3  502    0 -0.68961226826E+02  0.38021977734E+02  0.80030284893E+02  0.11235497540E+03  0.41800000000E+01 0. -1.
         -5    1    3    3    0  502  0.18983130610E+02 -0.37612922878E+02  0.13404277107E+03  0.14057036705E+03  0.41800000000E+01 0. -1.
        -11    1    1    2    0    0  0.11962297583E+02 -0.32215638627E+02  0.13292068702E+02  0.36845936357E+02  0.00000000000E+00 0. -1.
         11    1    1    2    0    0  0.38015798633E+02  0.31806583772E+02  0.13823858749E+03  0.14685627936E+03  0.00000000000E+00 0.  1.
</event>
<event>
 7    1  0.2723366E-009  0.7381158E+02  0.7561462E-02  0.1347591E+00
          1   -1    0    0  501    0  0.00000000000E+00  0.00000000000E+00  0.34934144341E+03  0.34934144341E+03  0.00000000000E+00 0. -1.
         -1   -1    0    0    0  501 -0.00000000000E+00 -0.00000000000E+00 -0.33414105036E+02  0.33414105036E+02  0.00000000000E+00 0.  1.
         25    2    1    2    0    0 -0.23777114295E+01 -0.10492624113E+02  0.19412491619E+03  0.23118804552E+03  0.12509068964E+03 0.  0.
          5    1    3    3  502    0  0.10895055315E+02  0.33338843163E+02  0.39621146589E+01  0.35543655501E+02  0.41800000000E+01 0.  1.
         -5    1    3    3    0  502 -0.13272766745E+02 -0.43831467276E+02  0.19016280153E+03  0.19564439002E+03  0.41800000000E+01 0.  1.
        -11    1    1    2    0    0 -0.10872299457E+02 -0.25628348584E+02  0.10663863377E+03  0.11021260072E+03  0.00000000000E+00 0. -1.
         11    1    1    2    0    0  0.13250010886E+02  0.36120972697E+02  0.15163788422E+02  0.41354902205E+02  0.00000000000E+00 0.  1.
</event>
<event>
 7    1  0.2723366E-009  0.1467974E+03  0.7561462E-02  0.1204464E+00
          1   -1    0    0  501    0  0.00000000000E+00  0.00000000000E+00  0.47131187317E+02  0.47131187317E+02  0.00000000000E+00 0. -1.
         -1   -1    0    0    0  501 -0.00000000000E+00 -0.00000000000E+00 -0.50683590423E+03  0.50683590423E+03  0.00000000000E+00 0.  1.
         25    2    1    2    0    0  0.10238980702E+03 -0.41276933341E+02 -0.23805000022E+03  0.29069385641E+03  0.12509059813E+03 0.  0.
          5    1    3    3  502    0  0.12686121638E+03 -0.10605001767E+02 -0.18066695656E+03  0.22105260884E+03  0.41800000000E+01 0. -1.
         -5    1    3    3    0  502 -0.24471409358E+02 -0.30671931574E+02 -0.57383043667E+02  0.69641247569E+02  0.41800000000E+01 0. -1.
        -11    1    1    2    0    0 -0.19280416387E+02  0.39133678952E+02 -0.14040602275E+03  0.14702731212E+03  0.00000000000E+00 0.  1.
         11    1    1    2    0    0 -0.83109390637E+02  0.21432543885E+01 -0.81248693938E+02  0.11624592302E+03  0.00000000000E+00 0. -1.
</event>
<event>
 7    1  0.2723366E-009  0.1309722E+03  0.7561462E-02  0.1226020E+00
         -1   -1    0    0    0  501 -0.00000000000E+00  0.00000000000E+00  0.80623859441E+02  0.80623859441E+02  0.00000000000E+00 0.  1.
          1   -1    0    0  501    0  0.00000000000E+00 -0.00000000000E+00 -0.39905727752E+03  0.39905727752E+03  0.00000000000E+00 0. -1.
         25    2    1    2    0    0  0.81389595165E+02 -0.10010649928E+03 -0.20887729873E+03  0.27554175247E+03  0.12509178242E+03 0.  0.
          5    1    3    3  502    0  0.30843018827E+02 -0.38529268502E+02  0.25180648018E+01  0.49594449205E+02  0.41800000000E+01 0. -1.
         -5    1    3    3    0  502  0.50546576338E+02 -0.61577230782E+02 -0.21139536353E+03  0.22594730326E+03  0.41800000000E+01 0. -1.
        -11    1    1    2    0    0 -0.76722768056E+02  0.75671938820E+02 -0.17988660653E+02  0.10925299710E+03  0.00000000000E+00 0.  1.
         11    1    1    2    0    0 -0.46668271091E+01  0.24434560463E+02 -0.91567458705E+02  0.94886387401E+02  0.00000000000E+00 0. -1.
</event>
<event>
 7    1  0.2723366E-009  0.1642070E+03  0.7561462E-02  0.1184027E+00
          1   -1    0    0  501    0  0.00000000000E+00  0.00000000000E+00  0.77203921564E+03  0.77203921564E+03  0.00000000000E+00 0. -1.
         -1   -1    0    0    0  501 -0.00000000000E+00 -0.00000000000E+00 -0.43906715745E+02  0.43906715745E+02  0.00000000000E+00 0.  1.
         25    2    1    2    0    0  0.93678103041E+02 -0.10865252279E+03  0.46659067056E+03  0.50391966455E+03  0.12508883549E+03 0.  0.
          5    1    3    3  502    0  0.93678014981E+02 -0.13011566974E+03  0.34602981859E+03  0.38139187951E+03  0.41800000000E+01 0.  1.
         -5    1    3    3    0  502  0.88059351924E-04  0.21463146956E+02  0.12056085197E+03  0.12252778503E+03  0.41800000000E+01 0.  1.
        -11    1    1    2    0    0 -0.69650190925E+02  0.60120030637E+02  0.77871338495E+02  0.12053842764E+03  0.00000000000E+00 0.  1.
         11    1    1    2    0    0 -0.24027912116E+02  0.48532492151E+02  0.18367049083E+03  0.19148783919E+03  0.00000000000E+00 0. -1.
</event>
<event>
 7    1  0.2723366E-009  0.9848557E+02  0.7561462E-02  0.1283513E+00
          1   -1    0    0  501    0  0.00000000000E+00  0.00000000000E+00  0.13897928204E+03  0.13897928204E+03  0.00000000000E+00 0. -1.
         -1   -1    0    0    0  501 -0.00000000000E+00 -0.00000000000E+00 -0.14081957576E+03  0.14081957576E+03  0.00000000000E+00 0.  1.
         25    2    1    2    0    0  0.64466065699E+02  0.31944390906E+02 -0.51432720295E+02  0.15319646771E+03  0.12509002864E+03 0.  0.
          5    1    3    3  502    0  0.61849826997E+02 -0.48560313930E+01  0.25941200648E+02  0.67375072776E+02  0.41800000000E+01 0.  1.
         -5    1    3    3    0  502  0.26162387018E+01  0.36800422299E+02 -0.77373920943E+02  0.85821394934E+02  0.41800000000E+01 0.  1.
        -11    1    1    2    0    0 -0.62294415771E+00  0.17126810991E+02  0.42431391427E+02  0.45761760156E+02  0.00000000000E+00 0. -1.
         11    1    1    2    0    0 -0.63843121541E+02 -0.49071201897E+02  0.71610351417E+01  0.80840629933E+02  0.00000000000E+00 0.  1.
</event>
<event>
 7    1  0.2723366E-009  0.9605266E+02  0.7561462E-02  0.1288823E+00
         -1   -1    0    0    0  501 -0.00000000000E+00  0.00000000000E+00  0.53283939720E+02  0.53283939720E+02  0.00000000000E+00 0.  1.
          1   -1    0    0  501    0  0.00000000000E+00 -0.00000000000E+00 -0.25334085154E+03  0.25334085154E+03  0.00000000000E+00 0. -1.
         25    2    1    2    0    0 -0.14783484398E+02 -0.20059697413E+02 -0.71045652998E+02  0.14599826878E+03  0.12508823608E+03 0.  0.
          5    1    3    3  502    0 -0.41290657694E+02  0.42263138231E+02 -0.26960740598E+02  0.65080298090E+02  0.41800000000E+01 0.  1.
         -5    1    3    3    0  502  0.26507173296E+02 -0.62322835644E+02 -0.44084912399E+02  0.80917970687E+02  0.41800000000E+01 0.  1.
        -11    1    1    2    0    0  0.35461279198E+02 -0.10379543829E+01 -0.84096698801E+01  0.36459597079E+02  0.00000000000E+00 0.  1.
         11    1    1    2    0    0 -0.20677794800E+02  0.21097651796E+02 -0.12060158894E+03  0.12416692540E+03  0.00000000000E+00 0. -1.
</event>
<event>
 7    1  0.2995661E-009  0.1364717E+03  0.7561462E-02  0.1218157E+00
         -1   -1    0    0    0  501 -0.00000000000E+00  0.00000000000E+00  0.17637028650E+02  0.17637028650E+02  0.00000000000E+00 0.  1.
          1   -1    0    0  501    0  0.00000000000E+00 -0.00000000000E+00 -0.14133560208E+04  0.14133560208E+04  0.00000000000E+00 0. -1.
         25    2    1    2    0    0  0.10497150035E+03  0.45155156437E+02 -0.71778066875E+03  0.73750541623E+03  0.12508855463E+03 0.  0.
          5    1    3    3  502    0  0.17379587243E+02 -0.21310321954E+02 -0.29733152520E+02  0.40715017295E+02  0.41800000000E+01 0.  1.
         -5    1    3    3    0  502  0.87591913105E+02  0.66465478391E+02 -0.68804751623E+03  0.69679039894E+03  0.41800000000E+01 0.  1.
        -11    1    1    2    0    0 -0.22697413921E+02  0.19917595178E+02 -0.65434449094E+02  0.72066291181E+02  0.00000000000E+00 0.  1.
         11    1    1    2    0    0 -0.82274086427E+02 -0.65072751615E+02 -0.61250387433E+03  0.62142134206E+03  0.00000000000E+00 0. -1.
</event>
<event>
 7    1  0.2723366E-009  0.2111773E+03  0.7561462E-02  0.1140637E+00
         -2   -1    0    0    0  501 -0.00000000000E+00  0.00000000000E+00  0.11040189565E+03  0.11040189565E+03  0.00000000000E+00 0. -1.
          2   -1    0    0  501    0  0.00000000000E+00 -0.00000000000E+00 -0.44676278343E+03  0.44676278343E+03  0.00000000000E+00 0.  1.
         25    2    1    2    0    0  0.14210450122E+03  0.13131427498E+03 -0.18035310381E+03  0.29259571385E+03  0.12509149302E+03 0.  0.
          5    1    3    3  502    0  0.54702689352E+02  0.12984158838E+03 -0.12930541144E+03  0.19128142650E+03  0.41800000000E+01 0.  1.
         -5    1    3    3    0  502  0.87401811872E+02  0.14726865980E+01 -0.51047692366E+02  0.10131428735E+03  0.41800000000E+01 0.  1.
        -11    1    1    2    0    0 -0.68167336712E+02 -0.71436434937E+02 -0.13479301121E+03  0.16709011312E+03  0.00000000000E+00 0.  1.
         11    1    1    2    0    0 -0.73937164512E+02 -0.59877840046E+02 -0.21214772758E+02  0.97478852106E+02  0.00000000000E+00 0. -1.
</event>
<event>
 7    1  0.2723366E-009  0.1805818E+03  0.7561462E-02  0.1167241E+00
          1   -1    0    0  501    0  0.00000000000E+00  0.00000000000E+00  0.11618184457E+03  0.11618184457E+03  0.00000000000E+00 0. -1.
         -1   -1    0    0    0  501 -0.00000000000E+00 -0.00000000000E+00 -0.29497246936E+03  0.29497246936E+03  0.00000000000E+00 0.  1.
         25    2    1    2    0    0 -0.14515827360E+03 -0.85160574751E+01 -0.55908269889E+02  0.19979041342E+03  0.12508807707E+03 0.  0.
          5    1    3    3  502    0  0.22231697936E+02  0.16255794847E+01 -0.14788533111E+02  0.27075154909E+02  0.41800000000E+01 0.  1.
         -5    1    3    3    0  502 -0.16738997153E+03 -0.10141636960E+02 -0.41119736778E+02  0.17271525851E+03  0.41800000000E+01 0.  1.
        -11    1    1    2    0    0  0.26643395320E+02  0.40044434435E+02 -0.23596269778E+02  0.53574351987E+02  0.00000000000E+00 0.  1.
         11    1    1    2    0    0  0.11851487828E+03 -0.31528376960E+02 -0.99286085121E+02  0.15778954853E+03  0.00000000000E+00 0. -1.
</event>
<event>
 7    1  0.2723366E-009  0.2013997E+03  0.7561462E-02  0.1148563E+00
          2   -1    0    0  501    0  0.00000000000E+00  0.00000000000E+00  0.83191540850E+02  0.83191540850E+02  0.00000000000E+00 0. -1.
         -2   -1    0    0    0  501 -0.00000000000E+00 -0.00000000000E+00 -0.59387993486E+03  0.59387993486E+03  0.00000000000E+00 0.  1.
         25    2    1    2    0    0 -0.17545823268E+03 -0.80770004079E+02 -0.29133982086E+03  0.37126320713E+03  0.12509233700E+03 0.  0.
          5    1    3    3  502    0 -0.45858808810E+02 -0.23158211024E+02 -0.51127147527E+01  0.51797155669E+02  0.41800000000E+01 0. -1.
         -5    1    3    3    0  502 -0.12959942387E+03 -0.57611793055E+02 -0.28622710610E+03  0.31946605146E+03  0.41800000000E+01 0. -1.
        -11    1    1    2    0    0  0.41485230099E+02  0.61252017222E+02 -0.10585235654E+03  0.12914160954E+03  0.00000000000E+00 0. -1.
         11    1    1    2    0    0  0.13397300258E+03  0.19517986857E+02 -0.11349621662E+03  0.17666665904E+03  0.00000000000E+00 0.  1.
</event>
<event>
 7    1  0.2723366E-009  0.8558358E+02  0.7561462E-02  0.1313913E+00
          3   -1    0    0  501    0  0.00000000000E+00  0.00000000000E+00  0.24377314085E+03  0.24377314085E+03  0.00000000000E+00 0. -1.
         -3   -1    0    0    0  501 -0.00000000000E+00 -0.00000000000E+00 -0.63036311682E+02  0.63036311682E+02  0.00000000000E+00 0.  1.
         25    2    1    2    0    0 -0.46826840429E+01 -0.60297978876E+01  0.25868245671E+02  0.12796999760E+03  0.12509543621E+03 0.  0.
          5    1    3    3  502    0  0.43120242114E+02  0.48431534754E+01  0.55470392186E+02  0.70549615342E+02  0.41800000000E+01 0.  1.
         -5    1    3    3    0  502 -0.47802926157E+02 -0.10872951363E+02 -0.29602146516E+02  0.57420382259E+02  0.41800000000E+01 0.  1.
        -11    1    1    2    0    0 -0.36354045357E+02  0.82427813945E+01  0.31492953225E+02  0.48799243455E+02  0.00000000000E+00 0.  1.
         11    1    1    2    0    0  0.41036729400E+02 -0.22129835068E+01  0.12337563027E+03  0.13004021147E+03  0.00000000000E+00 0. -1.
</event>
<event>
 7    1  0.2723366E-009  0.9717458E+02  0.7561462E-02  0.1286352E+00
          2   -1    0    0  501    0  0.00000000000E+00  0.00000000000E+00  0.36734847554E+03  0.36734847554E+03  0.00000000000E+00 0. -1.
         -2   -1    0    0    0  501 -0.00000000000E+00 -0.00000000000E+00 -0.47510161973E+02  0.47510161973E+02  0.00000000000E+00 0.  1.
         25    2    1    2    0    0 -0.68062883558E+02  0.29473974049E+02  0.18388781967E+03  0.23444491592E+03  0.12509363338E+03 0.  0.
          5    1    3    3  502    0 -0.39553010972E+02 -0.29480109202E+02  0.15506192613E+03  0.16277343410E+03  0.41800000000E+01 0.  1.
         -5    1    3    3    0  502 -0.28509872587E+02  0.58954083250E+02  0.28825893544E+02  0.71671481814E+02  0.41800000000E+01 0.  1.
        -11    1    1    2    0    0  0.94591886751E+01  0.55336494841E+01 -0.12738262435E+02  0.16803596546E+02  0.00000000000E+00 0.  1.
         11    1    1    2    0    0  0.58603694883E+02 -0.35007623533E+02  0.14868875634E+03  0.16361012505E+03  0.00000000000E+00 0. -1.
</event>
<event>
 7    1  0.2723366E-009  0.1028216E+03  0.7561462E-02  0.1274472E+00
          2   -1    0    0  501    0  0.00000000000E+00  0.00000000000E+00  0.63931763199E+02  0.63931763199E+02  0.00000000000E+00 0. -1.
         -2   -1    0    0    0  501 -0.00000000000E+00 -0.00000000000E+00 -0.28517178178E+03  0.28517178178E+03  0.00000000000E+00 0.  1.
         25    2    1    2    0    0 -0.48339978835E+02 -0.63237263237E+01 -0.20880730964E+03  0.24824281402E+03  0.12508900464E+03 0.  0.
          5    1    3    3  502    0  0.34982068367E+02 -0.15628967735E+02 -0.24368156061E+02  0.45599223343E+02  0.41800000000E+01 0.  1.
         -5    1    3    3    0  502 -0.83322047202E+02  0.93052414109E+01 -0.18443915358E+03  0.20264359067E+03  0.41800000000E+01 0.  1.
        -11    1    1    2    0    0  0.31545971556E+02 -0.29752699447E+02  0.21648933722E+02  0.48466976149E+02  0.00000000000E+00 0. -1.
         11    1    1    2    0    0  0.16794007279E+02  0.36076425770E+02 -0.34081642657E+02  0.52393754810E+02  0.00000000000E+00 0.  1.
</event>
<event>
 7    1  0.2723366E-009  0.1023177E+03  0.7561462E-02  0.1275496E+00
         -3   -1    0    0    0  501 -0.00000000000E+00  0.00000000000E+00  0.72764580168E+02  0.72764580168E+02  0.00000000000E+00 0.  1.
          3   -1    0    0  501    0  0.00000000000E+00 -0.00000000000E+00 -0.21969978182E+03  0.21969978182E+03  0.00000000000E+00 0. -1.
         25    2    1    2    0    0 -0.48618269852E+02  0.23240252795E+02 -0.38237215168E+02  0.14146908325E+03  0.12509025293E+03 0.  0.
          5    1    3    3  502    0 -0.45892476423E+02 -0.25743439950E+02 -0.66338661553E+02  0.84776969216E+02  0.41800000000E+01 0.  1.
         -5    1    3    3    0  502 -0.27257934288E+01  0.48983692745E+02  0.28101446385E+02  0.56692114035E+02  0.41800000000E+01 0.  1.
        -11    1    1    2    0    0 -0.48864212880E+01 -0.44698876406E+02 -0.32657606441E+02  0.55573248271E+02  0.00000000000E+00 0.  1.
         11    1    1    2    0    0  0.53504691140E+02  0.21458623611E+02 -0.76040380041E+02  0.95422030464E+02  0.00000000000E+00 0. -1.
</event>
<event>
 7    1  0.2723366E-009  0.1102867E+03  0.7561462E-02  0.1260040E+00
          1   -1    0    0  501    0  0.00000000000E+00  0.00000000000E+00  0.16068065892E+04  0.16068065892E+04  0.00000000000E+00 0. -1.
         -1   -1    0    0    0  501 -0.00000000000E+00 -0.00000000000E+00 -0.21969557577E+02  0.21969557577E+02  0.00000000000E+00 0.  1.
         25    2    1    2    0    0  0.23661308771E+02 -0.49443215919E+02  0.14017480635E+04  0.14083853823E+04  0.12508901819E+03 0.  0.
          5    1    3    3  502    0 -0.31362109141E+02 -0.30536535660E+02  0.18174752758E+03  0.18699117113E+03  0.41800000000E+01 0.  1.
         -5    1    3    3    0  502  0.55023417912E+02 -0.18906680259E+02  0.12200005359E+04  0.12213942112E+04  0.41800000000E+01 0.  1.
        -11    1    1    2    0    0  0.39639595473E+02  0.36022885288E+02  0.54367397337E+02  0.76320113253E+02  0.00000000000E+00 0. -1.
         11    1    1    2    0    0 -0.63300904245E+02  0.13420330631E+02  0.12872157077E+03  0.14407065119E+03  0.00000000000E+00 0.  1.
</event>
<event>
 7    1  0.2723366E-009  0.1394512E+03  0.7561462E-02  0.1214069E+00
          2   -1    0    0  501    0  0.00000000000E+00  0.00000000000E+00  0.10603944786E+04  0.10603944786E+04  0.00000000000E+00 0. -1.
         -2   -1    0    0    0  501 -0.00000000000E+00 -0.00000000000E+00 -0.20151015068E+02  0.20151015068E+02  0.00000000000E+00 0.  1.
         25    2    1    2    0    0 -0.72800438108E+02  0.59799298859E+02  0.65166624635E+03  0.67021848190E+03  0.12509219366E+03 0.  0.
          5    1    3    3  502    0 -0.84915063498E+02 -0.99908471271E+01  0.36395060722E+03  0.37388220329E+03  0.41800000000E+01 0. -1.
         -5    1    3    3    0  502  0.12114625390E+02  0.69790145986E+02  0.28771563913E+03  0.29633627861E+03  0.41800000000E+01 0. -1.
        -11    1    1    2    0    0  0.64412035739E+02 -0.78679458396E+02  0.36537362980E+03  0.37925882570E+03  0.00000000000E+00 0. -1.
         11    1    1    2    0    0  0.83884023690E+01  0.18880159537E+02  0.23203587421E+02  0.31068186102E+02  0.00000000000E+00 0.  1.
</event>
<event>
 7    1  0.2723366E-009  0.9832776E+02  0.7561462E-02  0.1283852E+00
         -2   -1    0    0    0  501 -0.00000000000E+00  0.00000000000E+00  0.40334221294E+02  0.40334221294E+02  0.00000000000E+00 0.  1.
          2   -1    0    0  501    0  0.00000000000E+00 -0.00000000000E+00 -0.41457811349E+03  0.41457811349E+03  0.00000000000E+00 0. -1.
         25    2    1    2    0    0 -0.61671227248E+02 -0.53263455732E+01 -0.26835350031E+03  0.30247840252E+03  0.12509145708E+03 0.  0.
          5    1    3    3  502    0  0.13875719484E+02 -0.35135914387E+02 -0.24006535622E+02  0.44953912217E+02  0.41800000000E+01 0. -1.
         -5    1    3    3    0  502 -0.75546946733E+02  0.29809568814E+02 -0.24434696468E+03  0.25752449030E+03  0.41800000000E+01 0. -1.
        -11    1    1    2    0    0  0.20540251979E+02 -0.20288270129E+02  0.68931553243E+01  0.29682173885E+02  0.00000000000E+00 0.  1.
         11    1    1    2    0    0  0.41130975269E+02  0.25614615702E+02 -0.11278354721E+03  0.12275175838E+03  0.00000000000E+00 0. -1.
</event>
<event>
 7    1  0.2723366E-009  0.1593214E+03  0.7561462E-02  0.1189465E+00
         -4   -1    0    0    0  501 -0.00000000000E+00  0.00000000000E+00  0.10201363375E+04  0.10201363375E+04  0.00000000000E+00 0.  1.
          4   -1    0    0  501    0  0.00000000000E+00 -0.00000000000E+00 -0.27520047445E+02  0.27520047445E+02  0.00000000000E+00 0. -1.
         25    2    1    2    0    0  0.18066774115E+02  0.12509639553E+03  0.46992987414E+03  0.50245186280E+03  0.12509305068E+03 0.  0.
          5    1    3    3  502    0 -0.52571429121E+02  0.40051217545E+02  0.15116845265E+03  0.16503705239E+03  0.41800000000E+01 0.  1.
         -5    1    3    3    0  502  0.70638203236E+02  0.85045177982E+02  0.31876142149E+03  0.33741481041E+03  0.41800000000E+01 0.  1.
        -11    1    1    2    0    0 -0.38409108938E+02 -0.45073694896E+02  0.33449641733E+03  0.33969802888E+03  0.00000000000E+00 0.  1.
         11    1    1    2    0    0  0.20342334823E+02 -0.80022700630E+02  0.18818999857E+03  0.20550649324E+03  0.00000000000E+00 0. -1.
</event>
<event>
 7    1  0.2723366E-009  0.9234445E+02  0.7561462E-02  0.1297272E+00
         -2   -1    0    0    0  501 -0.00000000000E+00  0.00000000000E+00  0.21237941176E+03  0.21237941176E+03  0.00000000000E+00 0.  1.
          2   -1    0    0  501    0  0.00000000000E+00 -0.00000000000E+00 -0.84052178163E+02  0.84052178163E+02  0.00000000000E+00 0. -1.
         25    2    1    2    0    0 -0.49920408475E+02 -0.59481619021E+02  0.56837799609E+02  0.15782188554E+03  0.12508837639E+03 0.  0.
          5    1    3    3  502    0 -0.15188252528E+02 -0.63336904691E+02  0.88850608747E+02  0.11024585972E+03  0.41800000000E+01 0. -1.
         -5    1    3    3    0  502 -0.34732155947E+02  0.38552856698E+01 -0.32012809138E+02  0.47576025824E+02  0.41800000000E+01 0. -1.
        -11    1    1    2    0    0  0.15442474371E+02  0.43626570797E+02  0.86257824390E+02  0.97888507817E+02  0.00000000000E+00 0.  1.
         11    1    1    2    0    0  0.34477934104E+02  0.15855048224E+02 -0.14768390402E+02  0.40721196561E+02  0.00000000000E+00 0. -1.
</event>
<event>
 7    1  0.2723366E-009  0.1209555E+03  0.7561462E-02  0.1241529E+00
          2   -1    0    0  501    0  0.00000000000E+00  0.00000000000E+00  0.10512353464E+03  0.10512353464E+03  0.00000000000E+00 0. -1.
         -2   -1    0    0    0  501 -0.00000000000E+00 -0.00000000000E+00 -0.22267740058E+03  0.22267740058E+03  0.00000000000E+00 0.  1.
         25    2    1    2    0    0  0.31314923877E+02  0.93368592307E+02 -0.17870946913E+02  0.16020212713E+03  0.12508809818E+03 0.  0.
          5    1    3    3  502    0 -0.25190026495E+02  0.12831754765E+02  0.37564948600E+02  0.47199461104E+02  0.41800000000E+01 0. -1.
         -5    1    3    3    0  502  0.56504950371E+02  0.80536837542E+02 -0.55435895513E+02  0.11300266603E+03  0.41800000000E+01 0. -1.
        -11    1    1    2    0    0  0.16011273282E+02 -0.42340337065E+02 -0.85248502735E+02  0.96521356360E+02  0.00000000000E+00 0.  1.
         11    1    1    2    0    0 -0.47326197159E+02 -0.51028255242E+02 -0.14434416294E+02  0.71077451730E+02  0.00000000000E+00 0. -1.
</event>
<event>
 7    1  0.2723366E-009  0.9214644E+02  0.7561462E-02  0.1297735E+00
         -2   -1    0    0    0  501 -0.00000000000E+00  0.00000000000E+00  0.23354518115E+02  0.23354518115E+02  0.00000000000E+00 0.  1.
          2   -1    0    0  501    0  0.00000000000E+00 -0.00000000000E+00 -0.72181114025E+03  0.72181114025E+03  0.00000000000E+00 0. -1.
         25    2    1    2    0    0  0.44990276357E+02 -0.46194738282E+02 -0.30853851423E+03  0.33911897095E+03  0.12509029891E+03 0.  0.
          5    1    3    3  502    0 -0.52201938967E+01  0.45688080008E+01 -0.23974456906E+03  0.23988133572E+03  0.41800000000E+01 0. -1.
         -5    1    3    3    0  502  0.50210470254E+02 -0.50763546283E+02 -0.68793945168E+02  0.99237635231E+02  0.41800000000E+01 0. -1.
        -11    1    1    2    0    0 -0.66330852750E+01 -0.23880564245E+02 -0.39452694943E+02  0.46591783688E+02  0.00000000000E+00 0.  1.
         11    1    1    2    0    0 -0.38357191082E+02  0.70075302528E+02 -0.35046541296E+03  0.35945490373E+03  0.00000000000E+00 0. -1.
</event>
<event>
 7    1  0.2723366E-009  0.1132875E+03  0.7561462E-02  0.1254600E+00
         -2   -1    0    0    0  501 -0.00000000000E+00  0.00000000000E+00  0.93449350857E+02  0.93449350857E+02  0.00000000000E+00 0.  1.
          2   -1    0    0  501    0  0.00000000000E+00 -0.00000000000E+00 -0.15668082538E+03  0.15668082538E+03  0.00000000000E+00 0. -1.
         25    2    1    2    0    0 -0.32061119630E+02  0.25309884677E+02 -0.55113463742E-02  0.13158580548E+03  0.12508524501E+03 0.  0.
          5    1    3    3  502    0 -0.16767255620E+02 -0.48575891515E+02  0.16696892358E+02  0.54194249804E+02  0.41800000000E+01 0.  1.
         -5    1    3    3    0  502 -0.15293864010E+02  0.73885776192E+02 -0.16702403704E+02  0.77391555672E+02  0.41800000000E+01 0.  1.
        -11    1    1    2    0    0 -0.18621198232E+02  0.22889552481E+02 -0.25920410318E+02  0.39275288764E+02  0.00000000000E+00 0.  1.
         11    1    1    2    0    0  0.50682317862E+02 -0.48199437158E+02 -0.37305552856E+02  0.79269081994E+02  0.00000000000E+00 0. -1.
</event>
<event>
 7    1  0.2723366E-009  0.1468659E+03  0.7561462E-02  0.1204378E+00
         -4   -1    0    0    0  501 -0.00000000000E+00  0.00000000000E+00  0.55890741152E+02  0.55890741152E+02  0.00000000000E+00 0.  1.
          4   -1    0    0  501    0  0.00000000000E+00 -0.00000000000E+00 -0.56419701489E+03  0.56419701489E+03  0.00000000000E+00 0. -1.
         25    2    1    2    0    0  0.12992774605E+03  0.55846089741E+02 -0.28404705642E+03  0.34107152318E+03  0.12508816383E+03 0.  0.
          5    1    3    3  502    0  0.64133862987E+02  0.50973541759E+02 -0.46066453601E+02  0.94079991966E+02  0.41800000000E+01 0.  1.
         -5    1    3    3    0  502  0.65793883064E+02  0.48725479819E+01 -0.23798060282E+03  0.24699153121E+03  0.41800000000E+01 0.  1.
        -11    1    1    2    0    0 -0.11144475454E+03 -0.33038688060E+02 -0.10649210910E+03  0.15764535364E+03  0.00000000000E+00 0.  1.
         11    1    1    2    0    0 -0.18482991513E+02 -0.22807401680E+02 -0.11776710821E+03  0.12137087922E+03  0.00000000000E+00 0. -1.
</event>
<event>
 7    1  0.2723366E-009  0.9630563E+02  0.7561462E-02  0.1288262E+00
         -2   -1    0    0    0  501 -0.00000000000E+00  0.00000000000E+00  0.33804364002E+02  0.33804364002E+02  0.00000000000E+00 0.  1.
          2   -1    0    0  501    0  0.00000000000E+00 -0.00000000000E+00 -0.42756140227E+03  0.42756140227E+03  0.00000000000E+00 0. -1.
         25    2    1    2    0    0 -0.31599641771E+01  0.50255563981E+02 -0.25200856271E+03  0.28581747785E+03  0.12509079854E+03 0.  0.
          5    1    3    3  502    0 -0.43361212086E+02  0.13170349067E+02 -0.24291480337E+02  0.51586831896E+02  0.41800000000E+01 0. -1.
         -5    1    3    3    0  502  0.40201247909E+02  0.37085214914E+02 -0.22771708238E+03  0.23423064595E+03  0.41800000000E+01 0. -1.
        -11    1    1    2    0    0 -0.26546439702E+02 -0.56016242422E+02 -0.12818738675E+03  0.14238868986E+03  0.00000000000E+00 0. -1.
         11    1    1    2    0    0  0.29706403879E+02  0.57606784407E+01 -0.13561088800E+02  0.33159598564E+02  0.00000000000E+00 0.  1.
</event>
<event>
 7    1  0.2723366E-009  0.1135364E+03  0.7561462E-02  0.1254158E+00
         -2   -1    0    0    0  501 -0.00000000000E+00  0.00000000000E+00  0.74108743087E+02  0.74108743087E+02  0.00000000000E+00 0.  1.
          2   -1    0    0  501    0  0.00000000000E+00 -0.00000000000E+00 -0.28836765081E+03  0.28836765081E+03  0.00000000000E+00 0. -1.
         25    2    1    2    0    0 -0.63796869518E+02  0.15116152186E+02 -0.26575247966E+02  0.14371064128E+03  0.12509183025E+03 0.  0.
          5    1    3    3  502    0 -0.80138039946E+02 -0.31960429692E+02  0.14428479224E+01  0.86389401680E+02  0.41800000000E+01 0.  1.
         -5    1    3    3    0  502  0.16341170428E+02  0.47076581879E+02 -0.28018095889E+02  0.57321239603E+02  0.41800000000E+01 0.  1.
        -11    1    1    2    0    0 -0.12773097591E+02 -0.34855249907E+01  0.24486857517E+01  0.13464656269E+02  0.00000000000E+00 0.  1.
         11    1    1    2    0    0  0.76569967109E+02 -0.11630627195E+02 -0.19013234551E+03  0.20530109635E+03  0.00000000000E+00 0. -1.
</event>
<event>
 7    1  0.2723366E-009  0.1059862E+03  0.7561462E-02  0.1268189E+00
          1   -1    0    0  501    0  0.00000000000E+00  0.00000000000E+00  0.59066583939E+03  0.59066583939E+03  0.00000000000E+00 0. -1.
         -1   -1    0    0    0  501 -0.00000000000E+00 -0.00000000000E+00 -0.36260243916E+02  0.36260243916E+02  0.00000000000E+00 0.  1.
         25    2    1    2    0    0 -0.55437896633E+02  0.39891906723E+02  0.15731143118E+03  0.21227154424E+03  0.12509035738E+03 0.  0.
          5    1    3    3  502    0 -0.24726461957E+02 -0.23062986492E+02  0.13410117145E+03  0.13836146809E+03  0.41800000000E+01 0.  1.
         -5    1    3    3    0  502 -0.30711434676E+02  0.62954893215E+02  0.23210259722E+02  0.73910076147E+02  0.41800000000E+01 0.  1.
        -11    1    1    2    0    0  0.82690353594E+00 -0.51825105333E+02  0.10312619103E+03  0.11541896113E+03  0.00000000000E+00 0.  1.
         11    1    1    2    0    0  0.54610993097E+02  0.11933198610E+02  0.29396797327E+03  0.29923557794E+03  0.00000000000E+00 0. -1.
</event>
<event>
 7    1  0.2723366E-009  0.1447476E+03  0.7561462E-02  0.1207080E+00
          2   -1    0    0  501    0  0.00000000000E+00  0.00000000000E+00  0.79890643006E+03  0.79890643006E+03  0.00000000000E+00 0. -1.
         -2   -1    0    0    0  501 -0.00000000000E+00 -0.00000000000E+00 -0.34715966768E+02  0.34715966768E+02  0.00000000000E+00 0.  1.
         25    2    1    2    0    0  0.12414828766E+03 -0.79926858860E+01  0.47374907217E+03  0.50553101229E+03  0.12508693237E+03 0.  0.
          5    1    3    3  502    0 -0.34329353669E+01  0.81361447085E+01 -0.41498679047E+01  0.10614881044E+02  0.41800000000E+01 0.  1.
         -5    1    3    3    0  502  0.12758122303E+03 -0.16128830594E+02  0.47789894007E+03  0.49491613124E+03  0.41800000000E+01 0.  1.
        -11    1    1    2    0    0 -0.76441292399E+02  0.46741828828E+02  0.19459568540E+03  0.21423246841E+03  0.00000000000E+00 0. -1.
         11    1    1    2    0    0 -0.47706995261E+02 -0.38749142942E+02  0.95845705728E+02  0.11385891613E+03  0.00000000000E+00 0.  1.
</event>
<event>
 7    1  0.2723366E-009  0.1333319E+03  0.7561462E-02  0.1222594E+00
          1   -1    0    0  501    0  0.00000000000E+00  0.00000000000E+00  0.39003102628E+03  0.39003102628E+03  0.00000000000E+00 0. -1.
         -1   -1    0    0    0  501 -0.00000000000E+00 -0.00000000000E+00 -0.61373585605E+02  0.61373585605E+02  0.00000000000E+00 0.  1.
         25    2    1    2    0    0 -0.88965224075E+02 -0.42727596106E+02  0.95337168855E+02  0.18568091914E+03  0.12509104446E+03 0.  0.
          5    1    3    3  502    0 -0.28072443758E+02 -0.77792563261E+02  0.25799509397E+02  0.86734261295E+02  0.41800000000E+01 0. -1.
         -5    1    3    3    0  502 -0.60892780318E+02  0.35064967155E+02  0.69537659458E+02  0.98946657848E+02  0.41800000000E+01 0. -1.
        -11    1    1    2    0    0  0.19625832016E+02  0.39432420245E+02  0.15467503113E+03  0.16082429638E+03  0.00000000000E+00 0. -1.
         11    1    1    2    0    0  0.69339392059E+02  0.32951758608E+01  0.78645240684E+02  0.10489939636E+03  0.00000000000E+00 0.  1.
</event>
<event>
 7    1  0.2723366E-009  0.2195087E+03  0.7561462E-02  0.1134250E+00
          1   -1    0    0  501    0  0.00000000000E+00  0.00000000000E+00  0.29233094836E+03  0.29233094836E+03  0.00000000000E+00 0. -1.
         -1   -1    0    0    0  501 -0.00000000000E+00 -0.00000000000E+00 -0.16656636117E+03  0.16656636117E+03  0.00000000000E+00 0.  1.
         25    2    1    2    0    0  0.74976221286E+02 -0.17709009842E+03  0.64987240832E+02  0.23843822200E+03  0.12508839885E+03 0.  0.
          5    1    3    3  502    0  0.94311952173E+02 -0.18509563865E+03  0.62359488085E+02  0.21693620703E+03  0.41800000000E+01 0. -1.
         -5    1    3    3    0  502 -0.19335730886E+02  0.80055402284E+01  0.26277527472E+01  0.21502014970E+02  0.41800000000E+01 0. -1.
        -11    1    1    2    0    0 -0.44131533064E+02  0.17328683157E+03  0.62256330583E+02  0.18934563344E+03  0.00000000000E+00 0. -1.
         11    1    1    2    0    0 -0.30844688223E+02  0.38032668477E+01 -0.14789842216E+01  0.31113454077E+02  0.00000000000E+00 0.  1.
</event>
<event>
 7    1  0.2723366E-009  0.2093223E+03  0.7561462E-02  0.1142104E+00
          1   -1    0    0  501    0  0.00000000000E+00  0.00000000000E+00  0.10436370744E+04  0.10436370744E+04  0.00000000000E+00 0. -1.
         -1   -1    0    0    0  501 -0.00000000000E+00 -0.00000000000E+00 -0.56215583115E+02  0.56215583115E+02  0.00000000000E+00 0.  1.
         25    2    1    2    0    0 -0.11296670831E+03  0.15966695658E+03  0.31377040355E+03  0.39032634314E+03  0.12509106201E+03 0.  0.
          5    1    3    3  502    0 -0.78108420257E+02  0.27511431933E+02  0.18396034068E+03  0.20178375441E+03  0.41800000000E+01 0. -1.
         -5    1    3    3    0  502 -0.34858288053E+02  0.13215552465E+03  0.12981006287E+03  0.18854258873E+03  0.41800000000E+01 0. -1.
        -11    1    1    2    0    0  0.77769359336E+02 -0.13570110220E+03  0.62764106495E+03  0.64683550367E+03  0.00000000000E+00 0. -1.
         11    1    1    2    0    0  0.35197348973E+02 -0.23965854379E+02  0.46010022783E+02  0.62690810709E+02  0.00000000000E+00 0.  1.
</event>
<event>
 7    1  0.2723366E-009  0.9422375E+02  0.7561462E-02  0.1292934E+00
         -1   -1    0    0    0  501 -0.00000000000E+00  0.00000000000E+00  0.62143550337E+02  0.62143550337E+02  0.00000000000E+00 0.  1.
          1   -1    0    0  501    0  0.00000000000E+00 -0.00000000000E+00 -0.27694626804E+03  0.27694626804E+03  0.00000000000E+00 0. -1.
         25    2    1    2    0    0  0.38895269422E+02  0.74169892180E+01 -0.19697466298E+03  0.23667757485E+03  0.12509757340E+03 0.  0.
          5    1    3    3  502    0 -0.37788910376E+02 -0.17818274180E+02 -0.11095904858E+03  0.11863758048E+03  0.41800000000E+01 0. -1.
         -5    1    3    3    0  502  0.76684179798E+02  0.25235263398E+02 -0.86015614399E+02  0.11803999437E+03  0.41800000000E+01 0. -1.
        -11    1    1    2    0    0 -0.53920736305E+01 -0.26515050433E+02  0.30376517519E+02  0.40679911186E+02  0.00000000000E+00 0.  1.
         11    1    1    2    0    0 -0.33503195792E+02  0.19098061215E+02 -0.48204572250E+02  0.61732332341E+02  0.00000000000E+00 0. -1.
</event>
<event>
 7    1  0.2723366E-009  0.1227290E+03  0.7561462E-02  0.1238662E+00
          1   -1    0    0  501    0  0.00000000000E+00  0.00000000000E+00  0.29870328788E+03  0.29870328788E+03  0.00000000000E+00 0. -1.
         -1   -1    0    0    0  501 -0.00000000000E+00 -0.00000000000E+00 -0.60750899918E+02  0.60750899918E+02  0.00000000000E+00 0.  1.
         25    2    1    2    0    0 -0.85417660731E+01 -0.78570257568E+02  0.14851970166E+03  0.20964814532E+03  0.12509194984E+03 0.  0.
          5    1    3    3  502    0 -0.49161662130E+02 -0.17652718023E+02  0.10630496135E+02  0.53469311994E+02  0.41800000000E+01 0.  1.
         -5    1    3    3    0  502  0.40619896057E+02 -0.60917539545E+02  0.13788920552E+03  0.15617883333E+03  0.41800000000E+01 0.  1.
        -11    1    1    2    0    0 -0.39273527034E+02  0.19887200775E+02  0.26638538906E+02  0.51454080843E+02  0.00000000000E+00 0.  1.
         11    1    1    2    0    0  0.47815293107E+02  0.58683056793E+02  0.62794147397E+02  0.98351961631E+02  0.00000000000E+00 0. -1.
</event>
<event>
 7    1  0.2723366E-009  0.1069996E+03  0.7561462E-02  0.1266229E+00
         -2   -1    0    0    0  501 -0.00000000000E+00  0.00000000000E+00  0.32377322444E+02  0.32377322444E+02  0.00000000000E+00 0. -1.
          2   -1    0    0  501    0  0.00000000000E+00 -0.00000000000E+00 -0.46656495648E+03  0.46656495648E+03  0.00000000000E+00 0.  1.
         25    2    1    2    0    0  0.26860354345E+02  0.38713635145E+02 -0.33629072946E+03  0.36188226532E+03  0.12508834897E+03 0.  0.
          5    1    3    3  502    0  0.76979159127E+02  0.23076140376E+02 -0.18725722346E+03  0.20381619007E+03  0.41800000000E+01 0. -1.
         -5    1    3    3    0  502 -0.50118804781E+02  0.15637494769E+02 -0.14903350600E+03  0.15806607525E+03  0.41800000000E+01 0. -1.
        -11    1    1    2    0    0 -0.39855542515E+02 -0.49794896991E+02 -0.10124159710E+03  0.11965724809E+03  0.00000000000E+00 0.  1.
         11    1    1    2    0    0  0.12995188170E+02  0.11081261846E+02  0.33446925262E+01  0.17402765520E+02  0.00000000000E+00 0. -1.
</event>
<event>
 7    1  0.2723366E-009  0.2159701E+03  0.7561462E-02  0.1136924E+00
          2   -1    0    0  501    0  0.00000000000E+00  0.00000000000E+00  0.62136892397E+02  0.62136892397E+02  0.00000000000E+00 0. -1.
         -2   -1    0    0    0  501 -0.00000000000E+00 -0.00000000000E+00 -0.86433571752E+03  0.86433571752E+03  0.00000000000E+00 0.  1.
         25    2    1    2    0    0  0.65123866930E+00 -0.20157223766E+03 -0.36199874643E+03  0.43280597813E+03  0.12508449614E+03 0.  0.
          5    1    3    3  502    0  0.39237596400E+02 -0.18283692635E+03 -0.32927408420E+03  0.37869225703E+03  0.41800000000E+01 0.  1.
         -5    1    3    3    0  502 -0.38586357730E+02 -0.18735311312E+02 -0.32724662237E+02  0.54113721101E+02  0.41800000000E+01 0.  1.
        -11    1    1    2    0    0  0.42700445230E+01  0.68392519470E+02 -0.61049671027E+02  0.91775989955E+02  0.00000000000E+00 0.  1.
         11    1    1    2    0    0 -0.49212831923E+01  0.13317971819E+03 -0.37915040766E+03  0.40189064184E+03  0.00000000000E+00 0. -1.
</event>
<event>
 7    1  0.2723366E-009  0.1128921E+03  0.7561462E-02  0.1255306E+00
          2   -1    0    0  501    0  0.00000000000E+00  0.00000000000E+00  0.43257677497E+02  0.43257677497E+02  0.00000000000E+00 0.  1.
         -2   -1    0    0    0  501 -0.00000000000E+00 -0.00000000000E+00 -0.47399695609E+03  0.47399695609E+03  0.00000000000E+00 0. -1.
         25    2    1    2    0    0  0.52071872591E+02 -0.31819571402E+02 -0.10892690173E+03  0.17673798880E+03  0.12508909516E+03 0.  0.
          5    1    3    3  502    0  0.84116256586E+02 -0.52415646216E+02 -0.65762662679E+02  0.11901741382E+03  0.41800000000E+01 0.  1.
         -5    1    3    3    0  502 -0.32044383995E+02  0.20596074814E+02 -0.43164239049E+02  0.57720574981E+02  0.41800000000E+01 0.  1.
        -11    1    1    2    0    0  0.11481347205E+02 -0.73286826313E+01 -0.42040149243E+01  0.14254987346E+02  0.00000000000E+00 0.  1.
         11    1    1    2    0    0 -0.63553219796E+02  0.39148254034E+02 -0.31760836194E+03  0.32626165744E+03  0.00000000000E+00 0. -1.
</event>
<event>
 7    1  0.2723366E-009  0.1532451E+03  0.7561462E-02  0.1196541E+00
          2   -1    0    0  501    0  0.00000000000E+00  0.00000000000E+00  0.28742749742E+03  0.28742749742E+03  0.00000000000E+00 0. -1.
         -2   -1    0    0    0  501 -0.00000000000E+00 -0.00000000000E+00 -0.24638314012E+03  0.24638314012E+03  0.00000000000E+00 0.  1.
         25    2    1    2    0    0 -0.11410148283E+03 -0.44485834657E+02 -0.18960867456E+03  0.25806364614E+03  0.12508900080E+03 0.  0.
          5    1    3    3  502    0 -0.73442839984E+02  0.26392877822E+02 -0.40600165677E+02  0.88069748482E+02  0.41800000000E+01 0.  1.
         -5    1    3    3    0  502 -0.40658642848E+02 -0.70878712479E+02 -0.14900850888E+03  0.16999389765E+03  0.41800000000E+01 0.  1.
        -11    1    1    2    0    0  0.72992873985E+01 -0.20320345564E+02  0.14239385846E+02  0.25864186623E+02  0.00000000000E+00 0.  1.
         11    1    1    2    0    0  0.10680219543E+03  0.64806180221E+02  0.21641364602E+03  0.24988280478E+03  0.00000000000E+00 0. -1.
</event>
<event>
 7    1  0.2723366E-009  0.7762128E+02  0.7561462E-02  0.1335941E+00
         -2   -1    0    0    0  501 -0.00000000000E+00  0.00000000000E+00  0.45073811842E+03  0.45073811842E+03  0.00000000000E+00 0. -1.
          2   -1    0    0  501    0  0.00000000000E+00 -0.00000000000E+00 -0.35899630258E+02  0.35899630258E+02  0.00000000000E+00 0.  1.
         25    2    1    2    0    0 -0.58337939485E+02 -0.63544299048E+01  0.27429683103E+03  0.30713318810E+03  0.12509336417E+03 0.  0.
          5    1    3    3  502    0 -0.70277449283E+02 -0.13581989346E+02  0.28177683823E+03  0.29075599611E+03  0.41800000000E+01 0.  1.
         -5    1    3    3    0  502  0.11939509798E+02  0.72275594407E+01 -0.74800072048E+01  0.16377191989E+02  0.41800000000E+01 0.  1.
        -11    1    1    2    0    0  0.13907882431E+02 -0.14325773870E+02 -0.91732271285E+01  0.21972826096E+02  0.00000000000E+00 0.  1.
         11    1    1    2    0    0  0.44430057054E+02  0.20680203775E+02  0.14971488427E+03  0.15753173448E+03  0.00000000000E+00 0. -1.
</event>
<event>
 7    1  0.2723366E-009  0.1018777E+03  0.7561462E-02  0.1276396E+00
         -3   -1    0    0    0  501 -0.00000000000E+00  0.00000000000E+00  0.27493007890E+03  0.27493007890E+03  0.00000000000E+00 0.  1.
          3   -1    0    0  501    0  0.00000000000E+00 -0.00000000000E+00 -0.42072261123E+02  0.42072261123E+02  0.00000000000E+00 0. -1.
         25    2    1    2    0    0 -0.80118658418E+01 -0.58661164808E+01  0.12592598794E+03  0.17777466425E+03  0.12509146851E+03 0.  0.
          5    1    3    3  502    0  0.45426274320E+02 -0.40480805505E+02  0.70856053102E+02  0.93489543127E+02  0.41800000000E+01 0.  1.
         -5    1    3    3    0  502 -0.53438140162E+02  0.34614689024E+02  0.55069934833E+02  0.84285121123E+02  0.41800000000E+01 0.  1.
        -11    1    1    2    0    0  0.42455437713E+02  0.11670017443E+02  0.90466304626E+02  0.10061215519E+03  0.00000000000E+00 0.  1.
         11    1    1    2    0    0 -0.34443571871E+02 -0.58039009619E+01  0.16465525216E+02  0.38615520588E+02  0.00000000000E+00 0. -1.
</event>
<event>
 7    1  0.2723366E-009  0.1015147E+03  0.7561462E-02  0.1277143E+00
         -1   -1    0    0    0  501 -0.00000000000E+00  0.00000000000E+00  0.22331842641E+03  0.22331842641E+03  0.00000000000E+00 0.  1.
          1   -1    0    0  501    0  0.00000000000E+00 -0.00000000000E+00 -0.63196560216E+02  0.63196560216E+02  0.00000000000E+00 0. -1.
         25    2    1    2    0    0 -0.91207982353E+01 -0.17898776847E+02  0.37159502588E+02  0.13202895935E+03  0.12508901751E+03 0.  0.
          5    1    3    3  502    0 -0.31070551438E+02 -0.60842326989E+02 -0.38954162063E+01  0.68555193731E+02  0.41800000000E+01 0.  1.
         -5    1    3    3    0  502  0.21949753203E+02  0.42943550142E+02  0.41054918794E+02  0.63473765617E+02  0.41800000000E+01 0.  1.
        -11    1    1    2    0    0 -0.10582192221E+02 -0.31373675918E+02  0.78708046542E+02  0.85388798582E+02  0.00000000000E+00 0.  1.
         11    1    1    2    0    0  0.19702990457E+02  0.49272452765E+02  0.44254317062E+02  0.69097228693E+02  0.00000000000E+00 0. -1.
</event>
<event>
 7    1  0.2723366E-009  0.1085854E+03  0.7561462E-02  0.1263212E+00
          1   -1    0    0  501    0  0.00000000000E+00  0.00000000000E+00  0.78858704097E+03  0.78858704097E+03  0.00000000000E+00 0. -1.
         -1   -1    0    0    0  501 -0.00000000000E+00 -0.00000000000E+00 -0.16204855793E+02  0.16204855793E+02  0.00000000000E+00 0.  1.
         25    2    1    2    0    0  0.19506505789E+02 -0.95097232607E+01  0.53564103446E+03  0.55048261527E+03  0.12509537688E+03 0.  0.
          5    1    3    3  502    0  0.60671478052E+02  0.30795096692E+02  0.25466079788E+03  0.26362655520E+03  0.41800000000E+01 0.  1.
         -5    1    3    3    0  502 -0.41164972263E+02 -0.40304819953E+02  0.28098023658E+03  0.28685606008E+03  0.41800000000E+01 0.  1.
        -11    1    1    2    0    0  0.35475786630E+02  0.20351002350E+00  0.11618692934E+03  0.12148240779E+03  0.00000000000E+00 0. -1.
         11    1    1    2    0    0 -0.54982292420E+02  0.93062132372E+01  0.12055422137E+03  0.13282687369E+03  0.00000000000E+00 0.  1.
</event>
<event>
 7    1  0.2723366E-009  0.8755983E+02  0.7561462E-02  0.1308871E+00
         -2   -1    0    0    0  501 -0.00000000000E+00  0.00000000000E+00  0.79237970527E+02  0.79237970527E+02  0.00000000000E+00 0.  1.
          2   -1    0    0  501    0  0.00000000000E+00 -0.00000000000E+00 -0.20128185045E+03  0.20128185045E+03  0.00000000000E+00 0. -1.
         25    2    1    2    0    0 -0.41914418225E+02  0.28933174999E+02 -0.11248967961E+03  0.17577207966E+03  0.12509176191E+03 0.  0.
          5    1    3    3  502    0 -0.57264626954E+02  0.57515577369E+02 -0.29313539124E+02  0.86394647498E+02  0.41800000000E+01 0.  1.
         -5    1    3    3    0  502  0.15350208730E+02 -0.28582402371E+02 -0.83176140488E+02  0.89377432162E+02  0.41800000000E+01 0.  1.
        -11    1    1    2    0    0  0.40887095628E+01 -0.22378457610E+02 -0.46312302744E+02  0.51597890426E+02  0.00000000000E+00 0. -1.
         11    1    1    2    0    0  0.37825708662E+02 -0.65547173887E+01  0.36758102430E+02  0.53149850894E+02  0.00000000000E+00 0.  1.
</event>
<event>
 7    1  0.2723366E-009  0.1123989E+03  0.7561462E-02  0.1256191E+00
         -1   -1    0    0    0  501 -0.00000000000E+00  0.00000000000E+00  0.28246701838E+02  0.28246701838E+02  0.00000000000E+00 0.  1.
          1   -1    0    0  501    0  0.00000000000E+00 -0.00000000000E+00 -0.55411404401E+03  0.55411404401E+03  0.00000000000E+00 0. -1.
         25    2    1    2    0    0 -0.47501109437E+00 -0.39104928717E+02 -0.17984511573E+03  0.22253096407E+03  0.12508534379E+03 0.  0.
          5    1    3    3  502    0  0.11172273021E+02 -0.82241124334E+02 -0.92602209706E+02  0.12442292336E+03  0.41800000000E+01 0.  1.
         -5    1    3    3    0  502 -0.11647284115E+02  0.43136195617E+02 -0.87242906020E+02  0.98108040702E+02  0.41800000000E+01 0.  1.
        -11    1    1    2    0    0 -0.84198909872E+01 -0.27943278086E+02 -0.13929730271E+03  0.14232167753E+03  0.00000000000E+00 0.  1.
         11    1    1    2    0    0  0.88949020815E+01  0.67048206803E+02 -0.20672492374E+03  0.21750810424E+03  0.00000000000E+00 0. -1.
</event>
<event>
 7    1  0.2723366E-009  0.1326795E+03  0.7561462E-02  0.1223533E+00
          1   -1    0    0  501    0  0.00000000000E+00  0.00000000000E+00  0.25174457563E+03  0.25174457563E+03  0.00000000000E+00 0. -1.
         -1   -1    0    0    0  501 -0.00000000000E+00 -0.00000000000E+00 -0.84119023734E+02  0.84119023734E+02  0.00000000000E+00 0.  1.
         25    2    1    2    0    0 -0.83478670970E+02 -0.41898204931E+01  0.35053439795E+02  0.15447264705E+03  0.12508721734E+03 0.  0.
          5    1    3    3  502    0 -0.66527203328E+02 -0.60746775846E+02  0.30095077235E+02  0.95074842266E+02  0.41800000000E+01 0. -1.
         -5    1    3    3    0  502 -0.16951467643E+02  0.56556955352E+02  0.49583625597E+01  0.59397804785E+02  0.41800000000E+01 0. -1.
        -11    1    1    2    0    0  0.64430228919E+02  0.39704763104E+02  0.11443425563E+03  0.13719665256E+03  0.00000000000E+00 0. -1.
         11    1    1    2    0    0  0.19048442051E+02 -0.35514942611E+02  0.18137856469E+02  0.44194299752E+02  0.00000000000E+00 0.  1.
</event>
<event>
 7    1  0.2723366E-009  0.1859268E+03  0.7561462E-02  0.1162187E+00
         -2   -1    0    0    0  501 -0.00000000000E+00  0.00000000000E+00  0.10163118836E+04  0.10163118836E+04  0.00000000000E+00 0.  1.
          2   -1    0    0  501    0  0.00000000000E+00 -0.00000000000E+00 -0.38946228445E+02  0.38946228445E+02  0.00000000000E+00 0. -1.
         25    2    1    2    0    0  0.10899126707E+03  0.12507426561E+03  0.53227935725E+03  0.57139504492E+03  0.12509322520E+03 0.  0.
          5    1    3    3  502    0  0.52488566233E+02 -0.74599797334E+01  0.75028104593E+02  0.91964067775E+02  0.41800000000E+01 0.  1.
         -5    1    3    3    0  502  0.56502700836E+02  0.13253424534E+03  0.45725125266E+03  0.47943097715E+03  0.41800000000E+01 0.  1.
        -11    1    1    2    0    0 -0.40433434506E+01 -0.37872942080E+02  0.19776137222E+03  0.20139580112E+03  0.00000000000E+00 0.  1.
         11    1    1    2    0    0 -0.10494792362E+03 -0.87201323531E+02  0.24732492570E+03  0.28246726601E+03  0.00000000000E+00 0. -1.
</event>
<event>
 7    1  0.2723366E-009  0.1249551E+03  0.7561462E-02  0.1235140E+00
          1   -1    0    0  501    0  0.00000000000E+00  0.00000000000E+00  0.48146759006E+03  0.48146759006E+03  0.00000000000E+00 0. -1.
         -1   -1    0    0    0  501 -0.00000000000E+00 -0.00000000000E+00 -0.49086666113E+02  0.49086666113E+02  0.00000000000E+00 0.  1.
         25    2    1    2    0    0  0.84719051694E+02  0.66988772429E+02  0.21331641607E+03  0.26984172855E+03  0.12508337919E+03 0.  0.
          5    1    3    3  502    0  0.24552871984E+01  0.23408906997E+01  0.14437204335E+03  0.14447237627E+03  0.41800000000E+01 0. -1.
         -5    1    3    3    0  502  0.82263764495E+02  0.64647881729E+02  0.68944372718E+02  0.12536935228E+03  0.41800000000E+01 0. -1.
        -11    1    1    2    0    0  0.17354024226E+02 -0.22639460625E+02  0.61654491986E+02  0.67933671447E+02  0.00000000000E+00 0. -1.
         11    1    1    2    0    0 -0.10207307592E+03 -0.44349311804E+02  0.15741001589E+03  0.19277885618E+03  0.00000000000E+00 0.  1.
</event>
<event>
 7    1  0.2723366E-009  0.9299981E+02  0.7561462E-02  0.1295746E+00
          2   -1    0    0  501    0  0.00000000000E+00  0.00000000000E+00  0.12573086856E+03  0.12573086856E+03  0.00000000000E+00 0.  1.
         -2   -1    0    0    0  501 -0.00000000000E+00 -0.00000000000E+00 -0.10013235704E+03  0.10013235704E+03  0.00000000000E+00 0. -1.
         25    2    1    2    0    0  0.63458548301E+01  0.97532135985E+01 -0.13105076700E+02  0.12630986336E+03  0.12508814292E+03 0.  0.
          5    1    3    3  502    0 -0.70294578053E+01 -0.56886316610E+02 -0.40539351976E+01  0.57614000773E+02  0.41800000000E+01 0.  1.
         -5    1    3    3    0  502  0.13375312635E+02  0.66639530208E+02 -0.90511415028E+01  0.68695862590E+02  0.41800000000E+01 0.  1.
        -11    1    1    2    0    0  0.76535403188E+01  0.23305864413E+02 -0.19385454685E+02  0.31265569702E+02  0.00000000000E+00 0. -1.
         11    1    1    2    0    0 -0.13999395149E+02 -0.33059078012E+02  0.58089042902E+02  0.68287792531E+02  0.00000000000E+00 0.  1.
</event>
<event>
 7    1  0.2723366E-009  0.1508150E+03  0.7561462E-02  0.1199475E+00
         -1   -1    0    0    0  501 -0.00000000000E+00  0.00000000000E+00  0.46116895634E+02  0.46116895634E+02  0.00000000000E+00 0.  1.
          1   -1    0    0  501    0  0.00000000000E+00 -0.00000000000E+00 -0.58548142737E+03  0.58548142737E+03  0.00000000000E+00 0. -1.
         25    2    1    2    0    0  0.45244715314E+02 -0.10208524115E+03 -0.18273539045E+03  0.24801032701E+03  0.12509363955E+03 0.  0.
          5    1    3    3  502    0  0.96564044719E+01 -0.12030347009E+03 -0.16398653637E+03  0.20365467727E+03  0.41800000000E+01 0.  1.
         -5    1    3    3    0  502  0.35588310842E+02  0.18218228942E+02 -0.18748854074E+02  0.44355649735E+02  0.41800000000E+01 0.  1.
        -11    1    1    2    0    0  0.23008808770E+02  0.49233976291E+02 -0.15524225426E+03  0.16447962552E+03  0.00000000000E+00 0.  1.
         11    1    1    2    0    0 -0.68253524084E+02  0.52851264857E+02 -0.20138688703E+03  0.21910837048E+03  0.00000000000E+00 0. -1.
</event>
<event>
 7    1  0.2723366E-009  0.8788466E+02  0.7561462E-02  0.1308057E+00
          1   -1    0    0  501    0  0.00000000000E+00  0.00000000000E+00  0.23772506810E+02  0.23772506810E+02  0.00000000000E+00 0. -1.
         -1   -1    0    0    0  501 -0.00000000000E+00 -0.00000000000E+00 -0.58130873820E+03  0.58130873820E+03  0.00000000000E+00 0.  1.
         25    2    1    2    0    0 -0.14976860952E+02  0.45309513325E+02 -0.34763079451E+03  0.37252078365E+03  0.12508919459E+03 0.  0.
          5    1    3    3  502    0 -0.30186269422E+02  0.31514261865E+01 -0.10481775185E+02  0.32380277325E+02  0.41800000000E+01 0.  1.
         -5    1    3    3    0  502  0.15209408470E+02  0.42158087139E+02 -0.33714901932E+03  0.34014050633E+03  0.41800000000E+01 0.  1.
        -11    1    1    2    0    0  0.61752814185E+00 -0.70832513027E+02 -0.14861920729E+03  0.16463685802E+03  0.00000000000E+00 0.  1.
         11    1    1    2    0    0  0.14359332810E+02  0.25522999702E+02 -0.61286229602E+02  0.67923603345E+02  0.00000000000E+00 0. -1.
</event>
<event>
 7    1  0.2723366E-009  0.2169605E+03  0.7561462E-02  0.1136170E+00
          2   -1    0    0  501    0  0.00000000000E+00  0.00000000000E+00  0.28101663373E+03  0.28101663373E+03  0.00000000000E+00 0. -1.
         -2   -1    0    0    0  501 -0.00000000000E+00 -0.00000000000E+00 -0.21809076012E+03  0.21809076012E+03  0.00000000000E+00 0.  1.
         25    2    1    2    0    0  0.12086688477E+03  0.15794918479E+03  0.13180476548E+03  0.26940119932E+03  0.12509101159E+03 0.  0.
          5    1    3    3  502    0  0.10031470484E+03  0.30450839586E+02  0.70341311467E+02  0.12631573986E+03  0.41800000000E+01 0. -1.
         -5    1    3    3    0  502  0.20552179937E+02  0.12749834520E+03  0.61463454011E+02  0.14308545946E+03  0.41800000000E+01 0. -1.
        -11    1    1    2    0    0 -0.44681335281E+02 -0.73849919493E+02 -0.77366161771E+02  0.11591270560E+03  0.00000000000E+00 0.  1.
         11    1    1    2    0    0 -0.76185549491E+02 -0.84099265292E+02  0.84872698973E+01  0.11379348894E+03  0.00000000000E+00 0. -1.
</event>
<event>
 7    1  0.2723366E-009  0.1000154E+03  0.7561462E-02  0.1280264E+00
          1   -1    0    0  501    0  0.00000000000E+00  0.00000000000E+00  0.10541511108E+03  0.10541511108E+03  0.00000000000E+00 0. -1.
         -1   -1    0    0    0  501 -0.00000000000E+00 -0.00000000000E+00 -0.17924120530E+03  0.17924120530E+03  0.00000000000E+00 0.  1.
         25    2    1    2    0    0 -0.55725507876E+02  0.27021155037E+02 -0.97937689977E+02  0.17051227877E+03  0.12508865275E+03 0.  0.
          5    1    3    3  502    0 -0.81390095164E+02 -0.59879420216E+01 -0.99136291029E+02  0.12847443185E+03  0.41800000000E+01 0. -1.
         -5    1    3    3    0  502  0.25664587288E+02  0.33009097059E+02  0.11986010521E+01  0.42037846921E+02  0.41800000000E+01 0. -1.
        -11    1    1    2    0    0  0.52457792263E+02 -0.35308201929E+01  0.54413466221E+02  0.75664469644E+02  0.00000000000E+00 0. -1.
         11    1    1    2    0    0  0.32677156133E+01 -0.23490334844E+02 -0.30301870464E+02  0.38479567955E+02  0.00000000000E+00 0.  1.
</event>
<event>
 7    1  0.2723366E-009  0.1985028E+03  0.7561462E-02  0.1151008E+00
         -2   -1    0    0    0  501 -0.00000000000E+00  0.00000000000E+00  0.24978267929E+02  0.24978267929E+02  0.00000000000E+00 0.  1.
          2   -1    0    0  501    0  0.00000000000E+00 -0.00000000000E+00 -0.16875820186E+04  0.16875820186E+04  0.00000000000E+00 0. -1.
         25    2    1    2    0    0  0.17996879470E+02  0.17058590377E+03 -0.77238304816E+03  0.80102853292E+03  0.12509076397E+03 0.  0.
          5    1    3    3  502    0 -0.50164553259E+01 -0.14721812214E+02 -0.15964802027E+03  0.16045827917E+03  0.41800000000E+01 0.  1.
         -5    1    3    3    0  502  0.23013334796E+02  0.18530771599E+03 -0.61273502790E+03  0.64057025376E+03  0.41800000000E+01 0.  1.
        -11    1    1    2    0    0 -0.52484853988E+02 -0.68028455234E+02 -0.33324323724E+03  0.34414181057E+03  0.00000000000E+00 0.  1.
         11    1    1    2    0    0  0.34487974518E+02 -0.10255744854E+03 -0.55697746525E+03  0.56738994302E+03  0.00000000000E+00 0. -1.
</event>
<event>
 7    1  0.2723366E-009  0.1723142E+03  0.7561462E-02  0.1175456E+00
          1   -1    0    0  501    0  0.00000000000E+00  0.00000000000E+00  0.22966341120E+03  0.22966341120E+03  0.00000000000E+00 0. -1.
         -1   -1    0    0    0  501 -0.00000000000E+00 -0.00000000000E+00 -0.14794319320E+03  0.14794319320E+03  0.00000000000E+00 0.  1.
         25    2    1    2    0    0  0.89880693528E+02 -0.11719502179E+03  0.65574002284E+02  0.20435526120E+03  0.12509160963E+03 0.  0.
          5    1    3    3  502    0  0.82918013125E+02 -0.73011163004E+01  0.27136992609E+02  0.87650396278E+02  0.41800000000E+01 0.  1.
         -5    1    3    3    0  502  0.69626804027E+01 -0.10989390549E+03  0.38437009674E+02  0.11670486492E+03  0.41800000000E+01 0.  1.
        -11    1    1    2    0    0 -0.75193282094E+02  0.74129556506E+02 -0.28641516234E+02  0.10940547186E+03  0.00000000000E+00 0.  1.
         11    1    1    2    0    0 -0.14687411434E+02  0.43065465287E+02  0.44787731945E+02  0.63845871345E+02  0.00000000000E+00 0. -1.
</event>
<event>
 7    1  0.2723366E-009  0.9268173E+02  0.7561462E-02  0.1296484E+00
         -1   -1    0    0    0  501 -0.00000000000E+00  0.00000000000E+00  0.19088259678E+03  0.19088259678E+03  0.00000000000E+00 0.  1.
          1   -1    0    0  501    0  0.00000000000E+00 -0.00000000000E+00 -0.96046230715E+02  0.96046230715E+02  0.00000000000E+00 0. -1.
         25    2    1    2    0    0  0.62997708574E+02 -0.29477634211E+02  0.12321093600E+02  0.14365441200E+03  0.12508852280E+03 0.  0.
          5    1    3    3  502    0  0.24655293954E+02  0.15100764603E+02 -0.49976545034E+02  0.57888203160E+02  0.41800000000E+01 0.  1.
         -5    1    3    3    0  502  0.38342414619E+02 -0.44578398814E+02  0.62297638633E+02  0.85766208841E+02  0.41800000000E+01 0.  1.
        -11    1    1    2    0    0 -0.62532664032E+02 -0.49905427264E+01  0.88306260377E+02  0.10832005913E+03  0.00000000000E+00 0.  1.
         11    1    1    2    0    0 -0.46504454145E+00  0.34468176938E+02 -0.57909879140E+01  0.34954356365E+02  0.00000000000E+00 0. -1.
</event>
<event>
 7    1  0.2723366E-009  0.1669493E+03  0.7561462E-02  0.1181067E+00
         -2   -1    0    0    0  501 -0.00000000000E+00  0.00000000000E+00  0.10278771935E+03  0.10278771935E+03  0.00000000000E+00 0.  1.
          2   -1    0    0  501    0  0.00000000000E+00 -0.00000000000E+00 -0.40071798327E+03  0.40071798327E+03  0.00000000000E+00 0. -1.
         25    2    1    2    0    0 -0.89646326088E+02  0.13495522037E+03 -0.21935978866E+03  0.30002561685E+03  0.12508908267E+03 0.  0.
          5    1    3    3  502    0 -0.19554184751E+02  0.39616600064E+02  0.66554671639E+01  0.44873252446E+02  0.41800000000E+01 0. -1.
         -5    1    3    3    0  502 -0.70092141337E+02  0.95338620302E+02 -0.22601525582E+03  0.25515236441E+03  0.41800000000E+01 0. -1.
        -11    1    1    2    0    0  0.14232156116E+02 -0.70464508267E+02 -0.75433422840E+02  0.10420173931E+03  0.00000000000E+00 0. -1.
         11    1    1    2    0    0  0.75414169972E+02 -0.64490712099E+02 -0.31370524203E+01  0.99278346468E+02  0.00000000000E+00 0.  1.
</event>
<event>
 7    1  0.2723366E-009  0.2114426E+03  0.7561462E-02  0.1140429E+00
         -2   -1    0    0    0  501 -0.00000000000E+00  0.00000000000E+00  0.12228661357E+04  0.12228661357E+04  0.00000000000E+00 0.  1.
          2   -1    0    0  501    0  0.00000000000E+00 -0.00000000000E+00 -0.43546255058E+02  0.43546255058E+02  0.00000000000E+00 0. -1.
         25    2    1    2    0    0 -0.23648339965E+02 -0.19793074257E+03  0.50139212194E+03  0.55387856178E+03  0.12510626851E+03 0.  0.
          5    1    3    3  502    0  0.37372129219E+02 -0.11103232599E+03  0.34846953956E+03  0.36765927957E+03  0.41800000000E+01 0. -1.
         -5    1    3    3    0  502 -0.61020469184E+02 -0.86898416580E+02  0.15292258238E+03  0.18621928221E+03  0.41800000000E+01 0. -1.
        -11    1    1    2    0    0  0.10243759666E+02  0.67218541765E+02  0.39207824128E+03  0.39793041383E+03  0.00000000000E+00 0.  1.
         11    1    1    2    0    0  0.13404580298E+02  0.13071220080E+03  0.28584951746E+03  0.31460341518E+03  0.00000000000E+00 0. -1.
</event>
<event>
 7    1  0.2723366E-009  0.9971121E+02  0.7561462E-02  0.1280904E+00
          3   -1    0    0  501    0  0.00000000000E+00  0.00000000000E+00  0.92670071799E+02  0.92670071799E+02  0.00000000000E+00 0. -1.
         -3   -1    0    0    0  501 -0.00000000000E+00 -0.00000000000E+00 -0.42231949712E+03  0.42231949712E+03  0.00000000000E+00 0.  1.
         25    2    1    2    0    0  0.40723218431E+02 -0.46131667365E+02 -0.37212607247E+03  0.39737863976E+03  0.12508180632E+03 0.  0.
          5    1    3    3  502    0  0.33223549927E+02 -0.87397020744E+02 -0.29494774700E+03  0.30944093033E+03  0.41800000000E+01 0. -1.
         -5    1    3    3    0  502  0.74996685045E+01  0.41265353379E+02 -0.77178325474E+02  0.87937709431E+02  0.41800000000E+01 0. -1.
        -11    1    1    2    0    0 -0.29604786211E+02  0.21291326824E+02  0.69984682660E+02  0.78915269571E+02  0.00000000000E+00 0. -1.
         11    1    1    2    0    0 -0.11118432220E+02  0.24840340540E+02 -0.27508035512E+02  0.38695659588E+02  0.00000000000E+00 0.  1.
</event>
<event>
 7    1  0.2723366E-009  0.1269832E+03  0.7561462E-02  0.1232002E+00
         -1   -1    0    0    0  501 -0.00000000000E+00  0.00000000000E+00  0.16389272061E+03  0.16389272061E+03  0.00000000000E+00 0.  1.
          1   -1    0    0  501    0  0.00000000000E+00 -0.00000000000E+00 -0.14049321129E+03  0.14049321129E+03  0.00000000000E+00 0. -1.
         25    2    1    2    0    0 -0.12262484126E+02  0.10130622998E+03  0.39137907005E+02  0.16610878305E+03  0.12508809412E+03 0.  0.
          5    1    3    3  502    0  0.18137903043E+02  0.10144814910E+03 -0.14656045155E+02  0.10417764895E+03  0.41800000000E+01 0. -1.
         -5    1    3    3    0  502 -0.30400387168E+02 -0.14191911924E+00  0.53793952159E+02  0.61931134092E+02  0.41800000000E+01 0. -1.
        -11    1    1    2    0    0  0.38416672029E+02 -0.59435351697E+02  0.24182701259E+02  0.74787731356E+02  0.00000000000E+00 0.  1.
         11    1    1    2    0    0 -0.26154187904E+02 -0.41870878280E+02 -0.39921098942E+02  0.63489417493E+02  0.00000000000E+00 0. -1.
</event>
<event>
 7    1  0.2723366E-009  0.3221311E+03  0.7561462E-02  0.1074673E+00
         -2   -1    0    0    0  501 -0.00000000000E+00  0.00000000000E+00  0.39190747150E+02  0.39190747150E+02  0.00000000000E+00 0.  1.
          2   -1    0    0  501    0  0.00000000000E+00 -0.00000000000E+00 -0.28502961160E+04  0.28502961160E+04  0.00000000000E+00 0. -1.
         25    2    1    2    0    0  0.16987398838E+03  0.26623062826E+03 -0.13958075407E+04  0.14365440664E+04  0.12507695463E+03 0.  0.
          5    1    3    3  502    0  0.18352167587E+02  0.10580341195E+03 -0.64782796487E+03  0.65668082696E+03  0.41800000000E+01 0. -1.
         -5    1    3    3    0  502  0.15152182079E+03  0.16042721630E+03 -0.74797957586E+03  0.77986323943E+03  0.41800000000E+01 0. -1.
        -11    1    1    2    0    0 -0.82117640208E+02 -0.14098732204E+03 -0.92727727575E+03  0.94152210698E+03  0.00000000000E+00 0.  1.
         11    1    1    2    0    0 -0.87756348168E+02 -0.12524330622E+03 -0.48802055234E+03  0.51142068975E+03  0.00000000000E+00 0. -1.
</event>
<event>
 7    1  0.2723366E-009  0.7034928E+02  0.7561462E-02  0.1358909E+00
          2   -1    0    0  501    0  0.00000000000E+00  0.00000000000E+00  0.16474870062E+02  0.16474870062E+02  0.00000000000E+00 0.  1.
         -2   -1    0    0    0  501 -0.00000000000E+00 -0.00000000000E+00 -0.92412526678E+03  0.92412526678E+03  0.00000000000E+00 0. -1.
         25    2    1    2    0    0  0.81753443469E+01  0.23856717444E+02 -0.69700048959E+03  0.70858471685E+03  0.12508652703E+03 0.  0.
          5    1    3    3  502    0  0.34691118766E+02 -0.11713678444E+01 -0.52716199738E+02  0.63255955757E+02  0.41800000000E+01 0. -1.
         -5    1    3    3    0  502 -0.26515774419E+02  0.25028085289E+02 -0.64428428985E+03  0.64532876109E+03  0.41800000000E+01 0. -1.
        -11    1    1    2    0    0  0.15764627806E+02  0.16051213136E+02 -0.76710528047E+01  0.23769938665E+02  0.00000000000E+00 0.  1.
         11    1    1    2    0    0 -0.23939972153E+02 -0.39907930581E+02 -0.20297885433E+03  0.20824548133E+03  0.00000000000E+00 0. -1.
</event>
<event>
 7    1  0.2723366E-009  0.1530347E+03  0.7561462E-02  0.1196793E+00
          2   -1    0    0  501    0  0.00000000000E+00  0.00000000000E+00  0.34443989963E+03  0.34443989963E+03  0.00000000000E+00 0. -1.
         -2   -1    0    0    0  501 -0.00000000000E+00 -0.00000000000E+00 -0.83045477021E+02  0.83045477021E+02  0.00000000000E+00 0.  1.
         25    2    1    2    0    0  0.38800939406E+02  0.12139521130E+03  0.14946583534E+03  0.23287358688E+03  0.12509101210E+03 0.  0.
          5    1    3    3  502    0  0.36051578723E+02  0.14752190751E+03  0.12508809942E+03  0.19679160180E+03  0.41800000000E+01 0.  1.
         -5    1    3    3    0  502  0.27493606826E+01 -0.26126696207E+02  0.24377735913E+02  0.36081985077E+02  0.41800000000E+01 0.  1.
        -11    1    1    2    0    0 -0.80889811938E+01 -0.19131279955E+02 -0.17261572067E+02  0.27007394538E+02  0.00000000000E+00 0.  1.
         11    1    1    2    0    0 -0.30711958212E+02 -0.10226393134E+03  0.12919015934E+03  0.16760439523E+03  0.00000000000E+00 0. -1.
</event>
<event>
 7    1  0.2723366E-009  0.5282222E+02  0.7561462E-02  0.1430688E+00
         -1   -1    0    0    0  501 -0.00000000000E+00  0.00000000000E+00  0.89880350376E+02  0.89880350376E+02  0.00000000000E+00 0.  1.
          1   -1    0    0  501    0  0.00000000000E+00 -0.00000000000E+00 -0.14642795676E+03  0.14642795676E+03  0.00000000000E+00 0. -1.
         25    2    1    2    0    0  0.26246189295E+02 -0.18475165516E+01 -0.83657487525E+02  0.15276495070E+03  0.12508508774E+03 0.  0.
          5    1    3    3  502    0  0.15656380605E+02 -0.30285909735E+00  0.32353663313E+02  0.36186266829E+02  0.41800000000E+01 0. -1.
         -5    1    3    3    0  502  0.10589808690E+02 -0.15446574542E+01 -0.11601115084E+03  0.11657868387E+03  0.41800000000E+01 0. -1.
        -11    1    1    2    0    0 -0.36877631425E+02 -0.27974320356E+02  0.92823875426E+01  0.47208950607E+02  0.00000000000E+00 0.  1.
         11    1    1    2    0    0  0.10631442130E+02  0.29821836908E+02  0.17827493603E+02  0.36334405823E+02  0.00000000000E+00 0. -1.
</event>
<event>
 7    1  0.2723366E-009  0.9254912E+02  0.7561462E-02  0.1296793E+00
         -4   -1    0    0    0  501 -0.00000000000E+00  0.00000000000E+00  0.10575937476E+03  0.10575937476E+03  0.00000000000E+00 0.  1.
          4   -1    0    0  501    0  0.00000000000E+00 -0.00000000000E+00 -0.13289260549E+03  0.13289260549E+03  0.00000000000E+00 0. -1.
         25    2    1    2    0    0 -0.14302692404E+02 -0.45539437985E+02 -0.17070524736E+02  0.13497335838E+03  0.12509195512E+03 0.  0.
          5    1    3    3  502    0 -0.47513688986E+02 -0.34414753638E+02 -0.56854857995E+02  0.81803870243E+02  0.41800000000E+01 0.  1.
         -5    1    3    3    0  502  0.33210996582E+02 -0.11124684347E+02  0.39784333259E+02  0.53169488136E+02  0.41800000000E+01 0.  1.
        -11    1    1    2    0    0 -0.30544101573E+02  0.58041621135E+01 -0.27252368537E+02  0.41343947920E+02  0.00000000000E+00 0. -1.
         11    1    1    2    0    0  0.44846793976E+02  0.39735275872E+02  0.17189662541E+02  0.62334673953E+02  0.00000000000E+00 0.  1.
</event>
<event>
 7    1  0.2723366E-009  0.1054724E+03  0.7561462E-02  0.1269192E+00
          2   -1    0    0  501    0  0.00000000000E+00  0.00000000000E+00  0.15926279007E+03  0.15926279007E+03  0.00000000000E+00 0. -1.
         -2   -1    0    0    0  501 -0.00000000000E+00 -0.00000000000E+00 -0.13407437560E+03  0.13407437560E+03  0.00000000000E+00 0.  1.
         25    2    1    2    0    0  0.26648938598E+02  0.11077654735E+02 -0.81916285892E+02  0.15228638864E+03  0.12509190984E+03 0.  0.
          5    1    3    3  502    0  0.55397653376E+02 -0.37000378647E+02 -0.66075389052E+02  0.93922081844E+02  0.41800000000E+01 0. -1.
         -5    1    3    3    0  502 -0.28748714778E+02  0.48078033382E+02 -0.15840896840E+02  0.58364306797E+02  0.41800000000E+01 0. -1.
        -11    1    1    2    0    0  0.30320267178E+02 -0.26941824308E+01  0.19279684998E+02  0.36031700963E+02  0.00000000000E+00 0.  1.
         11    1    1    2    0    0 -0.56969205776E+02 -0.83834723039E+01  0.87825015364E+02  0.10501907607E+03  0.00000000000E+00 0. -1.
</event>
<event>
 7    1  0.2723366E-009  0.1412377E+03  0.7561462E-02  0.1211673E+00
         -2   -1    0    0    0  501 -0.00000000000E+00  0.00000000000E+00  0.13450035925E+03  0.13450035925E+03  0.00000000000E+00 0.  1.
          2   -1    0    0  501    0  0.00000000000E+00 -0.00000000000E+00 -0.34012497910E+03  0.34012497910E+03  0.00000000000E+00 0. -1.
         25    2    1    2    0    0 -0.10816112334E+03 -0.46061765458E+02 -0.26101895314E+03  0.31240828325E+03  0.12509007436E+03 0.  0.
          5    1    3    3  502    0  0.42704463667E+01  0.43873227351E+01 -0.13811560873E+03  0.13831442111E+03  0.41800000000E+01 0.  1.
         -5    1    3    3    0  502 -0.11243156971E+03 -0.50449088193E+02 -0.12290334441E+03  0.17409386214E+03  0.41800000000E+01 0.  1.
        -11    1    1    2    0    0  0.12388426692E+03  0.26542975879E+02  0.51886240972E+02  0.13690881331E+03  0.00000000000E+00 0.  1.
         11    1    1    2    0    0 -0.15723143581E+02  0.19518789579E+02  0.35080923137E+01  0.25308241788E+02  0.00000000000E+00 0. -1.
</event>
<event>
 7    1  0.2723366E-009  0.1083259E+03  0.7561462E-02  0.1263702E+00
          1   -1    0    0  501    0  0.00000000000E+00  0.00000000000E+00  0.23281584059E+03  0.23281584059E+03  0.00000000000E+00 0. -1.
         -1   -1    0    0    0  501 -0.00000000000E+00 -0.00000000000E+00 -0.66512504007E+02  0.66512504007E+02  0.00000000000E+00 0.  1.
         25    2    1    2    0    0  0.72428076838E+01 -0.91469725915E+01  0.20430343744E+02  0.12728449027E+03  0.12509123529E+03 0.  0.
          5    1    3    3  502    0  0.56112343228E+02  0.29110035841E+02  0.12558605024E+02  0.64584674725E+02  0.41800000000E+01 0.  1.
         -5    1    3    3    0  502 -0.48869535544E+02 -0.38257008433E+02  0.78717387197E+01  0.62699815542E+02  0.41800000000E+01 0.  1.
        -11    1    1    2    0    0 -0.46603408702E+02  0.19308500934E+02  0.76394035748E+02  0.91546406859E+02  0.00000000000E+00 0. -1.
         11    1    1    2    0    0  0.39360601018E+02 -0.10161528342E+02  0.69478957093E+02  0.80497447472E+02  0.00000000000E+00 0.  1.
</event>
<event>
 7    1  0.2723366E-009  0.1853883E+03  0.7561462E-02  0.1162688E+00
         -1   -1    0    0    0  501 -0.00000000000E+00  0.00000000000E+00  0.20369513236E+03  0.20369513236E+03  0.00000000000E+00 0.  1.
          1   -1    0    0  501    0  0.00000000000E+00 -0.00000000000E+00 -0.19432916217E+03  0.19432916217E+03  0.00000000000E+00 0. -1.
         25    2    1    2    0    0  0.15211284989E+03 -0.55990683213E+02 -0.30209469217E+02  0.20696461894E+03  0.12509382780E+03 0.  0.
          5    1    3    3  502    0  0.77803050021E+02 -0.91772766080E+02 -0.44915103685E+01  0.12047074853E+03  0.41800000000E+01 0. -1.
         -5    1    3    3    0  502  0.74309799865E+02  0.35782082867E+02 -0.25717958849E+02  0.86493870405E+02  0.41800000000E+01 0. -1.
        -11    1    1    2    0    0 -0.99847728394E+02  0.14124529639E+02 -0.18373279469E+02  0.10250194438E+03  0.00000000000E+00 0. -1.
         11    1    1    2    0    0 -0.52265121491E+02  0.41866153574E+02  0.57948718868E+02  0.88557731215E+02  0.00000000000E+00 0.  1.
</event>
<event>
 7    1  0.2723366E-009  0.8814244E+02  0.7561462E-02  0.1307413E+00
         -2   -1    0    0    0  501 -0.00000000000E+00  0.00000000000E+00  0.82255504615E+02  0.82255504615E+02  0.00000000000E+00 0.  1.
          2   -1    0    0  501    0  0.00000000000E+00 -0.00000000000E+00 -0.17495862928E+03  0.17495862928E+03  0.00000000000E+00 0. -1.
         25    2    1    2    0    0  0.16992392514E+02  0.47388436073E+02 -0.55380057141E+02  0.14576909740E+03  0.12508906328E+03 0.  0.
          5    1    3    3  502    0  0.30813193399E+02  0.12295142067E+02 -0.88997841215E+02  0.95072138646E+02  0.41800000000E+01 0. -1.
         -5    1    3    3    0  502 -0.13820800886E+02  0.35093294005E+02  0.33617784073E+02  0.50696958758E+02  0.41800000000E+01 0. -1.
        -11    1    1    2    0    0  0.17384991821E+02 -0.64284752749E+02 -0.21225968539E+02  0.69894986351E+02  0.00000000000E+00 0.  1.
         11    1    1    2    0    0 -0.34377384334E+02  0.16896316676E+02 -0.16097098984E+02  0.41550050139E+02  0.00000000000E+00 0. -1.
</event>
<event>
 7    1  0.2723366E-009  0.1017583E+03  0.7561462E-02  0.1276641E+00
          4   -1    0    0  501    0  0.00000000000E+00  0.00000000000E+00  0.19973813682E+02  0.19973813682E+02  0.00000000000E+00 0. -1.
         -4   -1    0    0    0  501 -0.00000000000E+00 -0.00000000000E+00 -0.65671609582E+03  0.65671609582E+03  0.00000000000E+00 0.  1.
         25    2    1    2    0    0  0.17197462692E+02 -0.24415458305E+02 -0.46231511961E+03  0.47986803407E+03  0.12508474316E+03 0.  0.
          5    1    3    3  502    0 -0.26674569891E+02  0.36817426669E+02 -0.10219224771E+03  0.11192758139E+03  0.41800000000E+01 0.  1.
         -5    1    3    3    0  502  0.43872032582E+02 -0.61232884974E+02 -0.36012287190E+03  0.36794045267E+03  0.41800000000E+01 0.  1.
        -11    1    1    2    0    0 -0.40809686404E+02  0.37498928961E+02 -0.71789425449E+02  0.90693559771E+02  0.00000000000E+00 0.  1.
         11    1    1    2    0    0  0.23612223712E+02 -0.13083470656E+02 -0.10263773708E+03  0.10612831567E+03  0.00000000000E+00 0. -1.
</event>
<event>
 7    1  0.2723366E-009  0.1201202E+03  0.7561462E-02  0.1242899E+00
          2   -1    0    0  501    0  0.00000000000E+00  0.00000000000E+00  0.36542967511E+02  0.36542967511E+02  0.00000000000E+00 0. -1.
         -2   -1    0    0    0  501 -0.00000000000E+00 -0.00000000000E+00 -0.53340228015E+03  0.53340228015E+03  0.00000000000E+00 0.  1.
         25    2    1    2    0    0 -0.53136612206E+02 -0.67923369471E+02 -0.22793413855E+03  0.27393160192E+03  0.12508983705E+03 0.  0.
          5    1    3    3  502    0  0.32287414762E+02 -0.38949615117E+02 -0.37308717789E+02  0.62999702324E+02  0.41800000000E+01 0.  1.
         -5    1    3    3    0  502 -0.85424026967E+02 -0.28973754354E+02 -0.19062542076E+03  0.21093189959E+03  0.41800000000E+01 0.  1.
        -11    1    1    2    0    0  0.40495146163E+01  0.44680294111E+02 -0.21443876316E+03  0.21908151541E+03  0.00000000000E+00 0.  1.
         11    1    1    2    0    0  0.49087097589E+02  0.23243075360E+02 -0.54486410934E+02  0.76932130339E+02  0.00000000000E+00 0. -1.
</event>
<event>
 7    1  0.3239731E-009  0.1360920E+03  0.7561462E-02  0.1218686E+00
         -1   -1    0    0    0  501 -0.00000000000E+00  0.00000000000E+00  0.12717948326E+03  0.12717948326E+03  0.00000000000E+00 0.  1.
          1   -1    0    0  501    0  0.00000000000E+00 -0.00000000000E+00 -0.17428288706E+03  0.17428288706E+03  0.00000000000E+00 0. -1.
         25    2    1    2    0    0 -0.78000183489E+02 -0.50413678205E+02  0.16928086415E+02  0.15671561903E+03  0.12509059743E+03 0.  0.
          5    1    3    3  502    0 -0.10714108631E+03 -0.31250010748E+02  0.35227568201E+02  0.11710776878E+03  0.41800000000E+01 0. -1.
         -5    1    3    3    0  502  0.29140902823E+02 -0.19163667456E+02 -0.18299481786E+02  0.39607850249E+02  0.41800000000E+01 0. -1.
        -11    1    1    2    0    0  0.28133137665E+02 -0.23195956715E+02 -0.23558563667E+01  0.36538690481E+02  0.00000000000E+00 0.  1.
         11    1    1    2    0    0  0.49867045823E+02  0.73609634919E+02 -0.61675633850E+02  0.10820806080E+03  0.00000000000E+00 0. -1.
</event>
<event>
 7    1  0.2723366E-009  0.1760524E+03  0.7561462E-02  0.1171679E+00
         -2   -1    0    0    0  501 -0.00000000000E+00  0.00000000000E+00  0.13818581417E+03  0.13818581417E+03  0.00000000000E+00 0. -1.
          2   -1    0    0  501    0  0.00000000000E+00 -0.00000000000E+00 -0.24578791194E+03  0.24578791194E+03  0.00000000000E+00 0.  1.
         25    2    1    2    0    0  0.76035469085E+02 -0.12495971316E+03 -0.49658596480E+02  0.19877070928E+03  0.12508995239E+03 0.  0.
          5    1    3    3  502    0  0.28464989305E+02 -0.13500302549E+03 -0.14852988374E+02  0.13883139476E+03  0.41800000000E+01 0. -1.
         -5    1    3    3    0  502  0.47570479780E+02  0.10043312325E+02 -0.34805608105E+02  0.59939314515E+02  0.41800000000E+01 0. -1.
        -11    1    1    2    0    0 -0.91896576440E+02  0.11133514189E+03 -0.70662934145E+02  0.16072879282E+03  0.00000000000E+00 0.  1.
         11    1    1    2    0    0  0.15861107355E+02  0.13624571280E+02  0.12719432851E+02  0.24474224015E+02  0.00000000000E+00 0. -1.
</event>
<event>
 7    1  0.2723366E-009  0.2676085E+03  0.7561462E-02  0.1102656E+00
         -2   -1    0    0    0  501 -0.00000000000E+00  0.00000000000E+00  0.39645874995E+02  0.39645874995E+02  0.00000000000E+00 0.  1.
          2   -1    0    0  501    0  0.00000000000E+00 -0.00000000000E+00 -0.24450764948E+04  0.24450764948E+04  0.00000000000E+00 0. -1.
         25    2    1    2    0    0  0.10657026952E+03  0.23706858080E+03 -0.17555762179E+04  0.17791163602E+04  0.12509369251E+03 0.  0.
          5    1    3    3  502    0  0.32299085164E+02  0.12718780261E+03 -0.12324481752E+04  0.12394216171E+04  0.41800000000E+01 0.  1.
         -5    1    3    3    0  502  0.74271184359E+02  0.10988077819E+03 -0.52312804274E+03  0.53969474311E+03  0.41800000000E+01 0.  1.
        -11    1    1    2    0    0 -0.50320423026E+02 -0.19391102925E+03 -0.42521731086E+03  0.47004616124E+03  0.00000000000E+00 0.  1.
         11    1    1    2    0    0 -0.56249846496E+02 -0.43157551548E+02 -0.22463709100E+03  0.23555984832E+03  0.00000000000E+00 0. -1.
</event>
<event>
 7    1  0.2723366E-009  0.1779101E+03  0.7561462E-02  0.1169841E+00
         -1   -1    0    0    0  501 -0.00000000000E+00  0.00000000000E+00  0.23966107036E+03  0.23966107036E+03  0.00000000000E+00 0.  1.
          1   -1    0    0  501    0  0.00000000000E+00 -0.00000000000E+00 -0.18340602721E+03  0.18340602721E+03  0.00000000000E+00 0. -1.
         25    2    1    2    0    0 -0.28625973450E+02  0.15748159061E+03 -0.50196873201E+02  0.20925594091E+03  0.12509366487E+03 0.  0.
          5    1    3    3  502    0  0.61305157077E+01  0.14465869403E+03  0.23007991154E+01  0.14486713588E+03  0.41800000000E+01 0.  1.
         -5    1    3    3    0  502 -0.34756489158E+02  0.12822896587E+02 -0.52497672316E+02  0.64388805037E+02  0.41800000000E+01 0.  1.
        -11    1    1    2    0    0  0.40565191416E+02 -0.15654338691E+03  0.11556445991E+03  0.19876244900E+03  0.00000000000E+00 0.  1.
         11    1    1    2    0    0 -0.11939217967E+02 -0.93820370104E+00 -0.91125435578E+01  0.15048707650E+02  0.00000000000E+00 0. -1.
</event>
<event>
 7    1  0.2723366E-009  0.9919086E+02  0.7561462E-02  0.1282007E+00
         -1   -1    0    0    0  501 -0.00000000000E+00  0.00000000000E+00  0.77004423971E+02  0.77004423971E+02  0.00000000000E+00 0.  1.
          1   -1    0    0  501    0  0.00000000000E+00 -0.00000000000E+00 -0.17361145343E+03  0.17361145343E+03  0.00000000000E+00 0. -1.
         25    2    1    2    0    0 -0.14739645236E+02  0.42268333521E+02 -0.48373089348E+02  0.14139241980E+03  0.12509193196E+03 0.  0.
          5    1    3    3  502    0  0.52878308566E+02  0.68710567758E+01 -0.55409678628E+01  0.53772685100E+02  0.41800000000E+01 0.  1.
         -5    1    3    3    0  502 -0.67617953802E+02  0.35397276745E+02 -0.42832121485E+02  0.87619734696E+02  0.41800000000E+01 0.  1.
        -11    1    1    2    0    0  0.23345853033E+02  0.19340238021E+01  0.17712432816E+02  0.29368343129E+02  0.00000000000E+00 0.  1.
         11    1    1    2    0    0 -0.86062077971E+01 -0.44202357323E+02 -0.65946372922E+02  0.79855114471E+02  0.00000000000E+00 0. -1.
</event>
<event>
 7    1  0.2723366E-009  0.1540652E+03  0.7561462E-02  0.1195565E+00
         -1   -1    0    0    0  501 -0.00000000000E+00  0.00000000000E+00  0.38695156828E+02  0.38695156828E+02  0.00000000000E+00 0.  1.
          1   -1    0    0  501    0  0.00000000000E+00 -0.00000000000E+00 -0.78563803795E+03  0.78563803795E+03  0.00000000000E+00 0. -1.
         25    2    1    2    0    0  0.12394913446E+03  0.28196183342E+02 -0.27875648028E+03  0.33092560123E+03  0.12509262794E+03 0.  0.
          5    1    3    3  502    0 -0.24500768395E+02  0.90315174803E+01 -0.62733623900E+02  0.68079629314E+02  0.41800000000E+01 0.  1.
         -5    1    3    3    0  502  0.14844990286E+03  0.19164665862E+02 -0.21602285638E+03  0.26284597192E+03  0.41800000000E+01 0.  1.
        -11    1    1    2    0    0 -0.61734233734E+02  0.40563358948E+01 -0.92773786296E+02  0.11151029055E+03  0.00000000000E+00 0.  1.
         11    1    1    2    0    0 -0.62214900729E+02 -0.32252519237E+02 -0.37541261455E+03  0.38189730299E+03  0.00000000000E+00 0. -1.
</event>
<event>
 7    1  0.2723366E-009  0.1065400E+03  0.7561462E-02  0.1267115E+00
          2   -1    0    0  501    0  0.00000000000E+00  0.00000000000E+00  0.30884956856E+03  0.30884956856E+03  0.00000000000E+00 0. -1.
         -2   -1    0    0    0  501 -0.00000000000E+00 -0.00000000000E+00 -0.46752110292E+02  0.46752110292E+02  0.00000000000E+00 0.  1.
         25    2    1    2    0    0  0.44049026128E+02 -0.43314337573E-01  0.10538133162E+03  0.16939105769E+03  0.12509111396E+03 0.  0.
          5    1    3    3  502    0  0.56518592736E+02  0.41868234776E+02  0.10377478073E+03  0.12543515426E+03  0.41800000000E+01 0. -1.
         -5    1    3    3    0  502 -0.12469566608E+02 -0.41911549114E+02  0.16065508885E+01  0.43955903429E+02  0.41800000000E+01 0. -1.
        -11    1    1    2    0    0  0.48163621772E+01 -0.37038210443E+02  0.42620705696E+02  0.56670547301E+02  0.00000000000E+00 0.  1.
         11    1    1    2    0    0 -0.48865388305E+02  0.37081524780E+02  0.11409542096E+03  0.12954007387E+03  0.00000000000E+00 0. -1.
</event>
<event>
 7    1  0.2723366E-009  0.2531522E+03  0.7561462E-02  0.1111329E+00
          1   -1    0    0  501    0  0.00000000000E+00  0.00000000000E+00  0.22563286860E+03  0.22563286860E+03  0.00000000000E+00 0. -1.
         -1   -1    0    0    0  501 -0.00000000000E+00 -0.00000000000E+00 -0.55375582953E+03  0.55375582953E+03  0.00000000000E+00 0.  1.
         25    2    1    2    0    0  0.22900395899E+03 -0.85224217155E+02 -0.42128396822E+03  0.50282491569E+03  0.12508690396E+03 0.  0.
          5    1    3    3  502    0  0.22002451649E+03 -0.75437840520E+02 -0.29459750518E+03  0.37537556939E+03  0.41800000000E+01 0.  1.
         -5    1    3    3    0  502  0.89794424997E+01 -0.97863766358E+01 -0.12668646304E+03  0.12744934630E+03  0.41800000000E+01 0.  1.
        -11    1    1    2    0    0 -0.46904978096E+02  0.59613582817E+02  0.36225012425E+02  0.84060143657E+02  0.00000000000E+00 0.  1.
         11    1    1    2    0    0 -0.18209898089E+03  0.25610634338E+02  0.56935994862E+02  0.19250363878E+03  0.00000000000E+00 0. -1.
</event>
<event>
 7    1  0.2723366E-009  0.9615778E+02  0.7561462E-02  0.1288590E+00
         -1   -1    0    0    0  501 -0.00000000000E+00  0.00000000000E+00  0.83802654285E+02  0.83802654285E+02  0.00000000000E+00 0.  1.
          1   -1    0    0  501    0  0.00000000000E+00 -0.00000000000E+00 -0.20559101234E+03  0.20559101234E+03  0.00000000000E+00 0. -1.
         25    2    1    2    0    0 -0.17988754758E+02  0.55269285040E+02 -0.14159894502E+02  0.13865649405E+03  0.12508729577E+03 0.  0.
          5    1    3    3  502    0 -0.17965915703E+02  0.76472520740E+02  0.34130570883E+02  0.85750736581E+02  0.41800000000E+01 0. -1.
         -5    1    3    3    0  502 -0.22839055433E-01 -0.21203235700E+02 -0.48290465385E+02  0.52905757464E+02  0.41800000000E+01 0. -1.
        -11    1    1    2    0    0 -0.96846254801E+01 -0.62652947238E+02 -0.10409180020E+03  0.12187816309E+03  0.00000000000E+00 0. -1.
         11    1    1    2    0    0  0.27673380238E+02  0.73836621971E+01 -0.35366633521E+01  0.28859009493E+02  0.00000000000E+00 0.  1.
</event>
<event>
 7    1  0.2723366E-009  0.1674604E+03  0.7561462E-02  0.1180522E+00
          2   -1    0    0  501    0  0.00000000000E+00  0.00000000000E+00  0.15219754893E+04  0.15219754893E+04  0.00000000000E+00 0. -1.
         -2   -1    0    0    0  501 -0.00000000000E+00 -0.00000000000E+00 -0.23606282102E+02  0.23606282102E+02  0.00000000000E+00 0.  1.
         25    2    1    2    0    0 -0.91932455201E+02  0.12596394272E+03  0.81052477255E+03  0.83481531181E+03  0.12509079396E+03 0.  0.
          5    1    3    3  502    0  0.12153523876E+02  0.49505981805E+01  0.67570713640E+01  0.15341022729E+02  0.41800000000E+01 0.  1.
         -5    1    3    3    0  502 -0.10408597908E+03  0.12101334454E+03  0.80376770118E+03  0.81947428908E+03  0.41800000000E+01 0.  1.
        -11    1    1    2    0    0  0.61946429047E+02 -0.11287574502E+03  0.63988023078E+03  0.65270590899E+03  0.00000000000E+00 0. -1.
         11    1    1    2    0    0  0.29986026153E+02 -0.13088197704E+02  0.47964203870E+02  0.58060550605E+02  0.00000000000E+00 0.  1.
</event>
<event>
 7    1  0.2723366E-009  0.8167441E+02  0.7561462E-02  0.1324366E+00
         -1   -1    0    0    0  501 -0.00000000000E+00  0.00000000000E+00  0.59692625882E+03  0.59692625882E+03  0.00000000000E+00 0.  1.
          1   -1    0    0  501    0  0.00000000000E+00 -0.00000000000E+00 -0.14592894987E+02  0.14592894987E+02  0.00000000000E+00 0. -1.
         25    2    1    2    0    0 -0.21036880774E+02 -0.22538272599E+02  0.45802029074E+03  0.47579594004E+03  0.12509462713E+03 0.  0.
          5    1    3    3  502    0 -0.37711664691E+02 -0.60442450158E+02  0.16413724070E+03  0.17898034981E+03  0.41800000000E+01 0. -1.
         -5    1    3    3    0  502  0.16674783917E+02  0.37904177559E+02  0.29388305005E+03  0.29681559022E+03  0.41800000000E+01 0. -1.
        -11    1    1    2    0    0  0.22681192261E+02  0.32851296687E+02  0.71518669872E+02  0.81905825901E+02  0.00000000000E+00 0. -1.
         11    1    1    2    0    0 -0.16443114866E+01 -0.10313024088E+02  0.52794403217E+02  0.53817387870E+02  0.00000000000E+00 0.  1.
</event>
<event>
 7    1  0.2723366E-009  0.1062411E+03  0.7561462E-02  0.1267694E+00
         -2   -1    0    0    0  501 -0.00000000000E+00  0.00000000000E+00  0.26214308224E+02  0.26214308224E+02  0.00000000000E+00 0.  1.
          2   -1    0    0  501    0  0.00000000000E+00 -0.00000000000E+00 -0.53132836845E+03  0.53132836845E+03  0.00000000000E+00 0. -1.
         25    2    1    2    0    0  0.19934418379E+02  0.37602233037E+02 -0.24036963274E+03  0.27429326869E+03  0.12509167813E+03 0.  0.
          5    1    3    3  502    0  0.37755784655E+02  0.67374949511E+02 -0.22141242368E+03  0.23453318924E+03  0.41800000000E+01 0.  1.
         -5    1    3    3    0  502 -0.17821366276E+02 -0.29772716474E+02 -0.18957209067E+02  0.39760079449E+02  0.41800000000E+01 0.  1.
        -11    1    1    2    0    0 -0.54445911715E+02 -0.86286258131E+01 -0.15975370698E+03  0.16899721116E+03  0.00000000000E+00 0.  1.
         11    1    1    2    0    0  0.34511493336E+02 -0.28973607224E+02 -0.10499072050E+03  0.11425219682E+03  0.00000000000E+00 0. -1.
</event>
<event>
 7    1  0.2723366E-009  0.8138966E+02  0.7561462E-02  0.1325153E+00
         -1   -1    0    0    0  501 -0.00000000000E+00  0.00000000000E+00  0.68066097435E+03  0.68066097435E+03  0.00000000000E+00 0.  1.
          1   -1    0    0  501    0  0.00000000000E+00 -0.00000000000E+00 -0.25260961288E+02  0.25260961288E+02  0.00000000000E+00 0. -1.
         25    2    1    2    0    0  0.59456456406E+01  0.54145702737E+02  0.23448641255E+03  0.27129039595E+03  0.12508994140E+03 0.  0.
          5    1    3    3  502    0  0.15850032053E+01  0.35474891680E+02 -0.22889672068E+00  0.35756187836E+02  0.41800000000E+01 0.  1.
         -5    1    3    3    0  502  0.43606424353E+01  0.18670811058E+02  0.23471530927E+03  0.23553420812E+03  0.41800000000E+01 0.  1.
        -11    1    1    2    0    0 -0.22632704453E+02 -0.76344667816E+02  0.28532849590E+03  0.29623149425E+03  0.00000000000E+00 0. -1.
         11    1    1    2    0    0  0.16687058812E+02  0.22198965079E+02  0.13558510461E+03  0.13840004543E+03  0.00000000000E+00 0.  1.
</event>
<event>
 7    1  0.2723366E-009  0.1211521E+03  0.7561462E-02  0.1241208E+00
         -1   -1    0    0    0  501 -0.00000000000E+00  0.00000000000E+00  0.10083638943E+03  0.10083638943E+03  0.00000000000E+00 0.  1.
          1   -1    0    0  501    0  0.00000000000E+00 -0.00000000000E+00 -0.21713616991E+03  0.21713616991E+03  0.00000000000E+00 0. -1.
         25    2    1    2    0    0  0.62440051512E+02  0.76652183351E+02 -0.91030502391E+02  0.18359836647E+03  0.12508992989E+03 0.  0.
          5    1    3    3  502    0  0.55316681839E+02 -0.55066463203E+01 -0.83881403977E+02  0.10071653676E+03  0.41800000000E+01 0.  1.
         -5    1    3    3    0  502  0.71233696728E+01  0.82158829671E+02 -0.71490984130E+01  0.82881829713E+02  0.41800000000E+01 0.  1.
        -11    1    1    2    0    0 -0.24873036423E+02 -0.55625024811E+02 -0.54976129186E+02  0.82068179621E+02  0.00000000000E+00 0. -1.
         11    1    1    2    0    0 -0.37567015089E+02 -0.21027158540E+02  0.29706851099E+02  0.52306013241E+02  0.00000000000E+00 0.  1.
</event>
<event>
 7    1  0.2723366E-009  0.9466601E+02  0.7561462E-02  0.1291930E+00
         -2   -1    0    0    0  501 -0.00000000000E+00  0.00000000000E+00  0.91710627454E+02  0.91710627454E+02  0.00000000000E+00 0. -1.
          2   -1    0    0  501    0  0.00000000000E+00 -0.00000000000E+00 -0.15751083002E+03  0.15751083002E+03  0.00000000000E+00 0.  1.
         25    2    1    2    0    0 -0.13321783826E+02  0.47388296184E+02 -0.57519015690E+02  0.14621592236E+03  0.12509012050E+03 0.  0.
          5    1    3    3  502    0 -0.33027121104E+02 -0.20272818449E+02 -0.64408872696E+02  0.75284481656E+02  0.41800000000E+01 0. -1.
         -5    1    3    3    0  502  0.19705337278E+02  0.67661114633E+02  0.68898570065E+01  0.70931440703E+02  0.41800000000E+01 0. -1.
        -11    1    1    2    0    0 -0.20327537890E+02 -0.40638326433E+02 -0.36730224745E+02  0.58427662813E+02  0.00000000000E+00 0.  1.
         11    1    1    2    0    0  0.33649321716E+02 -0.67499697506E+01  0.28449037867E+02  0.44577872304E+02  0.00000000000E+00 0. -1.
</event>
<event>
 7    1  0.2723366E-009  0.9102852E+02  0.7561462E-02  0.1300380E+00
          1   -1    0    0  501    0  0.00000000000E+00  0.00000000000E+00  0.86637767116E+02  0.86637767116E+02  0.00000000000E+00 0. -1.
         -1   -1    0    0    0  501 -0.00000000000E+00 -0.00000000000E+00 -0.14388077024E+03  0.14388077024E+03  0.00000000000E+00 0.  1.
         25    2    1    2    0    0  0.23070127435E+02  0.50986727488E+00 -0.41468665835E+02  0.13379204350E+03  0.12509264532E+03 0.  0.
          5    1    3    3  502    0  0.65974244767E+02  0.10114164732E+02 -0.56076036450E+02  0.87274804868E+02  0.41800000000E+01 0. -1.
         -5    1    3    3    0  502 -0.42904117331E+02 -0.96042974570E+01  0.14607370615E+02  0.46517238631E+02  0.41800000000E+01 0. -1.
        -11    1    1    2    0    0 -0.45336251075E+02  0.99518239641E+01 -0.40679808029E+02  0.61719212917E+02  0.00000000000E+00 0.  1.
         11    1    1    2    0    0  0.22266123640E+02 -0.10461691239E+02  0.24905470745E+02  0.35007280936E+02  0.00000000000E+00 0. -1.
</event>
<event>
 7    1  0.2723366E-009  0.1468690E+03  0.7561462E-02  0.1204374E+00
          2   -1    0    0  501    0  0.00000000000E+00  0.00000000000E+00  0.16929945288E+03  0.16929945288E+03  0.00000000000E+00 0.  1.
         -2   -1    0    0    0  501 -0.00000000000E+00 -0.00000000000E+00 -0.15419362952E+03  0.15419362952E+03  0.00000000000E+00 0. -1.
         25    2    1    2    0    0 -0.44136476963E+02  0.10692115478E+03  0.38277000080E+02  0.17462410338E+03  0.12509311254E+03 0.  0.
          5    1    3    3  502    0 -0.67073347201E+02  0.41094202429E+02 -0.22633095284E+02  0.81959116517E+02  0.41800000000E+01 0. -1.
         -5    1    3    3    0  502  0.22936870238E+02  0.65826952352E+02  0.60910095365E+02  0.92664986859E+02  0.41800000000E+01 0. -1.
        -11    1    1    2    0    0  0.13582711780E+02 -0.11313951402E+03 -0.27937496303E+02  0.11732665252E+03  0.00000000000E+00 0. -1.
         11    1    1    2    0    0  0.30553765183E+02  0.62183592417E+01  0.47663195780E+01  0.31542326497E+02  0.00000000000E+00 0.  1.
</event>
<event>
 7    1  0.2723366E-009  0.1041086E+03  0.7561462E-02  0.1271886E+00
          1   -1    0    0  501    0  0.00000000000E+00  0.00000000000E+00  0.12242691603E+03  0.12242691603E+03  0.00000000000E+00 0. -1.
         -1   -1    0    0    0  501 -0.00000000000E+00 -0.00000000000E+00 -0.96367164281E+02  0.96367164281E+02  0.00000000000E+00 0.  1.
         25    2    1    2    0    0  0.60891165725E+01 -0.44911828274E+01  0.14979220714E+02  0.12621250823E+03  0.12509185472E+03 0.  0.
          5    1    3    3  502    0  0.62487388887E+01 -0.60903784258E+02 -0.13570698840E+02  0.62848659028E+02  0.41800000000E+01 0.  1.
         -5    1    3    3    0  502 -0.15962231626E+00  0.56412601431E+02  0.28549919554E+02  0.63363849204E+02  0.41800000000E+01 0.  1.
        -11    1    1    2    0    0  0.26163523348E+02 -0.32162486834E+02  0.13761861165E+02  0.43684600675E+02  0.00000000000E+00 0.  1.
         11    1    1    2    0    0 -0.32252639921E+02  0.36653669662E+02 -0.26813301281E+01  0.48896971407E+02  0.00000000000E+00 0. -1.
</event>
<event>
 7    1  0.2723366E-009  0.8855431E+02  0.7561462E-02  0.1306391E+00
         -1   -1    0    0    0  501 -0.00000000000E+00  0.00000000000E+00  0.25701202244E+03  0.25701202244E+03  0.00000000000E+00 0.  1.
          1   -1    0    0  501    0  0.00000000000E+00 -0.00000000000E+00 -0.63544540327E+02  0.63544540327E+02  0.00000000000E+00 0. -1.
         25    2    1    2    0    0 -0.43710100523E+02  0.43348616845E+02  0.14129463152E+03  0.19849560851E+03  0.12508660293E+03 0.  0.
          5    1    3    3  502    0 -0.23702455435E+01  0.43004702145E+02 -0.75797803494E+01  0.43931172767E+02  0.41800000000E+01 0. -1.
         -5    1    3    3    0  502 -0.41339854980E+02  0.34391469951E+00  0.14887441187E+03  0.15456443575E+03  0.41800000000E+01 0. -1.
        -11    1    1    2    0    0  0.38332219221E+02  0.92328272229E+01  0.56644971836E+02  0.69016352868E+02  0.00000000000E+00 0.  1.
         11    1    1    2    0    0  0.53778813023E+01 -0.52581444068E+02 -0.44721212475E+01  0.53044601384E+02  0.00000000000E+00 0. -1.
</event>
<event>
 7    1  0.2723366E-009  0.1268926E+03  0.7561462E-02  0.1232141E+00
          2   -1    0    0  501    0  0.00000000000E+00  0.00000000000E+00  0.64036378039E+03  0.64036378039E+03  0.00000000000E+00 0. -1.
         -2   -1    0    0    0  501 -0.00000000000E+00 -0.00000000000E+00 -0.28516102858E+02  0.28516102858E+02  0.00000000000E+00 0.  1.
         25    2    1    2    0    0  0.13715497680E+02  0.55328104346E+02  0.43511755713E+03  0.45631901895E+03  0.12510173670E+03 0.  0.
          5    1    3    3  502    0 -0.46688989418E+02  0.60694264550E+02  0.24162571660E+03  0.25350367809E+03  0.41800000000E+01 0.  1.
         -5    1    3    3    0  502  0.60404487098E+02 -0.53661602046E+01  0.19349184053E+03  0.20281534086E+03  0.41800000000E+01 0.  1.
        -11    1    1    2    0    0 -0.64312002652E+01  0.29995075359E+02  0.31537652466E+02  0.43996459013E+02  0.00000000000E+00 0. -1.
         11    1    1    2    0    0 -0.72842974150E+01 -0.85323179704E+02  0.14519246794E+03  0.16856440528E+03  0.00000000000E+00 0.  1.
</event>
<event>
 7    1  0.2723366E-009  0.7113439E+02  0.7561462E-02  0.1356277E+00
         -3   -1    0    0    0  501 -0.00000000000E+00  0.00000000000E+00  0.18156811735E+03  0.18156811735E+03  0.00000000000E+00 0.  1.
          3   -1    0    0  501    0  0.00000000000E+00 -0.00000000000E+00 -0.71664194205E+02  0.71664194205E+02  0.00000000000E+00 0. -1.
         25    2    1    2    0    0  0.85720638076E+00  0.11758995458E+02  0.22615741009E+02  0.12766608758E+03  0.12509256333E+03 0.  0.
          5    1    3    3  502    0 -0.23775286234E+02  0.42276167370E+02 -0.33486518494E+02  0.59087713476E+02  0.41800000000E+01 0.  1.
         -5    1    3    3    0  502  0.24632492615E+02 -0.30517171912E+02  0.56102259503E+02  0.68578374108E+02  0.41800000000E+01 0.  1.
        -11    1    1    2    0    0  0.15887378348E+02  0.15473387066E+02 -0.91324858804E+01  0.23984094655E+02  0.00000000000E+00 0. -1.
         11    1    1    2    0    0 -0.16744584728E+02 -0.27232382525E+02  0.96420668018E+02  0.10158212932E+03  0.00000000000E+00 0.  1.
</event>
<event>
 7    1  0.2723366E-009  0.1014971E+03  0.7561462E-02  0.1277179E+00
         -1   -1    0    0    0  501 -0.00000000000E+00  0.00000000000E+00  0.22147579818E+02  0.22147579818E+02  0.00000000000E+00 0.  1.
          1   -1    0    0  501    0  0.00000000000E+00 -0.00000000000E+00 -0.54189437500E+03  0.54189437500E+03  0.00000000000E+00 0. -1.
         25    2    1    2    0    0  0.39634207174E+01  0.45778953158E+01 -0.33660070373E+03  0.35914254466E+03  0.12508664118E+03 0.  0.
          5    1    3    3  502    0 -0.42847243574E+02  0.44653856590E+02 -0.19582408719E+03  0.20541275207E+03  0.41800000000E+01 0.  1.
         -5    1    3    3    0  502  0.46810664292E+02 -0.40075961274E+02 -0.14077661654E+03  0.15372979259E+03  0.41800000000E+01 0.  1.
        -11    1    1    2    0    0 -0.20170935811E+02 -0.37459159292E+02 -0.44815825071E+02  0.61794121428E+02  0.00000000000E+00 0.  1.
         11    1    1    2    0    0  0.16207515094E+02  0.32881263976E+02 -0.13833026638E+03  0.14310528873E+03  0.00000000000E+00 0. -1.
</event>
<event>
 7    1  0.2723366E-009  0.7126710E+02  0.7561462E-02  0.1355836E+00
         -2   -1    0    0    0  501 -0.00000000000E+00  0.00000000000E+00  0.11860031344E+03  0.11860031344E+03  0.00000000000E+00 0.  1.
          2   -1    0    0  501    0  0.00000000000E+00 -0.00000000000E+00 -0.12085905298E+03  0.12085905298E+03  0.00000000000E+00 0. -1.
         25    2    1    2    0    0 -0.40252366300E+02 -0.11571233815E+02 -0.39868588776E+02  0.13780904038E+03  0.12509069028E+03 0.  0.
          5    1    3    3  502    0 -0.43525455616E+01  0.11261853994E+02  0.42840245305E+02  0.44704955274E+02  0.41800000000E+01 0.  1.
         -5    1    3    3    0  502 -0.35899820738E+02 -0.22833087809E+02 -0.82708834082E+02  0.93104085104E+02  0.41800000000E+01 0.  1.
        -11    1    1    2    0    0  0.44258331837E+02 -0.24585665600E+02  0.40953711783E+02  0.65118825226E+02  0.00000000000E+00 0.  1.
         11    1    1    2    0    0 -0.40059655380E+01  0.36156899415E+02 -0.33438625390E+01  0.36531500816E+02  0.00000000000E+00 0. -1.
</event>
<event>
 7    1  0.2723366E-009  0.1641917E+03  0.7561462E-02  0.1184044E+00
          2   -1    0    0  501    0  0.00000000000E+00  0.00000000000E+00  0.11525678015E+03  0.11525678015E+03  0.00000000000E+00 0. -1.
         -2   -1    0    0    0  501 -0.00000000000E+00 -0.00000000000E+00 -0.28828569090E+03  0.28828569090E+03  0.00000000000E+00 0.  1.
         25    2    1    2    0    0 -0.10328553044E+03  0.70759808997E+02 -0.60886632310E+01  0.17708444579E+03  0.12508788012E+03 0.  0.
          5    1    3    3  502    0 -0.13085609986E+03  0.48066495413E+02 -0.14322466879E+02  0.14020097114E+03  0.41800000000E+01 0. -1.
         -5    1    3    3    0  502  0.27570569420E+02  0.22693313584E+02  0.82338036484E+01  0.36883474648E+02  0.41800000000E+01 0. -1.
        -11    1    1    2    0    0  0.57923326886E+02  0.11472901134E+02 -0.67379990087E+02  0.89592423352E+02  0.00000000000E+00 0.  1.
         11    1    1    2    0    0  0.45362203555E+02 -0.82232710131E+02 -0.99560257425E+02  0.13686560191E+03  0.00000000000E+00 0. -1.
</event>
<event>
 7    1  0.2723366E-009  0.1396055E+03  0.7561462E-02  0.1213861E+00
         -2   -1    0    0    0  501 -0.00000000000E+00  0.00000000000E+00  0.55315614537E+02  0.55315614537E+02  0.00000000000E+00 0.  1.
          2   -1    0    0  501    0  0.00000000000E+00 -0.00000000000E+00 -0.40084425314E+03  0.40084425314E+03  0.00000000000E+00 0. -1.
         25    2    1    2    0    0 -0.62989217209E+02 -0.66721915852E+02 -0.25984177226E+03  0.30262928634E+03  0.12508909945E+03 0.  0.
          5    1    3    3  502    0  0.23967260390E+02 -0.61505138240E+02 -0.89836608036E+02  0.11155895367E+03  0.41800000000E+01 0.  1.
         -5    1    3    3    0  502 -0.86956477599E+02 -0.52167776114E+01 -0.17000516422E+03  0.19107033267E+03  0.41800000000E+01 0.  1.
        -11    1    1    2    0    0 -0.13647253909E+02  0.43781825894E+02 -0.42962605580E+02  0.62840124889E+02  0.00000000000E+00 0. -1.
         11    1    1    2    0    0  0.76636471118E+02  0.22940089958E+02 -0.42724260766E+02  0.90690456448E+02  0.00000000000E+00 0.  1.
</event>
<event>
 7    1  0.2723366E-009  0.2816523E+03  0.7561462E-02  0.1094790E+00
         -2   -1    0    0    0  501 -0.00000000000E+00  0.00000000000E+00  0.83648100383E+02  0.83648100383E+02  0.00000000000E+00 0. -1.
          2   -1    0    0  501    0  0.00000000000E+00 -0.00000000000E+00 -0.10201377569E+04  0.10201377569E+04  0.00000000000E+00 0.  1.
         25    2    1    2    0    0  0.91014666626E+02 -0.25527811366E+03 -0.49556086906E+03  0.57851582574E+03  0.12509756525E+03 0.  0.
          5    1    3    3  502    0  0.10006113199E+03 -0.22017811206E+03 -0.33102311963E+03  0.40998098650E+03  0.41800000000E+01 0.  1.
         -5    1    3    3    0  502 -0.90464653644E+01 -0.35100001595E+02 -0.16453774943E+03  0.16853483923E+03  0.41800000000E+01 0.  1.
        -11    1    1    2    0    0 -0.32416961981E+02  0.11792228895E+02 -0.43517751733E+02  0.55531169646E+02  0.00000000000E+00 0.  1.
         11    1    1    2    0    0 -0.58597704646E+02  0.24348588476E+03 -0.39741103577E+03  0.46973886194E+03  0.00000000000E+00 0. -1.
</event>
<event>
 7    1  0.2723366E-009  0.8802352E+02  0.7561462E-02  0.1307710E+00
          3   -1    0    0  501    0  0.00000000000E+00  0.00000000000E+00  0.98555453312E+02  0.98555453312E+02  0.00000000000E+00 0. -1.
         -3   -1    0    0    0  501 -0.00000000000E+00 -0.00000000000E+00 -0.14691459546E+03  0.14691459546E+03  0.00000000000E+00 0.  1.
         25    2    1    2    0    0  0.10077179392E+02 -0.17112309803E+02  0.22901979204E+02  0.12871556048E+03  0.12509522040E+03 0.  0.
          5    1    3    3  502    0  0.34268855992E+02 -0.37992356415E+02  0.60401861065E+02  0.79269356356E+02  0.41800000000E+01 0.  1.
         -5    1    3    3    0  502 -0.24191676600E+02  0.20880046612E+02 -0.37499881861E+02  0.49446204129E+02  0.41800000000E+01 0.  1.
        -11    1    1    2    0    0  0.40404723535E+02  0.75155927811E+01 -0.31961266924E+02  0.52062927330E+02  0.00000000000E+00 0.  1.
         11    1    1    2    0    0 -0.50481902927E+02  0.95967170217E+01 -0.39299854424E+02  0.64691560953E+02  0.00000000000E+00 0. -1.
</event>
<event>
 7    1  0.2723366E-009  0.1001545E+03  0.7561462E-02  0.1279971E+00
          2   -1    0    0  501    0  0.00000000000E+00  0.00000000000E+00  0.30255965289E+03  0.30255965289E+03  0.00000000000E+00 0. -1.
         -2   -1    0    0    0  501 -0.00000000000E+00 -0.00000000000E+00 -0.52675777416E+02  0.52675777416E+02  0.00000000000E+00 0.  1.
         25    2    1    2    0    0 -0.38536042698E+02  0.71950642998E+01  0.67658784796E+02  0.14752147183E+03  0.12509227775E+03 0.  0.
          5    1    3    3  502    0 -0.49312152925E+02  0.41426136242E+02 -0.66640998483E+01  0.64882168713E+02  0.41800000000E+01 0.  1.
         -5    1    3    3    0  502  0.10776110227E+02 -0.34231071943E+02  0.74322884644E+02  0.82639303118E+02  0.41800000000E+01 0.  1.
        -11    1    1    2    0    0 -0.29318336436E+02 -0.11858605657E+02  0.61080517495E+02  0.68782417789E+02  0.00000000000E+00 0. -1.
         11    1    1    2    0    0  0.67854379134E+02  0.46635413572E+01  0.12114457318E+03  0.13893154069E+03  0.00000000000E+00 0.  1.
</event>
<event>
 7    1  0.2723366E-009  0.1193113E+03  0.7561462E-02  0.1244238E+00
         -4   -1    0    0    0  501 -0.00000000000E+00  0.00000000000E+00  0.42823558928E+03  0.42823558928E+03  0.00000000000E+00 0.  1.
          4   -1    0    0  501    0  0.00000000000E+00 -0.00000000000E+00 -0.79777369255E+02  0.79777369255E+02  0.00000000000E+00 0. -1.
         25    2    1    2    0    0  0.31438258193E+02  0.51271242542E+02  0.37221222816E+03  0.39724928403E+03  0.12509175226E+03 0.  0.
          5    1    3    3  502    0  0.50702176721E+02  0.83727195672E+02  0.30103382428E+03  0.31657509343E+03  0.41800000000E+01 0.  1.
         -5    1    3    3    0  502 -0.19263918528E+02 -0.32455953130E+02  0.71178403882E+02  0.80674190605E+02  0.41800000000E+01 0.  1.
        -11    1    1    2    0    0  0.23886535449E+02 -0.39428708942E+02 -0.28150255924E+02  0.54015058763E+02  0.00000000000E+00 0. -1.
         11    1    1    2    0    0 -0.55324793642E+02 -0.11842533600E+02  0.43962477888E+01  0.56748615738E+02  0.00000000000E+00 0.  1.
</event>
<event>
 7    1  0.2723366E-009  0.2161722E+03  0.7561462E-02  0.1136769E+00
         -2   -1    0    0    0  501 -0.00000000000E+00  0.00000000000E+00  0.83269855261E+03  0.83269855261E+03  0.00000000000E+00 0.  1.
          2   -1    0    0  501    0  0.00000000000E+00 -0.00000000000E+00 -0.70200949427E+02  0.70200949427E+02  0.00000000000E+00 0. -1.
         25    2    1    2    0    0  0.65101526549E+01 -0.21212419724E+03  0.45975638370E+03  0.52159598947E+03  0.12508951491E+03 0.  0.
          5    1    3    3  502    0 -0.14046371593E+02 -0.14382485212E+02 -0.15782564181E+00  0.20534209134E+02  0.41800000000E+01 0. -1.
         -5    1    3    3    0  502  0.20556524248E+02 -0.19774171203E+03  0.45991420934E+03  0.50106178034E+03  0.41800000000E+01 0. -1.
        -11    1    1    2    0    0  0.41735120489E+01  0.13863917413E+03  0.26238165982E+03  0.29678674872E+03  0.00000000000E+00 0. -1.
         11    1    1    2    0    0 -0.10683664704E+02  0.73485023118E+02  0.40359559669E+02  0.84516763845E+02  0.00000000000E+00 0.  1.
</event>
<event>
 7    1  0.2723366E-009  0.1532948E+03  0.7561462E-02  0.1196482E+00
          1   -1    0    0  501    0  0.00000000000E+00  0.00000000000E+00  0.18251838033E+04  0.18251838033E+04  0.00000000000E+00 0. -1.
         -1   -1    0    0    0  501 -0.00000000000E+00 -0.00000000000E+00 -0.34887834044E+02  0.34887834044E+02  0.00000000000E+00 0.  1.
         25    2    1    2    0    0  0.14651222955E+03  0.42372584903E+02  0.15519822566E+04  0.15644673782E+04  0.12509189904E+03 0.  0.
          5    1    3    3  502    0  0.11686360596E+03  0.35782739067E+02  0.14929357943E+04  0.14979360017E+04  0.41800000000E+01 0. -1.
         -5    1    3    3    0  502  0.29648623589E+02  0.65898458362E+01  0.59046462332E+02  0.66531376528E+02  0.41800000000E+01 0. -1.
        -11    1    1    2    0    0 -0.39679389484E+02 -0.30343942372E+01  0.13881488851E+03  0.14440649144E+03  0.00000000000E+00 0. -1.
         11    1    1    2    0    0 -0.10683284007E+03 -0.39338190666E+02  0.99498824159E+02  0.15119776774E+03  0.00000000000E+00 0.  1.
</event>
<event>
 7    1  0.2723366E-009  0.1449856E+03  0.7561462E-02  0.1206774E+00
          2   -1    0    0  501    0  0.00000000000E+00  0.00000000000E+00  0.44928572829E+02  0.44928572829E+02  0.00000000000E+00 0. -1.
         -2   -1    0    0    0  501 -0.00000000000E+00 -0.00000000000E+00 -0.70128937864E+03  0.70128937864E+03  0.00000000000E+00 0.  1.
         25    2    1    2    0    0  0.11216413231E+03  0.38028338109E+02 -0.45538122232E+03  0.48687057987E+03  0.12507580431E+03 0.  0.
          5    1    3    3  502    0 -0.12773090014E+01  0.85302965210E+01 -0.25132778935E+03  0.25151049198E+03  0.41800000000E+01 0. -1.
         -5    1    3    3    0  502  0.11344144131E+03  0.29498041588E+02 -0.20405343297E+03  0.23536008789E+03  0.41800000000E+01 0. -1.
        -11    1    1    2    0    0 -0.81819717135E+02  0.31156471475E+02 -0.12071265211E+03  0.14911987193E+03  0.00000000000E+00 0.  1.
         11    1    1    2    0    0 -0.30344415170E+02 -0.69184809583E+02 -0.80266931384E+02  0.11022749967E+03  0.00000000000E+00 0. -1.
</event>
<event>
 7    1  0.2723366E-009  0.1324980E+03  0.7561462E-02  0.1223796E+00
          1   -1    0    0  501    0  0.00000000000E+00  0.00000000000E+00  0.60894325524E+03  0.60894325524E+03  0.00000000000E+00 0. -1.
         -1   -1    0    0    0  501 -0.00000000000E+00 -0.00000000000E+00 -0.47399458350E+02  0.47399458350E+02  0.00000000000E+00 0.  1.
         25    2    1    2    0    0 -0.11178889184E+03 -0.21368979235E+02  0.18358575653E+03  0.24960980651E+03  0.12509170993E+03 0.  0.
          5    1    3    3  502    0 -0.55274958981E+02  0.42293333613E+01  0.17880077252E+03  0.18724421755E+03  0.41800000000E+01 0. -1.
         -5    1    3    3    0  502 -0.56513932854E+02 -0.25598312596E+02  0.47849840118E+01  0.62365588961E+02  0.41800000000E+01 0. -1.
        -11    1    1    2    0    0  0.10467859451E+03  0.51217291992E+02  0.26133948438E+03  0.28614532190E+03  0.00000000000E+00 0. -1.
         11    1    1    2    0    0  0.71102973266E+01 -0.29848312757E+02  0.11661855597E+03  0.12058758518E+03  0.00000000000E+00 0.  1.
</event>
<event>
 7    1  0.2723366E-009  0.9970081E+02  0.7561462E-02  0.1280926E+00
          1   -1    0    0  501    0  0.00000000000E+00  0.00000000000E+00  0.11142228521E+03  0.11142228521E+03  0.00000000000E+00 0. -1.
         -1   -1    0    0    0  501 -0.00000000000E+00 -0.00000000000E+00 -0.14245210069E+03  0.14245210069E+03  0.00000000000E+00 0.  1.
         25    2    1    2    0    0  0.35446986924E+02  0.48537691641E+02 -0.41674300073E+02  0.14490650113E+03  0.12509496549E+03 0.  0.
          5    1    3    3  502    0  0.42585199580E+02 -0.92092438176E+00  0.33631497754E+02  0.54432502847E+02  0.41800000000E+01 0. -1.
         -5    1    3    3    0  502 -0.71382126556E+01  0.49458616022E+02 -0.75305797827E+02  0.90473998282E+02  0.41800000000E+01 0. -1.
        -11    1    1    2    0    0 -0.35589105766E+01 -0.68658621057E+02 -0.31381267170E+01  0.68822379566E+02  0.00000000000E+00 0.  1.
         11    1    1    2    0    0 -0.31888076348E+02  0.20120929416E+02  0.13782611308E+02  0.40145505205E+02  0.00000000000E+00 0. -1.
</event>
<event>
 7    1  0.2723366E-009  0.1030901E+03  0.7561462E-02  0.1273929E+00
          2   -1    0    0  501    0  0.00000000000E+00  0.00000000000E+00  0.91819137602E+02  0.91819137602E+02  0.00000000000E+00 0. -1.
         -2   -1    0    0    0  501 -0.00000000000E+00 -0.00000000000E+00 -0.24596263864E+03  0.24596263864E+03  0.00000000000E+00 0.  1.
         25    2    1    2    0    0 -0.68482246684E+02 -0.23553132952E+02 -0.17719945315E+01  0.14454964024E+03  0.12508753073E+03 0.  0.
          5    1    3    3  502    0 -0.77915348444E+02 -0.33410063763E+02  0.44704284289E+02  0.95932159976E+02  0.41800000000E+01 0.  1.
         -5    1    3    3    0  502  0.94331017601E+01  0.98569308113E+01 -0.46476278821E+02  0.48617480260E+02  0.41800000000E+01 0.  1.
        -11    1    1    2    0    0  0.62147661664E+02 -0.18233630537E+02 -0.13039865898E+03  0.14559741549E+03  0.00000000000E+00 0.  1.
         11    1    1    2    0    0  0.63345850207E+01  0.41786763489E+02 -0.21972847523E+02  0.47634720515E+02  0.00000000000E+00 0. -1.
</event>
<event>
 7    1  0.3035862E-009  0.1468390E+03  0.7561462E-02  0.1204412E+00
          1   -1    0    0  501    0  0.00000000000E+00  0.00000000000E+00  0.28288445624E+03  0.28288445624E+03  0.00000000000E+00 0. -1.
         -1   -1    0    0    0  501 -0.00000000000E+00 -0.00000000000E+00 -0.86136731280E+02  0.86136731280E+02  0.00000000000E+00 0.  1.
         25    2    1    2    0    0 -0.29543642750E+02  0.10747613678E+03  0.11200834485E+03  0.20153588519E+03  0.12508755694E+03 0.  0.
          5    1    3    3  502    0 -0.78223276555E+02  0.68025021864E+02  0.80255939844E+02  0.13116696564E+03  0.41800000000E+01 0. -1.
         -5    1    3    3    0  502  0.48679633805E+02  0.39451114920E+02  0.31752405005E+02  0.70368919556E+02  0.41800000000E+01 0. -1.
        -11    1    1    2    0    0  0.35419510037E+02 -0.22520100541E+02  0.69179264774E+02  0.80916421660E+02  0.00000000000E+00 0. -1.
         11    1    1    2    0    0 -0.58758672864E+01 -0.84956036243E+02  0.15560115337E+02  0.86568880666E+02  0.00000000000E+00 0.  1.
</event>
<event>
 7    1  0.2723366E-009  0.1020979E+03  0.7561462E-02  0.1275945E+00
          1   -1    0    0  501    0  0.00000000000E+00  0.00000000000E+00  0.37329785116E+03  0.37329785116E+03  0.00000000000E+00 0. -1.
         -1   -1    0    0    0  501 -0.00000000000E+00 -0.00000000000E+00 -0.40177730193E+02  0.40177730193E+02  0.00000000000E+00 0.  1.
         25    2    1    2    0    0 -0.33893491760E+02 -0.13028902224E+02  0.11691284913E+03  0.17502735544E+03  0.12508972693E+03 0.  0.
          5    1    3    3  502    0  0.29169565294E+02 -0.37087287820E+02  0.91031298268E+02  0.10261822509E+03  0.41800000000E+01 0.  1.
         -5    1    3    3    0  502 -0.63063057054E+02  0.24058385595E+02  0.25881550862E+02  0.72409130346E+02  0.41800000000E+01 0.  1.
        -11    1    1    2    0    0 -0.17412910267E+02 -0.21268199807E+02  0.23710356903E+02  0.36300506766E+02  0.00000000000E+00 0.  1.
         11    1    1    2    0    0  0.51306402027E+02  0.34297102031E+02  0.19249691494E+03  0.20214771915E+03  0.00000000000E+00 0. -1.
</event>
<event>
 7    1  0.2723366E-009  0.9279284E+02  0.7561462E-02  0.1296226E+00
         -1   -1    0    0    0  501 -0.00000000000E+00  0.00000000000E+00  0.59089613572E+02  0.59089613572E+02  0.00000000000E+00 0.  1.
          1   -1    0    0  501    0  0.00000000000E+00 -0.00000000000E+00 -0.20341745129E+03  0.20341745129E+03  0.00000000000E+00 0. -1.
         25    2    1    2    0    0 -0.21041562567E+01  0.27255510776E+01 -0.10759093061E+03  0.16503041487E+03  0.12508946150E+03 0.  0.
          5    1    3    3  502    0 -0.23191603363E+02 -0.43437003101E+02 -0.10257847010E+03  0.11386148881E+03  0.41800000000E+01 0. -1.
         -5    1    3    3    0  502  0.21087447106E+02  0.46162554178E+02 -0.50124605112E+01  0.51168926060E+02  0.41800000000E+01 0. -1.
        -11    1    1    2    0    0 -0.34475705929E+02  0.22177780003E+02 -0.16912329695E+01  0.41027898973E+02  0.00000000000E+00 0.  1.
         11    1    1    2    0    0  0.36579862186E+02 -0.24903331081E+02 -0.35045674138E+02  0.56448751025E+02  0.00000000000E+00 0. -1.
</event>
<event>
 7    1  0.2723366E-009  0.1374781E+03  0.7561462E-02  0.1216763E+00
         -1   -1    0    0    0  501 -0.00000000000E+00  0.00000000000E+00  0.46389960203E+02  0.46389960203E+02  0.00000000000E+00 0.  1.
          1   -1    0    0  501    0  0.00000000000E+00 -0.00000000000E+00 -0.50478726925E+03  0.50478726925E+03  0.00000000000E+00 0. -1.
         25    2    1    2    0    0 -0.40235532620E+02  0.96205233642E+02 -0.20488259286E+03  0.26171951008E+03  0.12508349224E+03 0.  0.
          5    1    3    3  502    0  0.26896372860E+02  0.17781729354E+02 -0.13030012574E+03  0.13429519701E+03  0.41800000000E+01 0.  1.
         -5    1    3    3    0  502 -0.67131905481E+02  0.78423504288E+02 -0.74582467119E+02  0.12742431306E+03  0.41800000000E+01 0.  1.
        -11    1    1    2    0    0 -0.22422452329E+02 -0.65731868126E+02 -0.11345342257E+03  0.13302302037E+03  0.00000000000E+00 0.  1.
         11    1    1    2    0    0  0.62657984949E+02 -0.30473365516E+02 -0.14006129361E+03  0.15643469900E+03  0.00000000000E+00 0. -1.
</event>
<event>
 7    1  0.2723366E-009  0.6997095E+02  0.7561462E-02  0.1360192E+00
         -1   -1    0    0    0  501 -0.00000000000E+00  0.00000000000E+00  0.72564819679E+02  0.72564819679E+02  0.00000000000E+00 0.  1.
          1   -1    0    0  501    0  0.00000000000E+00 -0.00000000000E+00 -0.19862763764E+03  0.19862763764E+03  0.00000000000E+00 0. -1.
         25    2    1    2    0    0 -0.11370823952E+02 -0.91577007766E-01 -0.13008151316E+03  0.18082671339E+03  0.12509115151E+03 0.  0.
          5    1    3    3  502    0  0.25967511814E+02  0.32323763744E+02 -0.12402167188E+03  0.13083571710E+03  0.41800000000E+01 0.  1.
         -5    1    3    3    0  502 -0.37338335766E+02 -0.32415340752E+02 -0.60598412815E+01  0.49990996291E+02  0.41800000000E+01 0.  1.
        -11    1    1    2    0    0  0.79098037481E+01  0.23597316619E+02  0.40081563391E+02  0.47179763362E+02  0.00000000000E+00 0.  1.
         11    1    1    2    0    0  0.34610202037E+01 -0.23505739612E+02 -0.36062868192E+02  0.43185980570E+02  0.00000000000E+00 0. -1.
</event>
<event>
 7    1  0.2723366E-009  0.1025987E+03  0.7561462E-02  0.1274924E+00
         -3   -1    0    0    0  501 -0.00000000000E+00  0.00000000000E+00  0.73954764790E+03  0.73954764790E+03  0.00000000000E+00 0.  1.
          3   -1    0    0  501    0  0.00000000000E+00 -0.00000000000E+00 -0.26261255716E+02  0.26261255716E+02  0.00000000000E+00 0. -1.
         25    2    1    2    0    0 -0.38539983806E+01  0.82341116911E+02  0.46713663332E+03  0.49057000658E+03  0.12508950528E+03 0.  0.
          5    1    3    3  502    0 -0.20918269908E+02  0.72398021678E+02  0.46405040051E+03  0.47014816194E+03  0.41800000000E+01 0. -1.
         -5    1    3    3    0  502  0.17064271528E+02  0.99430952328E+01  0.30862328028E+01  0.20421844640E+02  0.41800000000E+01 0. -1.
        -11    1    1    2    0    0  0.24198902748E+02 -0.85578438755E+02  0.13147957420E+03  0.15873290304E+03  0.00000000000E+00 0. -1.
         11    1    1    2    0    0 -0.20344904367E+02  0.32373218442E+01  0.11467018467E+03  0.11650599400E+03  0.00000000000E+00 0.  1.
</event>
<event>
 7    1  0.2723366E-009  0.1365687E+03  0.7561462E-02  0.1218022E+00
         -4   -1    0    0    0  501 -0.00000000000E+00  0.00000000000E+00  0.34659674589E+02  0.34659674589E+02  0.00000000000E+00 0.  1.
          4   -1    0    0  501    0  0.00000000000E+00 -0.00000000000E+00 -0.72552236243E+03  0.72552236243E+03  0.00000000000E+00 0. -1.
         25    2    1    2    0    0 -0.69490234360E+02  0.76129054322E+02 -0.49613310095E+03  0.52193852814E+03  0.12508895921E+03 0.  0.
          5    1    3    3  502    0 -0.47931848181E+02  0.10232086995E+03 -0.45303782148E+03  0.46693443072E+03  0.41800000000E+01 0. -1.
         -5    1    3    3    0  502 -0.21558386180E+02 -0.26191815633E+02 -0.43095279466E+02  0.55004097421E+02  0.41800000000E+01 0. -1.
        -11    1    1    2    0    0 -0.10084911508E+02  0.58349197709E+01 -0.62164451539E+02  0.63246903197E+02  0.00000000000E+00 0. -1.
         11    1    1    2    0    0  0.79575145869E+02 -0.81963974093E+02 -0.13256513536E+03  0.17499660569E+03  0.00000000000E+00 0.  1.
</event>
<event>
 7    1  0.2723366E-009  0.8305354E+02  0.7561462E-02  0.1320603E+00
         -1   -1    0    0    0  501 -0.00000000000E+00  0.00000000000E+00  0.49490249361E+02  0.49490249361E+02  0.00000000000E+00 0.  1.
          1   -1    0    0  501    0  0.00000000000E+00 -0.00000000000E+00 -0.37373660410E+03  0.37373660410E+03  0.00000000000E+00 0. -1.
         25    2    1    2    0    0 -0.57848328527E+02  0.12233586253E+02 -0.11374500741E+03  0.17911302820E+03  0.12508980939E+03 0.  0.
          5    1    3    3  502    0  0.58030446262E+01  0.37576876071E+02  0.82531225257E+01  0.39131616036E+02  0.41800000000E+01 0. -1.
         -5    1    3    3    0  502 -0.63651373153E+02 -0.25343289818E+02 -0.12199812993E+03  0.13998141216E+03  0.41800000000E+01 0. -1.
        -11    1    1    2    0    0  0.17112491387E+02 -0.21091056828E+01  0.98113872451E+01  0.19838069662E+02  0.00000000000E+00 0.  1.
         11    1    1    2    0    0  0.40735837140E+02 -0.10124480570E+02 -0.22031273458E+03  0.22427575560E+03  0.00000000000E+00 0. -1.
</event>
<event>
 7    1  0.2723366E-009  0.1411327E+03  0.7561462E-02  0.1211813E+00
          1   -1    0    0  501    0  0.00000000000E+00  0.00000000000E+00  0.12177886795E+03  0.12177886795E+03  0.00000000000E+00 0. -1.
         -1   -1    0    0    0  501 -0.00000000000E+00 -0.00000000000E+00 -0.23183804494E+03  0.23183804494E+03  0.00000000000E+00 0.  1.
         25    2    1    2    0    0 -0.11921833560E+03 -0.22367501281E+02 -0.98827819654E+02  0.20031717643E+03  0.12508683616E+03 0.  0.
          5    1    3    3  502    0 -0.88204209328E+02  0.17683925182E+02 -0.98736580198E+00  0.90061928939E+02  0.41800000000E+01 0.  1.
         -5    1    3    3    0  502 -0.31014126268E+02 -0.40051426463E+02 -0.97840453852E+02  0.11025524749E+03  0.41800000000E+01 0.  1.
        -11    1    1    2    0    0  0.83996057593E+02  0.48981744713E+02 -0.34776895702E+02  0.10326655548E+03  0.00000000000E+00 0.  1.
         11    1    1    2    0    0  0.35222278004E+02 -0.26614243432E+02  0.23545538372E+02  0.50033180975E+02  0.00000000000E+00 0. -1.
</event>
<event>
 7    1  0.2723366E-009  0.1002278E+03  0.7561462E-02  0.1279818E+00
          2   -1    0    0  501    0  0.00000000000E+00  0.00000000000E+00  0.66383498666E+03  0.66383498666E+03  0.00000000000E+00 0. -1.
         -2   -1    0    0    0  501 -0.00000000000E+00 -0.00000000000E+00 -0.20610995934E+02  0.20610995934E+02  0.00000000000E+00 0.  1.
         25    2    1    2    0    0 -0.44150905777E+02  0.38371058236E+01  0.39862144868E+03  0.42013149933E+03  0.12508953403E+03 0.  0.
          5    1    3    3  502    0 -0.82070632782E+02  0.36714404266E+01  0.34271600124E+03  0.35244971010E+03  0.41800000000E+01 0. -1.
         -5    1    3    3    0  502  0.37919727004E+02  0.16566539699E+00  0.55905447433E+02  0.67681789233E+02  0.41800000000E+01 0. -1.
        -11    1    1    2    0    0 -0.17854310122E+02 -0.24883003457E+01  0.80068415314E+01  0.19725048539E+02  0.00000000000E+00 0.  1.
         11    1    1    2    0    0  0.62005215900E+02 -0.13488054779E+01  0.23659570051E+03  0.24458943472E+03  0.00000000000E+00 0. -1.
</event>
<event>
 7    1  0.2723366E-009  0.2172376E+03  0.7561462E-02  0.1135959E+00
         -3   -1    0    0    0  501 -0.00000000000E+00  0.00000000000E+00  0.10938975838E+03  0.10938975838E+03  0.00000000000E+00 0.  1.
          3   -1    0    0  501    0  0.00000000000E+00 -0.00000000000E+00 -0.58489180210E+03  0.58489180210E+03  0.00000000000E+00 0. -1.
         25    2    1    2    0    0  0.68139280221E+01  0.21217152661E+03 -0.35850909388E+03  0.43501539586E+03  0.12508572228E+03 0.  0.
          5    1    3    3  502    0  0.12778464218E+02  0.37522521541E+02 -0.18306686423E+03  0.18735575238E+03  0.41800000000E+01 0.  1.
         -5    1    3    3    0  502 -0.59645361960E+01  0.17464900507E+03 -0.17544222966E+03  0.24765964349E+03  0.41800000000E+01 0.  1.
        -11    1    1    2    0    0  0.21249853526E+02 -0.39261508527E+02 -0.60542425135E+02  0.75222387412E+02  0.00000000000E+00 0. -1.
         11    1    1    2    0    0 -0.28063781548E+02 -0.17291001809E+03 -0.56450524703E+02  0.18404377721E+03  0.00000000000E+00 0.  1.
</event>
<event>
 7    1  0.2723366E-009  0.1418310E+03  0.7561462E-02  0.1210886E+00
         -2   -1    0    0    0  501 -0.00000000000E+00  0.00000000000E+00  0.11888663834E+03  0.11888663834E+03  0.00000000000E+00 0.  1.
          2   -1    0    0  501    0  0.00000000000E+00 -0.00000000000E+00 -0.18310488374E+03  0.18310488374E+03  0.00000000000E+00 0. -1.
         25    2    1    2    0    0  0.39090901327E+02 -0.86851853546E+02 -0.61497655767E+02  0.16882108523E+03  0.12508898482E+03 0.  0.
          5    1    3    3  502    0  0.81785079336E+02 -0.33232320893E+02 -0.38553676073E+02  0.96421183837E+02  0.41800000000E+01 0.  1.
         -5    1    3    3    0  502 -0.42694178009E+02 -0.53619532654E+02 -0.22943979694E+02  0.72399901395E+02  0.41800000000E+01 0.  1.
        -11    1    1    2    0    0 -0.41176629745E+01 -0.16761219593E+02  0.14405329264E+02  0.22481262015E+02  0.00000000000E+00 0.  1.
         11    1    1    2    0    0 -0.34973238353E+02  0.10361307314E+03 -0.17125918902E+02  0.11068917483E+03  0.00000000000E+00 0. -1.
</event>
<event>
 7    1  0.2723366E-009  0.2070871E+03  0.7561462E-02  0.1143894E+00
          4   -1    0    0  501    0  0.00000000000E+00  0.00000000000E+00  0.24809800646E+03  0.24809800646E+03  0.00000000000E+00 0.  1.
         -4   -1    0    0    0  501 -0.00000000000E+00 -0.00000000000E+00 -0.19405079463E+03  0.19405079463E+03  0.00000000000E+00 0. -1.
         25    2    1    2    0    0 -0.63095908944E+02  0.17651615734E+03  0.61066922082E+02  0.23348474931E+03  0.12508761594E+03 0.  0.
          5    1    3    3  502    0 -0.71484263434E+02  0.38067875041E+02 -0.18609827722E+01  0.81117807452E+02  0.41800000000E+01 0. -1.
         -5    1    3    3    0  502  0.83883544898E+01  0.13844828230E+03  0.62927904854E+02  0.15236694186E+03  0.41800000000E+01 0. -1.
        -11    1    1    2    0    0  0.69246608628E+02 -0.12909736959E+03 -0.38431049396E+02  0.15145352158E+03  0.00000000000E+00 0. -1.
         11    1    1    2    0    0 -0.61506996836E+01 -0.47418787757E+02  0.31411339137E+02  0.57210530196E+02  0.00000000000E+00 0.  1.
</event>
<event>
 7    1  0.2723366E-009  0.1689395E+03  0.7561462E-02  0.1178958E+00
         -2   -1    0    0    0  501 -0.00000000000E+00  0.00000000000E+00  0.87903044978E+02  0.87903044978E+02  0.00000000000E+00 0.  1.
          2   -1    0    0  501    0  0.00000000000E+00 -0.00000000000E+00 -0.59265756156E+03  0.59265756156E+03  0.00000000000E+00 0. -1.
         25    2    1    2    0    0 -0.16584235203E+03 -0.12706939021E+02 -0.93095092419E+02  0.22799012757E+03  0.12509056723E+03 0.  0.
          5    1    3    3  502    0 -0.14159992970E+03 -0.14796859080E+02 -0.11675918480E+02  0.14291006474E+03  0.41800000000E+01 0. -1.
         -5    1    3    3    0  502 -0.24242422320E+02  0.20899200588E+01 -0.81419173939E+02  0.85080062828E+02  0.41800000000E+01 0. -1.
        -11    1    1    2    0    0  0.93120290038E+02  0.26329150193E+02 -0.13443141696E+03  0.16563942294E+03  0.00000000000E+00 0.  1.
         11    1    1    2    0    0  0.72722061987E+02 -0.13622211172E+02 -0.27722800721E+03  0.28693105603E+03  0.00000000000E+00 0. -1.
</event>
<event>
 7    1  0.2723366E-009  0.2539928E+03  0.7561462E-02  0.1110807E+00
          4   -1    0    0  501    0  0.00000000000E+00  0.00000000000E+00  0.37715633653E+02  0.37715633653E+02  0.00000000000E+00 0. -1.
         -4   -1    0    0    0  501 -0.00000000000E+00 -0.00000000000E+00 -0.18952635193E+04  0.18952635193E+04  0.00000000000E+00 0.  1.
         25    2    1    2    0    0 -0.24054663053E+03 -0.18734946238E+02 -0.81937284662E+03  0.86326979082E+03  0.12509672377E+03 0.  0.
          5    1    3    3  502    0 -0.19519822541E+03  0.11987816910E+02 -0.74828080658E+03  0.77342594530E+03  0.41800000000E+01 0.  1.
         -5    1    3    3    0  502 -0.45348405116E+02 -0.30722763148E+02 -0.71092040034E+02  0.89843845522E+02  0.41800000000E+01 0.  1.
        -11    1    1    2    0    0  0.10001290908E+03  0.52431139446E+02 -0.48434746492E+03  0.49733698148E+03  0.00000000000E+00 0.  1.
         11    1    1    2    0    0  0.14053372145E+03 -0.33696193208E+02 -0.55382757412E+03  0.57237238067E+03  0.00000000000E+00 0. -1.
</event>
<event>
 7    1  0.2723366E-009  0.7504718E+02  0.7561462E-02  0.1343725E+00
          1   -1    0    0  501    0  0.00000000000E+00  0.00000000000E+00  0.22822341620E+03  0.22822341620E+03  0.00000000000E+00 0. -1.
         -1   -1    0    0    0  501 -0.00000000000E+00 -0.00000000000E+00 -0.64357774818E+02  0.64357774818E+02  0.00000000000E+00 0.  1.
         25    2    1    2    0    0 -0.41630481390E+02  0.30650211635E+02  0.98590067541E+02  0.16746493529E+03  0.12510783621E+03 0.  0.
          5    1    3    3  502    0 -0.32699911403E+02 -0.14575059279E+02  0.11330065765E+03  0.11889587033E+03  0.41800000000E+01 0.  1.
         -5    1    3    3    0  502 -0.89305699865E+01  0.45225270914E+02 -0.14710590109E+02  0.48569064958E+02  0.41800000000E+01 0.  1.
        -11    1    1    2    0    0  0.29973401471E+02  0.48806226621E+01 -0.16956255733E+02  0.34781315125E+02  0.00000000000E+00 0.  1.
         11    1    1    2    0    0  0.11657079918E+02 -0.35530834297E+02  0.82231829570E+02  0.90334940596E+02  0.00000000000E+00 0. -1.
</event>
<event>
 7    1  0.2723366E-009  0.8950726E+02  0.7561462E-02  0.1304049E+00
         -2   -1    0    0    0  501 -0.00000000000E+00  0.00000000000E+00  0.65814895223E+02  0.65814895223E+02  0.00000000000E+00 0.  1.
          2   -1    0    0  501    0  0.00000000000E+00 -0.00000000000E+00 -0.20687887231E+03  0.20687887231E+03  0.00000000000E+00 0. -1.
         25    2    1    2    0    0 -0.22545645997E+02 -0.24864936127E+02 -0.86393933363E+02  0.15568402103E+03  0.12508809488E+03 0.  0.
          5    1    3    3  502    0  0.39830883853E+02 -0.17741258716E+02 -0.81559050401E+02  0.92577549501E+02  0.41800000000E+01 0.  1.
         -5    1    3    3    0  502 -0.62376529850E+02 -0.71236774105E+01 -0.48348829623E+01  0.63106471532E+02  0.41800000000E+01 0.  1.
        -11    1    1    2    0    0  0.23636609667E+02 -0.17813784342E+02 -0.66431482087E+02  0.72726625395E+02  0.00000000000E+00 0. -1.
         11    1    1    2    0    0 -0.10909636704E+01  0.42678720469E+02  0.11761438361E+02  0.44283121106E+02  0.00000000000E+00 0.  1.
</event>
<event>
 7    1  0.2723366E-009  0.9691853E+02  0.7561462E-02  0.1286913E+00
          2   -1    0    0  501    0  0.00000000000E+00  0.00000000000E+00  0.27606489370E+03  0.27606489370E+03  0.00000000000E+00 0. -1.
         -2   -1    0    0    0  501 -0.00000000000E+00 -0.00000000000E+00 -0.46180500069E+02  0.46180500069E+02  0.00000000000E+00 0.  1.
         25    2    1    2    0    0  0.74616996335E+01 -0.25528668467E+02  0.11262515068E+03  0.17041022500E+03  0.12509128805E+03 0.  0.
          5    1    3    3  502    0 -0.72492886820E+01 -0.75254047252E+02  0.62739016954E+02  0.98333008002E+02  0.41800000000E+01 0.  1.
         -5    1    3    3    0  502  0.14710988316E+02  0.49725378786E+02  0.49886133722E+02  0.72077216999E+02  0.41800000000E+01 0.  1.
        -11    1    1    2    0    0 -0.33938289822E+02  0.18712824107E+02  0.11828900550E+03  0.12447596605E+03  0.00000000000E+00 0. -1.
         11    1    1    2    0    0  0.26476590188E+02  0.68158443603E+01 -0.10297625479E+01  0.27359202716E+02  0.00000000000E+00 0.  1.
</event>
<event>
 7    1  0.2723366E-009  0.1299777E+03  0.7561462E-02  0.1227489E+00
          1   -1    0    0  501    0  0.00000000000E+00  0.00000000000E+00  0.36345751962E+03  0.36345751962E+03  0.00000000000E+00 0. -1.
         -1   -1    0    0    0  501 -0.00000000000E+00 -0.00000000000E+00 -0.78658263606E+02  0.78658263606E+02  0.00000000000E+00 0.  1.
         25    2    1    2    0    0 -0.10376399051E+03 -0.76332748474E+02  0.15163957587E+03  0.23502250289E+03  0.12508941473E+03 0.  0.
          5    1    3    3  502    0 -0.64939879770E+02 -0.42793478637E+02  0.32428467240E+01  0.77951640478E+02  0.41800000000E+01 0.  1.
         -5    1    3    3    0  502 -0.38824110742E+02 -0.33539269837E+02  0.14839672915E+03  0.15707086241E+03  0.41800000000E+01 0.  1.
        -11    1    1    2    0    0  0.83220592938E+02  0.49595240147E+02  0.34511343366E+02  0.10284156628E+03  0.00000000000E+00 0.  1.
         11    1    1    2    0    0  0.20543397574E+02  0.26737508327E+02  0.98648336773E+02  0.10425171406E+03  0.00000000000E+00 0. -1.
</event>
<event>
 7    1  0.2723366E-009  0.1458741E+03  0.7561462E-02  0.1205636E+00
         -1   -1    0    0    0  501 -0.00000000000E+00  0.00000000000E+00  0.92154740123E+03  0.92154740123E+03  0.00000000000E+00 0.  1.
          1   -1    0    0  501    0  0.00000000000E+00 -0.00000000000E+00 -0.28236370409E+02  0.28236370409E+02  0.00000000000E+00 0. -1.
         25    2    1    2    0    0  0.97194241843E+02  0.39934708015E+02  0.63984183100E+03  0.66036970593E+03  0.12509627599E+03 0.  0.
          5    1    3    3  502    0  0.29661614727E+02 -0.39207181192E+02  0.32583846332E+03  0.32955301701E+03  0.41800000000E+01 0. -1.
         -5    1    3    3    0  502  0.67532627116E+02  0.79141889206E+02  0.31400336768E+03  0.33081668892E+03  0.41800000000E+01 0. -1.
        -11    1    1    2    0    0 -0.82205214258E+02 -0.67856925953E+02  0.17671195632E+03  0.20637193403E+03  0.00000000000E+00 0.  1.
         11    1    1    2    0    0 -0.14989027585E+02  0.27922217938E+02  0.76757243503E+02  0.83042131672E+02  0.00000000000E+00 0. -1.
</event>
<event>
 7    1  0.2723366E-009  0.2617189E+03  0.7561462E-02  0.1106115E+00
         -1   -1    0    0    0  501 -0.00000000000E+00  0.00000000000E+00  0.40235832633E+03  0.40235832633E+03  0.00000000000E+00 0.  1.
          1   -1    0    0  501    0  0.00000000000E+00 -0.00000000000E+00 -0.22214375154E+03  0.22214375154E+03  0.00000000000E+00 0. -1.
         25    2    1    2    0    0 -0.25499815725E+03 -0.54449789155E+02 -0.11379237728E+02  0.28942417408E+03  0.12509206910E+03 0.  0.
          5    1    3    3  502    0 -0.69951927096E+02 -0.17169317837E+01 -0.58476846444E+02  0.91286548457E+02  0.41800000000E+01 0. -1.
         -5    1    3    3    0  502 -0.18504623016E+03 -0.52732857371E+02  0.47097608717E+02  0.19813762563E+03  0.41800000000E+01 0. -1.
        -11    1    1    2    0    0  0.22416350527E+03  0.45047117775E+02  0.19770453232E+03  0.30226743459E+03  0.00000000000E+00 0.  1.
         11    1    1    2    0    0  0.30834651983E+02  0.94026713799E+01 -0.61107198032E+01  0.32810469191E+02  0.00000000000E+00 0. -1.
</event>
<event>
 7    1  0.2723366E-009  0.7162926E+02  0.7561462E-02  0.1354639E+00
         -1   -1    0    0    0  501 -0.00000000000E+00  0.00000000000E+00  0.38850524533E+02  0.38850524533E+02  0.00000000000E+00 0.  1.
          1   -1    0    0  501    0  0.00000000000E+00 -0.00000000000E+00 -0.32830400178E+03  0.32830400178E+03  0.00000000000E+00 0. -1.
         25    2    1    2    0    0 -0.12169743025E+02 -0.46603171679E+02 -0.21112597228E+03  0.25007872399E+03  0.12508090887E+03 0.  0.
          5    1    3    3  502    0 -0.45353715364E+02 -0.39797010591E+02 -0.33375260980E+02  0.69080691910E+02  0.41800000000E+01 0. -1.
         -5    1    3    3    0  502  0.33183972339E+02 -0.68061610886E+01 -0.17775071130E+03  0.18099803208E+03  0.41800000000E+01 0. -1.
        -11    1    1    2    0    0  0.14652665089E+01  0.18702907266E+02  0.11773392023E+02  0.22148555390E+02  0.00000000000E+00 0.  1.
         11    1    1    2    0    0  0.10704476516E+02  0.27900264413E+02 -0.90100896991E+02  0.94927246934E+02  0.00000000000E+00 0. -1.
</event>
<event>
 7    1  0.2723366E-009  0.1392575E+03  0.7561462E-02  0.1214331E+00
          1   -1    0    0  501    0  0.00000000000E+00  0.00000000000E+00  0.95903514416E+02  0.95903514416E+02  0.00000000000E+00 0. -1.
         -1   -1    0    0    0  501 -0.00000000000E+00 -0.00000000000E+00 -0.26887956364E+03  0.26887956364E+03  0.00000000000E+00 0.  1.
         25    2    1    2    0    0 -0.93235193005E+02  0.76254805238E+01 -0.17535936989E+03  0.23483766113E+03  0.12508744666E+03 0.  0.
          5    1    3    3  502    0 -0.14438898160E+02 -0.53768066540E+02 -0.54997593452E+02  0.78368963532E+02  0.41800000000E+01 0. -1.
         -5    1    3    3    0  502 -0.78796294845E+02  0.61393547064E+02 -0.12036177643E+03  0.15646869760E+03  0.41800000000E+01 0. -1.
        -11    1    1    2    0    0  0.44924500542E+02  0.36035218609E+02 -0.20189042485E+02  0.61027413231E+02  0.00000000000E+00 0.  1.
         11    1    1    2    0    0  0.48310692463E+02 -0.43660699133E+02  0.22572363147E+02  0.68918003693E+02  0.00000000000E+00 0. -1.
</event>
<event>
 7    1  0.2723366E-009  0.2173560E+03  0.7561462E-02  0.1135870E+00
          1   -1    0    0  501    0  0.00000000000E+00  0.00000000000E+00  0.25003707042E+03  0.25003707042E+03  0.00000000000E+00 0. -1.
         -1   -1    0    0    0  501 -0.00000000000E+00 -0.00000000000E+00 -0.21578396872E+03  0.21578396872E+03  0.00000000000E+00 0.  1.
         25    2    1    2    0    0  0.17255702114E+03  0.89959305211E+02 -0.46967292201E+02  0.23605500334E+03  0.12508971151E+03 0.  0.
          5    1    3    3  502    0  0.12101848237E+03  0.11427454189E+03 -0.60822493596E+02  0.17725967428E+03  0.41800000000E+01 0.  1.
         -5    1    3    3    0  502  0.51538538762E+02 -0.24315236680E+02  0.13855201395E+02  0.58795329051E+02  0.41800000000E+01 0.  1.
        -11    1    1    2    0    0 -0.12456076275E+03 -0.10267365738E+03  0.79857087465E+02  0.18009558005E+03  0.00000000000E+00 0. -1.
         11    1    1    2    0    0 -0.47996258382E+02  0.12714352165E+02  0.13633064420E+01  0.49670455747E+02  0.00000000000E+00 0.  1.
</event>
<event>
 7    1  0.2723366E-009  0.1460629E+03  0.7561462E-02  0.1205396E+00
          2   -1    0    0  501    0  0.00000000000E+00  0.00000000000E+00  0.88762899881E+03  0.88762899881E+03  0.00000000000E+00 0. -1.
         -2   -1    0    0    0  501 -0.00000000000E+00 -0.00000000000E+00 -0.35704320884E+02  0.35704320884E+02  0.00000000000E+00 0.  1.
         25    2    1    2    0    0 -0.64243155229E+02  0.12609612977E+03  0.46272626238E+03  0.49979079513E+03  0.12509127894E+03 0.  0.
          5    1    3    3  502    0 -0.15101331610E+02  0.66335331237E+02  0.38147491158E+03  0.38751646024E+03  0.41800000000E+01 0.  1.
         -5    1    3    3    0  502 -0.49141823618E+02  0.59760798535E+02  0.81251350792E+02  0.11227433489E+03  0.41800000000E+01 0.  1.
        -11    1    1    2    0    0  0.46003768546E+02 -0.48813572010E+02  0.28357723521E+03  0.29140205878E+03  0.00000000000E+00 0. -1.
         11    1    1    2    0    0  0.18239386682E+02 -0.77282557762E+02  0.10562118034E+03  0.13214046578E+03  0.00000000000E+00 0.  1.
</event>
<event>
 7    1  0.2723366E-009  0.8989265E+02  0.7561462E-02  0.1303112E+00
          3   -1    0    0  501    0  0.00000000000E+00  0.00000000000E+00  0.75800027664E+02  0.75800027664E+02  0.00000000000E+00 0. -1.
         -3   -1    0    0    0  501 -0.00000000000E+00 -0.00000000000E+00 -0.27279600857E+03  0.27279600857E+03  0.00000000000E+00 0.  1.
         25    2    1    2    0    0 -0.43860779242E+02 -0.74490390620E+02 -0.15152079676E+03  0.21465971747E+03  0.12509059199E+03 0.  0.
          5    1    3    3  502    0 -0.31716965224E+02 -0.63594783817E+02 -0.17316965651E+03  0.18723104643E+03  0.41800000000E+01 0.  1.
         -5    1    3    3    0  502 -0.12143814018E+02 -0.10895606803E+02  0.21648859752E+02  0.27428671041E+02  0.41800000000E+01 0.  1.
        -11    1    1    2    0    0  0.43250369850E+02  0.45565015216E+02  0.17003818831E+02  0.65083753415E+02  0.00000000000E+00 0. -1.
         11    1    1    2    0    0  0.61040939235E+00  0.28925375404E+02 -0.62479002979E+02  0.68852565349E+02  0.00000000000E+00 0.  1.
</event>
<event>
 7    1  0.2723366E-009  0.1301807E+03  0.7561462E-02  0.1227188E+00
         -2   -1    0    0    0  501 -0.00000000000E+00  0.00000000000E+00  0.23504203594E+02  0.23504203594E+02  0.00000000000E+00 0.  1.
          2   -1    0    0  501    0  0.00000000000E+00 -0.00000000000E+00 -0.11136046933E+04  0.11136046933E+04  0.00000000000E+00 0. -1.
         25    2    1    2    0    0  0.61538353381E+02 -0.10092140136E+03 -0.66357616518E+03  0.68553139590E+03  0.12509144488E+03 0.  0.
          5    1    3    3  502    0  0.33779231210E+02 -0.97959554229E+02 -0.24551940117E+03  0.26652271850E+03  0.41800000000E+01 0. -1.
         -5    1    3    3    0  502  0.27759122171E+02 -0.29618471291E+01 -0.41805676401E+03  0.41900867740E+03  0.41800000000E+01 0. -1.
        -11    1    1    2    0    0 -0.41811937260E+02  0.22332558592E+02 -0.61390666114E+02  0.77561557209E+02  0.00000000000E+00 0.  1.
         11    1    1    2    0    0 -0.19726416121E+02  0.78588842766E+02 -0.36513365846E+03  0.37401594383E+03  0.00000000000E+00 0. -1.
</event>
<event>
 7    1  0.2723366E-009  0.1440183E+03  0.7561462E-02  0.1208022E+00
          2   -1    0    0  501    0  0.00000000000E+00  0.00000000000E+00  0.43225901462E+03  0.43225901462E+03  0.00000000000E+00 0. -1.
         -2   -1    0    0    0  501 -0.00000000000E+00 -0.00000000000E+00 -0.59267427616E+02  0.59267427616E+02  0.00000000000E+00 0.  1.
         25    2    1    2    0    0  0.11537298725E+03  0.13470987782E+02  0.17000523820E+03  0.24092346724E+03  0.12509972963E+03 0.  0.
          5    1    3    3  502    0  0.77730903218E+02 -0.52965303202E+02  0.90036151394E+02  0.13027431679E+03  0.41800000000E+01 0. -1.
         -5    1    3    3    0  502  0.37642084029E+02  0.66436290984E+02  0.79969086803E+02  0.11064915044E+03  0.41800000000E+01 0. -1.
        -11    1    1    2    0    0 -0.60962035713E+02  0.14871454872E+01  0.28675965240E+02  0.67386143845E+02  0.00000000000E+00 0.  1.
         11    1    1    2    0    0 -0.54410951535E+02 -0.14958133269E+02  0.17431038356E+03  0.18321683115E+03  0.00000000000E+00 0. -1.
</event>
<event>
 7    1  0.2723366E-009  0.1031487E+03  0.7561462E-02  0.1273811E+00
         -1   -1    0    0    0  501 -0.00000000000E+00  0.00000000000E+00  0.86994448710E+02  0.86994448710E+02  0.00000000000E+00 0.  1.
          1   -1    0    0  501    0  0.00000000000E+00 -0.00000000000E+00 -0.14678407749E+03  0.14678407749E+03  0.00000000000E+00 0. -1.
         25    2    1    2    0    0 -0.26481559290E+02  0.14948565048E+02 -0.23755603686E+02  0.13090709040E+03  0.12509038745E+03 0.  0.
          5    1    3    3  502    0 -0.58335445991E+02 -0.33197265632E+02 -0.28054496293E+02  0.72867069837E+02  0.41800000000E+01 0. -1.
         -5    1    3    3    0  502  0.31853886701E+02  0.48145830680E+02  0.42988926070E+01  0.58040020568E+02  0.41800000000E+01 0. -1.
        -11    1    1    2    0    0  0.87543768295E+01  0.30844254703E+02  0.11948029161E+02  0.34216407799E+02  0.00000000000E+00 0.  1.
         11    1    1    2    0    0  0.17727182460E+02 -0.45792819750E+02 -0.47982054256E+02  0.68655027997E+02  0.00000000000E+00 0. -1.
</event>
<event>
 7    1  0.2723366E-009  0.1264562E+03  0.7561462E-02  0.1232811E+00
         -1   -1    0    0    0  501 -0.00000000000E+00  0.00000000000E+00  0.41842817887E+02  0.41842817887E+02  0.00000000000E+00 0.  1.
          1   -1    0    0  501    0  0.00000000000E+00 -0.00000000000E+00 -0.64752371530E+03  0.64752371530E+03  0.00000000000E+00 0. -1.
         25    2    1    2    0    0  0.77856250171E+02  0.90267165353E+02 -0.38872396327E+03  0.42539831440E+03  0.12509056495E+03 0.  0.
          5    1    3    3  502    0  0.58355302703E+02  0.84897832648E+02 -0.39123450851E+03  0.40459225943E+03  0.41800000000E+01 0. -1.
         -5    1    3    3    0  502  0.19500947467E+02  0.53693327047E+01  0.25105452399E+01  0.20806054965E+02  0.41800000000E+01 0. -1.
        -11    1    1    2    0    0 -0.31203315394E+02 -0.45087004042E+01 -0.12822023547E+03  0.13203940342E+03  0.00000000000E+00 0. -1.
         11    1    1    2    0    0 -0.46652934776E+02 -0.85758464949E+02 -0.88736698665E+02  0.13192881537E+03  0.00000000000E+00 0.  1.
</event>
<event>
 7    1  0.2723366E-009  0.1275873E+03  0.7561462E-02  0.1231080E+00
          2   -1    0    0  501    0  0.00000000000E+00  0.00000000000E+00  0.18135701406E+04  0.18135701406E+04  0.00000000000E+00 0.  1.
         -2   -1    0    0    0  501 -0.00000000000E+00 -0.00000000000E+00 -0.13994666754E+02  0.13994666754E+02  0.00000000000E+00 0. -1.
         25    2    1    2    0    0  0.10410603645E+03  0.38492271667E+02  0.12146274548E+04  0.12260862356E+04  0.12509149212E+03 0.  0.
          5    1    3    3  502    0  0.91092405771E+02  0.44942739709E+02  0.12022778286E+04  0.12065683262E+04  0.41800000000E+01 0. -1.
         -5    1    3    3    0  502  0.13013630680E+02 -0.64504680420E+01  0.12349626256E+02  0.19517909471E+02  0.41800000000E+01 0. -1.
        -11    1    1    2    0    0 -0.43342235510E+02 -0.59933120764E+02  0.35799412905E+03  0.36555481775E+03  0.00000000000E+00 0.  1.
         11    1    1    2    0    0 -0.60763800941E+02  0.21440849096E+02  0.22695389000E+03  0.23592375400E+03  0.00000000000E+00 0. -1.
</event>
<event>
 7    1  0.2723366E-009  0.1173168E+03  0.7561462E-02  0.1247590E+00
         -1   -1    0    0    0  501 -0.00000000000E+00  0.00000000000E+00  0.78879265946E+02  0.78879265946E+02  0.00000000000E+00 0.  1.
          1   -1    0    0  501    0  0.00000000000E+00 -0.00000000000E+00 -0.23307164221E+03  0.23307164221E+03  0.00000000000E+00 0. -1.
         25    2    1    2    0    0  0.29027354701E+02  0.66190205147E+02 -0.12451184185E+03  0.19072251914E+03  0.12509256559E+03 0.  0.
          5    1    3    3  502    0  0.56628529646E+02 -0.27853523602E+01 -0.15839811090E+02  0.59016273798E+02  0.41800000000E+01 0.  1.
         -5    1    3    3    0  502 -0.27601174945E+02  0.68975557507E+02 -0.10867203076E+03  0.13170624534E+03  0.41800000000E+01 0.  1.
        -11    1    1    2    0    0 -0.33944515765E+02  0.29360318603E+01  0.16594662875E+02  0.37897668392E+02  0.00000000000E+00 0.  1.
         11    1    1    2    0    0  0.49171610638E+01 -0.69126237007E+02 -0.46275197287E+02  0.83330720624E+02  0.00000000000E+00 0. -1.
</event>
<event>
 7    1  0.2723366E-009  0.1114611E+03  0.7561462E-02  0.1257888E+00
         -4   -1    0    0    0  501 -0.00000000000E+00  0.00000000000E+00  0.30361981364E+02  0.30361981364E+02  0.00000000000E+00 0.  1.
          4   -1    0    0  501    0  0.00000000000E+00 -0.00000000000E+00 -0.49295746535E+03  0.49295746535E+03  0.00000000000E+00 0. -1.
         25    2    1    2    0    0 -0.15377593573E+02  0.53121651146E+02 -0.28787256022E+03  0.31871044649E+03  0.12508939831E+03 0.  0.
          5    1    3    3  502    0  0.94235676816E+01 -0.32464188540E+02 -0.15481228395E+03  0.15851511860E+03  0.41800000000E+01 0.  1.
         -5    1    3    3    0  502 -0.24801161255E+02  0.85585839686E+02 -0.13306027628E+03  0.16019532789E+03  0.41800000000E+01 0.  1.
        -11    1    1    2    0    0 -0.34432240482E+02 -0.19657425172E+02 -0.36369687100E+02  0.53802859485E+02  0.00000000000E+00 0.  1.
         11    1    1    2    0    0  0.49809834056E+02 -0.33464225974E+02 -0.13835323667E+03  0.15080614074E+03  0.00000000000E+00 0. -1.
</event>
<event>
 7    1  0.2723366E-009  0.9966389E+02  0.7561462E-02  0.1281004E+00
         -2   -1    0    0    0  501 -0.00000000000E+00  0.00000000000E+00  0.88128215448E+02  0.88128215448E+02  0.00000000000E+00 0. -1.
          2   -1    0    0  501    0  0.00000000000E+00 -0.00000000000E+00 -0.18465440794E+03  0.18465440794E+03  0.00000000000E+00 0.  1.
         25    2    1    2    0    0 -0.27163214310E+02 -0.13683762672E+02 -0.11826144470E+03  0.17481016561E+03  0.12509092344E+03 0.  0.
          5    1    3    3  502    0 -0.55846783561E+02 -0.40447357520E+02 -0.11634768429E+03  0.13531115255E+03  0.41800000000E+01 0.  1.
         -5    1    3    3    0  502  0.28683569251E+02  0.26763594848E+02 -0.19137604083E+01  0.39499013064E+02  0.41800000000E+01 0.  1.
        -11    1    1    2    0    0  0.30433459613E+02  0.47720882287E+02 -0.15205178305E+01  0.56619696614E+02  0.00000000000E+00 0.  1.
         11    1    1    2    0    0 -0.32702453025E+01 -0.34037119614E+02  0.23255770034E+02  0.41352761163E+02  0.00000000000E+00 0. -1.
</event>
<event>
 7    1  0.2723366E-009  0.1099007E+03  0.7561462E-02  0.1260754E+00
         -2   -1    0    0    0  501 -0.00000000000E+00  0.00000000000E+00  0.16193505233E+03  0.16193505233E+03  0.00000000000E+00 0.  1.
          2   -1    0    0  501    0  0.00000000000E+00 -0.00000000000E+00 -0.79130535189E+02  0.79130535189E+02  0.00000000000E+00 0. -1.
         25    2    1    2    0    0  0.15857911395E+02 -0.29457342935E+02  0.59577261249E+02  0.14253188967E+03  0.12508669437E+03 0.  0.
          5    1    3    3  502    0  0.40092472319E+02 -0.70745327988E+02  0.37901834424E+02  0.89812745317E+02  0.41800000000E+01 0. -1.
         -5    1    3    3    0  502 -0.24234560923E+02  0.41287985053E+02  0.21675426825E+02  0.52719144350E+02  0.41800000000E+01 0. -1.
        -11    1    1    2    0    0 -0.46855270561E+02  0.35443370747E+02 -0.96740628831E+00  0.58758699647E+02  0.00000000000E+00 0. -1.
         11    1    1    2    0    0  0.30997359166E+02 -0.59860278128E+01  0.24194662181E+02  0.39774998206E+02  0.00000000000E+00 0.  1.
</event>
<event>
 7    1  0.2723366E-009  0.1280505E+03  0.7561462E-02  0.1230377E+00
         -1   -1    0    0    0  501 -0.00000000000E+00  0.00000000000E+00  0.39867562052E+03  0.39867562052E+03  0.00000000000E+00 0.  1.
          1   -1    0    0  501    0  0.00000000000E+00 -0.00000000000E+00 -0.67145437750E+02  0.67145437750E+02  0.00000000000E+00 0. -1.
         25    2    1    2    0    0 -0.82925824505E+02  0.81830815974E+02  0.23781657898E+03  0.29288271649E+03  0.12510230041E+03 0.  0.
          5    1    3    3  502    0 -0.53784214301E+02  0.77250722846E+02  0.24477785745E+03  0.26228627068E+03  0.41800000000E+01 0.  1.
         -5    1    3    3    0  502 -0.29141610204E+02  0.45800931283E+01 -0.69612784721E+01  0.30596445811E+02  0.41800000000E+01 0.  1.
        -11    1    1    2    0    0  0.68793845338E+02 -0.91853448050E+02  0.48624923723E+02  0.12463559797E+03  0.00000000000E+00 0. -1.
         11    1    1    2    0    0  0.14131979167E+02  0.10022632076E+02  0.45088680066E+02  0.48302743804E+02  0.00000000000E+00 0.  1.
</event>
<event>
 7    1  0.2723366E-009  0.9744272E+02  0.7561462E-02  0.1285767E+00
          2   -1    0    0  501    0  0.00000000000E+00  0.00000000000E+00  0.11872460675E+04  0.11872460675E+04  0.00000000000E+00 0. -1.
         -2   -1    0    0    0  501 -0.00000000000E+00 -0.00000000000E+00 -0.17767449703E+02  0.17767449703E+02  0.00000000000E+00 0.  1.
         25    2    1    2    0    0  0.66498476812E+02 -0.19010066306E+02  0.92371067319E+03  0.93470697465E+03  0.12510911501E+03 0.  0.
          5    1    3    3  502    0  0.70828939430E+02 -0.26173275446E+02  0.92212079566E+03  0.92521673850E+03  0.41800000000E+01 0.  1.
         -5    1    3    3    0  502 -0.43304626181E+01  0.71632091393E+01  0.15898775270E+01  0.94902361515E+01  0.41800000000E+01 0.  1.
        -11    1    1    2    0    0 -0.37101126874E+02 -0.33329494677E+02  0.83123484003E+02  0.96937414983E+02  0.00000000000E+00 0.  1.
         11    1    1    2    0    0 -0.29397349938E+02  0.52339560984E+02  0.16264446056E+03  0.17336912752E+03  0.00000000000E+00 0. -1.
</event>
<event>
 7    1  0.2723366E-009  0.2161335E+03  0.7561462E-02  0.1136799E+00
         -1   -1    0    0    0  501 -0.00000000000E+00  0.00000000000E+00  0.16335573473E+03  0.16335573473E+03  0.00000000000E+00 0.  1.
          1   -1    0    0  501    0  0.00000000000E+00 -0.00000000000E+00 -0.33623164573E+03  0.33623164573E+03  0.00000000000E+00 0. -1.
         25    2    1    2    0    0  0.73075129296E+02  0.17857436408E+03 -0.16975698368E+03  0.28582288244E+03  0.12509399903E+03 0.  0.
          5    1    3    3  502    0  0.25856487404E+01  0.14615911727E+03 -0.78531434303E+02  0.16599346889E+03  0.41800000000E+01 0. -1.
         -5    1    3    3    0  502  0.70489480555E+02  0.32415246814E+02 -0.91225549374E+02  0.11982941356E+03  0.41800000000E+01 0. -1.
        -11    1    1    2    0    0 -0.37749175750E+02 -0.14411733271E+02  0.18532455704E+02  0.44453911415E+02  0.00000000000E+00 0.  1.
         11    1    1    2    0    0 -0.35325953546E+02 -0.16416263081E+03 -0.21651383021E+02  0.16931058660E+03  0.00000000000E+00 0. -1.
</event>
<event>
 7    1  0.2723366E-009  0.6597527E+02  0.7561462E-02  0.1374340E+00
         -1   -1    0    0    0  501 -0.00000000000E+00  0.00000000000E+00  0.91751723918E+02  0.91751723918E+02  0.00000000000E+00 0.  1.
          1   -1    0    0  501    0  0.00000000000E+00 -0.00000000000E+00 -0.22145042015E+03  0.22145042015E+03  0.00000000000E+00 0. -1.
         25    2    1    2    0    0 -0.20308026940E+02 -0.43117884461E+02 -0.15710695329E+03  0.20640489581E+03  0.12509523701E+03 0.  0.
          5    1    3    3  502    0 -0.34947430312E+02 -0.47522755711E+02 -0.17368088173E+03  0.18347276712E+03  0.41800000000E+01 0.  1.
         -5    1    3    3    0  502  0.14639403372E+02  0.44048712500E+01  0.16573928445E+02  0.22932128683E+02  0.41800000000E+01 0.  1.
        -11    1    1    2    0    0  0.10105871309E+02  0.45399174120E+02  0.58071432516E+02  0.74400973920E+02  0.00000000000E+00 0.  1.
         11    1    1    2    0    0  0.10202155631E+02 -0.22812896595E+01 -0.30663175462E+02  0.32396274346E+02  0.00000000000E+00 0. -1.
</event>
<event>
 7    1  0.2723366E-009  0.1044179E+03  0.7561462E-02  0.1271271E+00
         -4   -1    0    0    0  501 -0.00000000000E+00  0.00000000000E+00  0.55568466470E+03  0.55568466470E+03  0.00000000000E+00 0.  1.
          4   -1    0    0  501    0  0.00000000000E+00 -0.00000000000E+00 -0.28353892354E+02  0.28353892354E+02  0.00000000000E+00 0. -1.
         25    2    1    2    0    0  0.58794295236E+01  0.12990096842E+02  0.43669834531E+03  0.45448325099E+03  0.12508505236E+03 0.  0.
          5    1    3    3  502    0  0.41025066098E+02 -0.42866170127E+02  0.22219228658E+03  0.23001619336E+03  0.41800000000E+01 0.  1.
         -5    1    3    3    0  502 -0.35145636575E+02  0.55856266969E+02  0.21450605873E+03  0.22446705764E+03  0.41800000000E+01 0.  1.
        -11    1    1    2    0    0  0.29161737382E+02 -0.32056475640E+02  0.18485959011E+02  0.47114278495E+02  0.00000000000E+00 0.  1.
         11    1    1    2    0    0 -0.35041166905E+02  0.19066378798E+02  0.72146468019E+02  0.82441027566E+02  0.00000000000E+00 0. -1.
</event>
<event>
 7    1  0.2723366E-009  0.1393085E+03  0.7561462E-02  0.1214262E+00
          1   -1    0    0  501    0  0.00000000000E+00  0.00000000000E+00  0.16875493452E+03  0.16875493452E+03  0.00000000000E+00 0. -1.
         -1   -1    0    0    0  501 -0.00000000000E+00 -0.00000000000E+00 -0.15697608739E+03  0.15697608739E+03  0.00000000000E+00 0.  1.
         25    2    1    2    0    0  0.98940342472E+02 -0.50816875786E+02 -0.43872467511E+02  0.17304053451E+03  0.12508671770E+03 0.  0.
          5    1    3    3  502    0 -0.28791475641E+02 -0.21576185600E+02 -0.75523171495E+01  0.36999874986E+02  0.41800000000E+01 0.  1.
         -5    1    3    3    0  502  0.12773181811E+03 -0.29240690186E+02 -0.36320150361E+02  0.13604065952E+03  0.41800000000E+01 0.  1.
        -11    1    1    2    0    0 -0.28065984662E+02  0.12490087455E+02  0.64687919597E+02  0.71611652135E+02  0.00000000000E+00 0. -1.
         11    1    1    2    0    0 -0.70874357810E+02  0.38326788330E+02 -0.90366049563E+01  0.81078835265E+02  0.00000000000E+00 0.  1.
</event>
<event>
 7    1  0.2723366E-009  0.1319647E+03  0.7561462E-02  0.1224569E+00
          1   -1    0    0  501    0  0.00000000000E+00  0.00000000000E+00  0.43972278245E+03  0.43972278245E+03  0.00000000000E+00 0. -1.
         -1   -1    0    0    0  501 -0.00000000000E+00 -0.00000000000E+00 -0.46374825326E+02  0.46374825326E+02  0.00000000000E+00 0.  1.
         25    2    1    2    0    0 -0.43335683979E+02  0.10946128140E+02  0.12953493121E+03  0.18553768666E+03  0.12508851083E+03 0.  0.
          5    1    3    3  502    0  0.34826292367E+02 -0.17946857983E+02  0.11601159725E+02  0.41073344866E+02  0.41800000000E+01 0.  1.
         -5    1    3    3    0  502 -0.78161976346E+02  0.28892986124E+02  0.11793377148E+03  0.14446434179E+03  0.41800000000E+01 0.  1.
        -11    1    1    2    0    0 -0.47741961799E+02  0.70331131054E+01  0.63283078847E+02  0.79583337859E+02  0.00000000000E+00 0. -1.
         11    1    1    2    0    0  0.91077645779E+02 -0.17979241246E+02  0.20052994707E+03  0.22097658325E+03  0.00000000000E+00 0.  1.
</event>
<event>
 7    1  0.3052461E-009  0.1098879E+03  0.7561462E-02  0.1260778E+00
          2   -1    0    0  501    0  0.00000000000E+00  0.00000000000E+00  0.76736052091E+03  0.76736052091E+03  0.00000000000E+00 0. -1.
         -2   -1    0    0    0  501 -0.00000000000E+00 -0.00000000000E+00 -0.18504322241E+02  0.18504322241E+02  0.00000000000E+00 0.  1.
         25    2    1    2    0    0 -0.33189728822E+02  0.90928488592E+01  0.30579526629E+03  0.33217843442E+03  0.12509008517E+03 0.  0.
          5    1    3    3  502    0 -0.44014783812E+02 -0.51080999612E+02  0.17971713481E+03  0.19199554854E+03  0.41800000000E+01 0.  1.
         -5    1    3    3    0  502  0.10825054989E+02  0.60173848471E+02  0.12607813148E+03  0.14018288588E+03  0.41800000000E+01 0.  1.
        -11    1    1    2    0    0 -0.27933978585E+02 -0.10374903548E+02  0.77178672188E+02  0.82731452447E+02  0.00000000000E+00 0.  1.
         11    1    1    2    0    0  0.61123707407E+02  0.12820546886E+01  0.36588226019E+03  0.37095495629E+03  0.00000000000E+00 0. -1.
</event>
<event>
 7    1  0.2723366E-009  0.1129510E+03  0.7561462E-02  0.1255201E+00
         -1   -1    0    0    0  501 -0.00000000000E+00  0.00000000000E+00  0.42473556713E+03  0.42473556713E+03  0.00000000000E+00 0.  1.
          1   -1    0    0  501    0  0.00000000000E+00 -0.00000000000E+00 -0.30382226169E+02  0.30382226169E+02  0.00000000000E+00 0. -1.
         25    2    1    2    0    0  0.23349383902E+02  0.23025786219E+02  0.21980028464E+03  0.25502669203E+03  0.12510422837E+03 0.  0.
          5    1    3    3  502    0 -0.43299605620E+02 -0.21657416139E+02  0.92546798192E+02  0.10452885619E+03  0.41800000000E+01 0. -1.
         -5    1    3    3    0  502  0.66648989523E+02  0.44683202358E+02  0.12725348645E+03  0.15049783584E+03  0.41800000000E+01 0. -1.
        -11    1    1    2    0    0 -0.44098686168E+02 -0.47538149025E+02  0.12867230739E+03  0.14408723894E+03  0.00000000000E+00 0. -1.
         11    1    1    2    0    0  0.20749302265E+02  0.24512362806E+02  0.45880748930E+02  0.56003862342E+02  0.00000000000E+00 0.  1.
</event>
<event>
 7    1  0.2723366E-009  0.1409999E+03  0.7561462E-02  0.1211990E+00
          2   -1    0    0  501    0  0.00000000000E+00  0.00000000000E+00  0.66582832311E+03  0.66582832311E+03  0.00000000000E+00 0. -1.
         -2   -1    0    0    0  501 -0.00000000000E+00 -0.00000000000E+00 -0.37288042626E+02  0.37288042626E+02  0.00000000000E+00 0.  1.
         25    2    1    2    0    0  0.61225419387E+02  0.50208851599E+02  0.44084976258E+03  0.46504346963E+03  0.12508970667E+03 0.  0.
          5    1    3    3  502    0 -0.24667233518E+02 -0.22559875067E+02  0.13396619335E+03  0.13813701073E+03  0.41800000000E+01 0. -1.
         -5    1    3    3    0  502  0.85892652906E+02  0.72768726666E+02  0.30688356923E+03  0.32690645890E+03  0.41800000000E+01 0. -1.
        -11    1    1    2    0    0 -0.87590507485E+02 -0.10811920130E+02  0.75004849052E+02  0.11582194093E+03  0.00000000000E+00 0.  1.
         11    1    1    2    0    0  0.26365088098E+02 -0.39396931469E+02  0.11268566885E+03  0.12225095518E+03  0.00000000000E+00 0. -1.
</event>
<event>
 7    1  0.2723366E-009  0.1152582E+03  0.7561462E-02  0.1251131E+00
          1   -1    0    0  501    0  0.00000000000E+00  0.00000000000E+00  0.54201370221E+03  0.54201370221E+03  0.00000000000E+00 0. -1.
         -1   -1    0    0    0  501 -0.00000000000E+00 -0.00000000000E+00 -0.38839575874E+02  0.38839575874E+02  0.00000000000E+00 0.  1.
         25    2    1    2    0    0  0.76553201729E+02  0.34906472158E+02  0.19931252178E+03  0.24990531078E+03  0.12509327929E+03 0.  0.
          5    1    3    3  502    0 -0.55209965970E+01 -0.27038606292E+02  0.11049710925E+03  0.11396776380E+03  0.41800000000E+01 0.  1.
         -5    1    3    3    0  502  0.82074198326E+02  0.61945078449E+02  0.88815412531E+02  0.13593754698E+03  0.41800000000E+01 0.  1.
        -11    1    1    2    0    0 -0.40452709309E+02  0.10394888680E+02  0.31022796453E+02  0.52027774322E+02  0.00000000000E+00 0.  1.
         11    1    1    2    0    0 -0.36100492420E+02 -0.45301360838E+02  0.27283880810E+03  0.27892019298E+03  0.00000000000E+00 0. -1.
</event>
<event>
 7    1  0.2723366E-009  0.1190223E+03  0.7561462E-02  0.1244719E+00
         -1   -1    0    0    0  501 -0.00000000000E+00  0.00000000000E+00  0.43727396748E+03  0.43727396748E+03  0.00000000000E+00 0.  1.
          1   -1    0    0  501    0  0.00000000000E+00 -0.00000000000E+00 -0.34787535638E+02  0.34787535638E+02  0.00000000000E+00 0. -1.
         25    2    1    2    0    0  0.30826199899E+02 -0.34092928337E+02  0.16362305838E+03  0.21102794128E+03  0.12509078464E+03 0.  0.
          5    1    3    3  502    0  0.65622948163E+02 -0.60367613752E+02  0.11512616898E+03  0.14567816343E+03  0.41800000000E+01 0. -1.
         -5    1    3    3    0  502 -0.34796748264E+02  0.26274685414E+02  0.48496889398E+02  0.65349777847E+02  0.41800000000E+01 0. -1.
        -11    1    1    2    0    0 -0.62493803035E+01  0.65107229440E+02  0.13916212835E+03  0.15376639440E+03  0.00000000000E+00 0.  1.
         11    1    1    2    0    0 -0.24576819595E+02 -0.31014301102E+02  0.99701245106E+02  0.10726716744E+03  0.00000000000E+00 0. -1.
</event>
<event>
 7    1  0.2723366E-009  0.8589584E+02  0.7561462E-02  0.1313106E+00
         -1   -1    0    0    0  501 -0.00000000000E+00  0.00000000000E+00  0.48237942466E+03  0.48237942466E+03  0.00000000000E+00 0.  1.
          1   -1    0    0  501    0  0.00000000000E+00 -0.00000000000E+00 -0.20056944739E+02  0.20056944739E+02  0.00000000000E+00 0. -1.
         25    2    1    2    0    0 -0.10805122577E+02 -0.20531835565E+02  0.37447574100E+03  0.39549812840E+03  0.12509349313E+03 0.  0.
          5    1    3    3  502    0 -0.60131018610E+02 -0.38284742850E+02  0.25801878765E+03  0.26771744081E+03  0.41800000000E+01 0. -1.
         -5    1    3    3    0  502  0.49325896033E+02  0.17752907286E+02  0.11645695335E+03  0.12778068759E+03  0.41800000000E+01 0. -1.
        -11    1    1    2    0    0  0.23793979223E+02  0.35217415232E+00  0.77016610152E+02  0.80609154028E+02  0.00000000000E+00 0.  1.
         11    1    1    2    0    0 -0.12988856646E+02  0.20179661412E+02  0.10830128770E+02  0.26329086973E+02  0.00000000000E+00 0. -1.
</event>
<event>
 7    1  0.2723366E-009  0.2071142E+03  0.7561462E-02  0.1143872E+00
         -1   -1    0    0    0  501 -0.00000000000E+00  0.00000000000E+00  0.59762992588E+02  0.59762992588E+02  0.00000000000E+00 0.  1.
          1   -1    0    0  501    0  0.00000000000E+00 -0.00000000000E+00 -0.98224036144E+03  0.98224036144E+03  0.00000000000E+00 0. -1.
         25    2    1    2    0    0  0.18000289698E+03  0.71813527238E+02 -0.68012823833E+03  0.71817937265E+03  0.12509582371E+03 0.  0.
          5    1    3    3  502    0  0.35708043914E+02  0.51845704194E+02 -0.37218270534E+03  0.37749235753E+03  0.41800000000E+01 0.  1.
         -5    1    3    3    0  502  0.14429485307E+03  0.19967823043E+02 -0.30794553300E+03  0.34068701512E+03  0.41800000000E+01 0.  1.
        -11    1    1    2    0    0 -0.27528222913E+02 -0.41731832310E+02 -0.23081949119E+02  0.55064736991E+02  0.00000000000E+00 0.  1.
         11    1    1    2    0    0 -0.15247467407E+03 -0.30081694927E+02 -0.21926718140E+03  0.26875924438E+03  0.00000000000E+00 0. -1.
</event>
<event>
 7    1  0.2723366E-009  0.1036848E+03  0.7561462E-02  0.1272733E+00
         -1   -1    0    0    0  501 -0.00000000000E+00  0.00000000000E+00  0.16478025846E+03  0.16478025846E+03  0.00000000000E+00 0.  1.
          1   -1    0    0  501    0  0.00000000000E+00 -0.00000000000E+00 -0.76122331929E+02  0.76122331929E+02  0.00000000000E+00 0. -1.
         25    2    1    2    0    0  0.11054808067E+02 -0.17169907952E+02  0.70784117656E+02  0.14517185679E+03  0.12508981642E+03 0.  0.
          5    1    3    3  502    0 -0.39065131194E+02 -0.42069588674E+02  0.36601989134E+01  0.57678455445E+02  0.41800000000E+01 0.  1.
         -5    1    3    3    0  502  0.50119939262E+02  0.24899680722E+02  0.67123918743E+02  0.87493401345E+02  0.41800000000E+01 0.  1.
        -11    1    1    2    0    0 -0.46663190974E+02  0.30409396341E+02  0.65035372501E+01  0.56075670076E+02  0.00000000000E+00 0.  1.
         11    1    1    2    0    0  0.35608382906E+02 -0.13239488388E+02  0.11370271621E+02  0.39655063519E+02  0.00000000000E+00 0. -1.
</event>
<event>
 7    1  0.2723366E-009  0.9093498E+02  0.7561462E-02  0.1300603E+00
         -1   -1    0    0    0  501 -0.00000000000E+00  0.00000000000E+00  0.53924058330E+02  0.53924058330E+02  0.00000000000E+00 0.  1.
          1   -1    0    0  501    0  0.00000000000E+00 -0.00000000000E+00 -0.35060170197E+03  0.35060170197E+03  0.00000000000E+00 0. -1.
         25    2    1    2    0    0 -0.24050939179E+02 -0.43349531939E+02 -0.26765732227E+03  0.29957559832E+03  0.12508983710E+03 0.  0.
          5    1    3    3  502    0  0.61616149003E+01  0.40702047516E+02 -0.54527780649E+02  0.68449787675E+02  0.41800000000E+01 0.  1.
         -5    1    3    3    0  502 -0.30212554080E+02 -0.84051579456E+02 -0.21312954162E+03  0.23112581064E+03  0.41800000000E+01 0.  1.
        -11    1    1    2    0    0  0.14750743369E+02  0.36959079594E+02  0.26815371805E+02  0.47985645348E+02  0.00000000000E+00 0.  1.
         11    1    1    2    0    0  0.93001958104E+01  0.63904523449E+01 -0.55835693174E+02  0.56964516635E+02  0.00000000000E+00 0. -1.
</event>
<event>
 7    1  0.2723366E-009  0.1532541E+03  0.7561462E-02  0.1196530E+00
          2   -1    0    0  501    0  0.00000000000E+00  0.00000000000E+00  0.46903688074E+03  0.46903688074E+03  0.00000000000E+00 0.  1.
         -2   -1    0    0    0  501 -0.00000000000E+00 -0.00000000000E+00 -0.85811425083E+02  0.85811425083E+02  0.00000000000E+00 0. -1.
         25    2    1    2    0    0 -0.33433969049E+02  0.12480224406E+03  0.50965215783E+02  0.18691700842E+03  0.12508830644E+03 0.  0.
          5    1    3    3  502    0  0.72044573155E+01  0.10473563715E+03 -0.15662181466E+02  0.10622727627E+03  0.41800000000E+01 0. -1.
         -5    1    3    3    0  502 -0.40638426365E+02  0.20066606905E+02  0.66627397249E+02  0.80689732149E+02  0.41800000000E+01 0. -1.
        -11    1    1    2    0    0 -0.19842773126E+02  0.41465644235E+00  0.65895630984E+02  0.68819632141E+02  0.00000000000E+00 0. -1.
         11    1    1    2    0    0  0.53276742175E+02 -0.12521690050E+03  0.26636460889E+03  0.29911166527E+03  0.00000000000E+00 0.  1.
</event>
<event>
 7    1  0.2723366E-009  0.3310620E+03  0.7561462E-02  0.1070668E+00
         -2   -1    0    0    0  501 -0.00000000000E+00  0.00000000000E+00  0.21441605508E+03  0.21441605508E+03  0.00000000000E+00 0.  1.
          2   -1    0    0  501    0  0.00000000000E+00 -0.00000000000E+00 -0.65032853740E+03  0.65032853740E+03  0.00000000000E+00 0. -1.
         25    2    1    2    0    0  0.22455418900E+03  0.22557693907E+03 -0.40813045131E+03  0.53246927481E+03  0.12507407443E+03 0.  0.
          5    1    3    3  502    0  0.89926226868E+01  0.61870276064E+02 -0.35921340071E+02  0.72226126821E+02  0.41800000000E+01 0. -1.
         -5    1    3    3    0  502  0.21556156632E+03  0.16370666300E+03 -0.37220911123E+03  0.46024314799E+03  0.41800000000E+01 0. -1.
        -11    1    1    2    0    0 -0.58015963050E+02 -0.14338307165E+02  0.10164853274E+02  0.60619825660E+02  0.00000000000E+00 0.  1.
         11    1    1    2    0    0 -0.16653822595E+03 -0.21123863190E+03 -0.37946884285E+02  0.27165549201E+03  0.00000000000E+00 0. -1.
</event>
<event>
 7    1  0.2723366E-009  0.7513855E+02  0.7561462E-02  0.1343443E+00
          1   -1    0    0  501    0  0.00000000000E+00  0.00000000000E+00  0.13659077373E+03  0.13659077373E+03  0.00000000000E+00 0. -1.
         -1   -1    0    0    0  501 -0.00000000000E+00 -0.00000000000E+00 -0.91276235939E+02  0.91276235939E+02  0.00000000000E+00 0.  1.
         25    2    1    2    0    0 -0.79415914193E+01  0.26117246719E+02  0.33819596558E+02  0.13242630014E+03  0.12509108844E+03 0.  0.
          5    1    3    3  502    0 -0.30040708324E+02  0.22562779277E+02  0.75780282326E+02  0.84685575836E+02  0.41800000000E+01 0. -1.
         -5    1    3    3    0  502  0.22099116905E+02  0.35544674421E+01 -0.41960685768E+02  0.47740724302E+02  0.41800000000E+01 0. -1.
        -11    1    1    2    0    0  0.10181301814E+02  0.30956233881E+02  0.19173216295E+02  0.37809516604E+02  0.00000000000E+00 0. -1.
         11    1    1    2    0    0 -0.22397103950E+01 -0.57073480600E+02 -0.76782750608E+01  0.57631192928E+02  0.00000000000E+00 0.  1.
</event>
<event>
 7    1  0.2723366E-009  0.1221558E+03  0.7561462E-02  0.1239582E+00
         -2   -1    0    0    0  501 -0.00000000000E+00  0.00000000000E+00  0.62113317652E+02  0.62113317652E+02  0.00000000000E+00 0.  1.
          2   -1    0    0  501    0  0.00000000000E+00 -0.00000000000E+00 -0.91565555119E+03  0.91565555119E+03  0.00000000000E+00 0. -1.
         25    2    1    2    0    0  0.33225689929E+02 -0.53581904030E+02 -0.85596849265E+03  0.86735552771E+03  0.12509430097E+03 0.  0.
          5    1    3    3  502    0  0.52523290952E+02 -0.83982580835E+02 -0.51425051530E+03  0.52372018757E+03  0.41800000000E+01 0.  1.
         -5    1    3    3    0  502 -0.19297601023E+02  0.30400676805E+02 -0.34171797734E+03  0.34363534014E+03  0.41800000000E+01 0.  1.
        -11    1    1    2    0    0 -0.63459310960E+02  0.43933678172E+02  0.98826888483E+01  0.77813364945E+02  0.00000000000E+00 0.  1.
         11    1    1    2    0    0  0.30233621031E+02  0.96482258575E+01 -0.74564297389E+01  0.32599976185E+02  0.00000000000E+00 0. -1.
</event>
<event>
 7    1  0.2723366E-009  0.9387929E+02  0.7561462E-02  0.1293720E+00
         -4   -1    0    0    0  501 -0.00000000000E+00  0.00000000000E+00  0.51179336173E+03  0.51179336173E+03  0.00000000000E+00 0.  1.
          4   -1    0    0  501    0  0.00000000000E+00 -0.00000000000E+00 -0.28399371543E+02  0.28399371543E+02  0.00000000000E+00 0. -1.
         25    2    1    2    0    0 -0.52549640832E+02  0.16661827427E+01  0.27043867216E+03  0.30256928434E+03  0.12508739147E+03 0.  0.
          5    1    3    3  502    0 -0.41199998767E+02 -0.32277066059E+02  0.32137672294E+02  0.61559331317E+02  0.41800000000E+01 0.  1.
         -5    1    3    3    0  502 -0.11349642066E+02  0.33943248801E+02  0.23830099987E+03  0.24100995302E+03  0.41800000000E+01 0.  1.
        -11    1    1    2    0    0  0.75764147465E+02 -0.41226608713E+01  0.19123355236E+03  0.20573641856E+03  0.00000000000E+00 0.  1.
         11    1    1    2    0    0 -0.23214506633E+02  0.24564781286E+01  0.21721765670E+02  0.31887030386E+02  0.00000000000E+00 0. -1.
</event>
<event>
 7    1  0.2723366E-009  0.1592130E+03  0.7561462E-02  0.1189588E+00
         -3   -1    0    0    0  501 -0.00000000000E+00  0.00000000000E+00  0.18312504760E+03  0.18312504760E+03  0.00000000000E+00 0.  1.
          3   -1    0    0  501    0  0.00000000000E+00 -0.00000000000E+00 -0.41493275270E+03  0.41493275270E+03  0.00000000000E+00 0. -1.
         25    2    1    2    0    0  0.14064456542E+03 -0.58432555461E+02 -0.33753241949E+03  0.39085906944E+03  0.12508965040E+03 0.  0.
          5    1    3    3  502    0  0.62810362161E+02 -0.17597822649E+02 -0.31747671775E+02  0.72665067398E+02  0.41800000000E+01 0. -1.
         -5    1    3    3    0  502  0.77834203257E+02 -0.40834732812E+02 -0.30578474771E+03  0.31819400204E+03  0.41800000000E+01 0. -1.
        -11    1    1    2    0    0 -0.12691540058E+03  0.71874505846E+02  0.11511883721E+03  0.18581122187E+03  0.00000000000E+00 0.  1.
         11    1    1    2    0    0 -0.13729164840E+02 -0.13441950385E+02 -0.93941228144E+01  0.21387508990E+02  0.00000000000E+00 0. -1.
</event>
<event>
 7    1  0.2723366E-009  0.9737789E+02  0.7561462E-02  0.1285909E+00
          1   -1    0    0  501    0  0.00000000000E+00  0.00000000000E+00  0.54823386503E+03  0.54823386503E+03  0.00000000000E+00 0. -1.
         -1   -1    0    0    0  501 -0.00000000000E+00 -0.00000000000E+00 -0.36346541190E+02  0.36346541190E+02  0.00000000000E+00 0.  1.
         25    2    1    2    0    0  0.31289577139E+02  0.46379698556E+02  0.42262284250E+03  0.44428289509E+03  0.12508840791E+03 0.  0.
          5    1    3    3  502    0  0.59971177931E+02  0.52620152618E+02  0.14908243038E+03  0.16914037393E+03  0.41800000000E+01 0. -1.
         -5    1    3    3    0  502 -0.28681600792E+02 -0.62404540621E+01  0.27354041211E+03  0.27514252116E+03  0.41800000000E+01 0. -1.
        -11    1    1    2    0    0 -0.45193879709E+02 -0.10026873686E+02  0.90177419806E+02  0.10136563521E+03  0.00000000000E+00 0. -1.
         11    1    1    2    0    0  0.13904302570E+02 -0.36352824870E+02 -0.91293846360E+00  0.38931875919E+02  0.00000000000E+00 0.  1.
</event>
<event>
 7    1  0.2723366E-009  0.1788315E+03  0.7561462E-02  0.1168939E+00
         -1   -1    0    0    0  501 -0.00000000000E+00  0.00000000000E+00  0.38689378451E+02  0.38689378451E+02  0.00000000000E+00 0.  1.
          1   -1    0    0  501    0  0.00000000000E+00 -0.00000000000E+00 -0.11420810790E+04  0.11420810790E+04  0.00000000000E+00 0. -1.
         25    2    1    2    0    0 -0.16768537095E+03 -0.61242803102E+02 -0.63658625330E+03  0.67287332060E+03  0.12508950045E+03 0.  0.
          5    1    3    3  502    0 -0.66956000335E+02 -0.25599927236E+02 -0.86168352160E+02  0.11216469841E+03  0.41800000000E+01 0.  1.
         -5    1    3    3    0  502 -0.10072937061E+03 -0.35642875867E+02 -0.55041790114E+03  0.56070862219E+03  0.41800000000E+01 0.  1.
        -11    1    1    2    0    0  0.36593639269E+02  0.18768033025E+02 -0.32993827563E+02  0.52725005034E+02  0.00000000000E+00 0.  1.
         11    1    1    2    0    0  0.13109173168E+03  0.42474770077E+02 -0.43381161968E+03  0.45517213181E+03  0.00000000000E+00 0. -1.
</event>
<event>
 7    1  0.3210933E-009  0.1151425E+03  0.7561462E-02  0.1251333E+00
          2   -1    0    0  501    0  0.00000000000E+00  0.00000000000E+00  0.14157793379E+04  0.14157793379E+04  0.00000000000E+00 0. -1.
         -2   -1    0    0    0  501 -0.00000000000E+00 -0.00000000000E+00 -0.13339647064E+02  0.13339647064E+02  0.00000000000E+00 0.  1.
         25    2    1    2    0    0  0.74770567276E+02  0.16367083246E+02  0.96237234553E+03  0.97348134961E+03  0.12508751912E+03 0.  0.
          5    1    3    3  502    0 -0.18906598229E+02  0.38549253274E+01  0.27601609032E+02  0.33935838387E+02  0.41800000000E+01 0.  1.
         -5    1    3    3    0  502  0.93677165505E+02  0.12512157918E+02  0.93477073650E+03  0.93954551122E+03  0.41800000000E+01 0.  1.
        -11    1    1    2    0    0 -0.37690194000E+02 -0.52193744449E+02  0.20041967636E+03  0.21050601976E+03  0.00000000000E+00 0.  1.
         11    1    1    2    0    0 -0.37080373276E+02  0.35826661203E+02  0.23964766893E+03  0.24513161559E+03  0.00000000000E+00 0. -1.
</event>
<event>
 7    1  0.2723366E-009  0.8924031E+02  0.7561462E-02  0.1304702E+00
         -2   -1    0    0    0  501 -0.00000000000E+00  0.00000000000E+00  0.39254677731E+02  0.39254677731E+02  0.00000000000E+00 0.  1.
          2   -1    0    0  501    0  0.00000000000E+00 -0.00000000000E+00 -0.31283999182E+03  0.31283999182E+03  0.00000000000E+00 0. -1.
         25    2    1    2    0    0  0.13288558516E+01  0.53098680104E+01 -0.12576150476E+03  0.17746319207E+03  0.12508903991E+03 0.  0.
          5    1    3    3  502    0  0.44197791708E+02  0.14489204677E+02 -0.12497663400E+03  0.13341669045E+03  0.41800000000E+01 0.  1.
         -5    1    3    3    0  502 -0.42868935857E+02 -0.91793366664E+01 -0.78487075631E+00  0.44046501623E+02  0.41800000000E+01 0.  1.
        -11    1    1    2    0    0  0.32857912842E+02 -0.30847861812E+02 -0.10458111884E+03  0.11387907372E+03  0.00000000000E+00 0.  1.
         11    1    1    2    0    0 -0.34186768693E+02  0.25537993801E+02 -0.43242690495E+02  0.60752403758E+02  0.00000000000E+00 0. -1.
</event>
<event>
 7    1  0.2723366E-009  0.9681893E+02  0.7561462E-02  0.1287131E+00
          2   -1    0    0  501    0  0.00000000000E+00  0.00000000000E+00  0.37598737497E+03  0.37598737497E+03  0.00000000000E+00 0. -1.
         -2   -1    0    0    0  501 -0.00000000000E+00 -0.00000000000E+00 -0.44708857826E+02  0.44708857826E+02  0.00000000000E+00 0.  1.
         25    2    1    2    0    0 -0.52852361866E+02 -0.27865911084E+02  0.11846234861E+03  0.18234911682E+03  0.12509193105E+03 0.  0.
          5    1    3    3  502    0  0.15716285851E+02 -0.14183978407E+02  0.10964831510E+03  0.11175156504E+03  0.41800000000E+01 0.  1.
         -5    1    3    3    0  502 -0.68568647716E+02 -0.13681932677E+02  0.88140335107E+01  0.70597551786E+02  0.41800000000E+01 0.  1.
        -11    1    1    2    0    0  0.70302316900E+02  0.39881692717E+02  0.13182957944E+03  0.15463506456E+03  0.00000000000E+00 0.  1.
         11    1    1    2    0    0 -0.17449955034E+02 -0.12015781633E+02  0.80986589091E+02  0.83712051412E+02  0.00000000000E+00 0. -1.
</event>
<event>
 7    1  0.2723366E-009  0.1048592E+03  0.7561462E-02  0.1270397E+00
          2   -1    0    0  501    0  0.00000000000E+00  0.00000000000E+00  0.24238923290E+03  0.24238923290E+03  0.00000000000E+00 0. -1.
         -2   -1    0    0    0  501 -0.00000000000E+00 -0.00000000000E+00 -0.55732373757E+02  0.55732373757E+02  0.00000000000E+00 0.  1.
         25    2    1    2    0    0 -0.44975045616E+02 -0.10133136964E+02  0.10977613020E+03  0.17268391941E+03  0.12507398638E+03 0.  0.
          5    1    3    3  502    0 -0.24249901297E+02 -0.55917657587E+02  0.10570485392E+03  0.12208943724E+03  0.41800000000E+01 0. -1.
         -5    1    3    3    0  502 -0.20725144319E+02  0.45784520623E+02  0.40712762772E+01  0.50594482172E+02  0.41800000000E+01 0. -1.
        -11    1    1    2    0    0  0.90630230161E+01  0.46328876019E+02  0.45509746685E+02  0.65571641605E+02  0.00000000000E+00 0. -1.
         11    1    1    2    0    0  0.35912022600E+02 -0.36195739055E+02  0.31370982262E+02  0.59866045644E+02  0.00000000000E+00 0.  1.
</event>
<event>
 7    1  0.2723366E-009  0.1074762E+03  0.7561462E-02  0.1265316E+00
          4   -1    0    0  501    0  0.00000000000E+00  0.00000000000E+00  0.26923552417E+03  0.26923552417E+03  0.00000000000E+00 0. -1.
         -4   -1    0    0    0  501 -0.00000000000E+00 -0.00000000000E+00 -0.85186251968E+02  0.85186251968E+02  0.00000000000E+00 0.  1.
         25    2    1    2    0    0  0.42154466973E+02 -0.46694278529E+02  0.20044870534E+03  0.24450802580E+03  0.12508851456E+03 0.  0.
          5    1    3    3  502    0  0.47517022397E+02 -0.74600073315E+02  0.75697292109E+02  0.11649287870E+03  0.41800000000E+01 0.  1.
         -5    1    3    3    0  502 -0.53625554243E+01  0.27905794786E+02  0.12475141323E+03  0.12801514710E+03  0.41800000000E+01 0.  1.
        -11    1    1    2    0    0 -0.39041428331E+02 -0.10480866459E+02 -0.30859193130E+02  0.50856381001E+02  0.00000000000E+00 0.  1.
         11    1    1    2    0    0 -0.31130386419E+01  0.57175144988E+02  0.14459759991E+02  0.59057369337E+02  0.00000000000E+00 0. -1.
</event>
<event>
 7    1  0.2723366E-009  0.3230181E+03  0.7561462E-02  0.1074269E+00
          1   -1    0    0  501    0  0.00000000000E+00  0.00000000000E+00  0.11423361173E+04  0.11423361173E+04  0.00000000000E+00 0. -1.
         -1   -1    0    0    0  501 -0.00000000000E+00 -0.00000000000E+00 -0.98600365326E+02  0.98600365326E+02  0.00000000000E+00 0.  1.
         25    2    1    2    0    0  0.25209260742E+02 -0.31543448271E+03  0.49695324298E+03  0.60228341134E+03  0.12509341374E+03 0.  0.
          5    1    3    3  502    0  0.22610255031E+02 -0.18575238585E+03  0.17951443423E+03  0.25934162215E+03  0.41800000000E+01 0.  1.
         -5    1    3    3    0  502  0.25990057112E+01 -0.12968209687E+03  0.31743880874E+03  0.34294178919E+03  0.41800000000E+01 0.  1.
        -11    1    1    2    0    0 -0.58538803567E+02  0.16707387622E+03  0.31777363029E+03  0.36375891981E+03  0.00000000000E+00 0. -1.
         11    1    1    2    0    0  0.33329542825E+02  0.14836060649E+03  0.22900887870E+03  0.27489415146E+03  0.00000000000E+00 0.  1.
</event>
<event>
 7    1  0.2723366E-009  0.1089567E+03  0.7561462E-02  0.1262514E+00
          2   -1    0    0  501    0  0.00000000000E+00  0.00000000000E+00  0.84974703724E+02  0.84974703724E+02  0.00000000000E+00 0. -1.
         -2   -1    0    0    0  501 -0.00000000000E+00 -0.00000000000E+00 -0.18738542106E+03  0.18738542106E+03  0.00000000000E+00 0.  1.
         25    2    1    2    0    0  0.33352949995E+02 -0.50537300674E+02 -0.83439612502E+02  0.16210071068E+03  0.12509209982E+03 0.  0.
          5    1    3    3  502    0  0.57598583664E+02  0.21804595349E+02 -0.46165761615E+02  0.77082988810E+02  0.41800000000E+01 0.  1.
         -5    1    3    3    0  502 -0.24245633669E+02 -0.72341896023E+02 -0.37273850887E+02  0.85017721871E+02  0.41800000000E+01 0.  1.
        -11    1    1    2    0    0 -0.46973131312E+02  0.45063751175E+02  0.20420438968E+02  0.68221778509E+02  0.00000000000E+00 0. -1.
         11    1    1    2    0    0  0.13620181318E+02  0.54735494985E+01 -0.39391543805E+02  0.42037635597E+02  0.00000000000E+00 0.  1.
</event>
<event>
 7    1  0.2723366E-009  0.1184619E+03  0.7561462E-02  0.1245656E+00
         -1   -1    0    0    0  501 -0.00000000000E+00  0.00000000000E+00  0.51409512809E+02  0.51409512809E+02  0.00000000000E+00 0.  1.
          1   -1    0    0  501    0  0.00000000000E+00 -0.00000000000E+00 -0.49605358169E+03  0.49605358169E+03  0.00000000000E+00 0. -1.
         25    2    1    2    0    0 -0.95291332035E+02  0.89537882655E+01 -0.12464884047E+03  0.20085834928E+03  0.12508451047E+03 0.  0.
          5    1    3    3  502    0  0.23957090897E+01  0.14566840062E+02  0.20593752938E+02  0.25680874431E+02  0.41800000000E+01 0. -1.
         -5    1    3    3    0  502 -0.97687041125E+02 -0.56130517968E+01 -0.14524259341E+03  0.17517747485E+03  0.41800000000E+01 0. -1.
        -11    1    1    2    0    0  0.51608511691E+02  0.34460547043E+02 -0.22493028622E+03  0.23333366975E+03  0.00000000000E+00 0.  1.
         11    1    1    2    0    0  0.43682820344E+02 -0.43414335308E+02 -0.95064942186E+02  0.11327107546E+03  0.00000000000E+00 0. -1.
</event>
<event>
 7    1  0.2723366E-009  0.1699843E+03  0.7561462E-02  0.1177864E+00
         -2   -1    0    0    0  501 -0.00000000000E+00  0.00000000000E+00  0.71189831423E+02  0.71189831423E+02  0.00000000000E+00 0.  1.
          2   -1    0    0  501    0  0.00000000000E+00 -0.00000000000E+00 -0.45981993451E+03  0.45981993451E+03  0.00000000000E+00 0. -1.
         25    2    1    2    0    0  0.80544933535E+02 -0.11794240886E+03 -0.23650703501E+03  0.30328314378E+03  0.12508872678E+03 0.  0.
          5    1    3    3  502    0  0.52214262689E+02 -0.13838014593E+03 -0.15387077500E+03  0.21346915893E+03  0.41800000000E+01 0.  1.
         -5    1    3    3    0  502  0.28330670846E+02  0.20437737066E+02 -0.82636260009E+02  0.89813984854E+02  0.41800000000E+01 0.  1.
        -11    1    1    2    0    0 -0.73030646362E+02  0.50092776549E+02 -0.41651780495E+02  0.97865378908E+02  0.00000000000E+00 0.  1.
         11    1    1    2    0    0 -0.75142871735E+01  0.67849632309E+02 -0.11047128758E+03  0.12986124324E+03  0.00000000000E+00 0. -1.
</event>
<event>
 7    1  0.2723366E-009  0.1277622E+03  0.7561462E-02  0.1230814E+00
          4   -1    0    0  501    0  0.00000000000E+00  0.00000000000E+00  0.31576134460E+02  0.31576134460E+02  0.00000000000E+00 0. -1.
         -4   -1    0    0    0  501 -0.00000000000E+00 -0.00000000000E+00 -0.55018309136E+03  0.55018309136E+03  0.00000000000E+00 0.  1.
         25    2    1    2    0    0 -0.45901937048E+02  0.58607605266E+02 -0.29872121587E+03  0.33229340358E+03  0.12507078810E+03 0.  0.
          5    1    3    3  502    0  0.26463589740E+02  0.62227900408E+02 -0.18866784755E+03  0.20046361833E+03  0.41800000000E+01 0.  1.
         -5    1    3    3    0  502 -0.72365526788E+02 -0.36202951423E+01 -0.11005336831E+03  0.13182978526E+03  0.41800000000E+01 0. -1.
        -11    1    1    2    0    0 -0.23217099199E+02  0.19552556792E+01 -0.26054304596E+02  0.34952589432E+02  0.00000000000E+00 0. -1.
         11    1    1    2    0    0  0.69119036247E+02 -0.60562860945E+02 -0.19383143644E+03  0.21451323281E+03  0.00000000000E+00 0.  1.
</event>
<event>
 7    1  0.2723366E-009  0.1616513E+03  0.7561462E-02  0.1186845E+00
          3   -1    0    0  501    0  0.00000000000E+00  0.00000000000E+00  0.75023369161E+03  0.75023369161E+03  0.00000000000E+00 0. -1.
         -3   -1    0    0    0  501 -0.00000000000E+00 -0.00000000000E+00 -0.63775126425E+02  0.63775126425E+02  0.00000000000E+00 0.  1.
         25    2    1    2    0    0 -0.28449836836E+02 -0.12971909029E+03  0.60973072227E+03  0.63643958017E+03  0.12508936776E+03 0.  0.
          5    1    3    3  502    0  0.17709313400E+02 -0.13227832673E+03  0.40234042341E+03  0.42391799232E+03  0.41800000000E+01 0. -1.
         -5    1    3    3    0  502 -0.46159150236E+02  0.25592364371E+01  0.20739029885E+03  0.21252158785E+03  0.41800000000E+01 0. -1.
        -11    1    1    2    0    0  0.44493190601E+02  0.10291981301E+03  0.89856019765E+02  0.14368798213E+03  0.00000000000E+00 0. -1.
         11    1    1    2    0    0 -0.16043353765E+02  0.26799277279E+02 -0.13128176850E+02  0.33881255734E+02  0.00000000000E+00 0.  1.
</event>
<event>
 7    1  0.2723366E-009  0.1677927E+03  0.7561462E-02  0.1180169E+00
         -2   -1    0    0    0  501 -0.00000000000E+00  0.00000000000E+00  0.40904588862E+02  0.40904588862E+02  0.00000000000E+00 0.  1.
          2   -1    0    0  501    0  0.00000000000E+00 -0.00000000000E+00 -0.91318181816E+03  0.91318181816E+03  0.00000000000E+00 0. -1.
         25    2    1    2    0    0  0.48273886451E+02 -0.14057638857E+03 -0.31215792566E+03  0.36767142090E+03  0.12509042353E+03 0.  0.
          5    1    3    3  502    0  0.33006503862E+02 -0.16908997630E+02 -0.69251137641E+01  0.37957517024E+02  0.41800000000E+01 0. -1.
         -5    1    3    3    0  502  0.15267382589E+02 -0.12366739094E+03 -0.30523281189E+03  0.32971390388E+03  0.41800000000E+01 0. -1.
        -11    1    1    2    0    0 -0.16134436677E+02  0.14052593401E+03 -0.45109155210E+03  0.47274881973E+03  0.00000000000E+00 0. -1.
         11    1    1    2    0    0 -0.32139449773E+02  0.50454561149E-01 -0.10902775154E+03  0.11366616640E+03  0.00000000000E+00 0.  1.
</event>
<event>
 7    1  0.2723366E-009  0.1145771E+03  0.7561462E-02  0.1252321E+00
          2   -1    0    0  501    0  0.00000000000E+00  0.00000000000E+00  0.16648437792E+03  0.16648437792E+03  0.00000000000E+00 0. -1.
         -2   -1    0    0    0  501 -0.00000000000E+00 -0.00000000000E+00 -0.89782525940E+02  0.89782525940E+02  0.00000000000E+00 0.  1.
         25    2    1    2    0    0  0.88175269184E+01  0.56190387162E+02  0.29753059476E+02  0.14059635331E+03  0.12508789560E+03 0.  0.
          5    1    3    3  502    0  0.61286582880E+02  0.40344349593E+02  0.41479918947E+02  0.84390567370E+02  0.41800000000E+01 0.  1.
         -5    1    3    3    0  502 -0.52469055962E+02  0.15846037569E+02 -0.11726859471E+02  0.56205785941E+02  0.41800000000E+01 0.  1.
        -11    1    1    2    0    0  0.16205110501E+02 -0.70178796594E+02  0.16581397282E+02  0.73909484057E+02  0.00000000000E+00 0.  1.
         11    1    1    2    0    0 -0.25022637419E+02  0.13988409431E+02  0.30367395217E+02  0.41761066487E+02  0.00000000000E+00 0. -1.
</event>
<event>
 7    1  0.2723366E-009  0.2204041E+03  0.7561462E-02  0.1133582E+00
          2   -1    0    0  501    0  0.00000000000E+00  0.00000000000E+00  0.91099363244E+03  0.91099363244E+03  0.00000000000E+00 0. -1.
         -2   -1    0    0    0  501 -0.00000000000E+00 -0.00000000000E+00 -0.56177014782E+02  0.56177014782E+02  0.00000000000E+00 0.  1.
         25    2    1    2    0    0  0.17585255600E+03 -0.89415225879E+02  0.39931797373E+03  0.46262399995E+03  0.12508763777E+03 0.  0.
          5    1    3    3  502    0  0.18701220828E+03 -0.63783363119E+02  0.29910870154E+03  0.35850435310E+03  0.41800000000E+01 0. -1.
         -5    1    3    3    0  502 -0.11159652287E+02 -0.25631862759E+02  0.10020927219E+03  0.10411964685E+03  0.41800000000E+01 0. -1.
        -11    1    1    2    0    0  0.97191098785E+01  0.27822005155E+01  0.99540769653E+01  0.14187508054E+02  0.00000000000E+00 0.  1.
         11    1    1    2    0    0 -0.18557166588E+03  0.86633025363E+02  0.44554456696E+03  0.49035913921E+03  0.00000000000E+00 0. -1.
</event>
<event>
 7    1  0.2723366E-009  0.7330583E+02  0.7561462E-02  0.1349199E+00
          2   -1    0    0  501    0  0.00000000000E+00  0.00000000000E+00  0.20636075104E+02  0.20636075104E+02  0.00000000000E+00 0. -1.
         -2   -1    0    0    0  501 -0.00000000000E+00 -0.00000000000E+00 -0.76131464758E+03  0.76131464758E+03  0.00000000000E+00 0.  1.
         25    2    1    2    0    0  0.12054062333E+02 -0.43713152726E+02 -0.53593789049E+03  0.55220677886E+03  0.12508702577E+03 0.  0.
          5    1    3    3  502    0 -0.79482113741E+01 -0.31549468734E+01 -0.48026673513E+03  0.48036104862E+03  0.41800000000E+01 0.  1.
         -5    1    3    3    0  502  0.20002273707E+02 -0.40558205852E+02 -0.55671155361E+02  0.71845730246E+02  0.41800000000E+01 0.  1.
        -11    1    1    2    0    0 -0.39812314102E+02  0.49295080318E+02 -0.18411630908E+03  0.19471476720E+03  0.00000000000E+00 0.  1.
         11    1    1    2    0    0  0.27758251769E+02 -0.55819275919E+01 -0.20624372906E+02  0.35029176620E+02  0.00000000000E+00 0. -1.
</event>
<event>
 7    1  0.2723366E-009  0.7521798E+02  0.7561462E-02  0.1343197E+00
          1   -1    0    0  501    0  0.00000000000E+00  0.00000000000E+00  0.50975351382E+03  0.50975351382E+03  0.00000000000E+00 0. -1.
         -1   -1    0    0    0  501 -0.00000000000E+00 -0.00000000000E+00 -0.28460876797E+02  0.28460876797E+02  0.00000000000E+00 0.  1.
         25    2    1    2    0    0 -0.92652092086E+01 -0.62187852943E+01  0.39321528399E+03  0.41278005796E+03  0.12507837263E+03 0.  0.
          5    1    3    3  502    0 -0.24034588942E+02  0.26508666408E+02  0.27601835940E+02  0.45383968619E+02  0.41800000000E+01 0. -1.
         -5    1    3    3    0  502  0.14769379734E+02 -0.32727451702E+02  0.36561344805E+03  0.36739608934E+03  0.41800000000E+01 0. -1.
        -11    1    1    2    0    0 -0.32202058832E+02 -0.10025598522E+02  0.93757083989E+01  0.35005558512E+02  0.00000000000E+00 0.  1.
         11    1    1    2    0    0  0.41467268040E+02  0.16244383816E+02  0.78701644642E+02  0.90428774147E+02  0.00000000000E+00 0. -1.
</event>
<event>
 7    1  0.2723366E-009  0.1345053E+03  0.7561462E-02  0.1220920E+00
          2   -1    0    0  501    0  0.00000000000E+00  0.00000000000E+00  0.16349461269E+04  0.16349461269E+04  0.00000000000E+00 0. -1.
         -2   -1    0    0    0  501 -0.00000000000E+00 -0.00000000000E+00 -0.12217222510E+02  0.12217222510E+02  0.00000000000E+00 0.  1.
         25    2    1    2    0    0  0.81673046966E+02  0.40496056892E+02  0.98011942601E+03  0.99226658476E+03  0.12509383985E+03 0.  0.
          5    1    3    3  502    0 -0.18299219551E+02 -0.18853086976E+02  0.38280610483E+03  0.38372944455E+03  0.41800000000E+01 0.  1.
         -5    1    3    3    0  502  0.99972266517E+02  0.59349143869E+02  0.59731332118E+03  0.60853714021E+03  0.41800000000E+01 0.  1.
        -11    1    1    2    0    0 -0.40708929835E+01  0.24505194350E+02  0.11273177339E+03  0.11543625709E+03  0.00000000000E+00 0.  1.
         11    1    1    2    0    0 -0.77602153982E+02 -0.65001251242E+02  0.52987770500E+03  0.53946050756E+03  0.00000000000E+00 0. -1.
</event>
<event>
 7    1  0.2723366E-009  0.9048397E+02  0.7561462E-02  0.1301684E+00
         -3   -1    0    0    0  501 -0.00000000000E+00  0.00000000000E+00  0.59014477017E+02  0.59014477017E+02  0.00000000000E+00 0.  1.
          3   -1    0    0  501    0  0.00000000000E+00 -0.00000000000E+00 -0.33442695841E+03  0.33442695841E+03  0.00000000000E+00 0. -1.
         25    2    1    2    0    0  0.41652407543E+02 -0.67844500612E+02 -0.10293119274E+03  0.18049899721E+03  0.12508900127E+03 0.  0.
          5    1    3    3  502    0  0.16817527025E+02 -0.10410396497E+02  0.28459669453E+02  0.34908892217E+02  0.41800000000E+01 0.  1.
         -5    1    3    3    0  502  0.24834880519E+02 -0.57434104115E+02 -0.13139086219E+03  0.14559010500E+03  0.41800000000E+01 0.  1.
        -11    1    1    2    0    0 -0.43063284119E+02  0.15639794788E+02 -0.14862765623E+03  0.15552887133E+03  0.00000000000E+00 0. -1.
         11    1    1    2    0    0  0.14108765752E+01  0.52204705824E+02 -0.23853632428E+02  0.57413566888E+02  0.00000000000E+00 0.  1.
</event>
<event>
 7    1  0.2723366E-009  0.1121310E+03  0.7561462E-02  0.1256674E+00
         -2   -1    0    0    0  501 -0.00000000000E+00  0.00000000000E+00  0.60666081355E+02  0.60666081355E+02  0.00000000000E+00 0.  1.
          2   -1    0    0  501    0  0.00000000000E+00 -0.00000000000E+00 -0.52787797051E+03  0.52787797051E+03  0.00000000000E+00 0. -1.
         25    2    1    2    0    0  0.29404331813E+02  0.55413117807E+02 -0.44960302392E+03  0.47087801001E+03  0.12509193751E+03 0.  0.
          5    1    3    3  502    0  0.67946232518E+02  0.60939484927E+02 -0.22425890080E+03  0.24215664006E+03  0.41800000000E+01 0. -1.
         -5    1    3    3    0  502 -0.38541900705E+02 -0.55263671194E+01 -0.22534412312E+03  0.22872136994E+03  0.41800000000E+01 0. -1.
        -11    1    1    2    0    0 -0.41786347158E+02 -0.53063090830E+01  0.26506356167E+02  0.49767887660E+02  0.00000000000E+00 0.  1.
         11    1    1    2    0    0  0.12382015345E+02 -0.50106808725E+02 -0.44115221395E+02  0.67898154196E+02  0.00000000000E+00 0. -1.
</event>
<event>
 7    1  0.2723366E-009  0.1236330E+03  0.7561462E-02  0.1237221E+00
          1   -1    0    0  501    0  0.00000000000E+00  0.00000000000E+00  0.64313906767E+02  0.64313906767E+02  0.00000000000E+00 0. -1.
         -1   -1    0    0    0  501 -0.00000000000E+00 -0.00000000000E+00 -0.25841985901E+03  0.25841985901E+03  0.00000000000E+00 0.  1.
         25    2    1    2    0    0 -0.40962118985E+02  0.56445657064E+02 -0.11506433406E+03  0.18371804750E+03  0.12509401510E+03 0.  0.
          5    1    3    3  502    0  0.40409045699E+02 -0.40244021916E+01 -0.23850728300E+02  0.47280190648E+02  0.41800000000E+01 0.  1.
         -5    1    3    3    0  502 -0.81371164684E+02  0.60470059255E+02 -0.91213605757E+02  0.13643785686E+03  0.41800000000E+01 0.  1.
        -11    1    1    2    0    0  0.22857626451E+02  0.17537447054E+02 -0.49594432119E+02  0.57355390622E+02  0.00000000000E+00 0.  1.
         11    1    1    2    0    0  0.18104492533E+02 -0.73983104118E+02 -0.29447186068E+02  0.81660327651E+02  0.00000000000E+00 0. -1.
</event>
<event>
 7    1  0.2723366E-009  0.9949845E+02  0.7561462E-02  0.1281354E+00
          2   -1    0    0  501    0  0.00000000000E+00  0.00000000000E+00  0.16727364432E+03  0.16727364432E+03  0.00000000000E+00 0. -1.
         -2   -1    0    0    0  501 -0.00000000000E+00 -0.00000000000E+00 -0.69705714752E+02  0.69705714752E+02  0.00000000000E+00 0.  1.
         25    2    1    2    0    0 -0.12706142539E+02 -0.28144063956E+01  0.53837214257E+02  0.13680640539E+03  0.12509268554E+03 0.  0.
          5    1    3    3  502    0  0.45837960114E+02  0.30316781775E+02  0.39742921420E+02  0.67949967237E+02  0.41800000000E+01 0.  1.
         -5    1    3    3    0  502 -0.58544102653E+02 -0.33131188170E+02  0.14094292838E+02  0.68856438157E+02  0.41800000000E+01 0.  1.
        -11    1    1    2    0    0  0.20163520859E+02  0.36652659806E+02 -0.30652051539E+01  0.41944970222E+02  0.00000000000E+00 0.  1.
         11    1    1    2    0    0 -0.74573783208E+01 -0.33838253411E+02  0.46795920464E+02  0.58227983456E+02  0.00000000000E+00 0. -1.
</event>
<event>
 7    1  0.2723366E-009  0.1226420E+03  0.7561462E-02  0.1238801E+00
         -2   -1    0    0    0  501 -0.00000000000E+00  0.00000000000E+00  0.60576573195E+02  0.60576573195E+02  0.00000000000E+00 0.  1.
          2   -1    0    0  501    0  0.00000000000E+00 -0.00000000000E+00 -0.33627581132E+03  0.33627581132E+03  0.00000000000E+00 0. -1.
         25    2    1    2    0    0 -0.47943692094E+01 -0.85944998129E+02 -0.19618145010E+03  0.24807827482E+03  0.12508453300E+03 0.  0.
          5    1    3    3  502    0  0.52405651752E+02 -0.58072425642E+02 -0.15040626739E+03  0.16958265426E+03  0.41800000000E+01 0.  1.
         -5    1    3    3    0  502 -0.57200020961E+02 -0.27872572487E+02 -0.45775182708E+02  0.78495620559E+02  0.41800000000E+01 0.  1.
        -11    1    1    2    0    0 -0.25277754915E+02  0.52099748319E+02 -0.74001245831E+00  0.57912833525E+02  0.00000000000E+00 0.  1.
         11    1    1    2    0    0  0.30072124125E+02  0.33845249810E+02 -0.78777775574E+02  0.90861276177E+02  0.00000000000E+00 0. -1.
</event>
<event>
 7    1  0.2723366E-009  0.9282457E+02  0.7561462E-02  0.1296152E+00
         -2   -1    0    0    0  501 -0.00000000000E+00  0.00000000000E+00  0.42868325550E+02  0.42868325550E+02  0.00000000000E+00 0.  1.
          2   -1    0    0  501    0  0.00000000000E+00 -0.00000000000E+00 -0.34966122963E+03  0.34966122963E+03  0.00000000000E+00 0. -1.
         25    2    1    2    0    0  0.53447153075E+01 -0.15699811880E+02 -0.26186271804E+03  0.29067928456E+03  0.12508922136E+03 0.  0.
          5    1    3    3  502    0 -0.29919524031E+02  0.27066596030E+02 -0.25598591542E+02  0.47963932573E+02  0.41800000000E+01 0. -1.
         -5    1    3    3    0  502  0.35264239339E+02 -0.42766407910E+02 -0.23626412649E+03  0.24271535199E+03  0.41800000000E+01 0. -1.
        -11    1    1    2    0    0  0.39631393129E+02  0.19864546954E+02 -0.32605142184E+02  0.55030381099E+02  0.00000000000E+00 0. -1.
         11    1    1    2    0    0 -0.44976108436E+02 -0.41647350736E+01 -0.12325043854E+02  0.46819889516E+02  0.00000000000E+00 0.  1.
</event>
<event>
 7    1  0.2723366E-009  0.1051513E+03  0.7561462E-02  0.1269822E+00
         -3   -1    0    0    0  501 -0.00000000000E+00  0.00000000000E+00  0.27989513119E+03  0.27989513119E+03  0.00000000000E+00 0.  1.
          3   -1    0    0  501    0  0.00000000000E+00 -0.00000000000E+00 -0.59220102481E+02  0.59220102481E+02  0.00000000000E+00 0. -1.
         25    2    1    2    0    0  0.38642625653E+02  0.57781857997E+02  0.13116031447E+03  0.19411911026E+03  0.12508878946E+03 0.  0.
          5    1    3    3  502    0  0.38432776866E+02 -0.21555637729E+01  0.12824770828E+03  0.13396518903E+03  0.41800000000E+01 0.  1.
         -5    1    3    3    0  502  0.20984878697E+00  0.59937421769E+02  0.29126061847E+01  0.60153921233E+02  0.41800000000E+01 0.  1.
        -11    1    1    2    0    0  0.18261080301E+02 -0.51027558690E+02  0.58850890916E+02  0.80004413386E+02  0.00000000000E+00 0.  1.
         11    1    1    2    0    0 -0.56903705954E+02 -0.67542993062E+01  0.30663823329E+02  0.64991710022E+02  0.00000000000E+00 0. -1.
</event>
<event>
 7    1  0.2723366E-009  0.1555867E+03  0.7561462E-02  0.1193771E+00
         -1   -1    0    0    0  501 -0.00000000000E+00  0.00000000000E+00  0.82370564974E+02  0.82370564974E+02  0.00000000000E+00 0.  1.
          1   -1    0    0  501    0  0.00000000000E+00 -0.00000000000E+00 -0.47069801388E+03  0.47069801388E+03  0.00000000000E+00 0. -1.
         25    2    1    2    0    0 -0.39928132465E+02 -0.12569135112E+03 -0.33986685776E+03  0.38542174431E+03  0.12509144046E+03 0.  0.
          5    1    3    3  502    0 -0.48399391817E+02 -0.14493541466E+03 -0.32552642487E+03  0.35962995042E+03  0.41800000000E+01 0.  1.
         -5    1    3    3    0  502  0.84712593521E+01  0.19244063543E+02 -0.14340432895E+02  0.25791793894E+02  0.41800000000E+01 0.  1.
        -11    1    1    2    0    0  0.36035809623E+02  0.53059639764E+02  0.20581120906E+02  0.67360875030E+02  0.00000000000E+00 0.  1.
         11    1    1    2    0    0  0.38923228416E+01  0.72631711357E+02 -0.69041712047E+02  0.10028595951E+03  0.00000000000E+00 0. -1.
</event>
<event>
 7    1  0.2723366E-009  0.1267397E+03  0.7561462E-02  0.1232375E+00
          1   -1    0    0  501    0  0.00000000000E+00  0.00000000000E+00  0.12398289192E+04  0.12398289192E+04  0.00000000000E+00 0. -1.
         -1   -1    0    0    0  501 -0.00000000000E+00 -0.00000000000E+00 -0.24739971113E+02  0.24739971113E+02  0.00000000000E+00 0.  1.
         25    2    1    2    0    0  0.82375537566E+02 -0.39845972066E+02  0.10126855532E+04  0.10244763284E+04  0.12508511907E+03 0.  0.
          5    1    3    3  502    0  0.84362338799E+02 -0.78935444630E+02  0.74984136676E+03  0.75870109814E+03  0.41800000000E+01 0.  1.
         -5    1    3    3    0  502 -0.19868012332E+01  0.39089472563E+02  0.26284418645E+03  0.26577523021E+03  0.41800000000E+01 0.  1.
        -11    1    1    2    0    0 -0.72042349820E+02  0.17871765448E+02  0.20264246436E+03  0.21580887037E+03  0.00000000000E+00 0. -1.
         11    1    1    2    0    0 -0.10333187746E+02  0.21974206619E+02 -0.23906942491E+00  0.24283691641E+02  0.00000000000E+00 0.  1.
</event>
<event>
 7    1  0.2723366E-009  0.1153725E+03  0.7561462E-02  0.1250932E+00
          1   -1    0    0  501    0  0.00000000000E+00  0.00000000000E+00  0.11101685084E+03  0.11101685084E+03  0.00000000000E+00 0. -1.
         -1   -1    0    0    0  501 -0.00000000000E+00 -0.00000000000E+00 -0.14476433552E+03  0.14476433552E+03  0.00000000000E+00 0.  1.
         25    2    1    2    0    0 -0.39894204276E+02  0.26484407677E+02 -0.44732987214E+02  0.14122774474E+03  0.12510501331E+03 0.  0.
          5    1    3    3  502    0 -0.51744312411E+02  0.69369858091E+02 -0.16026202456E+02  0.88113351109E+02  0.41800000000E+01 0. -1.
         -5    1    3    3    0  502  0.11850108134E+02 -0.42885450414E+02 -0.28706784758E+02  0.53114393634E+02  0.41800000000E+01 0. -1.
        -11    1    1    2    0    0 -0.19245496737E+02 -0.34725290946E+02 -0.22965051943E+02  0.45865330988E+02  0.00000000000E+00 0.  1.
         11    1    1    2    0    0  0.59139701014E+02  0.82408832687E+01  0.33950554469E+02  0.68688110629E+02  0.00000000000E+00 0. -1.
</event>
<event>
 7    1  0.2723366E-009  0.1332971E+03  0.7561462E-02  0.1222644E+00
          2   -1    0    0  501    0  0.00000000000E+00  0.00000000000E+00  0.27237833094E+03  0.27237833094E+03  0.00000000000E+00 0. -1.
         -2   -1    0    0    0  501 -0.00000000000E+00 -0.00000000000E+00 -0.12840842527E+03  0.12840842527E+03  0.00000000000E+00 0.  1.
         25    2    1    2    0    0  0.96101875353E+01 -0.96745915210E+02  0.20095402052E+03  0.25590370191E+03  0.12510818708E+03 0.  0.
          5    1    3    3  502    0  0.24140792620E+02  0.22388356543E+02  0.74257969706E+02  0.81337167654E+02  0.41800000000E+01 0. -1.
         -5    1    3    3    0  502 -0.14530605085E+02 -0.11913427175E+03  0.12669605081E+03  0.17456653426E+03  0.41800000000E+01 0. -1.
        -11    1    1    2    0    0  0.19030945921E+02  0.74938477308E+02  0.19307215228E+00  0.77317459611E+02  0.00000000000E+00 0. -1.
         11    1    1    2    0    0 -0.28641133456E+02  0.21807437902E+02 -0.57177186994E+02  0.67565594692E+02  0.00000000000E+00 0.  1.
</event>
<event>
 7    1  0.2723366E-009  0.1007663E+03  0.7561462E-02  0.1278693E+00
          3   -1    0    0  501    0  0.00000000000E+00  0.00000000000E+00  0.36551601309E+03  0.36551601309E+03  0.00000000000E+00 0. -1.
         -3   -1    0    0    0  501 -0.00000000000E+00 -0.00000000000E+00 -0.40421172527E+02  0.40421172527E+02  0.00000000000E+00 0.  1.
         25    2    1    2    0    0 -0.91134293575E+01 -0.62254384807E+02  0.20792389802E+03  0.25067873604E+03  0.12509523697E+03 0.  0.
          5    1    3    3  502    0 -0.36349161885E+02 -0.14779453212E+01  0.17005180903E+03  0.17394980898E+03  0.41800000000E+01 0.  1.
         -5    1    3    3    0  502  0.27235732528E+02 -0.60776439486E+02  0.37872088996E+02  0.76728927060E+02  0.41800000000E+01 0.  1.
        -11    1    1    2    0    0 -0.10034356455E+02 -0.15301619637E+02  0.79735244361E+01  0.19960084292E+02  0.00000000000E+00 0. -1.
         11    1    1    2    0    0  0.19147785813E+02  0.77556004444E+02  0.10919741810E+03  0.13529836528E+03  0.00000000000E+00 0.  1.
</event>
<event>
 7    1  0.2723366E-009  0.1864092E+03  0.7561462E-02  0.1161740E+00
          1   -1    0    0  501    0  0.00000000000E+00  0.00000000000E+00  0.61703859449E+03  0.61703859449E+03  0.00000000000E+00 0. -1.
         -1   -1    0    0    0  501 -0.00000000000E+00 -0.00000000000E+00 -0.15198796608E+03  0.15198796608E+03  0.00000000000E+00 0.  1.
         25    2    1    2    0    0 -0.16005678488E+03  0.39573704928E+02 -0.56715213498E+02  0.21458855746E+03  0.12508949212E+03 0.  0.
          5    1    3    3  502    0  0.20658502289E+02  0.42955169244E+01  0.11418548856E+01  0.21540692074E+02  0.41800000000E+01 0.  1.
         -5    1    3    3    0  502 -0.18071528717E+03  0.35278188004E+02 -0.57857068383E+02  0.19304786538E+03  0.41800000000E+01 0.  1.
        -11    1    1    2    0    0  0.82032549890E+02 -0.34353439953E+02  0.39968035881E+03  0.40945559869E+03  0.00000000000E+00 0. -1.
         11    1    1    2    0    0  0.78024234993E+02 -0.52202649750E+01  0.12208548309E+03  0.14498240443E+03  0.00000000000E+00 0.  1.
</event>
<event>
 7    1  0.2723366E-009  0.1224792E+03  0.7561462E-02  0.1239062E+00
         -1   -1    0    0    0  501 -0.00000000000E+00  0.00000000000E+00  0.16377034783E+03  0.16377034783E+03  0.00000000000E+00 0.  1.
          1   -1    0    0  501    0  0.00000000000E+00 -0.00000000000E+00 -0.14373588399E+03  0.14373588399E+03  0.00000000000E+00 0. -1.
         25    2    1    2    0    0 -0.80595229721E+02  0.61623324546E+02  0.48606241573E+02  0.16824012059E+03  0.12509654781E+03 0.  0.
          5    1    3    3  502    0  0.13762684128E+02 -0.74909939663E+01  0.48566986335E+02  0.51203037280E+02  0.41800000000E+01 0. -1.
         -5    1    3    3    0  502 -0.94357913849E+02  0.69114318513E+02  0.39255237838E-01  0.11703708331E+03  0.41800000000E+01 0. -1.
        -11    1    1    2    0    0  0.57865994925E+02 -0.66814962549E+02  0.15186115871E+02  0.89684617992E+02  0.00000000000E+00 0.  1.
         11    1    1    2    0    0  0.22729234796E+02  0.51916380031E+01 -0.43757893601E+02  0.49581493241E+02  0.00000000000E+00 0. -1.
</event>
<event>
 7    1  0.2723366E-009  0.1911380E+03  0.7561462E-02  0.1157439E+00
          1   -1    0    0  501    0  0.00000000000E+00  0.00000000000E+00  0.50081850938E+03  0.50081850938E+03  0.00000000000E+00 0. -1.
         -1   -1    0    0    0  501 -0.00000000000E+00 -0.00000000000E+00 -0.89596046160E+02  0.89596046160E+02  0.00000000000E+00 0.  1.
         25    2    1    2    0    0  0.17877015454E+03  0.25008894970E+02  0.18978811758E+03  0.29025806144E+03  0.12508397050E+03 0.  0.
          5    1    3    3  502    0  0.16057875316E+03 -0.79222705208E+01  0.19419897074E+03  0.25214878737E+03  0.41800000000E+01 0.  1.
         -5    1    3    3    0  502  0.18191401376E+02  0.32931165490E+02 -0.44108531561E+01  0.38109274070E+02  0.41800000000E+01 0.  1.
        -11    1    1    2    0    0 -0.39121699409E+02 -0.19804889665E+02  0.11919411910E+03  0.12700385446E+03  0.00000000000E+00 0.  1.
         11    1    1    2    0    0 -0.13964845513E+03 -0.52040053045E+01  0.10224022654E+03  0.17315263964E+03  0.00000000000E+00 0. -1.
</event>
<event>
 7    1  0.2723366E-009  0.1087361E+03  0.7561462E-02  0.1262929E+00
          1   -1    0    0  501    0  0.00000000000E+00  0.00000000000E+00  0.41352934621E+03  0.41352934621E+03  0.00000000000E+00 0. -1.
         -1   -1    0    0    0  501 -0.00000000000E+00 -0.00000000000E+00 -0.45029115417E+02  0.45029115417E+02  0.00000000000E+00 0.  1.
         25    2    1    2    0    0  0.47174441962E+02  0.44619670964E+02  0.11844946664E+03  0.18409817768E+03  0.12508205254E+03 0.  0.
          5    1    3    3  502    0  0.76028623544E+02  0.21551130110E+02  0.24154642766E+02  0.82738878251E+02  0.41800000000E+01 0.  1.
         -5    1    3    3    0  502 -0.28854181582E+02  0.23068540855E+02  0.94294823876E+02  0.10135929943E+03  0.41800000000E+01 0.  1.
        -11    1    1    2    0    0 -0.40178998246E+02  0.13678351415E+02  0.48108541547E+02  0.64155132042E+02  0.00000000000E+00 0. -1.
         11    1    1    2    0    0 -0.69954437162E+01 -0.58298022379E+02  0.20194222260E+03  0.21030515190E+03  0.00000000000E+00 0.  1.
</event>
<event>
 7    1  0.2723366E-009  0.1020912E+03  0.7561462E-02  0.1275959E+00
          2   -1    0    0  501    0  0.00000000000E+00  0.00000000000E+00  0.31766363583E+03  0.31766363583E+03  0.00000000000E+00 0. -1.
         -2   -1    0    0    0  501 -0.00000000000E+00 -0.00000000000E+00 -0.46690863115E+02  0.46690863115E+02  0.00000000000E+00 0.  1.
         25    2    1    2    0    0 -0.43117467771E+01 -0.78341960944E+01  0.23572375590E+03  0.26701719937E+03  0.12511007104E+03 0.  0.
          5    1    3    3  502    0 -0.55998938313E+01  0.58137822840E+02  0.96189560780E+02  0.11261114180E+03  0.41800000000E+01 0. -1.
         -5    1    3    3    0  502  0.12881470543E+01 -0.65972018934E+02  0.13953419512E+03  0.15440605757E+03  0.41800000000E+01 0. -1.
        -11    1    1    2    0    0 -0.36339422595E+02  0.12861710778E+02 -0.62228570044E+01  0.39047422296E+02  0.00000000000E+00 0.  1.
         11    1    1    2    0    0  0.40651169372E+02 -0.50275146837E+01  0.41471873821E+02  0.58289877281E+02  0.00000000000E+00 0. -1.
</event>
<event>
 7    1  0.2723366E-009  0.1323546E+03  0.7561462E-02  0.1224003E+00
         -2   -1    0    0    0  501 -0.00000000000E+00  0.00000000000E+00  0.12118636841E+03  0.12118636841E+03  0.00000000000E+00 0.  1.
          2   -1    0    0  501    0  0.00000000000E+00 -0.00000000000E+00 -0.17290079438E+03  0.17290079438E+03  0.00000000000E+00 0. -1.
         25    2    1    2    0    0  0.82740006537E+02 -0.38676420996E+02 -0.24204140279E+00  0.15488356612E+03  0.12508831379E+03 0.  0.
          5    1    3    3  502    0  0.73927680113E+00  0.28963169433E+02 -0.32481476730E+02  0.43725626861E+02  0.41800000000E+01 0.  1.
         -5    1    3    3    0  502  0.82000729736E+02 -0.67639590429E+02  0.32239435328E+02  0.11115793926E+03  0.41800000000E+01 0.  1.
        -11    1    1    2    0    0 -0.13866107253E+02 -0.29219877863E+02 -0.89775437868E+01  0.33565852963E+02  0.00000000000E+00 0.  1.
         11    1    1    2    0    0 -0.68873899284E+02  0.67896298859E+02 -0.42494840789E+02  0.10563774370E+03  0.00000000000E+00 0. -1.
</event>
<event>
 7    1  0.2756407E-009  0.1748346E+03  0.7561462E-02  0.1172898E+00
          3   -1    0    0  501    0  0.00000000000E+00  0.00000000000E+00  0.83618161569E+03  0.83618161569E+03  0.00000000000E+00 0. -1.
         -3   -1    0    0    0  501 -0.00000000000E+00 -0.00000000000E+00 -0.41297975758E+02  0.41297975758E+02  0.00000000000E+00 0.  1.
         25    2    1    2    0    0  0.33216193054E+02  0.14403448445E+03  0.48598985249E+03  0.52314931860E+03  0.12509925913E+03 0.  0.
          5    1    3    3  502    0  0.12250240787E+01 -0.22329879268E+02  0.39530554669E+02  0.45609882093E+02  0.41800000000E+01 0.  1.
         -5    1    3    3    0  502  0.31991168975E+02  0.16636436372E+03  0.44645929782E+03  0.47753943651E+03  0.41800000000E+01 0.  1.
        -11    1    1    2    0    0  0.63177200715E+01 -0.91443136029E+02  0.24908632447E+03  0.26541619723E+03  0.00000000000E+00 0. -1.
         11    1    1    2    0    0 -0.39533913125E+02 -0.52591348423E+02  0.59807462972E+02  0.88914075618E+02  0.00000000000E+00 0.  1.
</event>
<event>
 7    1  0.2723366E-009  0.1040880E+03  0.7561462E-02  0.1271927E+00
         -1   -1    0    0    0  501 -0.00000000000E+00  0.00000000000E+00  0.59473704679E+02  0.59473704679E+02  0.00000000000E+00 0. -1.
          1   -1    0    0  501    0  0.00000000000E+00 -0.00000000000E+00 -0.36842513329E+03  0.36842513329E+03  0.00000000000E+00 0.  1.
         25    2    1    2    0    0 -0.12138043477E+02 -0.73213361143E+02 -0.68780761775E+02  0.16089244807E+03  0.12509219923E+03 0.  0.
          5    1    3    3  502    0 -0.28889275265E+02  0.13925232905E+02  0.17740657066E+02  0.36887743899E+02  0.41800000000E+01 0. -1.
         -5    1    3    3    0  502  0.16751231788E+02 -0.87138594048E+02 -0.86521418841E+02  0.12400470417E+03  0.41800000000E+01 0. -1.
        -11    1    1    2    0    0 -0.12132275867E+02  0.27005382272E+01  0.28920677707E+01  0.12761233499E+02  0.00000000000E+00 0. -1.
         11    1    1    2    0    0  0.24270319344E+02  0.70512822916E+02 -0.24306273461E+03  0.25424515640E+03  0.00000000000E+00 0.  1.
</event>
<event>
 7    1  0.2723366E-009  0.1038987E+03  0.7561462E-02  0.1272305E+00
         -1   -1    0    0    0  501 -0.00000000000E+00  0.00000000000E+00  0.10684221182E+02  0.10684221182E+02  0.00000000000E+00 0.  1.
          1   -1    0    0  501    0  0.00000000000E+00 -0.00000000000E+00 -0.16078875082E+04  0.16078875082E+04  0.00000000000E+00 0. -1.
         25    2    1    2    0    0 -0.30554957412E+02  0.52750783056E+01 -0.12862266487E+04  0.12926674343E+04  0.12509465240E+03 0.  0.
          5    1    3    3  502    0 -0.76625652079E+02 -0.11279784076E+02 -0.66704090363E+03  0.67153537777E+03  0.41800000000E+01 0.  1.
         -5    1    3    3    0  502  0.46070694667E+02  0.16554862382E+02 -0.61918574503E+03  0.62113205651E+03  0.41800000000E+01 0.  1.
        -11    1    1    2    0    0  0.11969482145E+02  0.34867162866E+02 -0.55509233514E+02  0.66635295111E+02  0.00000000000E+00 0.  1.
         11    1    1    2    0    0  0.18585475267E+02 -0.40142241172E+02 -0.25546740484E+03  0.25926899998E+03  0.00000000000E+00 0. -1.
</event>
<event>
 7    1  0.2723366E-009  0.1050433E+03  0.7561462E-02  0.1270034E+00
          1   -1    0    0  501    0  0.00000000000E+00  0.00000000000E+00  0.21478053769E+03  0.21478053769E+03  0.00000000000E+00 0. -1.
         -1   -1    0    0    0  501 -0.00000000000E+00 -0.00000000000E+00 -0.10555265198E+03  0.10555265198E+03  0.00000000000E+00 0.  1.
         25    2    1    2    0    0  0.37809619324E+02 -0.35052020963E+02 -0.35057115807E+02  0.13977585770E+03  0.12510026995E+03 0.  0.
          5    1    3    3  502    0 -0.40440928714E+02 -0.33548566028E+02 -0.31312260138E+02  0.61309909744E+02  0.41800000000E+01 0.  1.
         -5    1    3    3    0  502  0.78250548039E+02 -0.15034549343E+01 -0.37448556689E+01  0.78465947959E+02  0.41800000000E+01 0.  1.
        -11    1    1    2    0    0 -0.37415298251E+02 -0.60448075273E+01  0.87080840112E+01  0.38887979742E+02  0.00000000000E+00 0.  1.
         11    1    1    2    0    0 -0.39432107341E+00  0.41096828490E+02  0.13557691750E+03  0.14166935223E+03  0.00000000000E+00 0. -1.
</event>
<event>
 7    1  0.2723366E-009  0.9122844E+02  0.7561462E-02  0.1299904E+00
          2   -1    0    0  501    0  0.00000000000E+00  0.00000000000E+00  0.16259104989E+03  0.16259104989E+03  0.00000000000E+00 0. -1.
         -2   -1    0    0    0  501 -0.00000000000E+00 -0.00000000000E+00 -0.95072832328E+02  0.95072832328E+02  0.00000000000E+00 0.  1.
         25    2    1    2    0    0  0.45668085313E+01  0.52217482124E+02  0.64296461426E+01  0.13577876201E+03  0.12508801175E+03 0.  0.
          5    1    3    3  502    0  0.61027153055E+02  0.33232719831E+02  0.23832738491E+02  0.73581240145E+02  0.41800000000E+01 0. -1.
         -5    1    3    3    0  502 -0.56460344523E+02  0.18984762293E+02 -0.17403092349E+02  0.62197521866E+02  0.41800000000E+01 0. -1.
        -11    1    1    2    0    0 -0.71457243756E+01 -0.35282614795E+02 -0.18499699060E+02  0.40474228207E+02  0.00000000000E+00 0.  1.
         11    1    1    2    0    0  0.25789158443E+01 -0.16934867329E+02  0.79588270479E+02  0.81410892000E+02  0.00000000000E+00 0. -1.
</event>
<event>
 7    1  0.2723366E-009  0.2771984E+03  0.7561462E-02  0.1097229E+00
         -1   -1    0    0    0  501 -0.00000000000E+00  0.00000000000E+00  0.23968068603E+02  0.23968068603E+02  0.00000000000E+00 0.  1.
          1   -1    0    0  501    0  0.00000000000E+00 -0.00000000000E+00 -0.36900139810E+04  0.36900139810E+04  0.00000000000E+00 0. -1.
         25    2    1    2    0    0  0.20703816716E+03  0.15038955681E+03 -0.25292906833E+04  0.25452782482E+04  0.12509268062E+03 0.  0.
          5    1    3    3  502    0  0.21213283629E+03  0.16500276309E+03 -0.23938839236E+04  0.24089258943E+04  0.41800000000E+01 0.  1.
         -5    1    3    3    0  502 -0.50946691319E+01 -0.14613206272E+02 -0.13540675969E+03  0.13635235393E+03  0.41800000000E+01 0.  1.
        -11    1    1    2    0    0 -0.72455764105E+02 -0.10496265292E+03 -0.60553184664E+03  0.61881807792E+03  0.00000000000E+00 0. -1.
         11    1    1    2    0    0 -0.13458240306E+03 -0.45426903892E+02 -0.53122338245E+03  0.54988572347E+03  0.00000000000E+00 0.  1.
</event>
<event>
 7    1  0.2723366E-009  0.1406114E+03  0.7561462E-02  0.1212509E+00
          1   -1    0    0  501    0  0.00000000000E+00  0.00000000000E+00  0.74683726088E+03  0.74683726088E+03  0.00000000000E+00 0. -1.
         -1   -1    0    0    0  501 -0.00000000000E+00 -0.00000000000E+00 -0.48450620935E+02  0.48450620935E+02  0.00000000000E+00 0.  1.
         25    2    1    2    0    0  0.80062667452E+02  0.68553643946E+02  0.12605500450E+03  0.20651566994E+03  0.12509686229E+03 0.  0.
          5    1    3    3  502    0 -0.20515846171E+02 -0.13247882737E+02  0.50886956202E+02  0.56598242487E+02  0.41800000000E+01 0.  1.
         -5    1    3    3    0  502  0.10057851362E+03  0.81801526683E+02  0.75168048296E+02  0.14991742746E+03  0.41800000000E+01 0.  1.
        -11    1    1    2    0    0  0.44637441596E+01  0.10245401800E+02  0.11042961463E+02  0.15711151067E+02  0.00000000000E+00 0.  1.
         11    1    1    2    0    0 -0.84526411611E+02 -0.78799045746E+02  0.56128867399E+03  0.57306106081E+03  0.00000000000E+00 0. -1.
</event>
<event>
 7    1  0.2723366E-009  0.1297425E+03  0.7561462E-02  0.1227838E+00
         -2   -1    0    0    0  501 -0.00000000000E+00  0.00000000000E+00  0.17348607035E+03  0.17348607035E+03  0.00000000000E+00 0.  1.
          2   -1    0    0  501    0  0.00000000000E+00 -0.00000000000E+00 -0.14165655220E+03  0.14165655220E+03  0.00000000000E+00 0. -1.
         25    2    1    2    0    0  0.27722515442E+02  0.99928764396E+02 -0.28646571335E+02  0.16498923381E+03  0.12508607199E+03 0.  0.
          5    1    3    3  502    0  0.49363369751E+02 -0.12186639354E+01 -0.35933509745E+02  0.61212065294E+02  0.41800000000E+01 0. -1.
         -5    1    3    3    0  502 -0.21640854309E+02  0.10114742833E+03  0.72869384097E+01  0.10377716851E+03  0.41800000000E+01 0. -1.
        -11    1    1    2    0    0 -0.88924951217E+01 -0.73058933631E+02 -0.81884996275E+01  0.74052250330E+02  0.00000000000E+00 0. -1.
         11    1    1    2    0    0 -0.18830020320E+02 -0.26869830765E+02  0.68664589111E+02  0.76101138417E+02  0.00000000000E+00 0.  1.
</event>
<event>
 7    1  0.2723366E-009  0.8751771E+02  0.7561462E-02  0.1308977E+00
         -1   -1    0    0    0  501 -0.00000000000E+00  0.00000000000E+00  0.21921311671E+02  0.21921311671E+02  0.00000000000E+00 0.  1.
          1   -1    0    0  501    0  0.00000000000E+00 -0.00000000000E+00 -0.81296061596E+03  0.81296061596E+03  0.00000000000E+00 0. -1.
         25    2    1    2    0    0  0.27118913543E+02 -0.11229551551E+02 -0.67554238177E+03  0.68765079019E+03  0.12507822100E+03 0.  0.
          5    1    3    3  502    0 -0.22155330552E+02  0.19751567889E+02 -0.52998250085E+03  0.53082945163E+03  0.41800000000E+01 0. -1.
         -5    1    3    3    0  502  0.49274244095E+02 -0.30981119440E+02 -0.14555988092E+03  0.15682133856E+03  0.41800000000E+01 0. -1.
        -11    1    1    2    0    0 -0.22214212598E+02 -0.34326442336E+02 -0.31741664934E+02  0.51762043792E+02  0.00000000000E+00 0.  1.
         11    1    1    2    0    0 -0.49047009455E+01  0.45555993887E+02 -0.83755257582E+02  0.95469093653E+02  0.00000000000E+00 0. -1.
</event>
<event>
 7    1  0.2723366E-009  0.2689252E+03  0.7561462E-02  0.1101896E+00
         -2   -1    0    0    0  501 -0.00000000000E+00  0.00000000000E+00  0.64366628599E+02  0.64366628599E+02  0.00000000000E+00 0.  1.
          2   -1    0    0  501    0  0.00000000000E+00 -0.00000000000E+00 -0.14069624821E+04  0.14069624821E+04  0.00000000000E+00 0. -1.
         25    2    1    2    0    0 -0.22214789929E+03 -0.14972167552E+03 -0.88333388355E+03  0.93150030353E+03  0.12509115224E+03 0.  0.
          5    1    3    3  502    0 -0.11181513935E+03 -0.86199346854E+02 -0.65482989186E+03  0.66989000027E+03  0.41800000000E+01 0.  1.
         -5    1    3    3    0  502 -0.11033275993E+03 -0.63522328664E+02 -0.22850399169E+03  0.26161030326E+03  0.41800000000E+01 0.  1.
        -11    1    1    2    0    0  0.70478252268E+02  0.32900355850E+02 -0.22035672655E+03  0.23368077455E+03  0.00000000000E+00 0.  1.
         11    1    1    2    0    0  0.15166964702E+03  0.11682131967E+03 -0.23890524342E+03  0.30614803264E+03  0.00000000000E+00 0. -1.
</event>
<event>
 7    1  0.2723366E-009  0.1038964E+03  0.7561462E-02  0.1272309E+00
          1   -1    0    0  501    0  0.00000000000E+00  0.00000000000E+00  0.59494331334E+03  0.59494331334E+03  0.00000000000E+00 0. -1.
         -1   -1    0    0    0  501 -0.00000000000E+00 -0.00000000000E+00 -0.23405348411E+02  0.23405348411E+02  0.00000000000E+00 0.  1.
         25    2    1    2    0    0 -0.60793450267E+01  0.44681196221E+02  0.32896008160E+03  0.35481889929E+03  0.12509335824E+03 0.  0.
          5    1    3    3  502    0 -0.10864300975E+02  0.88169436378E+02  0.21400907909E+03  0.23175254233E+03  0.41800000000E+01 0.  1.
         -5    1    3    3    0  502  0.47849559480E+01 -0.43488240157E+02  0.11495100252E+03  0.12306635696E+03  0.41800000000E+01 0.  1.
        -11    1    1    2    0    0  0.27968074024E+02 -0.45039542843E+02  0.23414152109E+03  0.24006879323E+03  0.00000000000E+00 0. -1.
         11    1    1    2    0    0 -0.21888728997E+02  0.35834662166E+00  0.84363622365E+01  0.23460969230E+02  0.00000000000E+00 0.  1.
</event>
<event>
 7    1  0.2723366E-009  0.5613935E+02  0.7561462E-02  0.1414786E+00
         -2   -1    0    0    0  501 -0.00000000000E+00  0.00000000000E+00  0.75715429417E+02  0.75715429417E+02  0.00000000000E+00 0. -1.
          2   -1    0    0  501    0  0.00000000000E+00 -0.00000000000E+00 -0.17925147315E+03  0.17925147315E+03  0.00000000000E+00 0.  1.
         25    2    1    2    0    0  0.25594217395E+01 -0.27243938061E+02 -0.87648046266E+02  0.15515793029E+03  0.12507206130E+03 0.  0.
          5    1    3    3  502    0 -0.87622106247E+01 -0.43322823131E+01  0.31490992905E+02  0.33237028134E+02  0.41800000000E+01 0. -1.
         -5    1    3    3    0  502  0.11321632364E+02 -0.22911655748E+02 -0.11913903917E+03  0.12192090216E+03  0.41800000000E+01 0. -1.
        -11    1    1    2    0    0 -0.30018559192E+02 -0.80070892434E+01  0.24508832133E+02  0.39571583575E+02  0.00000000000E+00 0. -1.
         11    1    1    2    0    0  0.27459137453E+02  0.35251027305E+02 -0.40396829602E+02  0.60237388701E+02  0.00000000000E+00 0.  1.
</event>
<event>
 7    1  0.2723366E-009  0.2257609E+03  0.7561462E-02  0.1129660E+00
          2   -1    0    0  501    0  0.00000000000E+00  0.00000000000E+00  0.15243595762E+04  0.15243595762E+04  0.00000000000E+00 0. -1.
         -2   -1    0    0    0  501 -0.00000000000E+00 -0.00000000000E+00 -0.36649643685E+02  0.36649643685E+02  0.00000000000E+00 0.  1.
         25    2    1    2    0    0  0.90306415911E+02  0.18819901768E+03  0.84301608957E+03  0.87743848761E+03  0.12509217902E+03 0.  0.
          5    1    3    3  502    0  0.70249114123E+02  0.47402284753E+02  0.17559569361E+03  0.19502111334E+03  0.41800000000E+01 0.  1.
         -5    1    3    3    0  502  0.20057301788E+02  0.14079673293E+03  0.66742039596E+03  0.68241737426E+03  0.41800000000E+01 0.  1.
        -11    1    1    2    0    0 -0.49988445961E+02 -0.24251372642E+02  0.11691324550E+03  0.12944373595E+03  0.00000000000E+00 0.  1.
         11    1    1    2    0    0 -0.40317969950E+02 -0.16394764504E+03  0.52778059747E+03  0.55412699634E+03  0.00000000000E+00 0. -1.
</event>
<event>
 7    1  0.2723366E-009  0.8906862E+02  0.7561462E-02  0.1305123E+00
          1   -1    0    0  501    0  0.00000000000E+00  0.00000000000E+00  0.13637874386E+03  0.13637874386E+03  0.00000000000E+00 0. -1.
         -1   -1    0    0    0  501 -0.00000000000E+00 -0.00000000000E+00 -0.10795746689E+03  0.10795746689E+03  0.00000000000E+00 0.  1.
         25    2    1    2    0    0  0.53153855341E+02 -0.12334374965E+02 -0.36275597553E+01  0.13652306856E+03  0.12509164607E+03 0.  0.
          5    1    3    3  502    0 -0.15281633512E+01  0.32497549243E+02 -0.44085177356E+02  0.54949078723E+02  0.41800000000E+01 0.  1.
         -5    1    3    3    0  502  0.54682018692E+02 -0.44831924208E+02  0.40457617600E+02  0.81573989840E+02  0.41800000000E+01 0.  1.
        -11    1    1    2    0    0 -0.41092831725E+02  0.31555024695E+02 -0.16374661002E+02  0.54336635206E+02  0.00000000000E+00 0.  1.
         11    1    1    2    0    0 -0.12061023616E+02 -0.19220649730E+02  0.48423497727E+02  0.53476506980E+02  0.00000000000E+00 0. -1.
</event>
<event>
 7    1  0.2723366E-009  0.5717831E+02  0.7561462E-02  0.1410070E+00
          4   -1    0    0  501    0  0.00000000000E+00  0.00000000000E+00  0.31361463345E+03  0.31361463345E+03  0.00000000000E+00 0. -1.
         -4   -1    0    0    0  501 -0.00000000000E+00 -0.00000000000E+00 -0.90765835250E+02  0.90765835250E+02  0.00000000000E+00 0.  1.
         25    2    1    2    0    0 -0.27622101113E+02  0.10825627834E+02  0.26923424037E+03  0.29835580948E+03  0.12509571606E+03 0.  0.
          5    1    3    3  502    0 -0.12564522674E+02 -0.52635789722E+01  0.27486225071E+03  0.27523136042E+03  0.41800000000E+01 0. -1.
         -5    1    3    3    0  502 -0.15057578439E+02  0.16089206806E+02 -0.56280103377E+01  0.23124449063E+02  0.41800000000E+01 0. -1.
        -11    1    1    2    0    0  0.52354149133E+01 -0.40315250891E+02  0.68026510343E+01  0.41218989371E+02  0.00000000000E+00 0. -1.
         11    1    1    2    0    0  0.22386686200E+02  0.29489623057E+02 -0.53188093198E+02  0.64805669853E+02  0.00000000000E+00 0.  1.
</event>
<event>
 7    1  0.2723366E-009  0.1128888E+03  0.7561462E-02  0.1255312E+00
         -1   -1    0    0    0  501 -0.00000000000E+00  0.00000000000E+00  0.25666625827E+02  0.25666625827E+02  0.00000000000E+00 0.  1.
          1   -1    0    0  501    0  0.00000000000E+00 -0.00000000000E+00 -0.75551611432E+03  0.75551611432E+03  0.00000000000E+00 0. -1.
         25    2    1    2    0    0  0.40047245237E+02  0.43720571684E+02 -0.57935915817E+03  0.59566741066E+03  0.12508940694E+03 0.  0.
          5    1    3    3  502    0  0.35717127330E+02 -0.40249689851E+02 -0.20846387297E+03  0.21533789600E+03  0.41800000000E+01 0. -1.
         -5    1    3    3    0  502  0.43301179067E+01  0.83970261535E+02 -0.37089528519E+03  0.38032951466E+03  0.41800000000E+01 0. -1.
        -11    1    1    2    0    0 -0.55258079717E+02 -0.46420948580E+02 -0.15364283084E+03  0.16974828220E+03  0.00000000000E+00 0. -1.
         11    1    1    2    0    0  0.15210834480E+02  0.27003768958E+01  0.31525005067E+01  0.15767047295E+02  0.00000000000E+00 0.  1.
</event>
<event>
 7    1  0.2723366E-009  0.1051494E+03  0.7561462E-02  0.1269826E+00
         -1   -1    0    0    0  501 -0.00000000000E+00  0.00000000000E+00  0.89884749349E+03  0.89884749349E+03  0.00000000000E+00 0.  1.
          1   -1    0    0  501    0  0.00000000000E+00 -0.00000000000E+00 -0.15339400117E+02  0.15339400117E+02  0.00000000000E+00 0. -1.
         25    2    1    2    0    0 -0.29318443538E+02 -0.47334798637E+01  0.62306114839E+03  0.63618992967E+03  0.12510177863E+03 0.  0.
          5    1    3    3  502    0 -0.58461179159E+02  0.31807961313E+02  0.20665270953E+03  0.21714573591E+03  0.41800000000E+01 0. -1.
         -5    1    3    3    0  502  0.29142735621E+02 -0.36541441177E+02  0.41640843886E+03  0.41904419376E+03  0.41800000000E+01 0. -1.
        -11    1    1    2    0    0  0.53109129795E+02  0.30801922440E+02  0.15114397148E+03  0.16313748254E+03  0.00000000000E+00 0.  1.
         11    1    1    2    0    0 -0.23790686257E+02 -0.26068442577E+02  0.10930297350E+03  0.11485948140E+03  0.00000000000E+00 0. -1.
</event>
<event>
 7    1  0.3771320E-009  0.1347243E+03  0.7561462E-02  0.1220609E+00
          2   -1    0    0  501    0  0.00000000000E+00  0.00000000000E+00  0.64852762220E+03  0.64852762220E+03  0.00000000000E+00 0. -1.
         -2   -1    0    0    0  501 -0.00000000000E+00 -0.00000000000E+00 -0.28579756873E+02  0.28579756873E+02  0.00000000000E+00 0.  1.
         25    2    1    2    0    0 -0.21196995080E+02  0.78026417292E+02  0.30762184675E+03  0.34177958642E+03  0.12507857811E+03 0.  0.
          5    1    3    3  502    0  0.51308321890E+02  0.43102217619E+02  0.16168468048E+03  0.17507070960E+03  0.41800000000E+01 0.  1.
         -5    1    3    3    0  502 -0.72505316970E+02  0.34924199673E+02  0.14593716626E+03  0.16670887682E+03  0.41800000000E+01 0.  1.
        -11    1    1    2    0    0  0.55830696955E+02 -0.62386000246E+02  0.20303611020E+03  0.21961953873E+03  0.00000000000E+00 0. -1.
         11    1    1    2    0    0 -0.34633701875E+02 -0.15640417046E+02  0.10928990838E+03  0.11570825392E+03  0.00000000000E+00 0.  1.
</event>
<event>
 7    1  0.2723366E-009  0.9090817E+02  0.7561462E-02  0.1300667E+00
         -4   -1    0    0    0  501 -0.00000000000E+00  0.00000000000E+00  0.15126347057E+03  0.15126347057E+03  0.00000000000E+00 0.  1.
          4   -1    0    0  501    0  0.00000000000E+00 -0.00000000000E+00 -0.85831159686E+02  0.85831159686E+02  0.00000000000E+00 0. -1.
         25    2    1    2    0    0 -0.24578605173E+02 -0.22558182026E+02  0.41480128721E+02  0.13594241716E+03  0.12508701090E+03 0.  0.
          5    1    3    3  502    0  0.47778707387E+02  0.10542334126E+02  0.91342278072E+01  0.49948495534E+02  0.41800000000E+01 0. -1.
         -5    1    3    3    0  502 -0.72357312560E+02 -0.33100516152E+02  0.32345900913E+02  0.85993921625E+02  0.41800000000E+01 0. -1.
        -11    1    1    2    0    0  0.36170039023E+02  0.19268231939E+02  0.54572009887E+02  0.68246910172E+02  0.00000000000E+00 0.  1.
         11    1    1    2    0    0 -0.11591433850E+02  0.32899500869E+01 -0.30619827728E+02  0.32905302921E+02  0.00000000000E+00 0. -1.
</event>
<event>
 7    1  0.2723366E-009  0.1334612E+03  0.7561462E-02  0.1222408E+00
         -2   -1    0    0    0  501 -0.00000000000E+00  0.00000000000E+00  0.15453175612E+02  0.15453175612E+02  0.00000000000E+00 0. -1.
          2   -1    0    0  501    0  0.00000000000E+00 -0.00000000000E+00 -0.16324645531E+04  0.16324645531E+04  0.00000000000E+00 0.  1.
         25    2    1    2    0    0  0.59303471411E+02 -0.75760659763E+02 -0.12036161409E+04  0.12139173419E+04  0.12508764564E+03 0.  0.
          5    1    3    3  502    0  0.60756668898E+02 -0.10357062882E+03 -0.76296549768E+03  0.77236783402E+03  0.41800000000E+01 0. -1.
         -5    1    3    3    0  502 -0.14531974861E+01  0.27809969061E+02 -0.44065064318E+03  0.44154950786E+03  0.41800000000E+01 0. -1.
        -11    1    1    2    0    0  0.15201274030E+01 -0.11856870050E+02 -0.70240359285E+01  0.13864820065E+02  0.00000000000E+00 0. -1.
         11    1    1    2    0    0 -0.60823598814E+02  0.87617529813E+02 -0.40637120066E+03  0.42013556673E+03  0.00000000000E+00 0.  1.
</event>
<event>
 7    1  0.2723366E-009  0.1081785E+03  0.7561462E-02  0.1263981E+00
          2   -1    0    0  501    0  0.00000000000E+00  0.00000000000E+00  0.10609308313E+04  0.10609308313E+04  0.00000000000E+00 0. -1.
         -2   -1    0    0    0  501 -0.00000000000E+00 -0.00000000000E+00 -0.16196688082E+02  0.16196688082E+02  0.00000000000E+00 0.  1.
         25    2    1    2    0    0 -0.14257407431E+02 -0.65602565589E+02  0.70038733820E+03  0.71463099753E+03  0.12509224134E+03 0.  0.
          5    1    3    3  502    0  0.27870668980E+02  0.82747733790E+00  0.47570764560E+03  0.47654243818E+03  0.41800000000E+01 0. -1.
         -5    1    3    3    0  502 -0.42128076412E+02 -0.66430042927E+02  0.22467969260E+03  0.23808855935E+03  0.41800000000E+01 0. -1.
        -11    1    1    2    0    0  0.50577482148E+02  0.44604089592E+02  0.16378003144E+03  0.17712003051E+03  0.00000000000E+00 0. -1.
         11    1    1    2    0    0 -0.36320074716E+02  0.20998475996E+02  0.18056677353E+03  0.18537649130E+03  0.00000000000E+00 0.  1.
</event>
<event>
 7    1  0.2723366E-009  0.1271959E+03  0.7561462E-02  0.1231677E+00
          1   -1    0    0  501    0  0.00000000000E+00  0.00000000000E+00  0.16304422860E+03  0.16304422860E+03  0.00000000000E+00 0. -1.
         -1   -1    0    0    0  501 -0.00000000000E+00 -0.00000000000E+00 -0.26481609763E+03  0.26481609763E+03  0.00000000000E+00 0.  1.
         25    2    1    2    0    0  0.32868269519E+02  0.65358152077E+02  0.11272072750E+03  0.18359012325E+03  0.12508940707E+03 0.  0.
          5    1    3    3  502    0 -0.40297595094E+02 -0.77873016182E+01  0.28866887890E+02  0.50351840615E+02  0.41800000000E+01 0.  1.
         -5    1    3    3    0  502  0.73165864613E+02  0.73145453696E+02  0.83853839612E+02  0.13323828263E+03  0.41800000000E+01 0.  1.
        -11    1    1    2    0    0  0.73551460171E+01  0.16677903995E+02 -0.11210306894E+02  0.21399103608E+02  0.00000000000E+00 0. -1.
         11    1    1    2    0    0 -0.40223415536E+02 -0.82036056072E+02 -0.20328228964E+03  0.22287109937E+03  0.00000000000E+00 0.  1.
</event>
<event>
 7    1  0.2723366E-009  0.1224695E+03  0.7561462E-02  0.1239078E+00
          1   -1    0    0  501    0  0.00000000000E+00  0.00000000000E+00  0.12865673652E+04  0.12865673652E+04  0.00000000000E+00 0. -1.
         -1   -1    0    0    0  501 -0.00000000000E+00 -0.00000000000E+00 -0.27681461726E+02  0.27681461726E+02  0.00000000000E+00 0.  1.
         25    2    1    2    0    0  0.53919833820E+02 -0.68011442612E+02  0.11067741131E+04  0.11171970317E+04  0.12508942946E+03 0.  0.
          5    1    3    3  502    0 -0.31484861167E+02 -0.17533306246E+02  0.58082634398E+03  0.58195826962E+03  0.41800000000E+01 0. -1.
         -5    1    3    3    0  502  0.85404694987E+02 -0.50478136366E+02  0.52594776916E+03  0.53523876211E+03  0.41800000000E+01 0. -1.
        -11    1    1    2    0    0 -0.36155896998E+02  0.80097104244E+02  0.15198899691E+03  0.17556608493E+03  0.00000000000E+00 0. -1.
         11    1    1    2    0    0 -0.17763936822E+02 -0.12085661632E+02  0.12279343892E+00  0.21485710291E+02  0.00000000000E+00 0.  1.
</event>
<event>
 7    1  0.2723366E-009  0.1126806E+03  0.7561462E-02  0.1255685E+00
          1   -1    0    0  501    0  0.00000000000E+00  0.00000000000E+00  0.26249387304E+03  0.26249387304E+03  0.00000000000E+00 0. -1.
         -1   -1    0    0    0  501 -0.00000000000E+00 -0.00000000000E+00 -0.61955213032E+02  0.61955213032E+02  0.00000000000E+00 0.  1.
         25    2    1    2    0    0  0.60318180251E+01  0.48578428319E+02  0.54330432003E+02  0.14490529677E+03  0.12509797226E+03 0.  0.
          5    1    3    3  502    0 -0.52200639450E+02  0.19005392985E+02  0.56604502023E+02  0.79420738921E+02  0.41800000000E+01 0.  1.
         -5    1    3    3    0  502  0.58232457475E+02  0.29573035334E+02 -0.22740700204E+01  0.65484557851E+02  0.41800000000E+01 0.  1.
        -11    1    1    2    0    0  0.42510818568E+02 -0.30860512351E+02  0.73367326946E+02  0.90234724918E+02  0.00000000000E+00 0.  1.
         11    1    1    2    0    0 -0.48542636593E+02 -0.17717915968E+02  0.72840901056E+02  0.89309064379E+02  0.00000000000E+00 0. -1.
</event>
<event>
 7    1  0.2723366E-009  0.1270386E+03  0.7561462E-02  0.1231917E+00
         -2   -1    0    0    0  501 -0.00000000000E+00  0.00000000000E+00  0.52056320400E+02  0.52056320400E+02  0.00000000000E+00 0. -1.
          2   -1    0    0  501    0  0.00000000000E+00 -0.00000000000E+00 -0.54192456006E+03  0.54192456006E+03  0.00000000000E+00 0.  1.
         25    2    1    2    0    0  0.56519252335E+02 -0.10839473635E+03 -0.17663854255E+03  0.24858067717E+03  0.12508930250E+03 0.  0.
          5    1    3    3  502    0  0.40391386310E+02 -0.28528926043E+02  0.45860607769E+01  0.49838419544E+02  0.41800000000E+01 0. -1.
         -5    1    3    3    0  502  0.16127866025E+02 -0.79865810304E+02 -0.18122460332E+03  0.19874225763E+03  0.41800000000E+01 0. -1.
        -11    1    1    2    0    0 -0.40575635212E+02  0.64897922740E+02 -0.27464236971E+03  0.28510796865E+03  0.00000000000E+00 0.  1.
         11    1    1    2    0    0 -0.15943617123E+02  0.43496813607E+02 -0.38587327398E+02  0.60292234630E+02  0.00000000000E+00 0. -1.
</event>
<event>
 7    1  0.2723366E-009  0.8086124E+02  0.7561462E-02  0.1326625E+00
          1   -1    0    0  501    0  0.00000000000E+00  0.00000000000E+00  0.71611748157E+02  0.71611748157E+02  0.00000000000E+00 0. -1.
         -1   -1    0    0    0  501 -0.00000000000E+00 -0.00000000000E+00 -0.22375424160E+03  0.22375424160E+03  0.00000000000E+00 0.  1.
         25    2    1    2    0    0 -0.35912366441E+02 -0.21594530859E+02 -0.14301641714E+03  0.19456907802E+03  0.12508960279E+03 0.  0.
          5    1    3    3  502    0 -0.13566774988E+02 -0.39654682139E+02 -0.15685090949E+03  0.16240760883E+03  0.41800000000E+01 0.  1.
         -5    1    3    3    0  502 -0.22345591452E+02  0.18060151280E+02  0.13834492355E+02  0.32161469188E+02  0.41800000000E+01 0.  1.
        -11    1    1    2    0    0  0.32458431378E+02 -0.26775005966E+02 -0.25989080022E+02  0.49455869140E+02  0.00000000000E+00 0.  1.
         11    1    1    2    0    0  0.34539350629E+01  0.48369536826E+02  0.16863003717E+02  0.51341042593E+02  0.00000000000E+00 0. -1.
</event>
<event>
 7    1  0.2723366E-009  0.1616186E+03  0.7561462E-02  0.1186881E+00
          1   -1    0    0  501    0  0.00000000000E+00  0.00000000000E+00  0.52123567321E+03  0.52123567321E+03  0.00000000000E+00 0. -1.
         -1   -1    0    0    0  501 -0.00000000000E+00 -0.00000000000E+00 -0.51613263012E+02  0.51613263012E+02  0.00000000000E+00 0.  1.
         25    2    1    2    0    0 -0.83108872442E+02 -0.87482541866E+02  0.27834765204E+03  0.32815211324E+03  0.12508442836E+03 0.  0.
          5    1    3    3  502    0 -0.82142705437E+01  0.31268263704E+02  0.41283894151E+02  0.52602384660E+02  0.41800000000E+01 0.  1.
         -5    1    3    3    0  502 -0.74894601898E+02 -0.11875080557E+03  0.23706375789E+03  0.27554972858E+03  0.41800000000E+01 0.  1.
        -11    1    1    2    0    0  0.48061642149E+02  0.10160220648E+03  0.12267372258E+03  0.16637840010E+03  0.00000000000E+00 0.  1.
         11    1    1    2    0    0  0.35047230293E+02 -0.14119664618E+02  0.68601035578E+02  0.78318422880E+02  0.00000000000E+00 0. -1.
</event>
<event>
 7    1  0.2723366E-009  0.1273111E+03  0.7561462E-02  0.1231501E+00
         -2   -1    0    0    0  501 -0.00000000000E+00  0.00000000000E+00  0.13890129588E+03  0.13890129588E+03  0.00000000000E+00 0.  1.
          2   -1    0    0  501    0  0.00000000000E+00 -0.00000000000E+00 -0.20255266933E+03  0.20255266933E+03  0.00000000000E+00 0. -1.
         25    2    1    2    0    0  0.97422239486E+02  0.21568756586E+02 -0.11479193653E+03  0.19692812487E+03  0.12508874316E+03 0.  0.
          5    1    3    3  502    0  0.53303368448E+02 -0.27767731924E+02 -0.11587496231E+03  0.13060159002E+03  0.41800000000E+01 0.  1.
         -5    1    3    3    0  502  0.44118871038E+02  0.49336488510E+02  0.10830257836E+01  0.66326534849E+02  0.41800000000E+01 0.  1.
        -11    1    1    2    0    0 -0.22374848508E+02  0.29688369348E+02 -0.52898334259E+01  0.37550172542E+02  0.00000000000E+00 0. -1.
         11    1    1    2    0    0 -0.75047390978E+02 -0.51257125934E+02  0.56430396508E+02  0.10697566780E+03  0.00000000000E+00 0.  1.
</event>
<event>
 7    1  0.2723366E-009  0.1305923E+03  0.7561462E-02  0.1226580E+00
         -2   -1    0    0    0  501 -0.00000000000E+00  0.00000000000E+00  0.31081195490E+02  0.31081195490E+02  0.00000000000E+00 0.  1.
          2   -1    0    0  501    0  0.00000000000E+00 -0.00000000000E+00 -0.78863640828E+03  0.78863640828E+03  0.00000000000E+00 0. -1.
         25    2    1    2    0    0 -0.33335926858E+02 -0.10258099317E+03 -0.47449923431E+03  0.50242586467E+03  0.12509229373E+03 0.  0.
          5    1    3    3  502    0  0.72187201661E+01  0.20132092967E+02 -0.17300240512E+03  0.17436948032E+03  0.41800000000E+01 0. -1.
         -5    1    3    3    0  502 -0.40554647024E+02 -0.12271308614E+03 -0.30149682919E+03  0.32805638435E+03  0.41800000000E+01 0. -1.
        -11    1    1    2    0    0  0.21195061008E+02  0.31454437460E+02 -0.21427548347E+03  0.21760651430E+03  0.00000000000E+00 0. -1.
         11    1    1    2    0    0  0.12140865850E+02  0.71126555709E+02 -0.68780495012E+02  0.99685224807E+02  0.00000000000E+00 0.  1.
</event>
<event>
 7    1  0.2723366E-009  0.9990972E+02  0.7561462E-02  0.1280486E+00
         -1   -1    0    0    0  501 -0.00000000000E+00  0.00000000000E+00  0.29963182627E+02  0.29963182627E+02  0.00000000000E+00 0.  1.
          1   -1    0    0  501    0  0.00000000000E+00 -0.00000000000E+00 -0.48205007055E+03  0.48205007055E+03  0.00000000000E+00 0. -1.
         25    2    1    2    0    0 -0.33856348328E+02 -0.31928224989E+02 -0.28721668476E+03  0.31671245187E+03  0.12509072424E+03 0.  0.
          5    1    3    3  502    0 -0.68810694035E+02 -0.14666735127E+02 -0.83555377151E+02  0.10931147325E+03  0.41800000000E+01 0. -1.
         -5    1    3    3    0  502  0.34954345706E+02 -0.17261489862E+02 -0.20366130761E+03  0.20740097863E+03  0.41800000000E+01 0. -1.
        -11    1    1    2    0    0 -0.24564934386E+02  0.16872340258E+02 -0.10925783856E+03  0.11324922584E+03  0.00000000000E+00 0. -1.
         11    1    1    2    0    0  0.58421282715E+02  0.15055884731E+02 -0.55612364596E+02  0.82051575457E+02  0.00000000000E+00 0.  1.
</event>
<event>
 7    1  0.2723366E-009  0.1139004E+03  0.7561462E-02  0.1253513E+00
         -2   -1    0    0    0  501 -0.00000000000E+00  0.00000000000E+00  0.39530503131E+02  0.39530503131E+02  0.00000000000E+00 0.  1.
          2   -1    0    0  501    0  0.00000000000E+00 -0.00000000000E+00 -0.46583340652E+03  0.46583340652E+03  0.00000000000E+00 0. -1.
         25    2    1    2    0    0 -0.72668578574E+02 -0.25692890233E+02 -0.28737748753E+03  0.32275908163E+03  0.12508699978E+03 0.  0.
          5    1    3    3  502    0 -0.83737481955E+02 -0.60750769190E+02 -0.24789684571E+03  0.26865021935E+03  0.41800000000E+01 0. -1.
         -5    1    3    3    0  502  0.11068903381E+02  0.35057878957E+02 -0.39480641810E+02  0.54108862276E+02  0.41800000000E+01 0. -1.
        -11    1    1    2    0    0  0.17303183553E+02 -0.11308526760E+02  0.73066969909E+01  0.21924204876E+02  0.00000000000E+00 0.  1.
         11    1    1    2    0    0  0.55365395021E+02  0.37001416993E+02 -0.14623211286E+03  0.16068062315E+03  0.00000000000E+00 0. -1.
</event>
<event>
 7    1  0.2723366E-009  0.3450644E+03  0.7561462E-02  0.1064659E+00
         -2   -1    0    0    0  501 -0.00000000000E+00  0.00000000000E+00  0.28357338911E+03  0.28357338911E+03  0.00000000000E+00 0.  1.
          2   -1    0    0  501    0  0.00000000000E+00 -0.00000000000E+00 -0.48713513438E+03  0.48713513438E+03  0.00000000000E+00 0. -1.
         25    2    1    2    0    0  0.12055066245E+03 -0.30756144854E+03 -0.23862036919E+03  0.42627917504E+03  0.12509095744E+03 0.  0.
          5    1    3    3  502    0  0.10539557583E+03 -0.10116611084E+03 -0.10348386554E+03  0.17907873188E+03  0.41800000000E+01 0. -1.
         -5    1    3    3    0  502  0.15155086621E+02 -0.20639533770E+03 -0.13513650365E+03  0.24720044315E+03  0.41800000000E+01 0. -1.
        -11    1    1    2    0    0  0.35275753319E+00  0.73856774728E+02 -0.17970728823E+02  0.76012464146E+02  0.00000000000E+00 0.  1.
         11    1    1    2    0    0 -0.12090341999E+03  0.23370467381E+03  0.53029352741E+02  0.26841688430E+03  0.00000000000E+00 0. -1.
</event>
<event>
 7    1  0.2723366E-009  0.2300613E+03  0.7561462E-02  0.1126597E+00
          2   -1    0    0  501    0  0.00000000000E+00  0.00000000000E+00  0.13351562016E+03  0.13351562016E+03  0.00000000000E+00 0. -1.
         -2   -1    0    0    0  501 -0.00000000000E+00 -0.00000000000E+00 -0.46407433973E+03  0.46407433973E+03  0.00000000000E+00 0.  1.
         25    2    1    2    0    0 -0.18167506619E+03 -0.11094890031E+03 -0.25331767370E+03  0.35374030187E+03  0.12508744622E+03 0.  0.
          5    1    3    3  502    0 -0.12125876484E+03 -0.12254892887E+03 -0.23076632385E+03  0.28808418325E+03  0.41800000000E+01 0.  1.
         -5    1    3    3    0  502 -0.60416301359E+02  0.11600028552E+02 -0.22551349851E+02  0.65656118621E+02  0.41800000000E+01 0.  1.
        -11    1    1    2    0    0  0.70341540247E+02  0.87439275393E+02 -0.64275335477E+02  0.12932469956E+03  0.00000000000E+00 0. -1.
         11    1    1    2    0    0  0.11133352595E+03  0.23509624922E+02 -0.12965710381E+02  0.11452495846E+03  0.00000000000E+00 0.  1.
</event>
<event>
 7    1  0.2723366E-009  0.1073586E+03  0.7561462E-02  0.1265541E+00
         -1   -1    0    0    0  501 -0.00000000000E+00  0.00000000000E+00  0.28236397801E+03  0.28236397801E+03  0.00000000000E+00 0.  1.
          1   -1    0    0  501    0  0.00000000000E+00 -0.00000000000E+00 -0.73191979709E+02  0.73191979709E+02  0.00000000000E+00 0. -1.
         25    2    1    2    0    0  0.33871091582E+02  0.24576231696E+02  0.21818863218E+03  0.25496175466E+03  0.12509186671E+03 0.  0.
          5    1    3    3  502    0  0.69231759364E+02 -0.50703454266E+01  0.18591601163E+03  0.19849680272E+03  0.41800000000E+01 0. -1.
         -5    1    3    3    0  502 -0.35360667782E+02  0.29646577123E+02  0.32272620547E+02  0.56464951944E+02  0.41800000000E+01 0. -1.
        -11    1    1    2    0    0 -0.60896137084E+01  0.33718946830E+02  0.46756114845E+01  0.34581962252E+02  0.00000000000E+00 0.  1.
         11    1    1    2    0    0 -0.27781477874E+02 -0.58295178526E+02 -0.13692245370E+02  0.66012240801E+02  0.00000000000E+00 0. -1.
</event>
<event>
 7    1  0.2723366E-009  0.1112125E+03  0.7561462E-02  0.1258341E+00
          1   -1    0    0  501    0  0.00000000000E+00  0.00000000000E+00  0.19177656725E+04  0.19177656725E+04  0.00000000000E+00 0.  1.
         -1   -1    0    0    0  501 -0.00000000000E+00 -0.00000000000E+00 -0.11190394474E+02  0.11190394474E+02  0.00000000000E+00 0. -1.
         25    2    1    2    0    0  0.68962231188E+02  0.30080988240E+01  0.15171304551E+04  0.15238430922E+04  0.12509242149E+03 0.  0.
          5    1    3    3  502    0  0.84372847183E+01 -0.41575133184E+02  0.10342858820E+04  0.10351639665E+04  0.41800000000E+01 0.  1.
         -5    1    3    3    0  502  0.60524946470E+02  0.44583232008E+02  0.48284457312E+03  0.48867912571E+03  0.41800000000E+01 0.  1.
        -11    1    1    2    0    0 -0.59618941408E+02 -0.36387331571E+02  0.31956284370E+03  0.32710681306E+03  0.00000000000E+00 0.  1.
         11    1    1    2    0    0 -0.93432897800E+01  0.33379232747E+02  0.69881979204E+02  0.78006161680E+02  0.00000000000E+00 0. -1.
</event>
<event>
 7    1  0.2723366E-009  0.1096287E+03  0.7561462E-02  0.1261259E+00
         -2   -1    0    0    0  501 -0.00000000000E+00  0.00000000000E+00  0.10829491733E+03  0.10829491733E+03  0.00000000000E+00 0.  1.
          2   -1    0    0  501    0  0.00000000000E+00 -0.00000000000E+00 -0.13046473503E+03  0.13046473503E+03  0.00000000000E+00 0. -1.
         25    2    1    2    0    0 -0.23224597122E+02 -0.18781436578E+02 -0.36217049397E+02  0.13360649412E+03  0.12508755467E+03 0.  0.
          5    1    3    3  502    0 -0.69413888469E+02  0.18484966148E+01 -0.43915920779E+02  0.82266550615E+02  0.41800000000E+01 0. -1.
         -5    1    3    3    0  502  0.46189291347E+02 -0.20629933193E+02  0.76988713821E+01  0.51339943506E+02  0.41800000000E+01 0. -1.
        -11    1    1    2    0    0  0.59986347500E+02  0.73458670102E+01  0.24575582649E+02  0.65240193984E+02  0.00000000000E+00 0.  1.
         11    1    1    2    0    0 -0.36761750378E+02  0.11435569567E+02 -0.10528350949E+02  0.39912964258E+02  0.00000000000E+00 0. -1.
</event>
<event>
 7    1  0.2723366E-009  0.1210866E+03  0.7561462E-02  0.1241315E+00
         -2   -1    0    0    0  501 -0.00000000000E+00  0.00000000000E+00  0.76628275098E+02  0.76628275098E+02  0.00000000000E+00 0. -1.
          2   -1    0    0  501    0  0.00000000000E+00 -0.00000000000E+00 -0.35559230533E+03  0.35559230533E+03  0.00000000000E+00 0.  1.
         25    2    1    2    0    0 -0.56311612233E+02 -0.58049573467E+02 -0.27106241747E+03  0.30929430163E+03  0.12508948879E+03 0.  0.
          5    1    3    3  502    0 -0.19260482800E+02 -0.87141063400E+02 -0.11154220809E+03  0.14291139813E+03  0.41800000000E+01 0. -1.
         -5    1    3    3    0  502 -0.37051129433E+02  0.29091489933E+02 -0.15952020938E+03  0.16638290351E+03  0.41800000000E+01 0. -1.
        -11    1    1    2    0    0  0.42785156779E+02 -0.31130443465E+01  0.27517645426E+02  0.50965493184E+02  0.00000000000E+00 0. -1.
         11    1    1    2    0    0  0.13526455454E+02  0.61162617814E+02 -0.35419258182E+02  0.71960785606E+02  0.00000000000E+00 0.  1.
</event>
<event>
 7    1  0.2723366E-009  0.1031939E+03  0.7561462E-02  0.1273719E+00
          2   -1    0    0  501    0  0.00000000000E+00  0.00000000000E+00  0.54609814262E+03  0.54609814262E+03  0.00000000000E+00 0.  1.
         -2   -1    0    0    0  501 -0.00000000000E+00 -0.00000000000E+00 -0.22492987066E+02  0.22492987066E+02  0.00000000000E+00 0. -1.
         25    2    1    2    0    0 -0.50179619932E+01 -0.84799962389E+01  0.28702297541E+03  0.31325498367E+03  0.12509758632E+03 0.  0.
          5    1    3    3  502    0  0.53130507680E+02 -0.32463495369E+02  0.14685750441E+03  0.15956606274E+03  0.41800000000E+01 0. -1.
         -5    1    3    3    0  502 -0.58148469673E+02  0.23983499130E+02  0.14016547100E+03  0.15368892093E+03  0.41800000000E+01 0. -1.
        -11    1    1    2    0    0 -0.27435208084E+02 -0.22948992089E+02  0.17691902519E+03  0.18049844419E+03  0.00000000000E+00 0.  1.
         11    1    1    2    0    0  0.32453170077E+02  0.31428988328E+02  0.59663154959E+02  0.74837701829E+02  0.00000000000E+00 0. -1.
</event>
<event>
 7    1  0.2723366E-009  0.1074201E+03  0.7561462E-02  0.1265423E+00
         -2   -1    0    0    0  501 -0.00000000000E+00  0.00000000000E+00  0.44067015803E+02  0.44067015803E+02  0.00000000000E+00 0.  1.
          2   -1    0    0  501    0  0.00000000000E+00 -0.00000000000E+00 -0.46430728710E+03  0.46430728710E+03  0.00000000000E+00 0. -1.
         25    2    1    2    0    0 -0.26035627372E+02  0.76241635607E+02 -0.31014204567E+03  0.34398567651E+03  0.12508963290E+03 0.  0.
          5    1    3    3  502    0 -0.35612586452E+02  0.75032253748E+02 -0.31935351733E+03  0.33000338915E+03  0.41800000000E+01 0.  1.
         -5    1    3    3    0  502  0.95769590807E+01  0.12093818595E+01  0.92114716621E+01  0.13982287363E+02  0.41800000000E+01 0.  1.
        -11    1    1    2    0    0  0.58263066699E+02 -0.64356346156E+02 -0.87588054300E+02  0.12332068556E+03  0.00000000000E+00 0.  1.
         11    1    1    2    0    0 -0.32227439328E+02 -0.11885289451E+02 -0.22510171332E+02  0.41067940834E+02  0.00000000000E+00 0. -1.
</event>
<event>
 7    1  0.2723366E-009  0.1306192E+03  0.7561462E-02  0.1226540E+00
         -2   -1    0    0    0  501 -0.00000000000E+00  0.00000000000E+00  0.11161349061E+03  0.11161349061E+03  0.00000000000E+00 0.  1.
          2   -1    0    0  501    0  0.00000000000E+00 -0.00000000000E+00 -0.21032166354E+03  0.21032166354E+03  0.00000000000E+00 0. -1.
         25    2    1    2    0    0  0.37857521089E+02  0.95405949551E+02 -0.92943463005E+02  0.18660521797E+03  0.12509009931E+03 0.  0.
          5    1    3    3  502    0  0.65353928564E+02  0.34268176805E+02 -0.93815327306E+02  0.11943296010E+03  0.41800000000E+01 0.  1.
         -5    1    3    3    0  502 -0.27496407475E+02  0.61137772746E+02  0.87186430034E+00  0.67172257873E+02  0.41800000000E+01 0.  1.
        -11    1    1    2    0    0 -0.54329466690E+02 -0.59015362930E+02  0.25968704621E+02  0.84314160331E+02  0.00000000000E+00 0.  1.
         11    1    1    2    0    0  0.16471945601E+02 -0.36390586621E+02 -0.31733414548E+02  0.51015775848E+02  0.00000000000E+00 0. -1.
</event>
<event>
 7    1  0.2723366E-009  0.2039854E+03  0.7561462E-02  0.1146419E+00
          2   -1    0    0  501    0  0.00000000000E+00  0.00000000000E+00  0.56440200226E+03  0.56440200226E+03  0.00000000000E+00 0. -1.
         -2   -1    0    0    0  501 -0.00000000000E+00 -0.00000000000E+00 -0.93589098430E+02  0.93589098430E+02  0.00000000000E+00 0.  1.
         25    2    1    2    0    0  0.17477923694E+03  0.50540042948E+02  0.36842697031E+03  0.42952047942E+03  0.12508929685E+03 0.  0.
          5    1    3    3  502    0  0.69696156881E+02  0.67775649613E+02  0.94706856477E+02  0.13578642800E+03  0.41800000000E+01 0. -1.
         -5    1    3    3    0  502  0.10508308006E+03 -0.17235606666E+02  0.27372011383E+03  0.29373405143E+03  0.41800000000E+01 0. -1.
        -11    1    1    2    0    0 -0.98971488180E+01  0.21876434687E+02  0.92817112440E+01  0.25742612784E+02  0.00000000000E+00 0.  1.
         11    1    1    2    0    0 -0.16488208812E+03 -0.72416477635E+02  0.93104222275E+02  0.20272800848E+03  0.00000000000E+00 0. -1.
</event>
<event>
 7    1  0.2723366E-009  0.1349481E+03  0.7561462E-02  0.1220293E+00
          2   -1    0    0  501    0  0.00000000000E+00  0.00000000000E+00  0.47054509404E+03  0.47054509404E+03  0.00000000000E+00 0. -1.
         -2   -1    0    0    0  501 -0.00000000000E+00 -0.00000000000E+00 -0.56944914109E+02  0.56944914109E+02  0.00000000000E+00 0.  1.
         25    2    1    2    0    0 -0.11193364590E+02 -0.10702894792E+03  0.12609612911E+03  0.20767351883E+03  0.12509024560E+03 0.  0.
          5    1    3    3  502    0 -0.62543449127E+02 -0.65429852038E+02  0.39970600036E+02  0.99034690052E+02  0.41800000000E+01 0.  1.
         -5    1    3    3    0  502  0.51350084537E+02 -0.41599095878E+02  0.86125529071E+02  0.10863882877E+03  0.41800000000E+01 0.  1.
        -11    1    1    2    0    0  0.20570382314E+02  0.36324247090E+02  0.21152848311E+03  0.21560818797E+03  0.00000000000E+00 0.  1.
         11    1    1    2    0    0 -0.93770177238E+01  0.70704700826E+02  0.75975567714E+02  0.10420830135E+03  0.00000000000E+00 0. -1.
</event>
<event>
 7    1  0.2723366E-009  0.1046714E+03  0.7561462E-02  0.1270768E+00
          2   -1    0    0  501    0  0.00000000000E+00  0.00000000000E+00  0.56532437516E+03  0.56532437516E+03  0.00000000000E+00 0.  1.
         -2   -1    0    0    0  501 -0.00000000000E+00 -0.00000000000E+00 -0.35999403486E+02  0.35999403486E+02  0.00000000000E+00 0. -1.
         25    2    1    2    0    0  0.57851081377E+02  0.19441697678E+02  0.43454069266E+03  0.45628913040E+03  0.12509768071E+03 0.  0.
          5    1    3    3  502    0  0.33833362757E+02  0.54486842056E+02  0.38738144740E+03  0.39267718368E+03  0.41800000000E+01 0.  1.
         -5    1    3    3    0  502  0.24017718621E+02 -0.35045144379E+02  0.47159245261E+02  0.63611946723E+02  0.41800000000E+01 0.  1.
        -11    1    1    2    0    0 -0.43339117334E+02  0.28777859711E+02  0.21896634038E+02  0.56443838309E+02  0.00000000000E+00 0.  1.
         11    1    1    2    0    0 -0.14511964043E+02 -0.48219557389E+02  0.72887644975E+02  0.88590809936E+02  0.00000000000E+00 0. -1.
</event>
<event>
 7    1  0.2723366E-009  0.1599629E+03  0.7561462E-02  0.1188739E+00
         -4   -1    0    0    0  501 -0.00000000000E+00  0.00000000000E+00  0.41379142188E+03  0.41379142188E+03  0.00000000000E+00 0.  1.
          4   -1    0    0  501    0  0.00000000000E+00 -0.00000000000E+00 -0.72887690885E+02  0.72887690885E+02  0.00000000000E+00 0. -1.
         25    2    1    2    0    0 -0.10743340162E+03  0.66170976482E+02  0.25608824753E+03  0.31168797828E+03  0.12509065259E+03 0.  0.
          5    1    3    3  502    0  0.22902651867E+02  0.34278391344E+01  0.81985317402E+02  0.85295640059E+02  0.41800000000E+01 0. -1.
         -5    1    3    3    0  502 -0.13033605349E+03  0.62743137348E+02  0.17410293013E+03  0.22639233822E+03  0.41800000000E+01 0. -1.
        -11    1    1    2    0    0  0.10078699394E+03 -0.17178884374E+02  0.45895816250E+02  0.11206943457E+03  0.00000000000E+00 0.  1.
         11    1    1    2    0    0  0.66464076769E+01 -0.48992092109E+02  0.38919667215E+02  0.62921699916E+02  0.00000000000E+00 0. -1.
</event>
<event>
 7    1  0.2723366E-009  0.6341962E+02  0.7561462E-02  0.1384017E+00
          1   -1    0    0  501    0  0.00000000000E+00  0.00000000000E+00  0.55911171225E+03  0.55911171225E+03  0.00000000000E+00 0. -1.
         -1   -1    0    0    0  501 -0.00000000000E+00 -0.00000000000E+00 -0.21599140070E+02  0.21599140070E+02  0.00000000000E+00 0.  1.
         25    2    1    2    0    0  0.71341018380E+01 -0.21926369659E+02  0.33073955846E+03  0.35435634681E+03  0.12509238146E+03 0.  0.
          5    1    3    3  502    0 -0.76257801045E+01 -0.16440740595E+02 -0.41618097045E+01  0.19058948909E+02  0.41800000000E+01 0.  1.
         -5    1    3    3    0  502  0.14759881942E+02 -0.54856290640E+01  0.33490136816E+03  0.33529739790E+03  0.41800000000E+01 0.  1.
        -11    1    1    2    0    0 -0.40913956799E+02 -0.13417804108E+02  0.10319179354E+03  0.11181473776E+03  0.00000000000E+00 0.  1.
         11    1    1    2    0    0  0.33779854961E+02  0.35344173767E+02  0.10358122018E+03  0.11453976774E+03  0.00000000000E+00 0. -1.
</event>
<event>
 7    1  0.2723366E-009  0.2274211E+03  0.7561462E-02  0.1128468E+00
         -3   -1    0    0    0  501 -0.00000000000E+00  0.00000000000E+00  0.28312718318E+03  0.28312718318E+03  0.00000000000E+00 0.  1.
          3   -1    0    0  501    0  0.00000000000E+00 -0.00000000000E+00 -0.19663772383E+03  0.19663772383E+03  0.00000000000E+00 0. -1.
         25    2    1    2    0    0 -0.47815125211E+01 -0.20877605593E+03  0.55840915992E+02  0.24975192016E+03  0.12509000492E+03 0.  0.
          5    1    3    3  502    0 -0.56480705860E+02 -0.16605241171E+03  0.31313969100E+02  0.17821759349E+03  0.41800000000E+01 0.  1.
         -5    1    3    3    0  502  0.51699193339E+02 -0.42723644221E+02  0.24526946892E+02  0.71534326664E+02  0.41800000000E+01 0.  1.
        -11    1    1    2    0    0  0.15238479230E+02  0.35813563917E+02  0.40864983042E+02  0.56433761603E+02  0.00000000000E+00 0.  1.
         11    1    1    2    0    0 -0.10456966709E+02  0.17296249202E+03 -0.10216439684E+02  0.17357922525E+03  0.00000000000E+00 0. -1.
</event>
<event>
 7    1  0.2723366E-009  0.1008542E+03  0.7561462E-02  0.1278510E+00
          3   -1    0    0  501    0  0.00000000000E+00  0.00000000000E+00  0.22585493432E+02  0.22585493432E+02  0.00000000000E+00 0. -1.
         -3   -1    0    0    0  501 -0.00000000000E+00 -0.00000000000E+00 -0.75529972787E+03  0.75529972787E+03  0.00000000000E+00 0.  1.
         25    2    1    2    0    0  0.61295021032E+02 -0.35857959694E+02 -0.38949108587E+03  0.41520297632E+03  0.12508929890E+03 0.  0.
          5    1    3    3  502    0  0.42138691846E+01 -0.26037668339E+02 -0.60405611004E+01  0.27380241863E+02  0.41800000000E+01 0.  1.
         -5    1    3    3    0  502  0.57081151847E+02 -0.98202913552E+01 -0.38345052477E+03  0.38782273446E+03  0.41800000000E+01 0.  1.
        -11    1    1    2    0    0 -0.25897308377E+02  0.65708973096E+02 -0.19512321950E+03  0.20751243461E+03  0.00000000000E+00 0.  1.
         11    1    1    2    0    0 -0.35397712655E+02 -0.29851013401E+02 -0.14809992906E+03  0.15516981037E+03  0.00000000000E+00 0. -1.
</event>
<event>
 7    1  0.2723366E-009  0.1254261E+03  0.7561462E-02  0.1234405E+00
         -2   -1    0    0    0  501 -0.00000000000E+00  0.00000000000E+00  0.17149981165E+03  0.17149981165E+03  0.00000000000E+00 0.  1.
          2   -1    0    0  501    0  0.00000000000E+00 -0.00000000000E+00 -0.17265765576E+03  0.17265765576E+03  0.00000000000E+00 0. -1.
         25    2    1    2    0    0 -0.73169048573E+02 -0.77818776473E+02  0.80165334931E+02  0.18298300578E+03  0.12508728088E+03 0.  0.
          5    1    3    3  502    0 -0.57054362135E+01  0.20051990450E+02 -0.18700062379E+02  0.28316056511E+02  0.41800000000E+01 0. -1.
         -5    1    3    3    0  502 -0.67463612360E+02 -0.97870766922E+02  0.98865397310E+02  0.15466694927E+03  0.41800000000E+01 0. -1.
        -11    1    1    2    0    0  0.19766351213E+02  0.41782397521E+02  0.12018213014E+02  0.47758924055E+02  0.00000000000E+00 0.  1.
         11    1    1    2    0    0  0.53402697360E+02  0.36036378952E+02 -0.93341392051E+02  0.11341553757E+03  0.00000000000E+00 0. -1.
</event>
<event>
 7    1  0.2723366E-009  0.1220568E+03  0.7561462E-02  0.1239742E+00
          1   -1    0    0  501    0  0.00000000000E+00  0.00000000000E+00  0.31150532031E+03  0.31150532031E+03  0.00000000000E+00 0. -1.
         -1   -1    0    0    0  501 -0.00000000000E+00 -0.00000000000E+00 -0.52235778765E+02  0.52235778765E+02  0.00000000000E+00 0.  1.
         25    2    1    2    0    0 -0.39206148732E+02 -0.52005048964E+02  0.11899357590E+03  0.18453612908E+03  0.12510981022E+03 0.  0.
          5    1    3    3  502    0  0.12891169650E+01  0.35980278084E+02  0.79125088848E+01  0.37098819798E+02  0.41800000000E+01 0.  1.
         -5    1    3    3    0  502 -0.40495265697E+02 -0.87985327047E+02  0.11108106701E+03  0.14743730928E+03  0.41800000000E+01 0.  1.
        -11    1    1    2    0    0  0.70329152593E+01  0.72457088605E+02  0.83001971084E+02  0.11040298361E+03  0.00000000000E+00 0. -1.
         11    1    1    2    0    0  0.32173233473E+02 -0.20452039641E+02  0.57273994567E+02  0.68801986390E+02  0.00000000000E+00 0.  1.
</event>
<event>
 7    1  0.2723366E-009  0.1352207E+03  0.7561462E-02  0.1219908E+00
          1   -1    0    0  501    0  0.00000000000E+00  0.00000000000E+00  0.64425317339E+03  0.64425317339E+03  0.00000000000E+00 0. -1.
         -1   -1    0    0    0  501 -0.00000000000E+00 -0.00000000000E+00 -0.70153021166E+02  0.70153021166E+02  0.00000000000E+00 0.  1.
         25    2    1    2    0    0 -0.85405524148E+02  0.68348468087E+02  0.55956565959E+03  0.58371802871E+03  0.12508953996E+03 0.  0.
          5    1    3    3  502    0 -0.98545046082E+02  0.91731177351E+01  0.26403096573E+03  0.28200194230E+03  0.41800000000E+01 0. -1.
         -5    1    3    3    0  502  0.13139521934E+02  0.59175350352E+02  0.29553469386E+03  0.30171608641E+03  0.41800000000E+01 0. -1.
        -11    1    1    2    0    0  0.28739207581E+02 -0.33324222922E+02  0.39904841922E+02  0.59404059580E+02  0.00000000000E+00 0. -1.
         11    1    1    2    0    0  0.56666316567E+02 -0.35024245165E+02 -0.25370349288E+02  0.71284106263E+02  0.00000000000E+00 0.  1.
</event>
<event>
 7    1  0.2723366E-009  0.1419447E+03  0.7561462E-02  0.1210736E+00
         -2   -1    0    0    0  501 -0.00000000000E+00  0.00000000000E+00  0.14832118392E+02  0.14832118392E+02  0.00000000000E+00 0. -1.
          2   -1    0    0  501    0  0.00000000000E+00 -0.00000000000E+00 -0.18481470861E+04  0.18481470861E+04  0.00000000000E+00 0.  1.
         25    2    1    2    0    0  0.93782958288E+02 -0.70857666947E+02 -0.12526983475E+04  0.12644036684E+04  0.12508970592E+03 0.  0.
          5    1    3    3  502    0  0.42378543955E+02 -0.95319878871E+02 -0.58273131625E+03  0.59200935773E+03  0.41800000000E+01 0.  1.
         -5    1    3    3    0  502  0.51404414332E+02  0.24462211924E+02 -0.66996703126E+03  0.67239431065E+03  0.41800000000E+01 0.  1.
        -11    1    1    2    0    0 -0.16885948809E+02 -0.13282470771E+01 -0.13293401375E+02  0.21531698205E+02  0.00000000000E+00 0. -1.
         11    1    1    2    0    0 -0.76897009478E+02  0.72185914024E+02 -0.56732321883E+03  0.57704383792E+03  0.00000000000E+00 0.  1.
</event>
<event>
 7    1  0.3272872E-009  0.1218353E+03  0.7561462E-02  0.1240100E+00
          1   -1    0    0  501    0  0.00000000000E+00  0.00000000000E+00  0.84748178776E+03  0.84748178776E+03  0.00000000000E+00 0. -1.
         -1   -1    0    0    0  501 -0.00000000000E+00 -0.00000000000E+00 -0.26168904509E+02  0.26168904509E+02  0.00000000000E+00 0.  1.
         25    2    1    2    0    0 -0.45571635587E+02 -0.88184663151E+02  0.38368510641E+03  0.41559020170E+03  0.12509055154E+03 0.  0.
          5    1    3    3  502    0 -0.54717991194E+00 -0.82660665880E+02  0.34804381486E+03  0.35774998889E+03  0.41800000000E+01 0.  1.
         -5    1    3    3    0  502 -0.45024455675E+02 -0.55239972714E+01  0.35641291549E+02  0.57840212810E+02  0.41800000000E+01 0.  1.
        -11    1    1    2    0    0  0.83908163320E+01 -0.83885847237E+01  0.44153492111E+01  0.12659757543E+02  0.00000000000E+00 0.  1.
         11    1    1    2    0    0  0.37180819255E+02  0.96573247875E+02  0.43321242764E+03  0.44540073303E+03  0.00000000000E+00 0. -1.
</event>
<event>
 7    1  0.2723366E-009  0.9836084E+02  0.7561462E-02  0.1283781E+00
          2   -1    0    0  501    0  0.00000000000E+00  0.00000000000E+00  0.44114788296E+03  0.44114788296E+03  0.00000000000E+00 0.  1.
         -2   -1    0    0    0  501 -0.00000000000E+00 -0.00000000000E+00 -0.31796837635E+02  0.31796837635E+02  0.00000000000E+00 0. -1.
         25    2    1    2    0    0 -0.42508134542E+01  0.38265013784E+02  0.27504004196E+03  0.30459160813E+03  0.12508693924E+03 0.  0.
          5    1    3    3  502    0 -0.41453324980E+02  0.41810757836E+02  0.25546951379E+03  0.26219966152E+03  0.41800000000E+01 0.  1.
         -5    1    3    3    0  502  0.37202511526E+02 -0.35457440519E+01  0.19570528161E+02  0.42391946609E+02  0.41800000000E+01 0.  1.
        -11    1    1    2    0    0  0.17224750596E+02  0.27833648655E+02  0.57722130780E+02  0.66356977119E+02  0.00000000000E+00 0.  1.
         11    1    1    2    0    0 -0.12973937141E+02 -0.66098662439E+02  0.76588872586E+02  0.10199613534E+03  0.00000000000E+00 0. -1.
</event>
<event>
 7    1  0.2723366E-009  0.1682142E+03  0.7561462E-02  0.1179723E+00
         -2   -1    0    0    0  501 -0.00000000000E+00  0.00000000000E+00  0.36749530468E+03  0.36749530468E+03  0.00000000000E+00 0.  1.
          2   -1    0    0  501    0  0.00000000000E+00 -0.00000000000E+00 -0.84869562637E+02  0.84869562637E+02  0.00000000000E+00 0. -1.
         25    2    1    2    0    0 -0.13336918891E+03 -0.82415132852E+01  0.19459300988E+03  0.26715007635E+03  0.12508981057E+03 0.  0.
          5    1    3    3  502    0 -0.56146839045E+01 -0.42895539972E+02  0.19565323209E+02  0.47663679014E+02  0.41800000000E+01 0.  1.
         -5    1    3    3    0  502 -0.12775450501E+03  0.34654026687E+02  0.17502768667E+03  0.21948639734E+03  0.41800000000E+01 0.  1.
        -11    1    1    2    0    0  0.87739025942E+02 -0.37954250659E+02  0.36533624070E+02  0.10233947188E+03  0.00000000000E+00 0. -1.
         11    1    1    2    0    0  0.45630162973E+02  0.46195763945E+02  0.51499108097E+02  0.82875319089E+02  0.00000000000E+00 0.  1.
</event>
<event>
 7    1  0.2723366E-009  0.1192182E+03  0.7561462E-02  0.1244392E+00
         -2   -1    0    0    0  501 -0.00000000000E+00  0.00000000000E+00  0.29031226662E+02  0.29031226662E+02  0.00000000000E+00 0.  1.
          2   -1    0    0  501    0  0.00000000000E+00 -0.00000000000E+00 -0.64586430453E+03  0.64586430453E+03  0.00000000000E+00 0. -1.
         25    2    1    2    0    0 -0.52123786247E+02  0.66370539741E+02 -0.35368974370E+03  0.38453145050E+03  0.12508422758E+03 0.  0.
          5    1    3    3  502    0  0.34794307433E+02  0.43984795592E+01 -0.15467396422E+03  0.15865528059E+03  0.41800000000E+01 0.  1.
         -5    1    3    3    0  502 -0.86918093680E+02  0.61972060181E+02 -0.19901577948E+03  0.22587616991E+03  0.41800000000E+01 0.  1.
        -11    1    1    2    0    0  0.96811912622E+00 -0.37566256260E+02 -0.20250673547E+03  0.20596392590E+03  0.00000000000E+00 0.  1.
         11    1    1    2    0    0  0.51155667121E+02 -0.28804283481E+02 -0.60636598698E+02  0.84400154781E+02  0.00000000000E+00 0. -1.
</event>
<event>
 7    1  0.5223680E-009  0.1008519E+03  0.7561462E-02  0.1278515E+00
         -2   -1    0    0    0  501 -0.00000000000E+00  0.00000000000E+00  0.25737541578E+02  0.25737541578E+02  0.00000000000E+00 0.  1.
          2   -1    0    0  501    0  0.00000000000E+00 -0.00000000000E+00 -0.90847979422E+03  0.90847979422E+03  0.00000000000E+00 0. -1.
         25    2    1    2    0    0 -0.53232506207E+02  0.83373317837E+02 -0.60443031115E+03  0.62511415224E+03  0.12508753912E+03 0.  0.
          5    1    3    3  502    0 -0.45860592222E+02  0.80286875015E+02 -0.60829912840E+03  0.61530031548E+03  0.41800000000E+01 0.  1.
         -5    1    3    3    0  502 -0.73719139842E+01  0.30864428222E+01  0.38688172444E+01  0.98138367602E+01  0.41800000000E+01 0.  1.
        -11    1    1    2    0    0  0.82694692178E+01 -0.25709337369E+02 -0.67063190068E+01  0.27826765240E+02  0.00000000000E+00 0.  1.
         11    1    1    2    0    0  0.44963036989E+02 -0.57663980468E+02 -0.27160562248E+03  0.28127641832E+03  0.00000000000E+00 0. -1.
</event>
<event>
 7    1  0.2723366E-009  0.8397648E+02  0.7561462E-02  0.1318131E+00
          1   -1    0    0  501    0  0.00000000000E+00  0.00000000000E+00  0.54492284192E+02  0.54492284192E+02  0.00000000000E+00 0. -1.
         -1   -1    0    0    0  501 -0.00000000000E+00 -0.00000000000E+00 -0.40184320294E+03  0.40184320294E+03  0.00000000000E+00 0.  1.
         25    2    1    2    0    0 -0.22577908683E+02 -0.45001762145E+02 -0.32799059537E+03  0.35462703728E+03  0.12509030484E+03 0.  0.
          5    1    3    3  502    0 -0.10241913703E+01 -0.65056987952E+02 -0.31584785248E+03  0.32250705258E+03  0.41800000000E+01 0.  1.
         -5    1    3    3    0  502 -0.21553717313E+02  0.20055225807E+02 -0.12142742888E+02  0.32119984698E+02  0.41800000000E+01 0.  1.
        -11    1    1    2    0    0 -0.10534766874E+02 -0.60642039479E+01 -0.36506767245E+02  0.38477265200E+02  0.00000000000E+00 0.  1.
         11    1    1    2    0    0  0.33112675557E+02  0.51065966093E+02  0.17146443862E+02  0.63231184653E+02  0.00000000000E+00 0. -1.
</event>
<event>
 7    1  0.2723366E-009  0.1418885E+03  0.7561462E-02  0.1210810E+00
          1   -1    0    0  501    0  0.00000000000E+00  0.00000000000E+00  0.17132351112E+04  0.17132351112E+04  0.00000000000E+00 0. -1.
         -1   -1    0    0    0  501 -0.00000000000E+00 -0.00000000000E+00 -0.15404290721E+02  0.15404290721E+02  0.00000000000E+00 0.  1.
         25    2    1    2    0    0  0.12104667911E+03 -0.15577905459E+01  0.92835247921E+03  0.94453213694E+03  0.12509159368E+03 0.  0.
          5    1    3    3  502    0  0.54317576569E-01 -0.10970048444E+02  0.42492450357E+01  0.12484926778E+02  0.41800000000E+01 0. -1.
         -5    1    3    3    0  502  0.12099236153E+03  0.94122578985E+01  0.92410323418E+03  0.93204721016E+03  0.41800000000E+01 0. -1.
        -11    1    1    2    0    0 -0.14722229685E+02  0.35959168563E+02  0.18367405483E+03  0.18773908562E+03  0.00000000000E+00 0. -1.
         11    1    1    2    0    0 -0.10632444942E+03 -0.34401378017E+02  0.58580428641E+03  0.59636817935E+03  0.00000000000E+00 0.  1.
</event>
<event>
 7    1  0.4236930E-009  0.9574863E+02  0.7561462E-02  0.1289499E+00
         -2   -1    0    0    0  501 -0.00000000000E+00  0.00000000000E+00  0.23405747739E+02  0.23405747739E+02  0.00000000000E+00 0. -1.
          2   -1    0    0  501    0  0.00000000000E+00 -0.00000000000E+00 -0.76403320725E+03  0.76403320725E+03  0.00000000000E+00 0.  1.
         25    2    1    2    0    0 -0.29488297117E+02  0.67857560335E+02 -0.33895085190E+03  0.36879455029E+03  0.12509009615E+03 0.  0.
          5    1    3    3  502    0 -0.38784975291E+02  0.57918310804E+02 -0.34595204439E+03  0.35292930517E+03  0.41800000000E+01 0.  1.
         -5    1    3    3    0  502  0.92966781742E+01  0.99392495313E+01  0.70011924853E+01  0.15865245114E+02  0.41800000000E+01 0.  1.
        -11    1    1    2    0    0  0.45807277740E+02 -0.94320543342E+01 -0.93386898144E+02  0.10444320508E+03  0.00000000000E+00 0. -1.
         11    1    1    2    0    0 -0.16318980623E+02 -0.58425506001E+02 -0.30828970946E+03  0.31420119962E+03  0.00000000000E+00 0.  1.
</event>
<event>
 7    1  0.2723366E-009  0.9969126E+02  0.7561462E-02  0.1280947E+00
          1   -1    0    0  501    0  0.00000000000E+00  0.00000000000E+00  0.46931658571E+02  0.46931658571E+02  0.00000000000E+00 0. -1.
         -1   -1    0    0    0  501 -0.00000000000E+00 -0.00000000000E+00 -0.36043511879E+03  0.36043511879E+03  0.00000000000E+00 0.  1.
         25    2    1    2    0    0 -0.25002674600E+02  0.27075147231E+01 -0.69027400157E+02  0.14506899389E+03  0.12509103342E+03 0.  0.
          5    1    3    3  502    0  0.25027620856E+02 -0.47641399442E+02 -0.15773360433E+02  0.56234829473E+02  0.41800000000E+01 0.  1.
         -5    1    3    3    0  502 -0.50030295455E+02  0.50348914166E+02 -0.53254039724E+02  0.88834164418E+02  0.41800000000E+01 0.  1.
        -11    1    1    2    0    0 -0.73025378234E+01  0.28479150890E+02 -0.25976854427E+02  0.39232461814E+02  0.00000000000E+00 0. -1.
         11    1    1    2    0    0  0.32305212423E+02 -0.31186665613E+02 -0.21849920564E+03  0.22306532166E+03  0.00000000000E+00 0.  1.
</event>
<event>
 7    1  0.2723366E-009  0.1169166E+03  0.7561462E-02  0.1248272E+00
         -1   -1    0    0    0  501 -0.00000000000E+00  0.00000000000E+00  0.14690488880E+02  0.14690488880E+02  0.00000000000E+00 0.  1.
          1   -1    0    0  501    0  0.00000000000E+00 -0.00000000000E+00 -0.14218320589E+04  0.14218320589E+04  0.00000000000E+00 0. -1.
         25    2    1    2    0    0 -0.85461116755E+02  0.39396365740E+02 -0.67879730604E+03  0.69661182112E+03  0.12508625232E+03 0.  0.
          5    1    3    3  502    0 -0.16199948724E+02  0.29010525792E+02 -0.54049288914E+03  0.54152939399E+03  0.41800000000E+01 0.  1.
         -5    1    3    3    0  502 -0.69261168032E+02  0.10385839949E+02 -0.13830441691E+03  0.15508242713E+03  0.41800000000E+01 0.  1.
        -11    1    1    2    0    0  0.61143130130E+02 -0.68789589717E+02 -0.49939127876E+03  0.50780127935E+03  0.00000000000E+00 0.  1.
         11    1    1    2    0    0  0.24317986626E+02  0.29393223977E+02 -0.22895298527E+03  0.23210944736E+03  0.00000000000E+00 0. -1.
</event>
<event>
 7    1  0.3257630E-009  0.1321255E+03  0.7561462E-02  0.1224336E+00
         -2   -1    0    0    0  501 -0.00000000000E+00  0.00000000000E+00  0.80961178529E+02  0.80961178529E+02  0.00000000000E+00 0.  1.
          2   -1    0    0  501    0  0.00000000000E+00 -0.00000000000E+00 -0.27266707341E+03  0.27266707341E+03  0.00000000000E+00 0. -1.
         25    2    1    2    0    0  0.20038591459E+00 -0.99889361613E+02 -0.12255729049E+03  0.20160820198E+03  0.12509057893E+03 0.  0.
          5    1    3    3  502    0 -0.19753654175E+02  0.25546214570E+02 -0.19192690733E+02  0.37797456392E+02  0.41800000000E+01 0. -1.
         -5    1    3    3    0  502  0.19954040089E+02 -0.12543557618E+03 -0.10336459976E+03  0.16381074559E+03  0.41800000000E+01 0. -1.
        -11    1    1    2    0    0 -0.15623459938E+02  0.51886603263E+02  0.12914568680E+02  0.55705459183E+02  0.00000000000E+00 0.  1.
         11    1    1    2    0    0  0.15423074024E+02  0.48002758349E+02 -0.82063173071E+02  0.96314590774E+02  0.00000000000E+00 0. -1.
</event>
<event>
 7    1  0.2723366E-009  0.1691564E+03  0.7561462E-02  0.1178730E+00
          4   -1    0    0  501    0  0.00000000000E+00  0.00000000000E+00  0.19316979680E+03  0.19316979680E+03  0.00000000000E+00 0. -1.
         -4   -1    0    0    0  501 -0.00000000000E+00 -0.00000000000E+00 -0.23217785956E+03  0.23217785956E+03  0.00000000000E+00 0.  1.
         25    2    1    2    0    0 -0.13609967074E+03 -0.61426739136E+02 -0.12452342224E+03  0.23119552939E+03  0.12509566525E+03 0.  0.
          5    1    3    3  502    0 -0.12361041421E+03 -0.22752232529E+02 -0.31568160800E+02  0.12965808792E+03  0.41800000000E+01 0.  1.
         -5    1    3    3    0  502 -0.12489256532E+02 -0.38674506608E+02 -0.92955261444E+02  0.10153744147E+03  0.41800000000E+01 0.  1.
        -11    1    1    2    0    0  0.14695154712E+03  0.64408358616E+02  0.70164326829E+02  0.17511775073E+03  0.00000000000E+00 0.  1.
         11    1    1    2    0    0 -0.10851876382E+02 -0.29816194798E+01  0.15351032648E+02  0.19034376247E+02  0.00000000000E+00 0. -1.
</event>
<event>
 7    1  0.2723366E-009  0.7185381E+02  0.7561462E-02  0.1353900E+00
          1   -1    0    0  501    0  0.00000000000E+00  0.00000000000E+00  0.38704567764E+03  0.38704567764E+03  0.00000000000E+00 0. -1.
         -1   -1    0    0    0  501 -0.00000000000E+00 -0.00000000000E+00 -0.38901001265E+02  0.38901001265E+02  0.00000000000E+00 0.  1.
         25    2    1    2    0    0  0.38166782112E+02  0.13316069727E+02  0.27317522649E+03  0.30316019851E+03  0.12508949047E+03 0.  0.
          5    1    3    3  502    0  0.60398448123E+01  0.14680475895E+02 -0.92751139174E+01  0.18854607820E+02  0.41800000000E+01 0.  1.
         -5    1    3    3    0  502  0.32126937300E+02 -0.13644061682E+01  0.28245034041E+03  0.28430559069E+03  0.41800000000E+01 0.  1.
        -11    1    1    2    0    0  0.19673357166E+02 -0.28902030859E+02  0.41145016222E+02  0.53993339681E+02  0.00000000000E+00 0.  1.
         11    1    1    2    0    0 -0.57840139278E+02  0.15585961131E+02  0.33824433666E+02  0.68793140711E+02  0.00000000000E+00 0. -1.
</event>
<event>
 7    1  0.2723366E-009  0.2405493E+03  0.7561462E-02  0.1119427E+00
         -1   -1    0    0    0  501 -0.00000000000E+00  0.00000000000E+00  0.76054681603E+02  0.76054681603E+02  0.00000000000E+00 0.  1.
          1   -1    0    0  501    0  0.00000000000E+00 -0.00000000000E+00 -0.80588238950E+03  0.80588238950E+03  0.00000000000E+00 0. -1.
         25    2    1    2    0    0  0.10997111191E+03 -0.18726516800E+03 -0.45756068358E+03  0.52170065568E+03  0.12509159195E+03 0.  0.
          5    1    3    3  502    0  0.10893364311E+02  0.17984483700E+02 -0.55818134459E+02  0.59793340553E+02  0.41800000000E+01 0. -1.
         -5    1    3    3    0  502  0.99077747599E+02 -0.20524965170E+03 -0.40174254912E+03  0.46190731513E+03  0.41800000000E+01 0. -1.
        -11    1    1    2    0    0 -0.16384127235E+02  0.10750493241E+03 -0.94405217117E+02  0.14400727460E+03  0.00000000000E+00 0.  1.
         11    1    1    2    0    0 -0.93586984674E+02  0.79760235591E+02 -0.17786180720E+03  0.21622914082E+03  0.00000000000E+00 0. -1.
</event>
<event>
 7    1  0.2723366E-009  0.1047835E+03  0.7561462E-02  0.1270547E+00
          2   -1    0    0  501    0  0.00000000000E+00  0.00000000000E+00  0.37967923528E+03  0.37967923528E+03  0.00000000000E+00 0. -1.
         -2   -1    0    0    0  501 -0.00000000000E+00 -0.00000000000E+00 -0.31337012506E+02  0.31337012506E+02  0.00000000000E+00 0.  1.
         25    2    1    2    0    0  0.15549026541E+01  0.44466155912E+01  0.17399431476E+03  0.21435620316E+03  0.12510943271E+03 0.  0.
          5    1    3    3  502    0 -0.31981929126E+02 -0.50190213235E+02  0.68491471027E+02  0.90832016925E+02  0.41800000000E+01 0. -1.
         -5    1    3    3    0  502  0.33536831780E+02  0.54636828826E+02  0.10550284373E+03  0.12352418624E+03  0.41800000000E+01 0. -1.
        -11    1    1    2    0    0  0.37031526620E+02  0.17836810062E+02  0.50945548863E+02  0.65459412662E+02  0.00000000000E+00 0.  1.
         11    1    1    2    0    0 -0.38586429275E+02 -0.22283425654E+02  0.12340235916E+03  0.13120063197E+03  0.00000000000E+00 0. -1.
</event>
<event>
 7    1  0.2723366E-009  0.1506467E+03  0.7561462E-02  0.1199681E+00
         -1   -1    0    0    0  501 -0.00000000000E+00  0.00000000000E+00  0.37961078166E+02  0.37961078166E+02  0.00000000000E+00 0.  1.
          1   -1    0    0  501    0  0.00000000000E+00 -0.00000000000E+00 -0.79361272283E+03  0.79361272283E+03  0.00000000000E+00 0. -1.
         25    2    1    2    0    0  0.10161531525E+03  0.72176688081E+02 -0.27203524943E+03  0.32432297996E+03  0.12508825604E+03 0.  0.
          5    1    3    3  502    0 -0.28510564492E+02  0.23260435303E+02 -0.67311545807E+02  0.76825885853E+02  0.41800000000E+01 0.  1.
         -5    1    3    3    0  502  0.13012587974E+03  0.48916252778E+02 -0.20472370363E+03  0.24749709411E+03  0.41800000000E+01 0.  1.
        -11    1    1    2    0    0 -0.16527066752E+02 -0.67698191543E+01 -0.78134566357E+01  0.19494216870E+02  0.00000000000E+00 0.  1.
         11    1    1    2    0    0 -0.85088248496E+02 -0.65406868927E+02 -0.47580293859E+03  0.48775660417E+03  0.00000000000E+00 0. -1.
</event>
<event>
 7    1  0.2723366E-009  0.9476788E+02  0.7561462E-02  0.1291700E+00
          2   -1    0    0  501    0  0.00000000000E+00  0.00000000000E+00  0.47444410901E+03  0.47444410901E+03  0.00000000000E+00 0. -1.
         -2   -1    0    0    0  501 -0.00000000000E+00 -0.00000000000E+00 -0.28076290982E+02  0.28076290982E+02  0.00000000000E+00 0.  1.
         25    2    1    2    0    0 -0.40490454873E+02 -0.63348613551E+01  0.26874468526E+03  0.29924858019E+03  0.12508556865E+03 0.  0.
          5    1    3    3  502    0 -0.21310188272E+02 -0.59176034595E+02  0.77657529162E+02  0.10002045506E+03  0.41800000000E+01 0. -1.
         -5    1    3    3    0  502 -0.19180266600E+02  0.52841173240E+02  0.19108715610E+03  0.19922812513E+03  0.41800000000E+01 0. -1.
        -11    1    1    2    0    0  0.51621767127E+02 -0.77268776713E+01  0.17783427464E+03  0.18533629087E+03  0.00000000000E+00 0. -1.
         11    1    1    2    0    0 -0.11131312254E+02  0.14061739026E+02 -0.21114187462E+00  0.17935528925E+02  0.00000000000E+00 0.  1.
</event>
<event>
 7    1  0.2723366E-009  0.7505699E+02  0.7561462E-02  0.1343695E+00
          1   -1    0    0  501    0  0.00000000000E+00  0.00000000000E+00  0.24998546723E+03  0.24998546723E+03  0.00000000000E+00 0. -1.
         -1   -1    0    0    0  501 -0.00000000000E+00 -0.00000000000E+00 -0.47225530148E+02  0.47225530148E+02  0.00000000000E+00 0.  1.
         25    2    1    2    0    0  0.88626393972E+01 -0.54240083930E+01  0.11110958134E+03  0.16763391278E+03  0.12509126031E+03 0.  0.
          5    1    3    3  502    0 -0.52384575547E+02 -0.54466355620E+01  0.17433984827E+02  0.55634753717E+02  0.41800000000E+01 0. -1.
         -5    1    3    3    0  502  0.61247214945E+02  0.22627169057E-01  0.93675596509E+02  0.11199915907E+03  0.41800000000E+01 0. -1.
        -11    1    1    2    0    0  0.93121619182E+01  0.13174516685E+02 -0.14446521323E+02  0.21656089855E+02  0.00000000000E+00 0.  1.
         11    1    1    2    0    0 -0.18174801315E+02 -0.77505082916E+01  0.10609687706E+03  0.10792099473E+03  0.00000000000E+00 0. -1.
</event>
<event>
 7    1  0.2723366E-009  0.1122030E+03  0.7561462E-02  0.1256544E+00
         -1   -1    0    0    0  501 -0.00000000000E+00  0.00000000000E+00  0.97104488589E+02  0.97104488589E+02  0.00000000000E+00 0.  1.
          1   -1    0    0  501    0  0.00000000000E+00 -0.00000000000E+00 -0.17281912268E+03  0.17281912268E+03  0.00000000000E+00 0. -1.
         25    2    1    2    0    0 -0.13562643903E+02 -0.49921218862E+02 -0.91093894586E+02  0.16316907368E+03  0.12509986240E+03 0.  0.
          5    1    3    3  502    0 -0.20312756514E+02 -0.90325336279E+02 -0.51398983125E+02  0.10597453617E+03  0.41800000000E+01 0. -1.
         -5    1    3    3    0  502  0.67501126111E+01  0.40404117417E+02 -0.39694911461E+02  0.57194537505E+02  0.41800000000E+01 0. -1.
        -11    1    1    2    0    0 -0.30931138532E+02  0.23052546952E+02 -0.20414253646E+02  0.43645125773E+02  0.00000000000E+00 0. -1.
         11    1    1    2    0    0  0.44493782435E+02  0.26868671911E+02  0.35793514139E+02  0.63109411818E+02  0.00000000000E+00 0.  1.
</event>
<event>
 7    1  0.3163315E-009  0.2392580E+03  0.7561462E-02  0.1120288E+00
          1   -1    0    0  501    0  0.00000000000E+00  0.00000000000E+00  0.10871830795E+04  0.10871830795E+04  0.00000000000E+00 0. -1.
         -1   -1    0    0    0  501 -0.00000000000E+00 -0.00000000000E+00 -0.62972888733E+02  0.62972888733E+02  0.00000000000E+00 0.  1.
         25    2    1    2    0    0 -0.23335690215E+03 -0.29108248042E+02  0.45061566539E+03  0.52345552828E+03  0.12509387798E+03 0.  0.
          5    1    3    3  502    0 -0.11090893295E+02  0.99998535712E+01 -0.38891427061E+01  0.15987583198E+02  0.41800000000E+01 0. -1.
         -5    1    3    3    0  502 -0.22226600885E+03 -0.39108101613E+02  0.45450480809E+03  0.50746794508E+03  0.41800000000E+01 0. -1.
        -11    1    1    2    0    0  0.13298136845E+03  0.74388634925E+00  0.21107925314E+03  0.24947755176E+03  0.00000000000E+00 0.  1.
         11    1    1    2    0    0  0.10037553370E+03  0.28364361692E+02  0.36251527224E+03  0.37722288821E+03  0.00000000000E+00 0. -1.
</event>
<event>
 7    1  0.2723366E-009  0.8231279E+02  0.7561462E-02  0.1322613E+00
          2   -1    0    0  501    0  0.00000000000E+00  0.00000000000E+00  0.15249820098E+03  0.15249820098E+03  0.00000000000E+00 0. -1.
         -2   -1    0    0    0  501 -0.00000000000E+00 -0.00000000000E+00 -0.13834345510E+03  0.13834345510E+03  0.00000000000E+00 0.  1.
         25    2    1    2    0    0  0.23204451117E+02  0.42978289204E+02 -0.75299548129E+02  0.15395864362E+03  0.12509061556E+03 0.  0.
          5    1    3    3  502    0 -0.69916041870E+00  0.38432128162E+02  0.28007074876E+02  0.47742915113E+02  0.41800000000E+01 0.  1.
         -5    1    3    3    0  502  0.23903611536E+02  0.45461610421E+01 -0.10330662301E+03  0.10621572850E+03  0.41800000000E+01 0.  1.
        -11    1    1    2    0    0 -0.57289102846E+02 -0.31035872768E+02  0.43104334384E+02  0.78123302197E+02  0.00000000000E+00 0. -1.
         11    1    1    2    0    0  0.34084651729E+02 -0.11942416436E+02  0.46349959619E+02  0.58759710265E+02  0.00000000000E+00 0.  1.
</event>
<event>
 7    1  0.2723366E-009  0.1166032E+03  0.7561462E-02  0.1248808E+00
          2   -1    0    0  501    0  0.00000000000E+00  0.00000000000E+00  0.90100529225E+03  0.90100529225E+03  0.00000000000E+00 0. -1.
         -2   -1    0    0    0  501 -0.00000000000E+00 -0.00000000000E+00 -0.21447007489E+02  0.21447007489E+02  0.00000000000E+00 0.  1.
         25    2    1    2    0    0 -0.75524505646E+01  0.82731385183E+02  0.57415699969E+03  0.59346991085E+03  0.12509497668E+03 0.  0.
          5    1    3    3  502    0 -0.48030682858E+02 -0.62059302829E+01  0.25766554386E+03  0.26221072624E+03  0.41800000000E+01 0.  1.
         -5    1    3    3    0  502  0.40478232293E+02  0.88937315466E+02  0.31649145583E+03  0.33125918461E+03  0.41800000000E+01 0.  1.
        -11    1    1    2    0    0 -0.69931740510E+01 -0.78613819451E+01 -0.32777254856E+01  0.11020403520E+02  0.00000000000E+00 0.  1.
         11    1    1    2    0    0  0.14545624616E+02 -0.74870003238E+02  0.30867901055E+03  0.31796198536E+03  0.00000000000E+00 0. -1.
</event>
<event>
 7    1  0.2723366E-009  0.1312282E+03  0.7561462E-02  0.1225645E+00
          2   -1    0    0  501    0  0.00000000000E+00  0.00000000000E+00  0.13667920135E+04  0.13667920135E+04  0.00000000000E+00 0. -1.
         -2   -1    0    0    0  501 -0.00000000000E+00 -0.00000000000E+00 -0.17566349564E+02  0.17566349564E+02  0.00000000000E+00 0.  1.
         25    2    1    2    0    0  0.96892887519E+02 -0.22313573608E+02  0.92925156638E+03  0.94289094306E+03  0.12509488270E+03 0.  0.
          5    1    3    3  502    0  0.82234507189E+02  0.34983502692E+02  0.71540915776E+03  0.72098134167E+03  0.41800000000E+01 0.  1.
         -5    1    3    3    0  502  0.14658380331E+02 -0.57297076299E+02  0.21384240862E+03  0.22190960139E+03  0.41800000000E+01 0.  1.
        -11    1    1    2    0    0 -0.76774025577E+02  0.40306443499E+02  0.39594953218E+03  0.40533306357E+03  0.00000000000E+00 0. -1.
         11    1    1    2    0    0 -0.20118861942E+02 -0.17992869891E+02  0.24024565373E+02  0.36134356423E+02  0.00000000000E+00 0.  1.
</event>
<event>
 7    1  0.2723366E-009  0.1095124E+03  0.7561462E-02  0.1261476E+00
          2   -1    0    0  501    0  0.00000000000E+00  0.00000000000E+00  0.87371961027E+03  0.87371961027E+03  0.00000000000E+00 0. -1.
         -2   -1    0    0    0  501 -0.00000000000E+00 -0.00000000000E+00 -0.13997227052E+02  0.13997227052E+02  0.00000000000E+00 0.  1.
         25    2    1    2    0    0 -0.25263866740E+01 -0.19232150508E+02  0.53547161173E+03  0.55023205435E+03  0.12509679619E+03 0.  0.
          5    1    3    3  502    0 -0.56892139149E+02  0.18751180608E+02  0.26465697719E+03  0.27138369562E+03  0.41800000000E+01 0. -1.
         -5    1    3    3    0  502  0.54365752475E+02 -0.37983331116E+02  0.27081463454E+03  0.27884835873E+03  0.41800000000E+01 0. -1.
        -11    1    1    2    0    0 -0.20729354086E+02 -0.30929919926E+02  0.10638772229E+03  0.11271518762E+03  0.00000000000E+00 0.  1.
         11    1    1    2    0    0  0.23255740760E+02  0.50162070435E+02  0.21786304920E+03  0.22476959535E+03  0.00000000000E+00 0. -1.
</event>
<event>
 7    1  0.2723366E-009  0.1589644E+03  0.7561462E-02  0.1189871E+00
          1   -1    0    0  501    0  0.00000000000E+00  0.00000000000E+00  0.21059187509E+03  0.21059187509E+03  0.00000000000E+00 0. -1.
         -1   -1    0    0    0  501 -0.00000000000E+00 -0.00000000000E+00 -0.19454423504E+03  0.19454423504E+03  0.00000000000E+00 0.  1.
         25    2    1    2    0    0 -0.94392395968E+02  0.11167532878E+03  0.95643609947E+02  0.21488655591E+03  0.12508888166E+03 0.  0.
          5    1    3    3  502    0 -0.86100081554E+02  0.34878790157E+02  0.10107020275E+03  0.13734049778E+03  0.41800000000E+01 0.  1.
         -5    1    3    3    0  502 -0.82923144139E+01  0.76796538623E+02 -0.54265928026E+01  0.77546058135E+02  0.41800000000E+01 0.  1.
        -11    1    1    2    0    0  0.67486178658E+01 -0.18365566959E+02 -0.56986709457E+02  0.60252161352E+02  0.00000000000E+00 0.  1.
         11    1    1    2    0    0  0.87643778102E+02 -0.93309761822E+02 -0.22609260440E+02  0.12999739285E+03  0.00000000000E+00 0. -1.
</event>
<event>
 7    1  0.2723366E-009  0.1104128E+03  0.7561462E-02  0.1259807E+00
          2   -1    0    0  501    0  0.00000000000E+00  0.00000000000E+00  0.34551662408E+02  0.34551662408E+02  0.00000000000E+00 0.  1.
         -2   -1    0    0    0  501 -0.00000000000E+00 -0.00000000000E+00 -0.41902661118E+03  0.41902661118E+03  0.00000000000E+00 0. -1.
         25    2    1    2    0    0 -0.40351933351E+02 -0.11947189340E+01 -0.15367321422E+03  0.20221898940E+03  0.12508939613E+03 0.  0.
          5    1    3    3  502    0 -0.46659575739E+02  0.56389027075E+02 -0.82864532538E+02  0.11063833664E+03  0.41800000000E+01 0.  1.
         -5    1    3    3    0  502  0.63076423883E+01 -0.57583746009E+02 -0.70808681686E+02  0.91580652755E+02  0.41800000000E+01 0.  1.
        -11    1    1    2    0    0 -0.12081142461E+02 -0.27233766102E+02 -0.31644720480E+02  0.43462861773E+02  0.00000000000E+00 0.  1.
         11    1    1    2    0    0  0.52433075812E+02  0.28428485036E+02 -0.19915701406E+03  0.20789642241E+03  0.00000000000E+00 0. -1.
</event>
<event>
 7    1  0.2723366E-009  0.1097577E+03  0.7561462E-02  0.1261019E+00
         -2   -1    0    0    0  501 -0.00000000000E+00  0.00000000000E+00  0.57267214877E+02  0.57267214877E+02  0.00000000000E+00 0. -1.
          2   -1    0    0  501    0  0.00000000000E+00 -0.00000000000E+00 -0.33777619783E+03  0.33777619783E+03  0.00000000000E+00 0.  1.
         25    2    1    2    0    0  0.31598793062E+02  0.31751108607E+01 -0.27150813416E+03  0.30061912776E+03  0.12508648212E+03 0.  0.
          5    1    3    3  502    0  0.37262046779E+01  0.61084288420E+02 -0.98795189101E+02  0.11628902219E+03  0.41800000000E+01 0.  1.
         -5    1    3    3    0  502  0.27872588385E+02 -0.57909177559E+02 -0.17271294505E+03  0.18433010557E+03  0.41800000000E+01 0.  1.
        -11    1    1    2    0    0  0.24445082329E+02  0.21482316859E+02 -0.62249287716E+01  0.33133091101E+02  0.00000000000E+00 0. -1.
         11    1    1    2    0    0 -0.56043875391E+02 -0.24657427720E+02 -0.27759200215E+01  0.61291193842E+02  0.00000000000E+00 0.  1.
</event>
<event>
 7    1  0.3343182E-009  0.1356459E+03  0.7561462E-02  0.1219311E+00
          2   -1    0    0  501    0  0.00000000000E+00  0.00000000000E+00  0.18139621284E+04  0.18139621284E+04  0.00000000000E+00 0. -1.
         -2   -1    0    0    0  501 -0.00000000000E+00 -0.00000000000E+00 -0.24336848707E+02  0.24336848707E+02  0.00000000000E+00 0.  1.
         25    2    1    2    0    0 -0.10600211984E+03  0.83698999641E+02  0.14497523419E+04  0.14613934717E+04  0.12508818613E+03 0.  0.
          5    1    3    3  502    0 -0.47112506180E+02  0.34267467146E+02  0.11635239703E+04  0.11649889911E+04  0.41800000000E+01 0. -1.
         -5    1    3    3    0  502 -0.58889613659E+02  0.49431532494E+02  0.28622837163E+03  0.29640448061E+03  0.41800000000E+01 0. -1.
        -11    1    1    2    0    0  0.60047853478E+02 -0.37910953320E+02  0.27917475706E+03  0.28806514900E+03  0.00000000000E+00 0. -1.
         11    1    1    2    0    0  0.45954266361E+02 -0.45788046321E+02  0.60698180716E+02  0.88840356398E+02  0.00000000000E+00 0.  1.
</event>
<event>
 7    1  0.2723366E-009  0.3528321E+03  0.7561462E-02  0.1061459E+00
          2   -1    0    0  501    0  0.00000000000E+00  0.00000000000E+00  0.23082888374E+04  0.23082888374E+04  0.00000000000E+00 0. -1.
         -2   -1    0    0    0  501 -0.00000000000E+00 -0.00000000000E+00 -0.72177336560E+02  0.72177336560E+02  0.00000000000E+00 0.  1.
         25    2    1    2    0    0  0.83103600468E+02  0.33508949919E+03  0.16788504870E+04  0.17185393139E+04  0.12508890841E+03 0.  0.
          5    1    3    3  502    0 -0.91068024719E+01 -0.13862646736E+01  0.15177026529E+03  0.15210700644E+03  0.41800000000E+01 0.  1.
         -5    1    3    3    0  502  0.92210402940E+02  0.33647576386E+03  0.15270802217E+04  0.15664323075E+04  0.41800000000E+01 0.  1.
        -11    1    1    2    0    0 -0.74929088832E+02 -0.24550974591E+03  0.33412296526E+03  0.42134019463E+03  0.00000000000E+00 0. -1.
         11    1    1    2    0    0 -0.81745116358E+01 -0.89579753276E+02  0.22313804856E+03  0.24058666537E+03  0.00000000000E+00 0.  1.
</event>
<event>
 7    1  0.2723366E-009  0.8733203E+02  0.7561462E-02  0.1309444E+00
         -2   -1    0    0    0  501 -0.00000000000E+00  0.00000000000E+00  0.20271209939E+02  0.20271209939E+02  0.00000000000E+00 0.  1.
          2   -1    0    0  501    0  0.00000000000E+00 -0.00000000000E+00 -0.10174253865E+04  0.10174253865E+04  0.00000000000E+00 0. -1.
         25    2    1    2    0    0  0.38134623751E+02  0.74671190551E+02 -0.69355309689E+03  0.70971413342E+03  0.12509283248E+03 0.  0.
          5    1    3    3  502    0  0.19796500953E+02  0.16760028844E+02 -0.19011729641E+02  0.32430206302E+02  0.41800000000E+01 0.  1.
         -5    1    3    3    0  502  0.18338122798E+02  0.57911161707E+02 -0.67454136725E+03  0.67728392712E+03  0.41800000000E+01 0.  1.
        -11    1    1    2    0    0 -0.10356153535E+02 -0.32265324121E+01  0.35478799088E+01  0.11412619300E+02  0.00000000000E+00 0.  1.
         11    1    1    2    0    0 -0.27778470216E+02 -0.71444658139E+02 -0.30714895961E+03  0.31656984375E+03  0.00000000000E+00 0. -1.
</event>
<event>
 7    1  0.2723366E-009  0.9334696E+02  0.7561462E-02  0.1294943E+00
         -2   -1    0    0    0  501 -0.00000000000E+00  0.00000000000E+00  0.30700598757E+02  0.30700598757E+02  0.00000000000E+00 0. -1.
          2   -1    0    0  501    0  0.00000000000E+00 -0.00000000000E+00 -0.48746690578E+03  0.48746690578E+03  0.00000000000E+00 0.  1.
         25    2    1    2    0    0  0.53292616008E+01  0.40909276959E+02 -0.32339344622E+03  0.34918704892E+03  0.12508518738E+03 0.  0.
          5    1    3    3  502    0 -0.48996357964E+02 -0.15068058687E+02 -0.16034745997E+03  0.16839379384E+03  0.41800000000E+01 0. -1.
         -5    1    3    3    0  502  0.54325619565E+02  0.55977335646E+02 -0.16304598626E+03  0.18079325508E+03  0.41800000000E+01 0. -1.
        -11    1    1    2    0    0  0.17228901834E+02 -0.15589324435E+02 -0.13305424616E+03  0.13506774047E+03  0.00000000000E+00 0.  1.
         11    1    1    2    0    0 -0.22558163435E+02 -0.25319952524E+02 -0.31861463986E+00  0.33912715147E+02  0.00000000000E+00 0. -1.
</event>
<event>
 7    1  0.2723366E-009  0.1030710E+03  0.7561462E-02  0.1273967E+00
          1   -1    0    0  501    0  0.00000000000E+00  0.00000000000E+00  0.80120912693E+03  0.80120912693E+03  0.00000000000E+00 0. -1.
         -1   -1    0    0    0  501 -0.00000000000E+00 -0.00000000000E+00 -0.20468905513E+02  0.20468905513E+02  0.00000000000E+00 0.  1.
         25    2    1    2    0    0  0.60040214833E+02  0.74649522947E+00  0.55071447489E+03  0.56792648721E+03  0.12509467363E+03 0.  0.
          5    1    3    3  502    0  0.77368693523E+02  0.12996980200E+02  0.17778490014E+03  0.19437021210E+03  0.41800000000E+01 0. -1.
         -5    1    3    3    0  502 -0.17328478691E+02 -0.12250484970E+02  0.37292957475E+03  0.37355627512E+03  0.41800000000E+01 0. -1.
        -11    1    1    2    0    0 -0.52475767135E+02 -0.39994010370E+02  0.12435743671E+03  0.14077641516E+03  0.00000000000E+00 0. -1.
         11    1    1    2    0    0 -0.75644476976E+01  0.39247515140E+02  0.10566830981E+03  0.11297513006E+03  0.00000000000E+00 0.  1.
</event>
<event>
 7    1  0.2723366E-009  0.2501132E+03  0.7561462E-02  0.1113233E+00
         -2   -1    0    0    0  501 -0.00000000000E+00  0.00000000000E+00  0.30574849658E+02  0.30574849658E+02  0.00000000000E+00 0.  1.
          2   -1    0    0  501    0  0.00000000000E+00 -0.00000000000E+00 -0.36721011477E+04  0.36721011477E+04  0.00000000000E+00 0. -1.
         25    2    1    2    0    0  0.16008870178E+03  0.17355818714E+03 -0.30156447619E+04  0.30274594485E+04  0.12508615161E+03 0.  0.
          5    1    3    3  502    0  0.55716244667E+02  0.46143913457E+00 -0.38180834274E+03  0.38587510393E+03  0.41800000000E+01 0. -1.
         -5    1    3    3    0  502  0.10437245711E+03  0.17309674800E+03 -0.26338364192E+04  0.26415843445E+04  0.41800000000E+01 0. -1.
        -11    1    1    2    0    0 -0.27351677896E+02 -0.65631069112E+02 -0.28602612486E+03  0.29473122607E+03  0.00000000000E+00 0. -1.
         11    1    1    2    0    0 -0.13273702388E+03 -0.10792711802E+03 -0.33985541127E+03  0.38048532282E+03  0.00000000000E+00 0.  1.
</event>
<event>
 7    1  0.2723366E-009  0.1019913E+03  0.7561462E-02  0.1276163E+00
          2   -1    0    0  501    0  0.00000000000E+00  0.00000000000E+00  0.12879591820E+04  0.12879591820E+04  0.00000000000E+00 0. -1.
         -2   -1    0    0    0  501 -0.00000000000E+00 -0.00000000000E+00 -0.18377911411E+02  0.18377911411E+02  0.00000000000E+00 0.  1.
         25    2    1    2    0    0 -0.12699883969E+02 -0.94002280038E+02  0.91129898322E+03  0.92472322792E+03  0.12509794459E+03 0.  0.
          5    1    3    3  502    0  0.13078212203E+02 -0.71068303557E+02  0.85828741742E+03  0.86133414347E+03  0.41800000000E+01 0.  1.
         -5    1    3    3    0  502 -0.25778096172E+02 -0.22933976480E+02  0.53011565797E+02  0.63389084452E+02  0.41800000000E+01 0.  1.
        -11    1    1    2    0    0 -0.50585525931E+01  0.13750744483E+02  0.65858570349E+00  0.14666480945E+02  0.00000000000E+00 0.  1.
         11    1    1    2    0    0  0.17758436562E+02  0.80251535555E+02  0.35762370165E+03  0.36694738453E+03  0.00000000000E+00 0. -1.
</event>
<event>
 7    1  0.2723366E-009  0.1312055E+03  0.7561462E-02  0.1225678E+00
          1   -1    0    0  501    0  0.00000000000E+00  0.00000000000E+00  0.26644622821E+02  0.26644622821E+02  0.00000000000E+00 0. -1.
         -1   -1    0    0    0  501 -0.00000000000E+00 -0.00000000000E+00 -0.93636411491E+03  0.93636411491E+03  0.00000000000E+00 0.  1.
         25    2    1    2    0    0 -0.86603077572E+01  0.10802779581E+03 -0.59860493646E+03  0.62106416737E+03  0.12509126446E+03 0.  0.
          5    1    3    3  502    0  0.26222952294E+02  0.11417237124E+03 -0.53903579375E+03  0.55163396644E+03  0.41800000000E+01 0. -1.
         -5    1    3    3    0  502 -0.34883260051E+02 -0.61445754297E+01 -0.59569142702E+02  0.69430200931E+02  0.41800000000E+01 0. -1.
        -11    1    1    2    0    0  0.52167467427E+01 -0.87448322985E+01  0.44498481200E+01  0.11112501374E+02  0.00000000000E+00 0. -1.
         11    1    1    2    0    0  0.34435610145E+01 -0.99282963507E+02 -0.31556440376E+03  0.33083206899E+03  0.00000000000E+00 0.  1.
</event>
<event>
 7    1  0.2723366E-009  0.3540605E+03  0.7561462E-02  0.1060961E+00
          2   -1    0    0  501    0  0.00000000000E+00  0.00000000000E+00  0.13347393032E+04  0.13347393032E+04  0.00000000000E+00 0. -1.
         -2   -1    0    0    0  501 -0.00000000000E+00 -0.00000000000E+00 -0.10171391242E+03  0.10171391242E+03  0.00000000000E+00 0.  1.
         25    2    1    2    0    0 -0.92807045526E+02  0.33489251893E+03  0.72929891027E+03  0.81749044819E+03  0.12509030908E+03 0.  0.
          5    1    3    3  502    0 -0.90828590326E+02  0.29028125973E+03  0.70178240440E+03  0.76487192268E+03  0.41800000000E+01 0. -1.
         -5    1    3    3    0  502 -0.19784551997E+01  0.44611259196E+02  0.27516505873E+02  0.52618525516E+02  0.41800000000E+01 0. -1.
        -11    1    1    2    0    0  0.66341823101E+02 -0.85158345557E+02  0.13532147087E+03  0.17310425121E+03  0.00000000000E+00 0. -1.
         11    1    1    2    0    0  0.26465222425E+02 -0.24973417337E+03  0.36840500961E+03  0.44585851618E+03  0.00000000000E+00 0.  1.
</event>
<event>
 7    1  0.2723366E-009  0.1106495E+03  0.7561462E-02  0.1259372E+00
          1   -1    0    0  501    0  0.00000000000E+00  0.00000000000E+00  0.47840219770E+03  0.47840219770E+03  0.00000000000E+00 0. -1.
         -1   -1    0    0    0  501 -0.00000000000E+00 -0.00000000000E+00 -0.32629374818E+02  0.32629374818E+02  0.00000000000E+00 0.  1.
         25    2    1    2    0    0  0.24269706229E+02  0.61713919596E+02  0.21284922736E+03  0.25563694928E+03  0.12509128563E+03 0.  0.
          5    1    3    3  502    0  0.64937818594E+02  0.72641947967E+02  0.12902480724E+03  0.16173634771E+03  0.41800000000E+01 0.  1.
         -5    1    3    3    0  502 -0.40668112365E+02 -0.10928028372E+02  0.83824420115E+02  0.93900601569E+02  0.41800000000E+01 0.  1.
        -11    1    1    2    0    0 -0.35722201004E+02 -0.26647533993E+02  0.43024552845E+02  0.61945773544E+02  0.00000000000E+00 0. -1.
         11    1    1    2    0    0  0.11452494775E+02 -0.35066385602E+02  0.18989904268E+03  0.19344884969E+03  0.00000000000E+00 0.  1.
</event>
<event>
 7    1  0.2723366E-009  0.1085363E+03  0.7561462E-02  0.1263305E+00
          3   -1    0    0  501    0  0.00000000000E+00  0.00000000000E+00  0.17534817117E+03  0.17534817117E+03  0.00000000000E+00 0. -1.
         -3   -1    0    0    0  501 -0.00000000000E+00 -0.00000000000E+00 -0.79853979855E+02  0.79853979855E+02  0.00000000000E+00 0.  1.
         25    2    1    2    0    0  0.30537021605E+02  0.26953970259E+02  0.58040964929E+02  0.14378928798E+03  0.12509028551E+03 0.  0.
          5    1    3    3  502    0  0.37758783712E+02 -0.45087541479E+02  0.23646091840E+02  0.63523398865E+02  0.41800000000E+01 0.  1.
         -5    1    3    3    0  502 -0.72217621067E+01  0.72041511737E+02  0.34394873088E+02  0.80265889119E+02  0.41800000000E+01 0.  1.
        -11    1    1    2    0    0  0.16189270883E+02  0.15533624011E+02 -0.16900185937E+02  0.28089183886E+02  0.00000000000E+00 0.  1.
         11    1    1    2    0    0 -0.46726292489E+02 -0.42487594270E+02  0.54353412318E+02  0.83323679151E+02  0.00000000000E+00 0. -1.
</event>
<event>
 7    1  0.2723366E-009  0.1323025E+03  0.7561462E-02  0.1224079E+00
          2   -1    0    0  501    0  0.00000000000E+00  0.00000000000E+00  0.74465579487E+03  0.74465579487E+03  0.00000000000E+00 0. -1.
         -2   -1    0    0    0  501 -0.00000000000E+00 -0.00000000000E+00 -0.34544561066E+02  0.34544561066E+02  0.00000000000E+00 0.  1.
         25    2    1    2    0    0  0.86863645521E+02  0.27302724825E+02  0.19960700279E+03  0.25255229407E+03  0.12509585917E+03 0.  0.
          5    1    3    3  502    0 -0.26728910942E+02  0.19008455477E+02  0.83717462277E+02  0.90010232473E+02  0.41800000000E+01 0. -1.
         -5    1    3    3    0  502  0.11359255646E+03  0.82942693472E+01  0.11588954051E+03  0.16254206160E+03  0.41800000000E+01 0. -1.
        -11    1    1    2    0    0  0.33235302433E+01 -0.27179710393E+02  0.46524162652E+02  0.53984073770E+02  0.00000000000E+00 0.  1.
         11    1    1    2    0    0 -0.90187175764E+02 -0.12301443141E+00  0.46398006836E+03  0.47266398810E+03  0.00000000000E+00 0. -1.
</event>
<event>
 7    1  0.2723366E-009  0.8499792E+02  0.7561462E-02  0.1315438E+00
          1   -1    0    0  501    0  0.00000000000E+00  0.00000000000E+00  0.12425895157E+03  0.12425895157E+03  0.00000000000E+00 0. -1.
         -1   -1    0    0    0  501 -0.00000000000E+00 -0.00000000000E+00 -0.17491514737E+03  0.17491514737E+03  0.00000000000E+00 0.  1.
         25    2    1    2    0    0 -0.50966921869E+02  0.33243529702E+02 -0.10750241776E+03  0.17580308677E+03  0.12508875290E+03 0.  0.
          5    1    3    3  502    0 -0.62651387946E+02  0.32846144922E+02 -0.33803822250E+01  0.70943393151E+02  0.41800000000E+01 0.  1.
         -5    1    3    3    0  502  0.11684466077E+02  0.39738478015E+00 -0.10412203553E+03  0.10485969362E+03  0.41800000000E+01 0.  1.
        -11    1    1    2    0    0  0.22302272141E+02  0.17559368881E+02 -0.13959406363E+02  0.31632069236E+02  0.00000000000E+00 0.  1.
         11    1    1    2    0    0  0.28664649727E+02 -0.50802898583E+02  0.70805628324E+02  0.91738942935E+02  0.00000000000E+00 0. -1.
</event>
<event>
 7    1  0.2723366E-009  0.7962425E+02  0.7561462E-02  0.1330121E+00
          2   -1    0    0  501    0  0.00000000000E+00  0.00000000000E+00  0.26866093748E+03  0.26866093748E+03  0.00000000000E+00 0. -1.
         -2   -1    0    0    0  501 -0.00000000000E+00 -0.00000000000E+00 -0.48491766989E+02  0.48491766989E+02  0.00000000000E+00 0.  1.
         25    2    1    2    0    0  0.28635703829E+02  0.11943636556E+02  0.15493038034E+03  0.20152937266E+03  0.12509201136E+03 0.  0.
          5    1    3    3  502    0  0.83760739650E+01 -0.32805843533E+02 -0.47202203964E+01  0.34440308733E+02  0.41800000000E+01 0. -1.
         -5    1    3    3    0  502  0.20259629864E+02  0.44749480090E+02  0.15965060073E+03  0.16708906393E+03  0.41800000000E+01 0. -1.
        -11    1    1    2    0    0 -0.51730843556E+02 -0.96701597739E+01  0.72003350176E+01  0.53117200505E+02  0.00000000000E+00 0.  1.
         11    1    1    2    0    0  0.23095139727E+02 -0.22734767825E+01  0.58038455135E+02  0.62506131300E+02  0.00000000000E+00 0. -1.
</event>
<event>
 7    1  0.2723366E-009  0.1061296E+03  0.7561462E-02  0.1267910E+00
         -1   -1    0    0    0  501 -0.00000000000E+00  0.00000000000E+00  0.17179940991E+03  0.17179940991E+03  0.00000000000E+00 0.  1.
          1   -1    0    0  501    0  0.00000000000E+00 -0.00000000000E+00 -0.87306021435E+02  0.87306021435E+02  0.00000000000E+00 0. -1.
         25    2    1    2    0    0  0.30852684150E+02 -0.33140657918E+02  0.14123830289E+02  0.13378897838E+03  0.12509922792E+03 0.  0.
          5    1    3    3  502    0  0.62024231523E+02 -0.62316184206E+02 -0.17720997718E+01  0.88039336933E+02  0.41800000000E+01 0. -1.
         -5    1    3    3    0  502 -0.31171547373E+02  0.29175526288E+02  0.15895930061E+02  0.45749641445E+02  0.41800000000E+01 0. -1.
        -11    1    1    2    0    0 -0.37457266336E+02  0.50436599876E+02  0.82114738573E+02  0.10339113937E+03  0.00000000000E+00 0.  1.
         11    1    1    2    0    0  0.66045821861E+01 -0.17295941958E+02 -0.11745180390E+02  0.21925313600E+02  0.00000000000E+00 0. -1.
</event>
<event>
 7    1  0.2723366E-009  0.9384255E+02  0.7561462E-02  0.1293804E+00
          1   -1    0    0  501    0  0.00000000000E+00  0.00000000000E+00  0.51405960060E+03  0.51405960060E+03  0.00000000000E+00 0. -1.
         -1   -1    0    0    0  501 -0.00000000000E+00 -0.00000000000E+00 -0.31558005521E+02  0.31558005521E+02  0.00000000000E+00 0.  1.
         25    2    1    2    0    0 -0.31209243776E+02 -0.22698122657E+02  0.15356349285E+03  0.20178773497E+03  0.12508925605E+03 0.  0.
          5    1    3    3  502    0  0.26346909388E+02  0.99113876230E+00 -0.85950118329E+01  0.28044404410E+02  0.41800000000E+01 0.  1.
         -5    1    3    3    0  502 -0.57556153163E+02 -0.23689261420E+02  0.16215850468E+03  0.17374333056E+03  0.41800000000E+01 0.  1.
        -11    1    1    2    0    0 -0.27840032410E+02 -0.11781896921E+02  0.12998204262E+03  0.13345115925E+03  0.00000000000E+00 0. -1.
         11    1    1    2    0    0  0.59049276186E+02  0.34480019579E+02  0.19895605961E+03  0.21037871191E+03  0.00000000000E+00 0.  1.
</event>
<event>
 7    1  0.2723366E-009  0.9583844E+02  0.7561462E-02  0.1289299E+00
          2   -1    0    0  501    0  0.00000000000E+00  0.00000000000E+00  0.38964122741E+03  0.38964122741E+03  0.00000000000E+00 0. -1.
         -2   -1    0    0    0  501 -0.00000000000E+00 -0.00000000000E+00 -0.40550635244E+02  0.40550635244E+02  0.00000000000E+00 0.  1.
         25    2    1    2    0    0  0.50628927191E+01  0.60524028383E+01  0.87096772310E+02  0.15262956557E+03  0.12509065543E+03 0.  0.
          5    1    3    3  502    0 -0.44744622669E+01  0.59180359772E+02  0.13064559931E+02  0.60913799106E+02  0.41800000000E+01 0.  1.
         -5    1    3    3    0  502  0.95373549860E+01 -0.53127956933E+02  0.74032212379E+02  0.91715766462E+02  0.41800000000E+01 0.  1.
        -11    1    1    2    0    0  0.30613583436E+01  0.35535811166E+02  0.19540934633E+03  0.19863780714E+03  0.00000000000E+00 0. -1.
         11    1    1    2    0    0 -0.81242510627E+01 -0.41588214005E+02  0.66584473524E+02  0.78924489950E+02  0.00000000000E+00 0.  1.
</event>
<event>
 7    1  0.2723366E-009  0.1190046E+03  0.7561462E-02  0.1244748E+00
          2   -1    0    0  501    0  0.00000000000E+00  0.00000000000E+00  0.39022202584E+03  0.39022202584E+03  0.00000000000E+00 0. -1.
         -2   -1    0    0    0  501 -0.00000000000E+00 -0.00000000000E+00 -0.58239266950E+02  0.58239266950E+02  0.00000000000E+00 0.  1.
         25    2    1    2    0    0 -0.27159858506E+02 -0.98847206999E+02  0.20396053152E+03  0.26030024033E+03  0.12509152031E+03 0.  0.
          5    1    3    3  502    0 -0.56351096392E+02 -0.86891832072E+02  0.20361511635E+03  0.22847806142E+03  0.41800000000E+01 0. -1.
         -5    1    3    3    0  502  0.29191237886E+02 -0.11955374927E+02  0.34541517315E+00  0.31822178910E+02  0.41800000000E+01 0. -1.
        -11    1    1    2    0    0  0.74227529825E+01  0.23085658793E+02  0.10322864139E+03  0.10603865949E+03  0.00000000000E+00 0. -1.
         11    1    1    2    0    0  0.19737105523E+02  0.75761548206E+02  0.24793585980E+02  0.82122392968E+02  0.00000000000E+00 0.  1.
</event>
<event>
 7    1  0.2723366E-009  0.9890498E+02  0.7561462E-02  0.1282616E+00
         -2   -1    0    0    0  501 -0.00000000000E+00  0.00000000000E+00  0.37210860968E+02  0.37210860968E+02  0.00000000000E+00 0.  1.
          2   -1    0    0  501    0  0.00000000000E+00 -0.00000000000E+00 -0.31481430422E+03  0.31481430422E+03  0.00000000000E+00 0. -1.
         25    2    1    2    0    0  0.12068670271E+02 -0.10666958325E+01 -0.14350800158E+03  0.19076066006E+03  0.12509313437E+03 0.  0.
          5    1    3    3  502    0  0.54699528326E+02 -0.33551217695E+02 -0.10998760792E+03  0.12740670667E+03  0.41800000000E+01 0.  1.
         -5    1    3    3    0  502 -0.42630858055E+02  0.32484521863E+02 -0.33520393660E+02  0.63353953391E+02  0.41800000000E+01 0.  1.
        -11    1    1    2    0    0 -0.41752116843E+02  0.18116503928E+02 -0.38123736722E+02  0.59370584275E+02  0.00000000000E+00 0.  1.
         11    1    1    2    0    0  0.29683446572E+02 -0.17049808096E+02 -0.95971704944E+02  0.10189392085E+03  0.00000000000E+00 0. -1.
</event>
<event>
 7    1  0.2723366E-009  0.1387412E+03  0.7561462E-02  0.1215033E+00
         -2   -1    0    0    0  501 -0.00000000000E+00  0.00000000000E+00  0.83754010887E+02  0.83754010887E+02  0.00000000000E+00 0. -1.
          2   -1    0    0  501    0  0.00000000000E+00 -0.00000000000E+00 -0.33183514287E+03  0.33183514287E+03  0.00000000000E+00 0.  1.
         25    2    1    2    0    0  0.21108848289E+02 -0.12366363539E+03 -0.13101135947E+03  0.22033840081E+03  0.12508699520E+03 0.  0.
          5    1    3    3  502    0  0.22488745868E+02 -0.47824689741E+02  0.15560491207E+02  0.55249850010E+02  0.41800000000E+01 0.  1.
         -5    1    3    3    0  502 -0.13798975789E+01 -0.75838945649E+02 -0.14657185067E+03  0.16508855080E+03  0.41800000000E+01 0.  1.
        -11    1    1    2    0    0  0.30495784066E+02  0.42097573239E+02 -0.13559965250E+02  0.53722166524E+02  0.00000000000E+00 0. -1.
         11    1    1    2    0    0 -0.51604632355E+02  0.81566062151E+02 -0.10350980727E+03  0.14152858642E+03  0.00000000000E+00 0.  1.
</event>
<event>
 7    1  0.2723366E-009  0.1053215E+03  0.7561462E-02  0.1269488E+00
         -2   -1    0    0    0  501 -0.00000000000E+00  0.00000000000E+00  0.95906003668E+02  0.95906003668E+02  0.00000000000E+00 0.  1.
          2   -1    0    0  501    0  0.00000000000E+00 -0.00000000000E+00 -0.17471093652E+03  0.17471093652E+03  0.00000000000E+00 0. -1.
         25    2    1    2    0    0 -0.97624392877E+01 -0.57990806508E+02 -0.35846639747E+01  0.13826570202E+03  0.12508523365E+03 0.  0.
          5    1    3    3  502    0  0.53603746056E+02 -0.13132361043E+02 -0.19912318981E+02  0.58820008033E+02  0.41800000000E+01 0. -1.
         -5    1    3    3    0  502 -0.63366185344E+02 -0.44858445465E+02  0.16327655006E+02  0.79445693984E+02  0.41800000000E+01 0. -1.
        -11    1    1    2    0    0 -0.12752957901E+02  0.52962323542E+02 -0.84768640222E+00  0.54482696542E+02  0.00000000000E+00 0.  1.
         11    1    1    2    0    0  0.22515397189E+02  0.50284829653E+01 -0.74372582478E+02  0.77868541632E+02  0.00000000000E+00 0. -1.
</event>
<event>
 7    1  0.2723366E-009  0.1016326E+03  0.7561462E-02  0.1276900E+00
          1   -1    0    0  501    0  0.00000000000E+00  0.00000000000E+00  0.56315567400E+03  0.56315567400E+03  0.00000000000E+00 0. -1.
         -1   -1    0    0    0  501 -0.00000000000E+00 -0.00000000000E+00 -0.26447529913E+02  0.26447529913E+02  0.00000000000E+00 0.  1.
         25    2    1    2    0    0 -0.14877777900E+02 -0.44882035324E+02  0.37696600924E+03  0.39998242717E+03  0.12508726774E+03 0.  0.
          5    1    3    3  502    0 -0.55342493737E+02 -0.46779710332E+02  0.12338298373E+03  0.14315015189E+03  0.41800000000E+01 0. -1.
         -5    1    3    3    0  502  0.40464715836E+02  0.18976750076E+01  0.25358302551E+03  0.25683227528E+03  0.41800000000E+01 0. -1.
        -11    1    1    2    0    0  0.28791809006E+02 -0.12150303822E+02  0.17675837893E+02  0.35903111202E+02  0.00000000000E+00 0.  1.
         11    1    1    2    0    0 -0.13914031106E+02  0.57032339146E+02  0.14206629696E+03  0.15371766555E+03  0.00000000000E+00 0. -1.
</event>
<event>
 7    1  0.2723366E-009  0.1343888E+03  0.7561462E-02  0.1221085E+00
         -2   -1    0    0    0  501 -0.00000000000E+00  0.00000000000E+00  0.12054697355E+02  0.12054697355E+02  0.00000000000E+00 0.  1.
          2   -1    0    0  501    0  0.00000000000E+00 -0.00000000000E+00 -0.15829390199E+04  0.15829390199E+04  0.00000000000E+00 0. -1.
         25    2    1    2    0    0  0.88775849245E+01  0.83564757884E+02 -0.96094182315E+03  0.97268612953E+03  0.12508892362E+03 0.  0.
          5    1    3    3  502    0 -0.51057941814E+02  0.12200871471E+02 -0.23840514037E+03  0.24415212070E+03  0.41800000000E+01 0.  1.
         -5    1    3    3    0  502  0.59935526738E+02  0.71363886414E+02 -0.72253668278E+03  0.72853400882E+03  0.41800000000E+01 0.  1.
        -11    1    1    2    0    0 -0.46741007642E+02 -0.66534590226E+02 -0.43202939734E+03  0.43961457399E+03  0.00000000000E+00 0. -1.
         11    1    1    2    0    0  0.37863422718E+02 -0.17030167659E+02 -0.17791310204E+03  0.18269301374E+03  0.00000000000E+00 0.  1.
</event>
<event>
 7    1  0.2723366E-009  0.1293587E+03  0.7561462E-02  0.1228410E+00
          1   -1    0    0  501    0  0.00000000000E+00  0.00000000000E+00  0.48797276967E+03  0.48797276967E+03  0.00000000000E+00 0. -1.
         -1   -1    0    0    0  501 -0.00000000000E+00 -0.00000000000E+00 -0.40958974387E+02  0.40958974387E+02  0.00000000000E+00 0.  1.
         25    2    1    2    0    0  0.15511919626E+02 -0.69938224666E+02  0.34696157769E+03  0.37571391359E+03  0.12508650429E+03 0.  0.
          5    1    3    3  502    0  0.38968380649E+02 -0.98522397880E+02  0.23732329548E+03  0.25993271543E+03  0.41800000000E+01 0.  1.
         -5    1    3    3    0  502 -0.23456461024E+02  0.28584173214E+02  0.10963828221E+03  0.11578119816E+03  0.41800000000E+01 0.  1.
        -11    1    1    2    0    0 -0.52542320867E+02  0.53410526102E+02  0.57553325939E+02  0.94476267428E+02  0.00000000000E+00 0.  1.
         11    1    1    2    0    0  0.37030401241E+02  0.16527698564E+02  0.42498891657E+02  0.58741563036E+02  0.00000000000E+00 0. -1.
</event>
<event>
 7    1  0.2723366E-009  0.8195812E+02  0.7561462E-02  0.1323585E+00
         -3   -1    0    0    0  501 -0.00000000000E+00  0.00000000000E+00  0.32199829059E+02  0.32199829059E+02  0.00000000000E+00 0.  1.
          3   -1    0    0  501    0  0.00000000000E+00 -0.00000000000E+00 -0.55403163877E+03  0.55403163877E+03  0.00000000000E+00 0. -1.
         25    2    1    2    0    0  0.13244288396E+02 -0.28387391683E+02 -0.46108183211E+03  0.47877589838E+03  0.12509456336E+03 0.  0.
          5    1    3    3  502    0 -0.85723544576E+00 -0.49655036661E+02 -0.65277651114E+02  0.82127959024E+02  0.41800000000E+01 0. -1.
         -5    1    3    3    0  502  0.14101523842E+02  0.21267644978E+02 -0.39580418100E+03  0.39664793935E+03  0.41800000000E+01 0. -1.
        -11    1    1    2    0    0  0.27269066814E+02 -0.13082854246E+02 -0.15985743842E+02  0.34209751334E+02  0.00000000000E+00 0.  1.
         11    1    1    2    0    0 -0.40513355210E+02  0.41470245929E+02 -0.44764233755E+02  0.73245818116E+02  0.00000000000E+00 0. -1.
</event>
<event>
 7    1  0.2723366E-009  0.9425894E+02  0.7561462E-02  0.1292854E+00
         -2   -1    0    0    0  501 -0.00000000000E+00  0.00000000000E+00  0.55290389760E+02  0.55290389760E+02  0.00000000000E+00 0. -1.
          2   -1    0    0  501    0  0.00000000000E+00 -0.00000000000E+00 -0.28246871038E+03  0.28246871038E+03  0.00000000000E+00 0.  1.
         25    2    1    2    0    0  0.34434037385E+02 -0.50684881702E+01 -0.18671508208E+03  0.22742710517E+03  0.12509665776E+03 0.  0.
          5    1    3    3  502    0 -0.87422390022E+01 -0.57900464491E+02 -0.63210027469E+02  0.86266276747E+02  0.41800000000E+01 0. -1.
         -5    1    3    3    0  502  0.43176276387E+02  0.52831976321E+02 -0.12350505461E+03  0.14116082842E+03  0.41800000000E+01 0. -1.
        -11    1    1    2    0    0 -0.12773797150E+02  0.27468876210E+02 -0.64314127905E+02  0.71091603598E+02  0.00000000000E+00 0.  1.
         11    1    1    2    0    0 -0.21660240235E+02 -0.22400388040E+02  0.23850889371E+02  0.39240391374E+02  0.00000000000E+00 0. -1.
</event>
<event>
 7    1  0.2723366E-009  0.3290510E+03  0.7561462E-02  0.1071558E+00
         -1   -1    0    0    0  501 -0.00000000000E+00  0.00000000000E+00  0.18425944661E+03  0.18425944661E+03  0.00000000000E+00 0.  1.
          1   -1    0    0  501    0  0.00000000000E+00 -0.00000000000E+00 -0.66671506378E+03  0.66671506378E+03  0.00000000000E+00 0. -1.
         25    2    1    2    0    0 -0.22223315243E+03  0.23467158962E+03 -0.34268486847E+03  0.48737851142E+03  0.12508623147E+03 0.  0.
          5    1    3    3  502    0 -0.95238583984E+02  0.97657016230E+02 -0.61322252600E+02  0.14961674960E+03  0.41800000000E+01 0. -1.
         -5    1    3    3    0  502 -0.12699456844E+03  0.13701457339E+03 -0.28136261587E+03  0.33776176182E+03  0.41800000000E+01 0. -1.
        -11    1    1    2    0    0  0.81579876714E+02 -0.14956821758E+03 -0.57881451058E+02  0.17993384999E+03  0.00000000000E+00 0.  1.
         11    1    1    2    0    0  0.14065327571E+03 -0.85103372041E+02 -0.81889297636E+02  0.18366214898E+03  0.00000000000E+00 0. -1.
</event>
<event>
 7    1  0.2723366E-009  0.9180349E+02  0.7561462E-02  0.1298542E+00
          1   -1    0    0  501    0  0.00000000000E+00  0.00000000000E+00  0.16596099075E+03  0.16596099075E+03  0.00000000000E+00 0. -1.
         -1   -1    0    0    0  501 -0.00000000000E+00 -0.00000000000E+00 -0.11713606897E+03  0.11713606897E+03  0.00000000000E+00 0.  1.
         25    2    1    2    0    0  0.12133620716E+02  0.52313169982E+02 -0.41953139932E+02  0.14244850348E+03  0.12509043803E+03 0.  0.
          5    1    3    3  502    0  0.42969603324E+02 -0.81854839856E+01  0.21942381452E+02  0.49115470696E+02  0.41800000000E+01 0. -1.
         -5    1    3    3    0  502 -0.30835982608E+02  0.60498653968E+02 -0.63895521385E+02  0.93333032782E+02  0.41800000000E+01 0. -1.
        -11    1    1    2    0    0  0.17916275705E+02 -0.26668720910E+02 -0.89747283981E+01  0.33358047903E+02  0.00000000000E+00 0.  1.
         11    1    1    2    0    0 -0.30049896421E+02 -0.25644449072E+02  0.99752790111E+02  0.10729050833E+03  0.00000000000E+00 0. -1.
</event>
<event>
 7    1  0.2723366E-009  0.1127476E+03  0.7561462E-02  0.1255565E+00
          2   -1    0    0  501    0  0.00000000000E+00  0.00000000000E+00  0.40525696731E+03  0.40525696731E+03  0.00000000000E+00 0. -1.
         -2   -1    0    0    0  501 -0.00000000000E+00 -0.00000000000E+00 -0.42414997621E+02  0.42414997621E+02  0.00000000000E+00 0.  1.
         25    2    1    2    0    0  0.41989117916E+02 -0.29445428861E+02  0.28845098112E+03  0.31856181433E+03  0.12509013444E+03 0.  0.
          5    1    3    3  502    0  0.75041133908E+02 -0.54515056307E+02  0.18404631537E+03  0.20613971413E+03  0.41800000000E+01 0.  1.
         -5    1    3    3    0  502 -0.33052015992E+02  0.25069627447E+02  0.10440466575E+03  0.11242210019E+03  0.41800000000E+01 0.  1.
        -11    1    1    2    0    0  0.83146725072E+01  0.38892232853E+02  0.66268067632E+02  0.77286456401E+02  0.00000000000E+00 0.  1.
         11    1    1    2    0    0 -0.50303790423E+02 -0.94468039928E+01  0.81229209399E+01  0.51823694206E+02  0.00000000000E+00 0. -1.
</event>
<event>
 7    1  0.2723366E-009  0.9367416E+02  0.7561462E-02  0.1294190E+00
          3   -1    0    0  501    0  0.00000000000E+00  0.00000000000E+00  0.91839704615E+03  0.91839704615E+03  0.00000000000E+00 0.  1.
         -3   -1    0    0    0  501 -0.00000000000E+00 -0.00000000000E+00 -0.13060085139E+02  0.13060085139E+02  0.00000000000E+00 0. -1.
         25    2    1    2    0    0 -0.11514991689E+02 -0.39953952306E+01  0.57306227823E+03  0.58668242364E+03  0.12508930114E+03 0.  0.
          5    1    3    3  502    0 -0.56064774727E+02  0.13239689756E+02  0.14715086848E+03  0.15808035565E+03  0.41800000000E+01 0. -1.
         -5    1    3    3    0  502  0.44549783038E+02 -0.17235084986E+02  0.42591140975E+03  0.42860206798E+03  0.41800000000E+01 0. -1.
        -11    1    1    2    0    0 -0.30475408000E+02  0.20275688585E+02  0.73499906452E+02  0.82110232546E+02  0.00000000000E+00 0. -1.
         11    1    1    2    0    0  0.41990399689E+02 -0.16280293355E+02  0.25877477634E+03  0.26266447511E+03  0.00000000000E+00 0.  1.
</event>
<event>
 7    1  0.2723366E-009  0.1053031E+03  0.7561462E-02  0.1269524E+00
         -1   -1    0    0    0  501 -0.00000000000E+00  0.00000000000E+00  0.74620662058E+02  0.74620662058E+02  0.00000000000E+00 0.  1.
          1   -1    0    0  501    0  0.00000000000E+00 -0.00000000000E+00 -0.29682671183E+03  0.29682671183E+03  0.00000000000E+00 0. -1.
         25    2    1    2    0    0  0.82660982067E+02 -0.17874777253E+02 -0.18998924721E+03  0.24268470111E+03  0.12509038524E+03 0.  0.
          5    1    3    3  502    0  0.65000633519E+02 -0.18719600092E+02 -0.20699042640E+03  0.21780269697E+03  0.41800000000E+01 0.  1.
         -5    1    3    3    0  502  0.17660348548E+02  0.84482283859E+00  0.17001179187E+02  0.24882004144E+02  0.41800000000E+01 0.  1.
        -11    1    1    2    0    0 -0.76298888160E+02  0.50454107187E+02 -0.23494177746E+02  0.94441059156E+02  0.00000000000E+00 0. -1.
         11    1    1    2    0    0 -0.63620939069E+01 -0.32579329934E+02 -0.87226248140E+01  0.34321613619E+02  0.00000000000E+00 0.  1.
</event>
<event>
 7    1  0.2723366E-009  0.2058141E+03  0.7561462E-02  0.1144924E+00
          2   -1    0    0  501    0  0.00000000000E+00  0.00000000000E+00  0.20212515390E+04  0.20212515390E+04  0.00000000000E+00 0.  1.
         -2   -1    0    0    0  501 -0.00000000000E+00 -0.00000000000E+00 -0.23132692197E+02  0.23132692197E+02  0.00000000000E+00 0. -1.
         25    2    1    2    0    0 -0.37618685886E+02  0.17996813324E+03  0.11975129918E+04  0.12179850812E+04  0.12508636209E+03 0.  0.
          5    1    3    3  502    0  0.25633611680E+02  0.12923931301E+03  0.55910518371E+03  0.57443534095E+03  0.41800000000E+01 0. -1.
         -5    1    3    3    0  502 -0.63252297566E+02  0.50728820226E+02  0.63840780807E+03  0.64354974023E+03  0.41800000000E+01 0. -1.
        -11    1    1    2    0    0  0.10619266164E+02  0.49644779585E+01  0.15959618863E+02  0.19802128408E+02  0.00000000000E+00 0. -1.
         11    1    1    2    0    0  0.26999419722E+02 -0.18493261119E+03  0.78464623612E+03  0.80659702157E+03  0.00000000000E+00 0.  1.
</event>
<event>
 7    1  0.2723366E-009  0.3253087E+03  0.7561462E-02  0.1073232E+00
         -1   -1    0    0    0  501 -0.00000000000E+00  0.00000000000E+00  0.78723928649E+02  0.78723928649E+02  0.00000000000E+00 0.  1.
          1   -1    0    0  501    0  0.00000000000E+00 -0.00000000000E+00 -0.17358544577E+04  0.17358544577E+04  0.00000000000E+00 0. -1.
         25    2    1    2    0    0  0.29679170184E+03 -0.12345122701E+03 -0.47376494052E+03  0.58602687243E+03  0.12509499036E+03 0.  0.
          5    1    3    3  502    0  0.11822500658E+03 -0.77274888154E+02 -0.30435510309E+03  0.33555634653E+03  0.41800000000E+01 0. -1.
         -5    1    3    3    0  502  0.17856669527E+03 -0.46176338855E+02 -0.16940983744E+03  0.25047052591E+03  0.41800000000E+01 0. -1.
        -11    1    1    2    0    0 -0.15310227539E+03  0.38363460653E+02 -0.68512078969E+03  0.70306653903E+03  0.00000000000E+00 0.  1.
         11    1    1    2    0    0 -0.14368942646E+03  0.85087766356E+02 -0.49824479887E+03  0.52548497491E+03  0.00000000000E+00 0. -1.
</event>
<event>
 7    1  0.2723366E-009  0.1491289E+03  0.7561462E-02  0.1201547E+00
          1   -1    0    0  501    0  0.00000000000E+00  0.00000000000E+00  0.77958398877E+03  0.77958398877E+03  0.00000000000E+00 0. -1.
         -1   -1    0    0    0  501 -0.00000000000E+00 -0.00000000000E+00 -0.30708910688E+02  0.30708910688E+02  0.00000000000E+00 0.  1.
         25    2    1    2    0    0  0.64492660749E+02  0.85089293246E+02  0.33735741295E+03  0.37530997670E+03  0.12509221968E+03 0.  0.
          5    1    3    3  502    0 -0.35034335747E+02  0.43068486008E+02  0.13116250452E+03  0.14248990898E+03  0.41800000000E+01 0.  1.
         -5    1    3    3    0  502  0.99526996497E+02  0.42020807238E+02  0.20619490843E+03  0.23282006772E+03  0.41800000000E+01 0.  1.
        -11    1    1    2    0    0 -0.67525537849E+02 -0.21586356036E+02  0.28100398629E+03  0.28980840108E+03  0.00000000000E+00 0. -1.
         11    1    1    2    0    0  0.30328770994E+01 -0.63502937210E+02  0.13051367885E+03  0.14517452168E+03  0.00000000000E+00 0.  1.
</event>
<event>
 7    1  0.2723366E-009  0.1038354E+03  0.7561462E-02  0.1272431E+00
          1   -1    0    0  501    0  0.00000000000E+00  0.00000000000E+00  0.32870995375E+03  0.32870995375E+03  0.00000000000E+00 0. -1.
         -1   -1    0    0    0  501 -0.00000000000E+00 -0.00000000000E+00 -0.39310778749E+02  0.39310778749E+02  0.00000000000E+00 0.  1.
         25    2    1    2    0    0  0.11168919428E+02  0.25055103533E+02  0.13233196975E+03  0.18415535338E+03  0.12509572730E+03 0.  0.
          5    1    3    3  502    0 -0.41090024508E+02 -0.30704141953E+02  0.50261464133E+02  0.71936233039E+02  0.41800000000E+01 0.  1.
         -5    1    3    3    0  502  0.52258943936E+02  0.55759245486E+02  0.82070505620E+02  0.11221912035E+03  0.41800000000E+01 0.  1.
        -11    1    1    2    0    0  0.70238827524E+01 -0.49055069052E+02  0.14157670692E+03  0.14999899557E+03  0.00000000000E+00 0. -1.
         11    1    1    2    0    0 -0.18192802181E+02  0.23999965519E+02  0.15490498326E+02  0.33866383546E+02  0.00000000000E+00 0.  1.
</event>
<event>
 7    1  0.2723366E-009  0.1346431E+03  0.7561462E-02  0.1220724E+00
         -2   -1    0    0    0  501 -0.00000000000E+00  0.00000000000E+00  0.30237630053E+03  0.30237630053E+03  0.00000000000E+00 0.  1.
          2   -1    0    0  501    0  0.00000000000E+00 -0.00000000000E+00 -0.62724259714E+02  0.62724259714E+02  0.00000000000E+00 0. -1.
         25    2    1    2    0    0  0.69036598146E+02  0.14487965770E+02  0.12925621843E+03  0.19321293915E+03  0.12509243310E+03 0.  0.
          5    1    3    3  502    0  0.75154686060E+02 -0.38153597438E+02  0.50980971621E+02  0.98592371417E+02  0.41800000000E+01 0.  1.
         -5    1    3    3    0  502 -0.61180879138E+01  0.52641563208E+02  0.78275246804E+02  0.94620567738E+02  0.41800000000E+01 0.  1.
        -11    1    1    2    0    0 -0.68070022762E+02 -0.57262267047E+02  0.73417077838E+02  0.11533673545E+03  0.00000000000E+00 0.  1.
         11    1    1    2    0    0 -0.96657538429E+00  0.42774301277E+02  0.36978744548E+02  0.56550885634E+02  0.00000000000E+00 0. -1.
</event>
<event>
 7    1  0.2723366E-009  0.9606714E+02  0.7561462E-02  0.1288791E+00
         -1   -1    0    0    0  501 -0.00000000000E+00  0.00000000000E+00  0.53240429270E+02  0.53240429270E+02  0.00000000000E+00 0.  1.
          1   -1    0    0  501    0  0.00000000000E+00 -0.00000000000E+00 -0.39220998379E+03  0.39220998379E+03  0.00000000000E+00 0. -1.
         25    2    1    2    0    0 -0.39986666711E+02 -0.25966820693E+02 -0.30897202709E+03  0.33672596770E+03  0.12508978580E+03 0.  0.
          5    1    3    3  502    0  0.16176454983E+01 -0.71692599876E+02 -0.17145037452E+03  0.18589015299E+03  0.41800000000E+01 0. -1.
         -5    1    3    3    0  502 -0.41604312209E+02  0.45725779183E+02 -0.13752165257E+03  0.15083581472E+03  0.41800000000E+01 0. -1.
        -11    1    1    2    0    0  0.37988456387E+01  0.21551726756E+02 -0.58493218615E+02  0.62452900480E+02  0.00000000000E+00 0. -1.
         11    1    1    2    0    0  0.36187821072E+02  0.44150939368E+01  0.28495691190E+02  0.46271544872E+02  0.00000000000E+00 0.  1.
</event>
<event>
 7    1  0.2723366E-009  0.1130442E+03  0.7561462E-02  0.1255034E+00
         -2   -1    0    0    0  501 -0.00000000000E+00  0.00000000000E+00  0.73675792383E+02  0.73675792383E+02  0.00000000000E+00 0.  1.
          2   -1    0    0  501    0  0.00000000000E+00 -0.00000000000E+00 -0.20472996542E+03  0.20472996542E+03  0.00000000000E+00 0. -1.
         25    2    1    2    0    0  0.32727869661E+02 -0.31927290668E+02 -0.36669755943E+02  0.13812693999E+03  0.12507563795E+03 0.  0.
          5    1    3    3  502    0  0.76774325658E+02 -0.41613555418E+02 -0.18726615955E+02  0.89409974946E+02  0.41800000000E+01 0. -1.
         -5    1    3    3    0  502 -0.44046455997E+02  0.96862647497E+01 -0.17943139989E+02  0.48716965047E+02  0.41800000000E+01 0. -1.
        -11    1    1    2    0    0 -0.37578870338E+02 -0.19070794744E+02 -0.73971917647E+02  0.85133491109E+02  0.00000000000E+00 0. -1.
         11    1    1    2    0    0  0.48510006770E+01  0.50998085412E+02 -0.20412499446E+02  0.55145326700E+02  0.00000000000E+00 0.  1.
</event>
<event>
 7    1  0.2723366E-009  0.1500056E+03  0.7561462E-02  0.1200466E+00
          1   -1    0    0  501    0  0.00000000000E+00  0.00000000000E+00  0.11346289654E+03  0.11346289654E+03  0.00000000000E+00 0. -1.
         -1   -1    0    0    0  501 -0.00000000000E+00 -0.00000000000E+00 -0.21617114186E+03  0.21617114186E+03  0.00000000000E+00 0.  1.
         25    2    1    2    0    0  0.29060708871E+02 -0.97531048571E+02 -0.14317010210E+02  0.16190135779E+03  0.12510092980E+03 0.  0.
          5    1    3    3  502    0  0.44818239338E+02 -0.12246255038E+03 -0.18650544803E+02  0.13179934007E+03  0.41800000000E+01 0.  1.
         -5    1    3    3    0  502 -0.15757530467E+02  0.24931501805E+02  0.43335345928E+01  0.30102017719E+02  0.41800000000E+01 0.  1.
        -11    1    1    2    0    0 -0.53824525555E+02  0.18476844052E+02 -0.52586132393E+02  0.77484028273E+02  0.00000000000E+00 0.  1.
         11    1    1    2    0    0  0.24763816683E+02  0.79054204520E+02 -0.35805102717E+02  0.90248652342E+02  0.00000000000E+00 0. -1.
</event>
<event>
 7    1  0.2723366E-009  0.1107958E+03  0.7561462E-02  0.1259103E+00
         -2   -1    0    0    0  501 -0.00000000000E+00  0.00000000000E+00  0.30496327917E+02  0.30496327917E+02  0.00000000000E+00 0.  1.
          2   -1    0    0  501    0  0.00000000000E+00 -0.00000000000E+00 -0.56429696790E+03  0.56429696790E+03  0.00000000000E+00 0. -1.
         25    2    1    2    0    0  0.73950405304E+02 -0.11766156764E+02 -0.26689148151E+03  0.30411513591E+03  0.12509135899E+03 0.  0.
          5    1    3    3  502    0  0.17739704673E+02 -0.43986389201E+02 -0.25230369027E+02  0.53884538395E+02  0.41800000000E+01 0.  1.
         -5    1    3    3    0  502  0.56210700631E+02  0.32220232437E+02 -0.24166111249E+03  0.25023059751E+03  0.41800000000E+01 0.  1.
        -11    1    1    2    0    0 -0.11737657483E+02  0.39303673621E+02 -0.14905470465E+03  0.15459578371E+03  0.00000000000E+00 0.  1.
         11    1    1    2    0    0 -0.62212747821E+02 -0.27537516857E+02 -0.11785445382E+03  0.13608237619E+03  0.00000000000E+00 0. -1.
</event>
<event>
 7    1  0.2723366E-009  0.1403822E+03  0.7561462E-02  0.1212816E+00
         -1   -1    0    0    0  501 -0.00000000000E+00  0.00000000000E+00  0.11777480789E+03  0.11777480789E+03  0.00000000000E+00 0.  1.
          1   -1    0    0  501    0  0.00000000000E+00 -0.00000000000E+00 -0.19090433172E+03  0.19090433172E+03  0.00000000000E+00 0. -1.
         25    2    1    2    0    0  0.40513995971E+02 -0.94640370414E+02 -0.26297839214E+02  0.16412568091E+03  0.12508988450E+03 0.  0.
          5    1    3    3  502    0 -0.61771814909E+01 -0.11129680272E+03 -0.25234713896E+02  0.11436520035E+03  0.41800000000E+01 0.  1.
         -5    1    3    3    0  502  0.46691177462E+02  0.16656432301E+02 -0.10631253178E+01  0.49760480557E+02  0.41800000000E+01 0.  1.
        -11    1    1    2    0    0 -0.33451772949E+02  0.10313355879E+03 -0.13283590531E+02  0.10923372117E+03  0.00000000000E+00 0.  1.
         11    1    1    2    0    0 -0.70622230228E+01 -0.84931883800E+01 -0.33548094086E+02  0.35319737537E+02  0.00000000000E+00 0. -1.
</event>
<event>
 7    1  0.3590621E-009  0.1994395E+03  0.7561462E-02  0.1150213E+00
          1   -1    0    0  501    0  0.00000000000E+00  0.00000000000E+00  0.20533966309E+03  0.20533966309E+03  0.00000000000E+00 0. -1.
         -1   -1    0    0    0  501 -0.00000000000E+00 -0.00000000000E+00 -0.23800347170E+03  0.23800347170E+03  0.00000000000E+00 0.  1.
         25    2    1    2    0    0 -0.92212982969E+02  0.16057509524E+03  0.35283730260E+02  0.22623806648E+03  0.12510445901E+03 0.  0.
          5    1    3    3  502    0  0.10334664208E+02  0.46780849177E+01 -0.26910071716E+02  0.29501086803E+02  0.41800000000E+01 0. -1.
         -5    1    3    3    0  502 -0.10254764718E+03  0.15589701032E+03  0.62193801975E+02  0.19673697968E+03  0.41800000000E+01 0. -1.
        -11    1    1    2    0    0  0.21231410278E+02 -0.11232400753E+03 -0.64395390722E+02  0.13120297938E+03  0.00000000000E+00 0.  1.
         11    1    1    2    0    0  0.70981572691E+02 -0.48251087708E+02 -0.35521481527E+01  0.85902088934E+02  0.00000000000E+00 0. -1.
</event>
<event>
 7    1  0.2723366E-009  0.7476632E+02  0.7561462E-02  0.1344596E+00
         -2   -1    0    0    0  501 -0.00000000000E+00  0.00000000000E+00  0.11149436157E+03  0.11149436157E+03  0.00000000000E+00 0.  1.
          2   -1    0    0  501    0  0.00000000000E+00 -0.00000000000E+00 -0.14359923585E+03  0.14359923585E+03  0.00000000000E+00 0. -1.
         25    2    1    2    0    0  0.47586192943E+02 -0.42040567474E+01 -0.69110662146E+02  0.15068533026E+03  0.12509062828E+03 0.  0.
          5    1    3    3  502    0 -0.20813778587E+02 -0.82539785153E+01 -0.78190245081E+02  0.81440336236E+02  0.41800000000E+01 0. -1.
         -5    1    3    3    0  502  0.68399971530E+02  0.40499217679E+01  0.90795829345E+01  0.69244994028E+02  0.41800000000E+01 0. -1.
        -11    1    1    2    0    0 -0.38627069292E+01 -0.11124017646E+02  0.53839761472E+02  0.55112468542E+02  0.00000000000E+00 0.  1.
         11    1    1    2    0    0 -0.43723486013E+02  0.15328074394E+02 -0.16833973603E+02  0.49295798615E+02  0.00000000000E+00 0. -1.
</event>
<event>
 7    1  0.2723366E-009  0.1229682E+03  0.7561462E-02  0.1238279E+00
         -2   -1    0    0    0  501 -0.00000000000E+00  0.00000000000E+00  0.58104096884E+03  0.58104096884E+03  0.00000000000E+00 0. -1.
          2   -1    0    0  501    0  0.00000000000E+00 -0.00000000000E+00 -0.33163040907E+02  0.33163040907E+02  0.00000000000E+00 0.  1.
         25    2    1    2    0    0  0.58762420699E+02  0.39566377308E+02  0.41098785508E+03  0.43540422611E+03  0.12508917936E+03 0.  0.
          5    1    3    3  502    0  0.85655636232E+02  0.54509564729E+02  0.22552553084E+03  0.24736090663E+03  0.41800000000E+01 0. -1.
         -5    1    3    3    0  502 -0.26893215532E+02 -0.14943187421E+02  0.18546232424E+03  0.18804331949E+03  0.41800000000E+01 0. -1.
        -11    1    1    2    0    0  0.61411107958E+01 -0.47491606114E+02  0.42831482809E+02  0.64247193034E+02  0.00000000000E+00 0.  1.
         11    1    1    2    0    0 -0.64903531495E+02  0.79252288059E+01  0.94058590043E+02  0.11455259060E+03  0.00000000000E+00 0. -1.
</event>
<event>
 7    1  0.2723366E-009  0.2730994E+03  0.7561462E-02  0.1099519E+00
          2   -1    0    0  501    0  0.00000000000E+00  0.00000000000E+00  0.14636927301E+03  0.14636927301E+03  0.00000000000E+00 0. -1.
         -2   -1    0    0    0  501 -0.00000000000E+00 -0.00000000000E+00 -0.58914868658E+03  0.58914868658E+03  0.00000000000E+00 0.  1.
         25    2    1    2    0    0  0.80088378908E+02 -0.25781839681E+03 -0.17741560493E+03  0.34642188283E+03  0.12508936752E+03 0.  0.
          5    1    3    3  502    0  0.29402604939E+02 -0.17057918309E+03 -0.43186602901E+02  0.17844978552E+03  0.41800000000E+01 0.  1.
         -5    1    3    3    0  502  0.50685773970E+02 -0.87239213716E+02 -0.13422900202E+03  0.16797209732E+03  0.41800000000E+01 0.  1.
        -11    1    1    2    0    0 -0.10380143926E+02  0.86417204885E+02 -0.14252209844E+03  0.16699769230E+03  0.00000000000E+00 0.  1.
         11    1    1    2    0    0 -0.69708234982E+02  0.17140119192E+03 -0.12284171020E+03  0.22209838446E+03  0.00000000000E+00 0. -1.
</event>
<event>
 7    1  0.2723366E-009  0.9711422E+02  0.7561462E-02  0.1286484E+00
         -2   -1    0    0    0  501 -0.00000000000E+00  0.00000000000E+00  0.62849537799E+02  0.62849537799E+02  0.00000000000E+00 0.  1.
          2   -1    0    0  501    0  0.00000000000E+00 -0.00000000000E+00 -0.27886318709E+03  0.27886318709E+03  0.00000000000E+00 0. -1.
         25    2    1    2    0    0 -0.58724360351E+02  0.38150459848E+02 -0.80024116223E+02  0.16417739500E+03  0.12508536991E+03 0.  0.
          5    1    3    3  502    0 -0.39239890590E+02  0.74396037661E+00 -0.10692541620E+03  0.11397736407E+03  0.41800000000E+01 0. -1.
         -5    1    3    3    0  502 -0.19484469761E+02  0.37406499471E+02  0.26901299980E+02  0.50200030928E+02  0.41800000000E+01 0. -1.
        -11    1    1    2    0    0  0.11891312506E+02  0.28520345257E+02 -0.24429228547E+02  0.39390361944E+02  0.00000000000E+00 0.  1.
         11    1    1    2    0    0  0.46833047844E+02 -0.66670805105E+02 -0.11156030452E+03  0.13814496794E+03  0.00000000000E+00 0. -1.
</event>
<event>
 7    1  0.2723366E-009  0.1152793E+03  0.7561462E-02  0.1251094E+00
         -2   -1    0    0    0  501 -0.00000000000E+00  0.00000000000E+00  0.60966321983E+02  0.60966321983E+02  0.00000000000E+00 0.  1.
          2   -1    0    0  501    0  0.00000000000E+00 -0.00000000000E+00 -0.39633685749E+03  0.39633685749E+03  0.00000000000E+00 0. -1.
         25    2    1    2    0    0 -0.76769386448E+02 -0.26661461812E+02 -0.71272157635E+02  0.16532372909E+03  0.12509133745E+03 0.  0.
          5    1    3    3  502    0 -0.69106911073E+01 -0.67592050231E+02 -0.31031738562E+02  0.74812325884E+02  0.41800000000E+01 0. -1.
         -5    1    3    3    0  502 -0.69858695341E+02  0.40930588420E+02 -0.40240419073E+02  0.90511403205E+02  0.41800000000E+01 0. -1.
        -11    1    1    2    0    0  0.43454902414E+02  0.17626486526E+02 -0.25054554071E+03  0.25489623289E+03  0.00000000000E+00 0. -1.
         11    1    1    2    0    0  0.33314484034E+02  0.90349752855E+01 -0.13552837166E+02  0.37083217500E+02  0.00000000000E+00 0.  1.
</event>
<event>
 7    1  0.2723366E-009  0.8548222E+02  0.7561462E-02  0.1314176E+00
          1   -1    0    0  501    0  0.00000000000E+00  0.00000000000E+00  0.98475366217E+02  0.98475366217E+02  0.00000000000E+00 0. -1.
         -1   -1    0    0    0  501 -0.00000000000E+00 -0.00000000000E+00 -0.12815601512E+03  0.12815601512E+03  0.00000000000E+00 0.  1.
         25    2    1    2    0    0  0.27069389862E+02 -0.63209477403E+01 -0.13819108298E+01  0.12814877870E+03  0.12508994187E+03 0.  0.
          5    1    3    3  502    0  0.73813400671E+02 -0.18989847348E+02 -0.14728185359E+02  0.77739464012E+02  0.41800000000E+01 0. -1.
         -5    1    3    3    0  502 -0.46744010809E+02  0.12668899607E+02  0.13346274529E+02  0.50409314691E+02  0.41800000000E+01 0. -1.
        -11    1    1    2    0    0 -0.10289278657E+02  0.21219644521E+02 -0.57212794560E+02  0.61882521202E+02  0.00000000000E+00 0.  1.
         11    1    1    2    0    0 -0.16780111205E+02 -0.14898696781E+02  0.28914056490E+02  0.36600081428E+02  0.00000000000E+00 0. -1.
</event>
<event>
 7    1  0.2723366E-009  0.1848455E+03  0.7561462E-02  0.1163194E+00
          1   -1    0    0  501    0  0.00000000000E+00  0.00000000000E+00  0.47281354354E+04  0.47281354354E+04  0.00000000000E+00 0. -1.
         -1   -1    0    0    0  501 -0.00000000000E+00 -0.00000000000E+00 -0.19815428563E+02  0.19815428563E+02  0.00000000000E+00 0.  1.
         25    2    1    2    0    0 -0.75480521890E+02  0.15511412112E+03  0.41682856442E+04  0.41737286834E+04  0.12509280774E+03 0.  0.
          5    1    3    3  502    0 -0.43704179755E+02  0.14187419599E+03  0.39424478284E+04  0.39452440603E+04  0.41800000000E+01 0. -1.
         -5    1    3    3    0  502 -0.31776342136E+02  0.13239925135E+02  0.22583781584E+03  0.22848462311E+03  0.41800000000E+01 0. -1.
        -11    1    1    2    0    0  0.14375287924E+02 -0.10901276276E+03  0.23078889312E+03  0.25564417563E+03  0.00000000000E+00 0.  1.
         11    1    1    2    0    0  0.61105233966E+02 -0.46101358365E+02  0.30924546949E+03  0.31857800498E+03  0.00000000000E+00 0. -1.
</event>
<event>
 7    1  0.2723366E-009  0.1260160E+03  0.7561462E-02  0.1233490E+00
          1   -1    0    0  501    0  0.00000000000E+00  0.00000000000E+00  0.30774495138E+03  0.30774495138E+03  0.00000000000E+00 0. -1.
         -1   -1    0    0    0  501 -0.00000000000E+00 -0.00000000000E+00 -0.12037680026E+03  0.12037680026E+03  0.00000000000E+00 0.  1.
         25    2    1    2    0    0  0.91296401189E+02 -0.61693018773E+01 -0.46467016068E+02  0.16179969183E+03  0.12508742358E+03 0.  0.
          5    1    3    3  502    0 -0.15443785911E+02  0.11309651327E+02 -0.49789713170E+02  0.53506136788E+02  0.41800000000E+01 0. -1.
         -5    1    3    3    0  502  0.10674018710E+03 -0.17478953204E+02  0.33226971020E+01  0.10829355504E+03  0.41800000000E+01 0. -1.
        -11    1    1    2    0    0 -0.67717709359E+02  0.43179837787E+02  0.12073994108E+03  0.14501144756E+03  0.00000000000E+00 0.  1.
         11    1    1    2    0    0 -0.23578691830E+02 -0.37010535909E+02  0.11309522611E+03  0.12131061225E+03  0.00000000000E+00 0. -1.
</event>
<event>
 7    1  0.2723366E-009  0.1372577E+03  0.7561462E-02  0.1217067E+00
          2   -1    0    0  501    0  0.00000000000E+00  0.00000000000E+00  0.57915132391E+03  0.57915132391E+03  0.00000000000E+00 0.  1.
         -2   -1    0    0    0  501 -0.00000000000E+00 -0.00000000000E+00 -0.38796764789E+02  0.38796764789E+02  0.00000000000E+00 0. -1.
         25    2    1    2    0    0  0.36762459509E+02 -0.82542642693E+02  0.40266423011E+03  0.43122033984E+03  0.12509089891E+03 0.  0.
          5    1    3    3  502    0 -0.12699792001E+02  0.28559674779E+02  0.10532067921E+03  0.10994024563E+03  0.41800000000E+01 0.  1.
         -5    1    3    3    0  502  0.49462251509E+02 -0.11110231747E+03  0.29734355090E+03  0.32128009421E+03  0.41800000000E+01 0.  1.
        -11    1    1    2    0    0 -0.58906682652E+02  0.34184902415E+02  0.10210039549E+03  0.12273180343E+03  0.00000000000E+00 0.  1.
         11    1    1    2    0    0  0.22144223144E+02  0.48357740278E+02  0.35589933522E+02  0.63995945431E+02  0.00000000000E+00 0. -1.
</event>
<event>
 7    1  0.2723366E-009  0.9588298E+02  0.7561462E-02  0.1289200E+00
         -1   -1    0    0    0  501 -0.00000000000E+00  0.00000000000E+00  0.21413573938E+03  0.21413573938E+03  0.00000000000E+00 0.  1.
          1   -1    0    0  501    0  0.00000000000E+00 -0.00000000000E+00 -0.59034860491E+02  0.59034860491E+02  0.00000000000E+00 0. -1.
         25    2    1    2    0    0  0.12472102822E+02 -0.43825164677E+02  0.12188213525E+03  0.18049812982E+03  0.12509245208E+03 0.  0.
          5    1    3    3  502    0  0.11486073267E+02 -0.86986063603E+02  0.66614667411E+02  0.11024287485E+03  0.41800000000E+01 0. -1.
         -5    1    3    3    0  502  0.98602955491E+00  0.43160898926E+02  0.55267467838E+02  0.70255254975E+02  0.41800000000E+01 0. -1.
        -11    1    1    2    0    0 -0.27057075189E+02  0.30802242638E+02  0.51553306828E+02  0.65868102404E+02  0.00000000000E+00 0.  1.
         11    1    1    2    0    0  0.14584972367E+02  0.13022922039E+02 -0.18334563191E+02  0.26804367644E+02  0.00000000000E+00 0. -1.
</event>
<event>
 7    1  0.2723366E-009  0.7568036E+02  0.7561462E-02  0.1341777E+00
         -2   -1    0    0    0  501 -0.00000000000E+00  0.00000000000E+00  0.29911451572E+02  0.29911451572E+02  0.00000000000E+00 0.  1.
          2   -1    0    0  501    0  0.00000000000E+00 -0.00000000000E+00 -0.54632527324E+03  0.54632527324E+03  0.00000000000E+00 0. -1.
         25    2    1    2    0    0 -0.29882247019E+02 -0.27889333895E+02 -0.40759107561E+03  0.42830870815E+03  0.12508837246E+03 0.  0.
          5    1    3    3  502    0 -0.35326413971E+01 -0.26410630721E+02 -0.39947322629E+03  0.40038273176E+03  0.41800000000E+01 0. -1.
         -5    1    3    3    0  502 -0.26349605622E+02 -0.14787031732E+01 -0.81178493220E+01  0.27925976387E+02  0.41800000000E+01 0. -1.
        -11    1    1    2    0    0 -0.17073647498E+02 -0.22857803524E+02 -0.48023473322E+02  0.55859131847E+02  0.00000000000E+00 0.  1.
         11    1    1    2    0    0  0.46955894517E+02  0.50747137419E+02 -0.60799272730E+02  0.92068884813E+02  0.00000000000E+00 0. -1.
</event>
<event>
 7    1  0.2723366E-009  0.1902621E+03  0.7561462E-02  0.1158225E+00
          2   -1    0    0  501    0  0.00000000000E+00  0.00000000000E+00  0.13179204395E+03  0.13179204395E+03  0.00000000000E+00 0. -1.
         -2   -1    0    0    0  501 -0.00000000000E+00 -0.00000000000E+00 -0.30777847259E+03  0.30777847259E+03  0.00000000000E+00 0.  1.
         25    2    1    2    0    0  0.15361076268E+03 -0.30293451790E+02 -0.16401214621E+03  0.25895815887E+03  0.12508151066E+03 0.  0.
          5    1    3    3  502    0  0.45490391503E+02 -0.71299627747E+02 -0.68134560237E+02  0.10868672106E+03  0.41800000000E+01 0.  1.
         -5    1    3    3    0  502  0.10812037118E+03  0.41006175957E+02 -0.95877585973E+02  0.15027143781E+03  0.41800000000E+01 0.  1.
        -11    1    1    2    0    0 -0.30327584591E+02 -0.30208663885E+02 -0.51437320759E+01  0.43113614329E+02  0.00000000000E+00 0.  1.
         11    1    1    2    0    0 -0.12328317809E+03  0.60502115675E+02 -0.68305503584E+01  0.13749874334E+03  0.00000000000E+00 0. -1.
</event>
<event>
 7    1  0.2723366E-009  0.1272937E+03  0.7561462E-02  0.1231528E+00
          2   -1    0    0  501    0  0.00000000000E+00  0.00000000000E+00  0.71348402725E+03  0.71348402725E+03  0.00000000000E+00 0.  1.
         -2   -1    0    0    0  501 -0.00000000000E+00 -0.00000000000E+00 -0.27048147933E+02  0.27048147933E+02  0.00000000000E+00 0. -1.
         25    2    1    2    0    0 -0.16859106353E+01 -0.87304927635E+02  0.35378906522E+03  0.38527711990E+03  0.12508702478E+03 0.  0.
          5    1    3    3  502    0 -0.17643565053E+02  0.20636137715E+02  0.19721352951E+02  0.33816412137E+02  0.41800000000E+01 0.  1.
         -5    1    3    3    0  502  0.15957654418E+02 -0.10794106535E+03  0.33406771227E+03  0.35146070777E+03  0.41800000000E+01 0.  1.
        -11    1    1    2    0    0 -0.36726125183E+02  0.23990721542E+02  0.18432930700E+03  0.18947732426E+03  0.00000000000E+00 0.  1.
         11    1    1    2    0    0  0.38412035819E+02  0.63314206094E+02  0.14831750710E+03  0.16577773102E+03  0.00000000000E+00 0. -1.
</event>
<event>
 7    1  0.2723366E-009  0.1020347E+03  0.7561462E-02  0.1276074E+00
          2   -1    0    0  501    0  0.00000000000E+00  0.00000000000E+00  0.28561987183E+03  0.28561987183E+03  0.00000000000E+00 0. -1.
         -2   -1    0    0    0  501 -0.00000000000E+00 -0.00000000000E+00 -0.61768332693E+02  0.61768332693E+02  0.00000000000E+00 0.  1.
         25    2    1    2    0    0  0.30624763877E+02 -0.65848889660E+02  0.93740993258E+02  0.17235928752E+03  0.12508556169E+03 0.  0.
          5    1    3    3  502    0  0.41925785820E+02 -0.63312146168E+02 -0.17569765338E+01  0.76070748226E+02  0.41800000000E+01 0. -1.
         -5    1    3    3    0  502 -0.11301021943E+02 -0.25367434920E+01  0.95497969792E+02  0.96288539291E+02  0.41800000000E+01 0. -1.
        -11    1    1    2    0    0 -0.42394106117E+02 -0.60731614665E+01  0.61446851265E+02  0.74898992343E+02  0.00000000000E+00 0. -1.
         11    1    1    2    0    0  0.11769342240E+02  0.71922051127E+02  0.68663694618E+02  0.10012992467E+03  0.00000000000E+00 0.  1.
</event>
<event>
 7    1  0.2723366E-009  0.8269947E+02  0.7561462E-02  0.1321561E+00
         -1   -1    0    0    0  501 -0.00000000000E+00  0.00000000000E+00  0.13020498584E+03  0.13020498584E+03  0.00000000000E+00 0.  1.
          1   -1    0    0  501    0  0.00000000000E+00 -0.00000000000E+00 -0.11231582384E+03  0.11231582384E+03  0.00000000000E+00 0. -1.
         25    2    1    2    0    0  0.16425161816E+02 -0.11699520180E+02  0.42896349668E+02  0.13378834946E+03  0.12511019512E+03 0.  0.
          5    1    3    3  502    0 -0.17502030279E+02  0.32810757713E+02  0.63746290779E+02  0.73918393338E+02  0.41800000000E+01 0. -1.
         -5    1    3    3    0  502  0.33927192095E+02 -0.44510277893E+02 -0.20849941111E+02  0.59869956121E+02  0.41800000000E+01 0. -1.
        -11    1    1    2    0    0 -0.75996157898E+01 -0.29118813366E+02  0.28098956012E+02  0.41172937483E+02  0.00000000000E+00 0.  1.
         11    1    1    2    0    0 -0.88255460262E+01  0.40818333546E+02 -0.53106143683E+02  0.67559522741E+02  0.00000000000E+00 0. -1.
</event>
<event>
 7    1  0.2723366E-009  0.1064862E+03  0.7561462E-02  0.1267219E+00
         -4   -1    0    0    0  501 -0.00000000000E+00  0.00000000000E+00  0.23183753377E+02  0.23183753377E+02  0.00000000000E+00 0.  1.
          4   -1    0    0  501    0  0.00000000000E+00 -0.00000000000E+00 -0.72384855439E+03  0.72384855439E+03  0.00000000000E+00 0. -1.
         25    2    1    2    0    0 -0.62217403591E+02  0.16288089972E+02 -0.46725137010E+03  0.48796288450E+03  0.12509047365E+03 0.  0.
          5    1    3    3  502    0  0.41176853645E+01 -0.44048351649E+02 -0.92646614021E+02  0.10275251873E+03  0.41800000000E+01 0. -1.
         -5    1    3    3    0  502 -0.66335088956E+02  0.60336441622E+02 -0.37460475608E+03  0.38521036577E+03  0.41800000000E+01 0. -1.
        -11    1    1    2    0    0  0.15705854105E+02  0.15786193180E+02 -0.37789285836E+01  0.22586678586E+02  0.00000000000E+00 0.  1.
         11    1    1    2    0    0  0.46511549486E+02 -0.32074283153E+02 -0.22963450232E+03  0.23648274468E+03  0.00000000000E+00 0. -1.
</event>
<event>
 7    1  0.2723366E-009  0.8596210E+02  0.7561462E-02  0.1312936E+00
         -2   -1    0    0    0  501 -0.00000000000E+00  0.00000000000E+00  0.28072474941E+02  0.28072474941E+02  0.00000000000E+00 0.  1.
          2   -1    0    0  501    0  0.00000000000E+00 -0.00000000000E+00 -0.43001185546E+03  0.43001185546E+03  0.00000000000E+00 0. -1.
         25    2    1    2    0    0  0.21085773988E+01  0.77659737986E+01 -0.23045340805E+03  0.26233715619E+03  0.12508898348E+03 0.  0.
          5    1    3    3  502    0  0.50074836692E+00 -0.46687383916E+02 -0.18624815359E+03  0.19205678765E+03  0.41800000000E+01 0. -1.
         -5    1    3    3    0  502  0.16078290319E+01  0.54453357714E+02 -0.44205254458E+02  0.70280368541E+02  0.41800000000E+01 0. -1.
        -11    1    1    2    0    0 -0.36044202802E+02 -0.41628532112E+01 -0.22037638658E+02  0.42451989589E+02  0.00000000000E+00 0.  1.
         11    1    1    2    0    0  0.33935625403E+02 -0.36031205874E+01 -0.14944833381E+03  0.15329518462E+03  0.00000000000E+00 0. -1.
</event>
<event>
 7    1  0.2723366E-009  0.1013361E+03  0.7561462E-02  0.1277511E+00
         -1   -1    0    0    0  501 -0.00000000000E+00  0.00000000000E+00  0.58187180804E+02  0.58187180804E+02  0.00000000000E+00 0.  1.
          1   -1    0    0  501    0  0.00000000000E+00 -0.00000000000E+00 -0.28508348452E+03  0.28508348452E+03  0.00000000000E+00 0. -1.
         25    2    1    2    0    0 -0.10481856492E+02  0.38445544155E+02 -0.54206035551E+02  0.14202922840E+03  0.12508428458E+03 0.  0.
          5    1    3    3  502    0 -0.55963845137E+02  0.89914141350E+01  0.10214625198E+02  0.57746068772E+02  0.41800000000E+01 0.  1.
         -5    1    3    3    0  502  0.45481988645E+02  0.29454130020E+02 -0.64420660749E+02  0.84283159633E+02  0.41800000000E+01 0.  1.
        -11    1    1    2    0    0 -0.31591742018E+02 -0.37995297126E+02 -0.13841874560E+03  0.14697424911E+03  0.00000000000E+00 0. -1.
         11    1    1    2    0    0  0.42073598510E+02 -0.45024702937E+00 -0.34271522563E+02  0.54267187809E+02  0.00000000000E+00 0.  1.
</event>
<event>
 7    1  0.2723366E-009  0.2248062E+03  0.7561462E-02  0.1130350E+00
          2   -1    0    0  501    0  0.00000000000E+00  0.00000000000E+00  0.24672969904E+04  0.24672969904E+04  0.00000000000E+00 0. -1.
         -2   -1    0    0    0  501 -0.00000000000E+00 -0.00000000000E+00 -0.28739316476E+02  0.28739316476E+02  0.00000000000E+00 0.  1.
         25    2    1    2    0    0 -0.20148802200E+03  0.13698898573E+01  0.18867209746E+04  0.19015686001E+04  0.12509118714E+03 0.  0.
          5    1    3    3  502    0 -0.20254474799E+03 -0.23000856055E+02  0.14647367281E+04  0.14788592122E+04  0.41800000000E+01 0.  1.
         -5    1    3    3    0  502  0.10567259850E+01  0.24370745912E+02  0.42198424651E+03  0.42270938791E+03  0.41800000000E+01 0.  1.
        -11    1    1    2    0    0  0.12760362989E+03 -0.44836707549E+02  0.32955955124E+03  0.35623379194E+03  0.00000000000E+00 0. -1.
         11    1    1    2    0    0  0.73884392117E+02  0.43466817692E+02  0.22227714800E+03  0.23823391480E+03  0.00000000000E+00 0.  1.
</event>
<event>
 7    1  0.2723366E-009  0.9043740E+02  0.7561462E-02  0.1301796E+00
         -1   -1    0    0    0  501 -0.00000000000E+00  0.00000000000E+00  0.51287233978E+02  0.51287233978E+02  0.00000000000E+00 0.  1.
          1   -1    0    0  501    0  0.00000000000E+00 -0.00000000000E+00 -0.24232680543E+03  0.24232680543E+03  0.00000000000E+00 0. -1.
         25    2    1    2    0    0  0.28774078473E+02 -0.26073869644E+02 -0.12831152749E+03  0.18334947813E+03  0.12508152850E+03 0.  0.
          5    1    3    3  502    0 -0.47624995177E+02 -0.67756527280E+01 -0.28341705783E+02  0.55989055378E+02  0.41800000000E+01 0. -1.
         -5    1    3    3    0  502  0.76399073650E+02 -0.19298216916E+02 -0.99969821712E+02  0.12736042275E+03  0.41800000000E+01 0. -1.
        -11    1    1    2    0    0  0.82250016068E+01  0.10982389798E+02  0.16542551326E+02  0.21492313545E+02  0.00000000000E+00 0.  1.
         11    1    1    2    0    0 -0.36999080080E+02  0.15091479846E+02 -0.79270595279E+02  0.88772247727E+02  0.00000000000E+00 0. -1.
</event>
<event>
 7    1  0.2723366E-009  0.1617109E+03  0.7561462E-02  0.1186779E+00
         -1   -1    0    0    0  501 -0.00000000000E+00  0.00000000000E+00  0.60186669388E+02  0.60186669388E+02  0.00000000000E+00 0.  1.
          1   -1    0    0  501    0  0.00000000000E+00 -0.00000000000E+00 -0.74096008374E+03  0.74096008374E+03  0.00000000000E+00 0. -1.
         25    2    1    2    0    0  0.10318392671E+03 -0.10351493291E+03 -0.55470301905E+03  0.58711632483E+03  0.12509146842E+03 0.  0.
          5    1    3    3  502    0  0.10412827336E+03 -0.10406245917E+03 -0.31879384289E+03  0.35116759444E+03  0.41800000000E+01 0.  1.
         -5    1    3    3    0  502 -0.94434664523E+00  0.54752625656E+00 -0.23590917616E+03  0.23594873039E+03  0.41800000000E+01 0.  1.
        -11    1    1    2    0    0 -0.50982941701E+02 -0.51838918132E+01 -0.26736762887E+02  0.57801276530E+02  0.00000000000E+00 0.  1.
         11    1    1    2    0    0 -0.52200985014E+02  0.10869882473E+03 -0.99333632418E+02  0.15622915177E+03  0.00000000000E+00 0. -1.
</event>
<event>
 7    1  0.2723366E-009  0.9721126E+02  0.7561462E-02  0.1286272E+00
          3   -1    0    0  501    0  0.00000000000E+00  0.00000000000E+00  0.15855718597E+03  0.15855718597E+03  0.00000000000E+00 0. -1.
         -3   -1    0    0    0  501 -0.00000000000E+00 -0.00000000000E+00 -0.10217161687E+03  0.10217161687E+03  0.00000000000E+00 0.  1.
         25    2    1    2    0    0  0.20869310112E+02 -0.32340653720E+02  0.87795100113E+02  0.15759493398E+03  0.12508692028E+03 0.  0.
          5    1    3    3  502    0  0.29941854869E+02 -0.65878153452E+02  0.97302376986E+02  0.12133289225E+03  0.41800000000E+01 0. -1.
         -5    1    3    3    0  502 -0.90725447569E+01  0.33537499732E+02 -0.95072768732E+01  0.36262041726E+02  0.41800000000E+01 0. -1.
        -11    1    1    2    0    0 -0.46683549384E+02  0.38378694648E+02 -0.43029917566E+02  0.74187949101E+02  0.00000000000E+00 0.  1.
         11    1    1    2    0    0  0.25814239272E+02 -0.60380409281E+01  0.11620386552E+02  0.28945919765E+02  0.00000000000E+00 0. -1.
</event>
<event>
 7    1  0.2723366E-009  0.1000773E+03  0.7561462E-02  0.1280134E+00
         -2   -1    0    0    0  501 -0.00000000000E+00  0.00000000000E+00  0.19000975992E+02  0.19000975992E+02  0.00000000000E+00 0.  1.
          2   -1    0    0  501    0  0.00000000000E+00 -0.00000000000E+00 -0.77960817525E+03  0.77960817525E+03  0.00000000000E+00 0. -1.
         25    2    1    2    0    0 -0.46252168767E+02 -0.38944058818E+02 -0.68651688759E+03  0.70043428720E+03  0.12508737311E+03 0.  0.
          5    1    3    3  502    0 -0.28014714576E+02 -0.83600291614E+02 -0.38000766690E+03  0.39012450871E+03  0.41800000000E+01 0.  1.
         -5    1    3    3    0  502 -0.18237454191E+02  0.44656232796E+02 -0.30650922069E+03  0.31030977849E+03  0.41800000000E+01 0.  1.
        -11    1    1    2    0    0  0.44858981636E+02  0.28975615100E+02 -0.55411873555E+02  0.76957067477E+02  0.00000000000E+00 0.  1.
         11    1    1    2    0    0  0.13931871306E+01  0.99684437183E+01 -0.18678438119E+02  0.21217796566E+02  0.00000000000E+00 0. -1.
</event>
<event>
 7    1  0.2723366E-009  0.1215079E+03  0.7561462E-02  0.1240630E+00
          1   -1    0    0  501    0  0.00000000000E+00  0.00000000000E+00  0.25533819110E+03  0.25533819110E+03  0.00000000000E+00 0. -1.
         -1   -1    0    0    0  501 -0.00000000000E+00 -0.00000000000E+00 -0.28158860614E+03  0.28158860614E+03  0.00000000000E+00 0.  1.
         25    2    1    2    0    0 -0.25262923414E+02 -0.72747821289E+02  0.21920786254E+03  0.26387497348E+03  0.12508978308E+03 0.  0.
          5    1    3    3  502    0  0.30008267070E+02  0.51142420527E+01  0.75535724881E+01  0.31641435202E+02  0.41800000000E+01 0. -1.
         -5    1    3    3    0  502 -0.55271190484E+02 -0.77862063341E+02  0.21165429005E+03  0.23223353828E+03  0.41800000000E+01 0. -1.
        -11    1    1    2    0    0  0.21634702585E+02 -0.16613600417E+02 -0.86035332835E+02  0.90256027891E+02  0.00000000000E+00 0. -1.
         11    1    1    2    0    0  0.36282208282E+01  0.89361421706E+02 -0.15942294474E+03  0.18279579587E+03  0.00000000000E+00 0.  1.
</event>
<event>
 7    1  0.2723366E-009  0.1212543E+03  0.7561462E-02  0.1241042E+00
         -1   -1    0    0    0  501 -0.00000000000E+00  0.00000000000E+00  0.54355457107E+02  0.54355457107E+02  0.00000000000E+00 0.  1.
          1   -1    0    0  501    0  0.00000000000E+00 -0.00000000000E+00 -0.31846199172E+03  0.31846199172E+03  0.00000000000E+00 0. -1.
         25    2    1    2    0    0 -0.69223678697E+02  0.15822009696E+02 -0.11973139143E+03  0.18715461701E+03  0.12509592675E+03 0.  0.
          5    1    3    3  502    0 -0.77069366503E+02 -0.32974440753E+02 -0.10691885168E+03  0.13592687093E+03  0.41800000000E+01 0. -1.
         -5    1    3    3    0  502  0.78456878060E+01  0.48796450449E+02 -0.12812539754E+02  0.51227746081E+02  0.41800000000E+01 0. -1.
        -11    1    1    2    0    0  0.80617253105E+02  0.95344085966E+01 -0.73416515106E+02  0.10945332857E+03  0.00000000000E+00 0.  1.
         11    1    1    2    0    0 -0.11393574407E+02 -0.25356418293E+02 -0.70958628075E+02  0.76209503244E+02  0.00000000000E+00 0. -1.
</event>
<event>
 7    1  0.2723366E-009  0.1539103E+03  0.7561462E-02  0.1195749E+00
          1   -1    0    0  501    0  0.00000000000E+00  0.00000000000E+00  0.67952195913E+03  0.67952195913E+03  0.00000000000E+00 0. -1.
         -1   -1    0    0    0  501 -0.00000000000E+00 -0.00000000000E+00 -0.38326813530E+02  0.38326813530E+02  0.00000000000E+00 0.  1.
         25    2    1    2    0    0 -0.17728519539E+02  0.11683159856E+03  0.29887207727E+03  0.34487081973E+03  0.12508973140E+03 0.  0.
          5    1    3    3  502    0 -0.61469135925E+02  0.10313748448E+03  0.17112776332E+03  0.20908844816E+03  0.41800000000E+01 0. -1.
         -5    1    3    3    0  502  0.43740616386E+02  0.13694114083E+02  0.12774431395E+03  0.13578237157E+03  0.41800000000E+01 0. -1.
        -11    1    1    2    0    0  0.46796011877E+02 -0.48474076485E+02  0.10926286540E+03  0.12836657109E+03  0.00000000000E+00 0.  1.
         11    1    1    2    0    0 -0.29067492338E+02 -0.68357522073E+02  0.23306020292E+03  0.24461138183E+03  0.00000000000E+00 0. -1.
</event>
<event>
 7    1  0.2723366E-009  0.1356746E+03  0.7561462E-02  0.1219271E+00
          4   -1    0    0  501    0  0.00000000000E+00  0.00000000000E+00  0.26877587367E+02  0.26877587367E+02  0.00000000000E+00 0. -1.
         -4   -1    0    0    0  501 -0.00000000000E+00 -0.00000000000E+00 -0.69384231058E+03  0.69384231058E+03  0.00000000000E+00 0.  1.
         25    2    1    2    0    0 -0.70978118531E+02 -0.37767259880E+02 -0.32872785835E+03  0.36079793895E+03  0.12509551817E+03 0.  0.
          5    1    3    3  502    0 -0.96735628504E+02  0.67699810810E+01 -0.21766711598E+03  0.23832763215E+03  0.41800000000E+01 0. -1.
         -5    1    3    3    0  502  0.25757509973E+02 -0.44537240961E+02 -0.11106074237E+03  0.12247030680E+03  0.41800000000E+01 0. -1.
        -11    1    1    2    0    0 -0.11426046195E+02  0.38604341095E+02 -0.12455414703E+03  0.13089914142E+03  0.00000000000E+00 0. -1.
         11    1    1    2    0    0  0.82404164726E+02 -0.83708121463E+00 -0.21368271784E+03  0.22902281758E+03  0.00000000000E+00 0.  1.
</event>
<event>
 7    1  0.2723366E-009  0.9312249E+02  0.7561462E-02  0.1295462E+00
          1   -1    0    0  501    0  0.00000000000E+00  0.00000000000E+00  0.68704282316E+02  0.68704282316E+02  0.00000000000E+00 0. -1.
         -1   -1    0    0    0  501 -0.00000000000E+00 -0.00000000000E+00 -0.27899940579E+03  0.27899940579E+03  0.00000000000E+00 0.  1.
         25    2    1    2    0    0  0.19365515754E+02 -0.62533176617E+02 -0.45300141626E+02  0.14827439232E+03  0.12509105167E+03 0.  0.
          5    1    3    3  502    0  0.25626857303E+02 -0.18853257232E+02  0.40518318326E+02  0.51685468397E+02  0.41800000000E+01 0.  1.
         -5    1    3    3    0  502 -0.62613415493E+01 -0.43679919385E+02 -0.85818459952E+02  0.96588923919E+02  0.41800000000E+01 0.  1.
        -11    1    1    2    0    0 -0.54698687604E+02  0.33875477359E+02 -0.11543768478E+03  0.13215654906E+03  0.00000000000E+00 0.  1.
         11    1    1    2    0    0  0.35333171851E+02  0.28657699258E+02 -0.49557297065E+02  0.67272746727E+02  0.00000000000E+00 0. -1.
</event>
<event>
 7    1  0.2723366E-009  0.1151499E+03  0.7561462E-02  0.1251320E+00
         -1   -1    0    0    0  501 -0.00000000000E+00  0.00000000000E+00  0.78463603898E+02  0.78463603898E+02  0.00000000000E+00 0.  1.
          1   -1    0    0  501    0  0.00000000000E+00 -0.00000000000E+00 -0.25050706470E+03  0.25050706470E+03  0.00000000000E+00 0. -1.
         25    2    1    2    0    0  0.31029134171E+02 -0.78547877520E+02 -0.12679561617E+03  0.19712275162E+03  0.12509066590E+03 0.  0.
          5    1    3    3  502    0  0.26994013074E+02 -0.89926157842E+02 -0.28798799880E+02  0.98296662612E+02  0.41800000000E+01 0.  1.
         -5    1    3    3    0  502  0.40351210969E+01  0.11378280323E+02 -0.97996816287E+02  0.98826089003E+02  0.41800000000E+01 0.  1.
        -11    1    1    2    0    0 -0.58476348973E+02  0.25462327876E+02 -0.27938373562E+02  0.69630210737E+02  0.00000000000E+00 0. -1.
         11    1    1    2    0    0  0.27447214802E+02  0.53085549644E+02 -0.17309471070E+02  0.62217706243E+02  0.00000000000E+00 0.  1.
</event>
<event>
 7    1  0.2723366E-009  0.2047075E+03  0.7561462E-02  0.1145827E+00
          2   -1    0    0  501    0  0.00000000000E+00  0.00000000000E+00  0.89370094001E+03  0.89370094001E+03  0.00000000000E+00 0.  1.
         -2   -1    0    0    0  501 -0.00000000000E+00 -0.00000000000E+00 -0.64079455091E+02  0.64079455091E+02  0.00000000000E+00 0. -1.
         25    2    1    2    0    0 -0.86557722490E+02  0.15463748803E+03  0.19057437763E+03  0.28873943769E+03  0.12508747915E+03 0.  0.
          5    1    3    3  502    0  0.28040538308E+02  0.98518002885E+01  0.13637087247E+02  0.32966229783E+02  0.41800000000E+01 0. -1.
         -5    1    3    3    0  502 -0.11459826080E+03  0.14478568774E+03  0.17693729038E+03  0.25577320790E+03  0.41800000000E+01 0. -1.
        -11    1    1    2    0    0  0.11666787055E+02 -0.10318318881E+03  0.27876187208E+03  0.29747447907E+03  0.00000000000E+00 0. -1.
         11    1    1    2    0    0  0.74890935435E+02 -0.51454299224E+02  0.36028523521E+03  0.37156647834E+03  0.00000000000E+00 0.  1.
</event>
<event>
 7    1  0.2723366E-009  0.3708565E+03  0.7561462E-02  0.1054366E+00
          3   -1    0    0  501    0  0.00000000000E+00  0.00000000000E+00  0.60664787776E+03  0.60664787776E+03  0.00000000000E+00 0. -1.
         -3   -1    0    0    0  501 -0.00000000000E+00 -0.00000000000E+00 -0.23179106282E+03  0.23179106282E+03  0.00000000000E+00 0.  1.
         25    2    1    2    0    0 -0.19407620314E+03  0.30171691322E+03  0.18678163198E+03  0.42336145108E+03  0.12509545104E+03 0.  0.
          5    1    3    3  502    0 -0.67446202583E+02  0.21436991376E+03  0.93749337047E+02  0.24353615905E+03  0.41800000000E+01 0.  1.
         -5    1    3    3    0  502 -0.12663000055E+03  0.87346999466E+02  0.93032294932E+02  0.17982529204E+03  0.41800000000E+01 0.  1.
        -11    1    1    2    0    0  0.18040740416E+03 -0.24230435196E+03  0.12375514480E+03  0.32645607105E+03  0.00000000000E+00 0. -1.
         11    1    1    2    0    0  0.13668798972E+02 -0.59412561258E+02  0.64320038155E+02  0.88621418454E+02  0.00000000000E+00 0.  1.
</event>
<event>
 7    1  0.2723366E-009  0.7015097E+02  0.7561462E-02  0.1359580E+00
          2   -1    0    0  501    0  0.00000000000E+00  0.00000000000E+00  0.94645637589E+02  0.94645637589E+02  0.00000000000E+00 0. -1.
         -2   -1    0    0    0  501 -0.00000000000E+00 -0.00000000000E+00 -0.32584463856E+03  0.32584463856E+03  0.00000000000E+00 0.  1.
         25    2    1    2    0    0  0.14446883038E+02 -0.15917439031E+02 -0.28510460037E+03  0.31208105742E+03  0.12509147035E+03 0.  0.
          5    1    3    3  502    0  0.30366737340E+02 -0.40698164366E+02 -0.38944219626E+02  0.64129587257E+02  0.41800000000E+01 0.  1.
         -5    1    3    3    0  502 -0.15919854302E+02  0.24780725336E+02 -0.24616038074E+03  0.24795147016E+03  0.41800000000E+01 0.  1.
        -11    1    1    2    0    0 -0.35877503058E+02  0.11892871679E+02  0.71178443452E+02  0.80591602755E+02  0.00000000000E+00 0. -1.
         11    1    1    2    0    0  0.21430620020E+02  0.40245673512E+01 -0.17272844058E+02  0.27817615977E+02  0.00000000000E+00 0.  1.
</event>
<event>
 7    1  0.2723366E-009  0.1238269E+03  0.7561462E-02  0.1236914E+00
          1   -1    0    0  501    0  0.00000000000E+00  0.00000000000E+00  0.79756062310E+03  0.79756062310E+03  0.00000000000E+00 0. -1.
         -1   -1    0    0    0  501 -0.00000000000E+00 -0.00000000000E+00 -0.22761738543E+02  0.22761738543E+02  0.00000000000E+00 0.  1.
         25    2    1    2    0    0  0.59200778003E+02 -0.26813688134E+02  0.57819941006E+03  0.59513400635E+03  0.12508485812E+03 0.  0.
          5    1    3    3  502    0  0.37379245688E+02 -0.76430053105E+02  0.31066009017E+03  0.32212718769E+03  0.41800000000E+01 0. -1.
         -5    1    3    3    0  502  0.21821532314E+02  0.49616364971E+02  0.26753931989E+03  0.27300681865E+03  0.41800000000E+01 0. -1.
        -11    1    1    2    0    0  0.22685880994E+02  0.82695059140E+01  0.62160196859E+02  0.66685260726E+02  0.00000000000E+00 0. -1.
         11    1    1    2    0    0 -0.81886658997E+02  0.18544182220E+02  0.13443927764E+03  0.15850309457E+03  0.00000000000E+00 0.  1.
</event>
<event>
 7    1  0.2723366E-009  0.7501827E+02  0.7561462E-02  0.1343814E+00
         -2   -1    0    0    0  501 -0.00000000000E+00  0.00000000000E+00  0.13550860749E+03  0.13550860749E+03  0.00000000000E+00 0.  1.
          2   -1    0    0  501    0  0.00000000000E+00 -0.00000000000E+00 -0.94844336990E+02  0.94844336990E+02  0.00000000000E+00 0. -1.
         25    2    1    2    0    0  0.19101882735E+02  0.73297793873E+01  0.51547552820E+02  0.13682988109E+03  0.12508660427E+03 0.  0.
          5    1    3    3  502    0 -0.40084652939E+01 -0.21437298182E+02  0.84384916569E+02  0.87257733707E+02  0.41800000000E+01 0. -1.
         -5    1    3    3    0  502  0.23110348028E+02  0.28767077570E+02 -0.32837363748E+02  0.49572147380E+02  0.41800000000E+01 0. -1.
        -11    1    1    2    0    0 -0.46995013708E+02  0.20518715888E+02 -0.16139084089E+02  0.53758897406E+02  0.00000000000E+00 0. -1.
         11    1    1    2    0    0  0.27893130973E+02 -0.27848495275E+02  0.52558017716E+01  0.39764165989E+02  0.00000000000E+00 0.  1.
</event>
<event>
 7    1  0.2723366E-009  0.1445212E+03  0.7561462E-02  0.1207372E+00
          1   -1    0    0  501    0  0.00000000000E+00  0.00000000000E+00  0.31960327006E+03  0.31960327006E+03  0.00000000000E+00 0. -1.
         -1   -1    0    0    0  501 -0.00000000000E+00 -0.00000000000E+00 -0.87453855958E+02  0.87453855958E+02  0.00000000000E+00 0.  1.
         25    2    1    2    0    0  0.11393705058E+03 -0.47015335372E+02  0.17079053549E+03  0.24496760290E+03  0.12509047207E+03 0.  0.
          5    1    3    3  502    0  0.11450433561E+03  0.25930942330E+01  0.15493145447E+03  0.19271532112E+03  0.41800000000E+01 0. -1.
         -5    1    3    3    0  502 -0.56728502882E+00 -0.49608429605E+02  0.15859081020E+02  0.52252281778E+02  0.41800000000E+01 0. -1.
        -11    1    1    2    0    0 -0.43755369445E+02  0.84451833684E+01  0.68467742713E+02  0.81692626777E+02  0.00000000000E+00 0. -1.
         11    1    1    2    0    0 -0.70181681133E+02  0.38570152004E+02 -0.71088641038E+01  0.80396896340E+02  0.00000000000E+00 0.  1.
</event>
<event>
 7    1  0.2723366E-009  0.1284460E+03  0.7561462E-02  0.1229780E+00
         -3   -1    0    0    0  501 -0.00000000000E+00  0.00000000000E+00  0.71749444549E+03  0.71749444549E+03  0.00000000000E+00 0.  1.
          3   -1    0    0  501    0  0.00000000000E+00 -0.00000000000E+00 -0.27656932334E+02  0.27656932334E+02  0.00000000000E+00 0. -1.
         25    2    1    2    0    0 -0.60651409135E+02  0.66600205932E+02  0.36138238320E+03  0.39288264655E+03  0.12508143833E+03 0.  0.
          5    1    3    3  502    0 -0.22503742279E+02  0.90685542573E+02  0.31265869875E+03  0.32634831140E+03  0.41800000000E+01 0.  1.
         -5    1    3    3    0  502 -0.38147666857E+02 -0.24085336642E+02  0.48723684443E+02  0.66534335147E+02  0.41800000000E+01 0.  1.
        -11    1    1    2    0    0 -0.52869171549E+01  0.13386604995E+02  0.10427677646E+02  0.17773270588E+02  0.00000000000E+00 0.  1.
         11    1    1    2    0    0  0.65938326290E+02 -0.79986810927E+02  0.31802745231E+03  0.33449546068E+03  0.00000000000E+00 0. -1.
</event>
<event>
 7    1  0.2723366E-009  0.1297162E+03  0.7561462E-02  0.1227877E+00
          2   -1    0    0  501    0  0.00000000000E+00  0.00000000000E+00  0.33621067982E+03  0.33621067982E+03  0.00000000000E+00 0.  1.
         -2   -1    0    0    0  501 -0.00000000000E+00 -0.00000000000E+00 -0.51667536006E+02  0.51667536006E+02  0.00000000000E+00 0. -1.
         25    2    1    2    0    0  0.65927985798E+02 -0.27642349917E+02  0.18696371171E+03  0.23603592594E+03  0.12508768931E+03 0.  0.
          5    1    3    3  502    0  0.10308113069E+03 -0.27031925126E+02  0.14064379958E+03  0.17650664362E+03  0.41800000000E+01 0.  1.
         -5    1    3    3    0  502 -0.37153144893E+02 -0.61042479046E+00  0.46319912133E+02  0.59529282323E+02  0.41800000000E+01 0.  1.
        -11    1    1    2    0    0 -0.49432813078E+01 -0.30639390937E+02  0.35196760408E+02  0.46925688597E+02  0.00000000000E+00 0.  1.
         11    1    1    2    0    0 -0.60984704490E+02  0.58281740853E+02  0.62382671698E+02  0.10491660129E+03  0.00000000000E+00 0. -1.
</event>
<event>
 7    1  0.2723366E-009  0.9739403E+02  0.7561462E-02  0.1285873E+00
         -1   -1    0    0    0  501 -0.00000000000E+00  0.00000000000E+00  0.29674692673E+03  0.29674692673E+03  0.00000000000E+00 0.  1.
          1   -1    0    0  501    0  0.00000000000E+00 -0.00000000000E+00 -0.42437960950E+02  0.42437960950E+02  0.00000000000E+00 0. -1.
         25    2    1    2    0    0  0.13176100720E+02 -0.25752556157E+02  0.12434224942E+03  0.17873219423E+03  0.12508956185E+03 0.  0.
          5    1    3    3  502    0  0.92568990429E+01 -0.76354179655E+02  0.67537321619E+02  0.10244224296E+03  0.41800000000E+01 0.  1.
         -5    1    3    3    0  502  0.39192016775E+01  0.50601623498E+02  0.56804927800E+02  0.76289951270E+02  0.41800000000E+01 0.  1.
        -11    1    1    2    0    0 -0.35870167015E+02  0.52499274507E+01  0.12413170012E+03  0.12931708934E+03  0.00000000000E+00 0.  1.
         11    1    1    2    0    0  0.22694066294E+02  0.20502628706E+02  0.58350162346E+01  0.31135604110E+02  0.00000000000E+00 0. -1.
</event>
<event>
 7    1  0.2723366E-009  0.1356244E+03  0.7561462E-02  0.1219341E+00
          2   -1    0    0  501    0  0.00000000000E+00  0.00000000000E+00  0.17902960561E+04  0.17902960561E+04  0.00000000000E+00 0. -1.
         -2   -1    0    0    0  501 -0.00000000000E+00 -0.00000000000E+00 -0.14798073882E+02  0.14798073882E+02  0.00000000000E+00 0.  1.
         25    2    1    2    0    0 -0.13242949409E+02 -0.99109924010E+02  0.13288570579E+04  0.13384720393E+04  0.12509263338E+03 0.  0.
          5    1    3    3  502    0 -0.55446092660E+02 -0.20973629167E+02  0.30319533558E+03  0.30896447406E+03  0.41800000000E+01 0.  1.
         -5    1    3    3    0  502  0.42203143251E+02 -0.78136294842E+02  0.10256617223E+04  0.10295075652E+04  0.41800000000E+01 0.  1.
        -11    1    1    2    0    0  0.11761707012E+02  0.11065473240E+03  0.43854769526E+03  0.45244545370E+03  0.00000000000E+00 0. -1.
         11    1    1    2    0    0  0.14812423972E+01 -0.11544808388E+02  0.80932290852E+01  0.14176637006E+02  0.00000000000E+00 0.  1.
</event>
<event>
 7    1  0.2723366E-009  0.8880585E+02  0.7561462E-02  0.1305770E+00
          1   -1    0    0  501    0  0.00000000000E+00  0.00000000000E+00  0.98532630923E+03  0.98532630923E+03  0.00000000000E+00 0. -1.
         -1   -1    0    0    0  501 -0.00000000000E+00 -0.00000000000E+00 -0.32507504748E+02  0.32507504748E+02  0.00000000000E+00 0.  1.
         25    2    1    2    0    0 -0.55852491231E+02 -0.62264908077E+02  0.82974476763E+03  0.84327929522E+03  0.12508865170E+03 0.  0.
          5    1    3    3  502    0 -0.29414108898E+02 -0.21791051918E+02  0.50431330162E+02  0.62456634619E+02  0.41800000000E+01 0. -1.
         -5    1    3    3    0  502 -0.26438382333E+02 -0.40473856159E+02  0.77931343746E+03  0.78082266060E+03  0.41800000000E+01 0. -1.
        -11    1    1    2    0    0  0.41292890676E+02  0.65404456782E+02  0.34426099076E+02  0.84664054267E+02  0.00000000000E+00 0.  1.
         11    1    1    2    0    0  0.14559600555E+02 -0.31395487053E+01  0.88647937777E+02  0.89890464492E+02  0.00000000000E+00 0. -1.
</event>
<event>
 7    1  0.2723366E-009  0.1533008E+03  0.7561462E-02  0.1196475E+00
         -1   -1    0    0    0  501 -0.00000000000E+00  0.00000000000E+00  0.62660841294E+02  0.62660841294E+02  0.00000000000E+00 0.  1.
          1   -1    0    0  501    0  0.00000000000E+00 -0.00000000000E+00 -0.45160129952E+03  0.45160129952E+03  0.00000000000E+00 0. -1.
         25    2    1    2    0    0 -0.58895207876E+02 -0.10147885322E+03 -0.28562783626E+03  0.33316297740E+03  0.12509078905E+03 0.  0.
          5    1    3    3  502    0 -0.62790627100E+02 -0.12162405638E+03 -0.27966273661E+03  0.31139009713E+03  0.41800000000E+01 0.  1.
         -5    1    3    3    0  502  0.38954192240E+01  0.20145203162E+02 -0.59650996408E+01  0.21772880266E+02  0.41800000000E+01 0.  1.
        -11    1    1    2    0    0 -0.22981016050E+02  0.77148918738E+01 -0.15822688039E+02  0.28948300677E+02  0.00000000000E+00 0.  1.
         11    1    1    2    0    0  0.81876223926E+02  0.93763961348E+02 -0.87489933930E+02  0.15215086273E+03  0.00000000000E+00 0. -1.
</event>
<event>
 7    1  0.5473907E-009  0.2273563E+03  0.7561462E-02  0.1128514E+00
         -2   -1    0    0    0  501 -0.00000000000E+00  0.00000000000E+00  0.33465545697E+02  0.33465545697E+02  0.00000000000E+00 0.  1.
          2   -1    0    0  501    0  0.00000000000E+00 -0.00000000000E+00 -0.16492959966E+04  0.16492959966E+04  0.00000000000E+00 0. -1.
         25    2    1    2    0    0 -0.75590990578E+02  0.19372908498E+03 -0.82996154495E+03  0.86471018437E+03  0.12507030270E+03 0.  0.
          5    1    3    3  502    0 -0.90872463336E+02  0.19632955272E+03 -0.67299976218E+03  0.70692945204E+03  0.41800000000E+01 0. -1.
         -5    1    3    3    0  502  0.15281472757E+02 -0.26004677412E+01 -0.15696178277E+03  0.15778073232E+03  0.41800000000E+01 0. -1.
        -11    1    1    2    0    0 -0.97149979766E+01 -0.77478554901E+02 -0.20008887359E+03  0.21478562566E+03  0.00000000000E+00 0.  1.
         11    1    1    2    0    0  0.85305988555E+02 -0.11625053008E+03 -0.58578003240E+03  0.60326573231E+03  0.00000000000E+00 0. -1.
</event>
<event>
 7    1  0.2723366E-009  0.8233278E+02  0.7561462E-02  0.1322559E+00
         -1   -1    0    0    0  501 -0.00000000000E+00  0.00000000000E+00  0.12354461615E+03  0.12354461615E+03  0.00000000000E+00 0.  1.
          1   -1    0    0  501    0  0.00000000000E+00 -0.00000000000E+00 -0.10533348157E+03  0.10533348157E+03  0.00000000000E+00 0. -1.
         25    2    1    2    0    0  0.29554136606E+02 -0.96851245178E+01  0.28324722248E+02  0.13197277549E+03  0.12508906808E+03 0.  0.
          5    1    3    3  502    0  0.40156597439E+02  0.16521458264E+02  0.69377635631E+02  0.81952666990E+02  0.41800000000E+01 0.  1.
         -5    1    3    3    0  502 -0.10602460833E+02 -0.26206582782E+02 -0.41052913384E+02  0.50020108497E+02  0.41800000000E+01 0.  1.
        -11    1    1    2    0    0  0.16167787395E+02 -0.28584859473E+02  0.94164210762E+01  0.34163731152E+02  0.00000000000E+00 0.  1.
         11    1    1    2    0    0 -0.45721924001E+02  0.38269983990E+02 -0.19530008747E+02  0.62741591075E+02  0.00000000000E+00 0. -1.
</event>
<event>
 7    1  0.2723366E-009  0.1039365E+03  0.7561462E-02  0.1272229E+00
          1   -1    0    0  501    0  0.00000000000E+00  0.00000000000E+00  0.75591470991E+03  0.75591470991E+03  0.00000000000E+00 0. -1.
         -1   -1    0    0    0  501 -0.00000000000E+00 -0.00000000000E+00 -0.15802207439E+02  0.15802207439E+02  0.00000000000E+00 0.  1.
         25    2    1    2    0    0  0.33100018361E+01 -0.15260769795E+02  0.39839849611E+03  0.41786499932E+03  0.12508376692E+03 0.  0.
          5    1    3    3  502    0 -0.52353324479E+02 -0.28710693488E+02  0.12617810858E+03  0.13965515382E+03  0.41800000000E+01 0.  1.
         -5    1    3    3    0  502  0.55663326315E+02  0.13449923693E+02  0.27222038753E+03  0.27820984549E+03  0.41800000000E+01 0.  1.
        -11    1    1    2    0    0 -0.26765240673E+02  0.45222508206E+02  0.22654639439E+03  0.23256122241E+03  0.00000000000E+00 0. -1.
         11    1    1    2    0    0  0.23455238837E+02 -0.29961738411E+02  0.11516761197E+03  0.12129069562E+03  0.00000000000E+00 0.  1.
</event>
<event>
 7    1  0.2723366E-009  0.2377669E+03  0.7561462E-02  0.1121289E+00
         -1   -1    0    0    0  501 -0.00000000000E+00  0.00000000000E+00  0.18657518540E+03  0.18657518540E+03  0.00000000000E+00 0.  1.
          1   -1    0    0  501    0  0.00000000000E+00 -0.00000000000E+00 -0.48250015142E+03  0.48250015142E+03  0.00000000000E+00 0. -1.
         25    2    1    2    0    0 -0.19332376955E+03 -0.10760148120E+03  0.39247043314E+02  0.25717649720E+03  0.12508901501E+03 0.  0.
          5    1    3    3  502    0 -0.14161082162E+03 -0.33111518105E+02  0.69837497981E+02  0.16138384664E+03  0.41800000000E+01 0. -1.
         -5    1    3    3    0  502 -0.51712947925E+02 -0.74489963100E+02 -0.30590454667E+02  0.95792650566E+02  0.41800000000E+01 0. -1.
        -11    1    1    2    0    0  0.22173815032E+02 -0.16684469672E+02 -0.34357454932E+02  0.44164287730E+02  0.00000000000E+00 0.  1.
         11    1    1    2    0    0  0.17114995451E+03  0.12428595088E+03 -0.30081455440E+03  0.36773455189E+03  0.00000000000E+00 0. -1.
</event>
<event>
 7    1  0.2723366E-009  0.1083126E+03  0.7561462E-02  0.1263727E+00
         -3   -1    0    0    0  501 -0.00000000000E+00  0.00000000000E+00  0.14317067272E+03  0.14317067272E+03  0.00000000000E+00 0.  1.
          3   -1    0    0  501    0  0.00000000000E+00 -0.00000000000E+00 -0.11174500470E+03  0.11174500470E+03  0.00000000000E+00 0. -1.
         25    2    1    2    0    0 -0.33425217642E+02 -0.34736590454E+02  0.60378252626E+02  0.14702821958E+03  0.12509151879E+03 0.  0.
          5    1    3    3  502    0 -0.48513145059E+02 -0.63591251489E+02  0.20769047812E+01  0.80119650791E+02  0.41800000000E+01 0. -1.
         -5    1    3    3    0  502  0.15087927417E+02  0.28854661034E+02  0.58301347845E+02  0.66908568791E+02  0.41800000000E+01 0. -1.
        -11    1    1    2    0    0 -0.25154522380E+02  0.37390163362E+02 -0.90635684285E+01  0.45966537666E+02  0.00000000000E+00 0.  1.
         11    1    1    2    0    0  0.58579740022E+02 -0.26535729075E+01 -0.19889016186E+02  0.61920920173E+02  0.00000000000E+00 0. -1.
</event>
<event>
 7    1  0.2723366E-009  0.9962668E+02  0.7561462E-02  0.1281083E+00
         -2   -1    0    0    0  501 -0.00000000000E+00  0.00000000000E+00  0.42445421484E+02  0.42445421484E+02  0.00000000000E+00 0.  1.
          2   -1    0    0  501    0  0.00000000000E+00 -0.00000000000E+00 -0.31294638302E+03  0.31294638302E+03  0.00000000000E+00 0. -1.
         25    2    1    2    0    0 -0.36770378266E+02  0.14292433930E+02 -0.13837200282E+03  0.19065598323E+03  0.12508620384E+03 0.  0.
          5    1    3    3  502    0 -0.50622373669E+02 -0.45951434400E+02 -0.62742134832E+02  0.92888141991E+02  0.41800000000E+01 0. -1.
         -5    1    3    3    0  502  0.13851995403E+02  0.60243868330E+02 -0.75629867990E+02  0.97767841237E+02  0.41800000000E+01 0. -1.
        -11    1    1    2    0    0  0.25350537765E+02  0.20233546062E+02 -0.53865640804E+01  0.32879495492E+02  0.00000000000E+00 0.  1.
         11    1    1    2    0    0  0.11419840501E+02 -0.34525979992E+02 -0.12674239464E+03  0.13185632579E+03  0.00000000000E+00 0. -1.
</event>
<event>
 7    1  0.2723366E-009  0.9349362E+02  0.7561462E-02  0.1294605E+00
         -1   -1    0    0    0  501 -0.00000000000E+00  0.00000000000E+00  0.12380198225E+03  0.12380198225E+03  0.00000000000E+00 0.  1.
          1   -1    0    0  501    0  0.00000000000E+00 -0.00000000000E+00 -0.15357002250E+03  0.15357002250E+03  0.00000000000E+00 0. -1.
         25    2    1    2    0    0  0.26463013087E+02 -0.46353875428E+02  0.50682715934E+02  0.14513775171E+03  0.12508899411E+03 0.  0.
          5    1    3    3  502    0  0.98365509240E+01  0.26660437993E+02  0.62901279767E+02  0.69148970234E+02  0.41800000000E+01 0. -1.
         -5    1    3    3    0  502  0.16626462163E+02 -0.73014313421E+02 -0.12218563833E+02  0.75988781478E+02  0.41800000000E+01 0. -1.
        -11    1    1    2    0    0 -0.45137956836E+02  0.46198045753E+02 -0.90377316027E+02  0.11108444460E+03  0.00000000000E+00 0. -1.
         11    1    1    2    0    0  0.18674943748E+02  0.15582967485E+00  0.99265598469E+01  0.21149808446E+02  0.00000000000E+00 0.  1.
</event>
<event>
 7    1  0.2723366E-009  0.1653855E+03  0.7561462E-02  0.1182747E+00
          1   -1    0    0  501    0  0.00000000000E+00  0.00000000000E+00  0.16737164896E+03  0.16737164896E+03  0.00000000000E+00 0. -1.
         -1   -1    0    0    0  501 -0.00000000000E+00 -0.00000000000E+00 -0.18231155092E+03  0.18231155092E+03  0.00000000000E+00 0.  1.
         25    2    1    2    0    0 -0.10072522315E+03 -0.92741742462E+02 -0.10473739588E+02  0.18574808820E+03  0.12508417836E+03 0.  0.
          5    1    3    3  502    0  0.21143069459E+02 -0.51498611541E+02 -0.11591854899E+02  0.57017364696E+02  0.41800000000E+01 0. -1.
         -5    1    3    3    0  502 -0.12186829261E+03 -0.41243130921E+02  0.11181153104E+01  0.12873072351E+03  0.41800000000E+01 0. -1.
        -11    1    1    2    0    0  0.14373424100E+02  0.45652723570E+02 -0.36828491435E+02  0.60391259890E+02  0.00000000000E+00 0.  1.
         11    1    1    2    0    0  0.86351799054E+02  0.47089018892E+02  0.32362329060E+02  0.10354385178E+03  0.00000000000E+00 0. -1.
</event>
<event>
 7    1  0.2723366E-009  0.9143035E+02  0.7561462E-02  0.1299424E+00
         -4   -1    0    0    0  501 -0.00000000000E+00  0.00000000000E+00  0.43180634614E+02  0.43180634614E+02  0.00000000000E+00 0. -1.
          4   -1    0    0  501    0  0.00000000000E+00 -0.00000000000E+00 -0.44006634553E+03  0.44006634553E+03  0.00000000000E+00 0.  1.
         25    2    1    2    0    0 -0.75206727773E+02  0.32568027795E+02 -0.25208305871E+03  0.29310512237E+03  0.12509202986E+03 0.  0.
          5    1    3    3  502    0 -0.14746714760E+02 -0.76968877436E+01 -0.20657275657E+03  0.20728358313E+03  0.41800000000E+01 0.  1.
         -5    1    3    3    0  502 -0.60460013012E+02  0.40264915538E+02 -0.45510302136E+02  0.85821539238E+02  0.41800000000E+01 0.  1.
        -11    1    1    2    0    0  0.37340040090E+02 -0.39606316127E+02 -0.17555984748E+02  0.57193981079E+02  0.00000000000E+00 0. -1.
         11    1    1    2    0    0  0.37866687682E+02  0.70382883329E+01 -0.12724666746E+03  0.13294787670E+03  0.00000000000E+00 0.  1.
</event>
<event>
 7    1  0.2723366E-009  0.1182671E+03  0.7561462E-02  0.1245983E+00
          2   -1    0    0  501    0  0.00000000000E+00  0.00000000000E+00  0.53360295085E+02  0.53360295085E+02  0.00000000000E+00 0. -1.
         -2   -1    0    0    0  501 -0.00000000000E+00 -0.00000000000E+00 -0.34984763748E+03  0.34984763748E+03  0.00000000000E+00 0.  1.
         25    2    1    2    0    0  0.82992437926E+02  0.95397269192E+00 -0.15813268028E+03  0.21804166315E+03  0.12509023735E+03 0.  0.
          5    1    3    3  502    0  0.97829743840E+02 -0.11782414015E+01 -0.17152524841E+03  0.19751058269E+03  0.41800000000E+01 0.  1.
         -5    1    3    3    0  502 -0.14837305914E+02  0.21322140934E+01  0.13392568130E+02  0.20531080459E+02  0.41800000000E+01 0.  1.
        -11    1    1    2    0    0  0.40102078440E+01 -0.30805322237E+02 -0.36259092131E+02  0.47746951811E+02  0.00000000000E+00 0.  1.
         11    1    1    2    0    0 -0.87002645770E+02  0.29851349546E+02 -0.10209556999E+03  0.13741931761E+03  0.00000000000E+00 0. -1.
</event>
<event>
 7    1  0.2723366E-009  0.1110048E+03  0.7561462E-02  0.1258720E+00
         -2   -1    0    0    0  501 -0.00000000000E+00  0.00000000000E+00  0.14406533683E+03  0.14406533683E+03  0.00000000000E+00 0.  1.
          2   -1    0    0  501    0  0.00000000000E+00 -0.00000000000E+00 -0.10627102714E+03  0.10627102714E+03  0.00000000000E+00 0. -1.
         25    2    1    2    0    0  0.16990305909E+02  0.54705987844E+02  0.41182744084E+02  0.14361453964E+03  0.12509077498E+03 0.  0.
          5    1    3    3  502    0  0.23958301545E+01 -0.33166330846E+02  0.42881067332E+02  0.54424294570E+02  0.41800000000E+01 0.  1.
         -5    1    3    3    0  502  0.14594475754E+02  0.87872318691E+02 -0.16983232481E+01  0.89190245075E+02  0.41800000000E+01 0.  1.
        -11    1    1    2    0    0  0.26252950135E+02 -0.49150579948E+02  0.17461253859E+02  0.58394282994E+02  0.00000000000E+00 0.  1.
         11    1    1    2    0    0 -0.43243256044E+02 -0.55554078957E+01 -0.20849688252E+02  0.48327541324E+02  0.00000000000E+00 0. -1.
</event>
<event>
 7    1  0.2723366E-009  0.7812976E+02  0.7561462E-02  0.1334444E+00
         -2   -1    0    0    0  501 -0.00000000000E+00  0.00000000000E+00  0.11816995064E+03  0.11816995064E+03  0.00000000000E+00 0. -1.
          2   -1    0    0  501    0  0.00000000000E+00 -0.00000000000E+00 -0.16000908678E+03  0.16000908678E+03  0.00000000000E+00 0.  1.
         25    2    1    2    0    0  0.22316492553E+02  0.12486921679E+02 -0.10457206108E+03  0.16503707278E+03  0.12509184778E+03 0.  0.
          5    1    3    3  502    0  0.12521037401E+02  0.39841309995E+02 -0.12327945630E+03  0.13022827307E+03  0.41800000000E+01 0. -1.
         -5    1    3    3    0  502  0.97954551513E+01 -0.27354388315E+02  0.18707395219E+02  0.34808799715E+02  0.41800000000E+01 0. -1.
        -11    1    1    2    0    0  0.29905765057E+02  0.39972589706E+01  0.40543003013E+00  0.30174446746E+02  0.00000000000E+00 0.  1.
         11    1    1    2    0    0 -0.52222257610E+02 -0.16484180650E+02  0.62327494915E+02  0.82967517885E+02  0.00000000000E+00 0. -1.
</event>
<event>
 7    1  0.2723366E-009  0.1272835E+03  0.7561462E-02  0.1231543E+00
          2   -1    0    0  501    0  0.00000000000E+00  0.00000000000E+00  0.58999013644E+03  0.58999013644E+03  0.00000000000E+00 0. -1.
         -2   -1    0    0    0  501 -0.00000000000E+00 -0.00000000000E+00 -0.40464781497E+02  0.40464781497E+02  0.00000000000E+00 0.  1.
         25    2    1    2    0    0 -0.69425671423E+02  0.71207011726E+02  0.38879401314E+03  0.42035569125E+03  0.12509100744E+03 0.  0.
          5    1    3    3  502    0 -0.96422806168E+02  0.55901776364E+02  0.20013347338E+03  0.22911404522E+03  0.41800000000E+01 0.  1.
         -5    1    3    3    0  502  0.26997134746E+02  0.15305235362E+02  0.18866053976E+03  0.19124164603E+03  0.41800000000E+01 0.  1.
        -11    1    1    2    0    0  0.17571550666E+02 -0.54464603191E+02  0.14095790382E+03  0.15213245230E+03  0.00000000000E+00 0.  1.
         11    1    1    2    0    0  0.51854120757E+02 -0.16742408535E+02  0.19773437983E+02  0.57966774385E+02  0.00000000000E+00 0. -1.
</event>
<event>
 7    1  0.2723366E-009  0.8388458E+02  0.7561462E-02  0.1318376E+00
          1   -1    0    0  501    0  0.00000000000E+00  0.00000000000E+00  0.28126657202E+02  0.28126657202E+02  0.00000000000E+00 0. -1.
         -1   -1    0    0    0  501 -0.00000000000E+00 -0.00000000000E+00 -0.54072850094E+03  0.54072850094E+03  0.00000000000E+00 0.  1.
         25    2    1    2    0    0 -0.45661211269E+02 -0.68095651273E+01 -0.25534381867E+03  0.28806080402E+03  0.12508894711E+03 0.  0.
          5    1    3    3  502    0 -0.33214646292E+02  0.11029928344E+02 -0.36961580374E+01  0.35440175392E+02  0.41800000000E+01 0.  1.
         -5    1    3    3    0  502 -0.12446564977E+02 -0.17839493471E+02 -0.25164766063E+03  0.25262062863E+03  0.41800000000E+01 0.  1.
        -11    1    1    2    0    0 -0.17095291142E+02  0.36979643931E+02 -0.69771548106E+02  0.80794875887E+02  0.00000000000E+00 0. -1.
         11    1    1    2    0    0  0.62756502411E+02 -0.30170078804E+02 -0.18748647697E+03  0.19999947824E+03  0.00000000000E+00 0.  1.
</event>
<event>
 7    1  0.2723366E-009  0.1658397E+03  0.7561462E-02  0.1182257E+00
          1   -1    0    0  501    0  0.00000000000E+00  0.00000000000E+00  0.64219792713E+03  0.64219792713E+03  0.00000000000E+00 0. -1.
         -1   -1    0    0    0  501 -0.00000000000E+00 -0.00000000000E+00 -0.47923078654E+02  0.47923078654E+02  0.00000000000E+00 0.  1.
         25    2    1    2    0    0 -0.38091731759E+02  0.13204579360E+03  0.32071934053E+03  0.37066907746E+03  0.12509035919E+03 0.  0.
          5    1    3    3  502    0  0.20251429387E+02  0.12186295631E+03  0.18455265615E+03  0.22212126373E+03  0.41800000000E+01 0. -1.
         -5    1    3    3    0  502 -0.58343161146E+02  0.10182837295E+02  0.13616668439E+03  0.14854781373E+03  0.41800000000E+01 0. -1.
        -11    1    1    2    0    0  0.51915144898E+02 -0.11838293282E+03  0.27046958593E+03  0.29977241028E+03  0.00000000000E+00 0.  1.
         11    1    1    2    0    0 -0.13823413139E+02 -0.13662860779E+02  0.30859220134E+01  0.19679518036E+02  0.00000000000E+00 0. -1.
</event>
<event>
 7    1  0.2723366E-009  0.1593982E+03  0.7561462E-02  0.1189378E+00
         -2   -1    0    0    0  501 -0.00000000000E+00  0.00000000000E+00  0.12562503791E+04  0.12562503791E+04  0.00000000000E+00 0. -1.
          2   -1    0    0  501    0  0.00000000000E+00 -0.00000000000E+00 -0.22161748441E+02  0.22161748441E+02  0.00000000000E+00 0.  1.
         25    2    1    2    0    0 -0.11900936505E+03 -0.31495596425E+02  0.75691140720E+03  0.77699066966E+03  0.12507765916E+03 0.  0.
          5    1    3    3  502    0 -0.56354487633E+02 -0.77742868354E+02  0.36849967797E+03  0.38082708270E+03  0.41800000000E+01 0.  1.
         -5    1    3    3    0  502 -0.62654877422E+02  0.46247271929E+02  0.38841172923E+03  0.39616358696E+03  0.41800000000E+01 0.  1.
        -11    1    1    2    0    0  0.65024304136E+02  0.55621713820E+02  0.19239768012E+03  0.21056780972E+03  0.00000000000E+00 0.  1.
         11    1    1    2    0    0  0.53985060918E+02 -0.24126117395E+02  0.28477954338E+03  0.29085364820E+03  0.00000000000E+00 0. -1.
</event>
<event>
 7    1  0.2723366E-009  0.1393239E+03  0.7561462E-02  0.1214242E+00
          1   -1    0    0  501    0  0.00000000000E+00  0.00000000000E+00  0.94704928705E+03  0.94704928705E+03  0.00000000000E+00 0. -1.
         -1   -1    0    0    0  501 -0.00000000000E+00 -0.00000000000E+00 -0.24965174438E+02  0.24965174438E+02  0.00000000000E+00 0.  1.
         25    2    1    2    0    0  0.10821575599E+03  0.25024380634E+01  0.54534626722E+03  0.56988348928E+03  0.12509087957E+03 0.  0.
          5    1    3    3  502    0 -0.11708811438E+02  0.12546511886E+02  0.83240505304E+01  0.19526224495E+02  0.41800000000E+01 0. -1.
         -5    1    3    3    0  502  0.11992456743E+03 -0.10044073822E+02  0.53702221669E+03  0.55035726479E+03  0.41800000000E+01 0. -1.
        -11    1    1    2    0    0 -0.11571964427E+01 -0.30009544780E+02  0.85650993133E+02  0.90763453583E+02  0.00000000000E+00 0.  1.
         11    1    1    2    0    0 -0.10705855955E+03  0.27507106717E+02  0.29108685227E+03  0.31136751862E+03  0.00000000000E+00 0. -1.
</event>
<event>
 7    1  0.2723366E-009  0.1193300E+03  0.7561462E-02  0.1244206E+00
         -1   -1    0    0    0  501 -0.00000000000E+00  0.00000000000E+00  0.12151736963E+03  0.12151736963E+03  0.00000000000E+00 0.  1.
          1   -1    0    0  501    0  0.00000000000E+00 -0.00000000000E+00 -0.16271839893E+03  0.16271839893E+03  0.00000000000E+00 0. -1.
         25    2    1    2    0    0  0.52481210595E+02  0.69175203532E+02 -0.43721604993E+02  0.15842541787E+03  0.12509015963E+03 0.  0.
          5    1    3    3  502    0 -0.29302140666E+02  0.61471677253E+02 -0.77965932451E+01  0.68670530930E+02  0.41800000000E+01 0.  1.
         -5    1    3    3    0  502  0.81783351262E+02  0.77035262794E+01 -0.35925011748E+02  0.89754886941E+02  0.41800000000E+01 0.  1.
        -11    1    1    2    0    0 -0.39906926135E+02 -0.61916410039E+02  0.41265984369E+02  0.84433915292E+02  0.00000000000E+00 0.  1.
         11    1    1    2    0    0 -0.12574284460E+02 -0.72587934930E+01 -0.38745408679E+02  0.41376435399E+02  0.00000000000E+00 0. -1.
</event>
<event>
 7    1  0.2723366E-009  0.1630646E+03  0.7561462E-02  0.1185280E+00
         -2   -1    0    0    0  501 -0.00000000000E+00  0.00000000000E+00  0.11902265177E+04  0.11902265177E+04  0.00000000000E+00 0.  1.
          2   -1    0    0  501    0  0.00000000000E+00 -0.00000000000E+00 -0.23709070667E+02  0.23709070667E+02  0.00000000000E+00 0. -1.
         25    2    1    2    0    0 -0.11885798252E+03 -0.46709219796E+02  0.63975830889E+03  0.66426508658E+03  0.12509372576E+03 0.  0.
          5    1    3    3  502    0 -0.51271507087E+02 -0.84475743103E+02  0.30461091735E+03  0.32026583018E+03  0.41800000000E+01 0. -1.
         -5    1    3    3    0  502 -0.67586475438E+02  0.37766523307E+02  0.33514739155E+03  0.34399925640E+03  0.41800000000E+01 0. -1.
        -11    1    1    2    0    0  0.24945471978E+02 -0.22050757940E+02  0.20107112794E+03  0.20380900615E+03  0.00000000000E+00 0.  1.
         11    1    1    2    0    0  0.93912510546E+02  0.68759977736E+02  0.32568801019E+03  0.34586149563E+03  0.00000000000E+00 0. -1.
</event>
<event>
 7    1  0.2723366E-009  0.9774150E+02  0.7561462E-02  0.1285118E+00
         -2   -1    0    0    0  501 -0.00000000000E+00  0.00000000000E+00  0.55322792192E+02  0.55322792192E+02  0.00000000000E+00 0.  1.
          2   -1    0    0  501    0  0.00000000000E+00 -0.00000000000E+00 -0.22472156543E+03  0.22472156543E+03  0.00000000000E+00 0. -1.
         25    2    1    2    0    0 -0.68453204275E+01  0.21335810257E+02 -0.11125407468E+03  0.16890127519E+03  0.12509235156E+03 0.  0.
          5    1    3    3  502    0 -0.84605630419E+01 -0.40540736155E+02 -0.96555117735E+02  0.10514511675E+03  0.41800000000E+01 0. -1.
         -5    1    3    3    0  502  0.16152426144E+01  0.61876546411E+02 -0.14698956943E+02  0.63756158445E+02  0.41800000000E+01 0. -1.
        -11    1    1    2    0    0 -0.38300297068E+02  0.64051916071E+01 -0.38354719412E+02  0.54580433639E+02  0.00000000000E+00 0.  1.
         11    1    1    2    0    0  0.45145617495E+02 -0.27741001864E+02 -0.19789979147E+02  0.56562648789E+02  0.00000000000E+00 0. -1.
</event>
<event>
 7    1  0.2723366E-009  0.1031257E+03  0.7561462E-02  0.1273857E+00
         -2   -1    0    0    0  501 -0.00000000000E+00  0.00000000000E+00  0.41608600863E+02  0.41608600863E+02  0.00000000000E+00 0.  1.
          2   -1    0    0  501    0  0.00000000000E+00 -0.00000000000E+00 -0.35747794515E+03  0.35747794515E+03  0.00000000000E+00 0. -1.
         25    2    1    2    0    0 -0.30993800936E+02 -0.45408356144E+02 -0.16783065883E+03  0.21641744328E+03  0.12508735030E+03 0.  0.
          5    1    3    3  502    0 -0.25195453354E+02 -0.74131945477E+02 -0.45706596365E+02  0.90757487631E+02  0.41800000000E+01 0.  1.
         -5    1    3    3    0  502 -0.57983475827E+01  0.28723589332E+02 -0.12212406247E+03  0.12565995564E+03  0.41800000000E+01 0.  1.
        -11    1    1    2    0    0 -0.15425747551E+02  0.49304074434E+02 -0.11341975146E+03  0.12463099720E+03  0.00000000000E+00 0.  1.
         11    1    1    2    0    0  0.46419548487E+02 -0.38957182899E+01 -0.34618933993E+02  0.58038105531E+02  0.00000000000E+00 0. -1.
</event>
<event>
 7    1  0.2723366E-009  0.1344806E+03  0.7561462E-02  0.1220955E+00
         -2   -1    0    0    0  501 -0.00000000000E+00  0.00000000000E+00  0.70851892423E+02  0.70851892423E+02  0.00000000000E+00 0.  1.
          2   -1    0    0  501    0  0.00000000000E+00 -0.00000000000E+00 -0.44496203417E+03  0.44496203417E+03  0.00000000000E+00 0. -1.
         25    2    1    2    0    0 -0.58724034008E+02 -0.91338586495E+02 -0.32657035246E+03  0.36617671602E+03  0.12508374274E+03 0.  0.
          5    1    3    3  502    0 -0.45535716400E+02 -0.10058741798E+03 -0.13758867759E+03  0.17646372637E+03  0.41800000000E+01 0. -1.
         -5    1    3    3    0  502 -0.13188317608E+02  0.92488314863E+01 -0.18898167487E+03  0.18971298965E+03  0.41800000000E+01 0. -1.
        -11    1    1    2    0    0 -0.18986690352E+02 -0.34044735378E+01 -0.50048081736E+01  0.19928194987E+02  0.00000000000E+00 0.  1.
         11    1    1    2    0    0  0.77710724360E+02  0.94743060033E+02 -0.42534981111E+02  0.12970901558E+03  0.00000000000E+00 0. -1.
</event>
<event>
 7    1  0.2723366E-009  0.1061202E+03  0.7561462E-02  0.1267928E+00
         -2   -1    0    0    0  501 -0.00000000000E+00  0.00000000000E+00  0.44534572319E+02  0.44534572319E+02  0.00000000000E+00 0. -1.
          2   -1    0    0  501    0  0.00000000000E+00 -0.00000000000E+00 -0.61497180268E+03  0.61497180268E+03  0.00000000000E+00 0.  1.
         25    2    1    2    0    0 -0.34508817539E+02  0.31605716433E+02 -0.54123158073E+03  0.55746703728E+03  0.12509234136E+03 0.  0.
          5    1    3    3  502    0 -0.64652699308E+02  0.47965136779E+02 -0.48359763792E+03  0.49027010277E+03  0.41800000000E+01 0. -1.
         -5    1    3    3    0  502  0.30143881769E+02 -0.16359420347E+02 -0.57633942817E+02  0.67196934505E+02  0.41800000000E+01 0. -1.
        -11    1    1    2    0    0 -0.57642904286E+01  0.26089070122E+02 -0.27100417998E+01  0.26855370981E+02  0.00000000000E+00 0.  1.
         11    1    1    2    0    0  0.40273107968E+02 -0.57694786555E+02 -0.26495607830E+02  0.75183966744E+02  0.00000000000E+00 0. -1.
</event>
<event>
 7    1  0.2723366E-009  0.1518876E+03  0.7561462E-02  0.1198173E+00
          1   -1    0    0  501    0  0.00000000000E+00  0.00000000000E+00  0.32668780861E+03  0.32668780861E+03  0.00000000000E+00 0. -1.
         -1   -1    0    0    0  501 -0.00000000000E+00 -0.00000000000E+00 -0.81249449869E+02  0.81249449869E+02  0.00000000000E+00 0.  1.
         25    2    1    2    0    0 -0.67556105669E+01 -0.12124206506E+03  0.13859788127E+03  0.22272281294E+03  0.12510316582E+03 0.  0.
          5    1    3    3  502    0  0.24715758622E+02 -0.12856942728E+03  0.13780901582E+03  0.19013091173E+03  0.41800000000E+01 0.  1.
         -5    1    3    3    0  502 -0.31471369189E+02  0.73273622214E+01  0.78886545074E+00  0.32591901210E+02  0.41800000000E+01 0.  1.
        -11    1    1    2    0    0 -0.31510007901E+02  0.64178521454E+02  0.89130149431E+02  0.11426262185E+03  0.00000000000E+00 0. -1.
         11    1    1    2    0    0  0.38265618468E+02  0.57063543602E+02  0.17710328037E+02  0.70951823686E+02  0.00000000000E+00 0.  1.
</event>
<event>
 7    1  0.2723366E-009  0.9561414E+02  0.7561462E-02  0.1289799E+00
         -2   -1    0    0    0  501 -0.00000000000E+00  0.00000000000E+00  0.97779394333E+02  0.97779394333E+02  0.00000000000E+00 0.  1.
          2   -1    0    0  501    0  0.00000000000E+00 -0.00000000000E+00 -0.16152855914E+03  0.16152855914E+03  0.00000000000E+00 0. -1.
         25    2    1    2    0    0 -0.28033882333E+02 -0.13049625132E+02 -0.99187201062E+02  0.16260848478E+03  0.12508887718E+03 0.  0.
          5    1    3    3  502    0 -0.12775880978E+02 -0.54964013146E+02 -0.31921677050E+01  0.56673875909E+02  0.41800000000E+01 0.  1.
         -5    1    3    3    0  502 -0.15258001354E+02  0.41914388014E+02 -0.95995033357E+02  0.10593460887E+03  0.41800000000E+01 0.  1.
        -11    1    1    2    0    0  0.14971158059E+02 -0.36050592374E+02  0.17960613162E+02  0.42969342668E+02  0.00000000000E+00 0.  1.
         11    1    1    2    0    0  0.13062724274E+02  0.49100217506E+02  0.17477423092E+02  0.53730126024E+02  0.00000000000E+00 0. -1.
</event>
<event>
 7    1  0.2723366E-009  0.1077269E+03  0.7561462E-02  0.1264838E+00
         -3   -1    0    0    0  501 -0.00000000000E+00  0.00000000000E+00  0.67206436207E+03  0.67206436207E+03  0.00000000000E+00 0.  1.
          3   -1    0    0  501    0  0.00000000000E+00 -0.00000000000E+00 -0.20187989359E+02  0.20187989359E+02  0.00000000000E+00 0. -1.
         25    2    1    2    0    0 -0.39610054012E+02  0.11934079164E+02  0.39609412905E+03  0.41742924551E+03  0.12508092308E+03 0.  0.
          5    1    3    3  502    0  0.34654322130E+02 -0.30284692705E+02  0.14051687842E+03  0.14792075640E+03  0.41800000000E+01 0.  1.
         -5    1    3    3    0  502 -0.74264376142E+02  0.42218771870E+02  0.25557725063E+03  0.26950848911E+03  0.41800000000E+01 0.  1.
        -11    1    1    2    0    0  0.27978817343E+02 -0.42571367166E+02  0.72342914734E+02  0.88479561677E+02  0.00000000000E+00 0. -1.
         11    1    1    2    0    0  0.11631236669E+02  0.30637288002E+02  0.18343932893E+03  0.18634354424E+03  0.00000000000E+00 0.  1.
</event>
<event>
 7    1  0.2723366E-009  0.8472523E+02  0.7561462E-02  0.1316153E+00
          2   -1    0    0  501    0  0.00000000000E+00  0.00000000000E+00  0.24759058896E+03  0.24759058896E+03  0.00000000000E+00 0. -1.
         -2   -1    0    0    0  501 -0.00000000000E+00 -0.00000000000E+00 -0.54990776268E+02  0.54990776268E+02  0.00000000000E+00 0.  1.
         25    2    1    2    0    0 -0.17230503196E+02 -0.20196573451E+02  0.15067014701E+03  0.19762206736E+03  0.12509275154E+03 0.  0.
          5    1    3    3  502    0 -0.45690164979E+02 -0.60042984554E+02  0.69126957519E+02  0.10241464654E+03  0.41800000000E+01 0. -1.
         -5    1    3    3    0  502  0.28459661783E+02  0.39846411103E+02  0.81543189492E+02  0.95207420819E+02  0.41800000000E+01 0. -1.
        -11    1    1    2    0    0  0.18911493320E+02 -0.49410947031E+01 -0.25988680503E+02  0.32518771667E+02  0.00000000000E+00 0.  1.
         11    1    1    2    0    0 -0.16809901238E+01  0.25137668154E+02  0.67918346185E+02  0.72440526203E+02  0.00000000000E+00 0. -1.
</event>
<event>
 7    1  0.2723366E-009  0.1064520E+03  0.7561462E-02  0.1267285E+00
         -2   -1    0    0    0  501 -0.00000000000E+00  0.00000000000E+00  0.11878928631E+03  0.11878928631E+03  0.00000000000E+00 0.  1.
          2   -1    0    0  501    0  0.00000000000E+00 -0.00000000000E+00 -0.14005189776E+03  0.14005189776E+03  0.00000000000E+00 0. -1.
         25    2    1    2    0    0 -0.58623934131E+02  0.11380537977E+01 -0.48331633729E+02  0.14636110043E+03  0.12509022377E+03 0.  0.
          5    1    3    3  502    0 -0.96292740919E+02  0.13938612396E+02 -0.41127170709E+02  0.10571420642E+03  0.41800000000E+01 0.  1.
         -5    1    3    3    0  502  0.37668806788E+02 -0.12800558599E+02 -0.72044630195E+01  0.40646894010E+02  0.41800000000E+01 0.  1.
        -11    1    1    2    0    0  0.37026969097E+02 -0.23952724762E+02 -0.25719171656E+02  0.51051006403E+02  0.00000000000E+00 0. -1.
         11    1    1    2    0    0  0.21596965034E+02  0.22814670965E+02  0.52788193943E+02  0.61429077232E+02  0.00000000000E+00 0.  1.
</event>
<event>
 7    1  0.2723366E-009  0.8549255E+02  0.7561462E-02  0.1314149E+00
         -2   -1    0    0    0  501 -0.00000000000E+00  0.00000000000E+00  0.17987571941E+02  0.17987571941E+02  0.00000000000E+00 0.  1.
          2   -1    0    0  501    0  0.00000000000E+00 -0.00000000000E+00 -0.66362571591E+03  0.66362571591E+03  0.00000000000E+00 0. -1.
         25    2    1    2    0    0  0.66697978498E+00 -0.44610946204E+02 -0.44346084191E+03  0.46292035942E+03  0.12508860650E+03 0.  0.
          5    1    3    3  502    0  0.36515101685E+02 -0.64464625112E+02 -0.38059475123E+03  0.38776136683E+03  0.41800000000E+01 0.  1.
         -5    1    3    3    0  502 -0.35848121900E+02  0.19853678908E+02 -0.62866090681E+02  0.75158992592E+02  0.41800000000E+01 0.  1.
        -11    1    1    2    0    0 -0.16336227028E+02  0.15456727391E+02 -0.11680217499E+02  0.25341866861E+02  0.00000000000E+00 0.  1.
         11    1    1    2    0    0  0.15669247243E+02  0.29154218812E+02 -0.19049708456E+03  0.19335106157E+03  0.00000000000E+00 0. -1.
</event>
<event>
 7    1  0.2723366E-009  0.9830341E+02  0.7561462E-02  0.1283905E+00
         -1   -1    0    0    0  501 -0.00000000000E+00  0.00000000000E+00  0.16483004423E+02  0.16483004423E+02  0.00000000000E+00 0.  1.
          1   -1    0    0  501    0  0.00000000000E+00 -0.00000000000E+00 -0.28367927980E+04  0.28367927980E+04  0.00000000000E+00 0. -1.
         25    2    1    2    0    0 -0.45353323200E+02 -0.47471765734E+02 -0.26147770420E+04  0.26185906830E+04  0.12509073913E+03 0.  0.
          5    1    3    3  502    0 -0.58229325412E+02 -0.61052816561E+02 -0.96178530075E+03  0.96548772022E+03  0.41800000000E+01 0. -1.
         -5    1    3    3    0  502  0.12876002212E+02  0.13581050827E+02 -0.16529917413E+04  0.16531029627E+04  0.41800000000E+01 0. -1.
        -11    1    1    2    0    0  0.59481370717E+02  0.51050107490E+02 -0.20568023074E+03  0.22011020934E+03  0.00000000000E+00 0. -1.
         11    1    1    2    0    0 -0.14128047517E+02 -0.35783417559E+01  0.14747912624E+00  0.14574910170E+02  0.00000000000E+00 0.  1.
</event>
<event>
 7    1  0.2723366E-009  0.1936015E+03  0.7561462E-02  0.1155253E+00
         -1   -1    0    0    0  501 -0.00000000000E+00  0.00000000000E+00  0.44723425878E+03  0.44723425878E+03  0.00000000000E+00 0.  1.
          1   -1    0    0  501    0  0.00000000000E+00 -0.00000000000E+00 -0.90539958781E+02  0.90539958781E+02  0.00000000000E+00 0. -1.
         25    2    1    2    0    0 -0.37739546171E+02  0.15758591037E+03  0.25357546958E+03  0.32589239861E+03  0.12509094374E+03 0.  0.
          5    1    3    3  502    0 -0.40842254977E+02 -0.33603284346E+01  0.32945879542E+02  0.52747369390E+02  0.41800000000E+01 0.  1.
         -5    1    3    3    0  502  0.31027088058E+01  0.16094623880E+03  0.22062959004E+03  0.27314502922E+03  0.41800000000E+01 0.  1.
        -11    1    1    2    0    0  0.63515894968E+02 -0.14011856912E+03  0.82910044987E+02  0.17476143135E+03  0.00000000000E+00 0.  1.
         11    1    1    2    0    0 -0.25776348797E+02 -0.17467341242E+02  0.20208785433E+02  0.37120387606E+02  0.00000000000E+00 0. -1.
</event>
<event>
 7    1  0.2723366E-009  0.1383903E+03  0.7561462E-02  0.1215511E+00
          1   -1    0    0  501    0  0.00000000000E+00  0.00000000000E+00  0.22246751425E+03  0.22246751425E+03  0.00000000000E+00 0. -1.
         -1   -1    0    0    0  501 -0.00000000000E+00 -0.00000000000E+00 -0.10382393557E+03  0.10382393557E+03  0.00000000000E+00 0.  1.
         25    2    1    2    0    0 -0.77211730717E+02 -0.67668843075E+02  0.10054292657E+03  0.19051672263E+03  0.12508804034E+03 0.  0.
          5    1    3    3  502    0  0.22964750558E+02  0.10792402043E+02  0.44536628509E+02  0.51428001993E+02  0.41800000000E+01 0.  1.
         -5    1    3    3    0  502 -0.10017648128E+03 -0.78461245119E+02  0.56006298066E+02  0.13908872064E+03  0.41800000000E+01 0.  1.
        -11    1    1    2    0    0  0.68774270083E+02  0.14976193298E+02 -0.16345552302E+02  0.72259004084E+02  0.00000000000E+00 0.  1.
         11    1    1    2    0    0  0.84374606339E+01  0.52692649778E+02  0.34446204405E+02  0.63515723096E+02  0.00000000000E+00 0. -1.
</event>
<event>
 7    1  0.2723366E-009  0.2575074E+03  0.7561462E-02  0.1108650E+00
         -2   -1    0    0    0  501 -0.00000000000E+00  0.00000000000E+00  0.13948115512E+03  0.13948115512E+03  0.00000000000E+00 0.  1.
          2   -1    0    0  501    0  0.00000000000E+00 -0.00000000000E+00 -0.73449412458E+03  0.73449412458E+03  0.00000000000E+00 0. -1.
         25    2    1    2    0    0  0.45807025003E+02 -0.23603274234E+03 -0.56269207531E+02  0.27680909483E+03  0.12508921724E+03 0.  0.
          5    1    3    3  502    0 -0.38934210735E+02 -0.12481940412E+03 -0.20369396601E+02  0.13239388629E+03  0.41800000000E+01 0.  1.
         -5    1    3    3    0  502  0.84741235738E+02 -0.11121333822E+03 -0.35899810931E+02  0.14441520854E+03  0.41800000000E+01 0.  1.
        -11    1    1    2    0    0 -0.41782156861E+02  0.10204916952E+03 -0.34007097620E+03  0.35750251815E+03  0.00000000000E+00 0.  1.
         11    1    1    2    0    0 -0.40248681427E+01  0.13398357282E+03 -0.19867278573E+03  0.23966366671E+03  0.00000000000E+00 0. -1.
</event>
<event>
 7    1  0.2723366E-009  0.1122915E+03  0.7561462E-02  0.1256384E+00
          2   -1    0    0  501    0  0.00000000000E+00  0.00000000000E+00  0.18812581879E+03  0.18812581879E+03  0.00000000000E+00 0.  1.
         -2   -1    0    0    0  501 -0.00000000000E+00 -0.00000000000E+00 -0.72923798603E+02  0.72923798603E+02  0.00000000000E+00 0. -1.
         25    2    1    2    0    0 -0.42916222161E+02 -0.18285236640E+01  0.77053124877E+02  0.15306959745E+03  0.12509185419E+03 0.  0.
          5    1    3    3  502    0 -0.71480846984E+01  0.56580691189E+02  0.11820307854E+02  0.58392309494E+02  0.41800000000E+01 0. -1.
         -5    1    3    3    0  502 -0.35768137463E+02 -0.58409214853E+02  0.65232817023E+02  0.94677287952E+02  0.41800000000E+01 0. -1.
        -11    1    1    2    0    0 -0.31175159542E+00 -0.39189041394E+02  0.26369445948E+02  0.47235853269E+02  0.00000000000E+00 0.  1.
         11    1    1    2    0    0  0.43227973757E+02  0.41017565058E+02  0.11779449366E+02  0.60744166681E+02  0.00000000000E+00 0. -1.
</event>
<event>
 7    1  0.2723366E-009  0.1725305E+03  0.7561462E-02  0.1175234E+00
         -1   -1    0    0    0  501 -0.00000000000E+00  0.00000000000E+00  0.52937534950E+02  0.52937534950E+02  0.00000000000E+00 0.  1.
          1   -1    0    0  501    0  0.00000000000E+00 -0.00000000000E+00 -0.63698483707E+03  0.63698483707E+03  0.00000000000E+00 0. -1.
         25    2    1    2    0    0 -0.51038849287E+02 -0.13861752017E+03 -0.24280579693E+03  0.31051840552E+03  0.12508894478E+03 0.  0.
          5    1    3    3  502    0 -0.19451060787E+02 -0.15532189046E+03 -0.20897016370E+03  0.26113068594E+03  0.41800000000E+01 0. -1.
         -5    1    3    3    0  502 -0.31587788500E+02  0.16704370290E+02 -0.33835633235E+02  0.49387719582E+02  0.41800000000E+01 0. -1.
        -11    1    1    2    0    0  0.45582411915E+02  0.69210230851E+02 -0.25746874367E+03  0.27047729349E+03  0.00000000000E+00 0. -1.
         11    1    1    2    0    0  0.54564373717E+01  0.69407289321E+02 -0.83772761527E+02  0.10892667301E+03  0.00000000000E+00 0.  1.
</event>
<event>
 7    1  0.2723366E-009  0.1048657E+03  0.7561462E-02  0.1270384E+00
         -2   -1    0    0    0  501 -0.00000000000E+00  0.00000000000E+00  0.15086643524E+02  0.15086643524E+02  0.00000000000E+00 0.  1.
          2   -1    0    0  501    0  0.00000000000E+00 -0.00000000000E+00 -0.81814292528E+03  0.81814292528E+03  0.00000000000E+00 0. -1.
         25    2    1    2    0    0  0.11508422811E+02 -0.93353913269E+01 -0.54826978356E+03  0.56255374515E+03  0.12508943716E+03 0.  0.
          5    1    3    3  502    0 -0.13297857912E+02  0.52866914563E+02 -0.31962396175E+03  0.32426639204E+03  0.41800000000E+01 0. -1.
         -5    1    3    3    0  502  0.24806280724E+02 -0.62202305890E+02 -0.22864582181E+03  0.23828735311E+03  0.41800000000E+01 0. -1.
        -11    1    1    2    0    0  0.22220108637E+02 -0.29236803066E+02 -0.71732040104E+02  0.80585417160E+02  0.00000000000E+00 0.  1.
         11    1    1    2    0    0 -0.33728531448E+02  0.38572194393E+02 -0.18305445809E+03  0.19009040650E+03  0.00000000000E+00 0. -1.
</event>
<event>
 7    1  0.2723366E-009  0.2971540E+03  0.7561462E-02  0.1086672E+00
          3   -1    0    0  501    0  0.00000000000E+00  0.00000000000E+00  0.44873524269E+02  0.44873524269E+02  0.00000000000E+00 0. -1.
         -3   -1    0    0    0  501 -0.00000000000E+00 -0.00000000000E+00 -0.23609044038E+04  0.23609044038E+04  0.00000000000E+00 0.  1.
         25    2    1    2    0    0 -0.27293117750E+03  0.92959968306E+02 -0.79127102098E+03  0.85140692039E+03  0.12510368529E+03 0.  0.
          5    1    3    3  502    0 -0.27218115273E+03  0.86961507390E+02 -0.65119258526E+03  0.71113580923E+03  0.41800000000E+01 0.  1.
         -5    1    3    3    0  502 -0.75002476805E+00  0.59984609162E+01 -0.14007843572E+03  0.14027111115E+03  0.41800000000E+01 0.  1.
        -11    1    1    2    0    0  0.12185148463E+02 -0.30823548847E+02 -0.13610826818E+03  0.14008579398E+03  0.00000000000E+00 0. -1.
         11    1    1    2    0    0  0.26074602904E+03 -0.62136419459E+02 -0.13886515904E+04  0.14142852137E+04  0.00000000000E+00 0.  1.
</event>
<event>
 7    1  0.2723366E-009  0.2954412E+03  0.7561462E-02  0.1087542E+00
          2   -1    0    0  501    0  0.00000000000E+00  0.00000000000E+00  0.59469536082E+03  0.59469536082E+03  0.00000000000E+00 0. -1.
         -2   -1    0    0    0  501 -0.00000000000E+00 -0.00000000000E+00 -0.15120699605E+03  0.15120699605E+03  0.00000000000E+00 0.  1.
         25    2    1    2    0    0  0.25799766154E+03  0.10191842863E+03  0.19972295996E+03  0.36398761179E+03  0.12509021283E+03 0.  0.
          5    1    3    3  502    0  0.14289275019E+03  0.11200103155E+03  0.15909544750E+03  0.24143612600E+03  0.41800000000E+01 0. -1.
         -5    1    3    3    0  502  0.11510491135E+03 -0.10082602919E+02  0.40627512458E+02  0.12255148578E+03  0.41800000000E+01 0. -1.
        -11    1    1    2    0    0 -0.22422545553E+03 -0.46865546353E+02  0.19765930331E+03  0.30256013374E+03  0.00000000000E+00 0.  1.
         11    1    1    2    0    0 -0.33772206007E+02 -0.55052882280E+02  0.46106101495E+02  0.79354611341E+02  0.00000000000E+00 0. -1.
</event>
<event>
 7    1  0.2723366E-009  0.9373498E+02  0.7561462E-02  0.1294051E+00
          2   -1    0    0  501    0  0.00000000000E+00  0.00000000000E+00  0.86768229411E+02  0.86768229411E+02  0.00000000000E+00 0.  1.
         -2   -1    0    0    0  501 -0.00000000000E+00 -0.00000000000E+00 -0.14383150992E+03  0.14383150992E+03  0.00000000000E+00 0. -1.
         25    2    1    2    0    0 -0.31307802962E+02 -0.42178312297E+01 -0.25321795347E+02  0.13147907868E+03  0.12509031211E+03 0.  0.
          5    1    3    3  502    0  0.46983586844E+02 -0.82442000688E+01 -0.22538997102E+02  0.52923558628E+02  0.41800000000E+01 0. -1.
         -5    1    3    3    0  502 -0.78291389807E+02  0.40263688391E+01 -0.27827982451E+01  0.78555520048E+02  0.41800000000E+01 0. -1.
        -11    1    1    2    0    0  0.45404948675E+00  0.24275159303E+02 -0.51800822739E+02  0.57208519965E+02  0.00000000000E+00 0. -1.
         11    1    1    2    0    0  0.30853753475E+02 -0.20057328074E+02  0.20059337578E+02  0.41912140688E+02  0.00000000000E+00 0.  1.
</event>
<event>
 7    1  0.2723366E-009  0.1195240E+03  0.7561462E-02  0.1243884E+00
          1   -1    0    0  501    0  0.00000000000E+00  0.00000000000E+00  0.35628205643E+03  0.35628205643E+03  0.00000000000E+00 0. -1.
         -1   -1    0    0    0  501 -0.00000000000E+00 -0.00000000000E+00 -0.74593185583E+02  0.74593185583E+02  0.00000000000E+00 0.  1.
         25    2    1    2    0    0  0.79882624197E+02 -0.58858744966E+02  0.24458759581E+03  0.29208881791E+03  0.12508876856E+03 0.  0.
          5    1    3    3  502    0  0.74420612494E+02 -0.67660412787E+02  0.83991042058E+02  0.13110425839E+03  0.41800000000E+01 0. -1.
         -5    1    3    3    0  502  0.54620117032E+01  0.88016678214E+01  0.16059655375E+03  0.16098455952E+03  0.41800000000E+01 0. -1.
        -11    1    1    2    0    0 -0.84389277694E+02  0.73488709912E+02  0.16488059589E+02  0.11311055116E+03  0.00000000000E+00 0.  1.
         11    1    1    2    0    0  0.45066534966E+01 -0.14629964947E+02  0.20613215454E+02  0.25675872944E+02  0.00000000000E+00 0. -1.
</event>
<event>
 7    1  0.2723366E-009  0.1366948E+03  0.7561462E-02  0.1217847E+00
         -1   -1    0    0    0  501 -0.00000000000E+00  0.00000000000E+00  0.39208700892E+02  0.39208700892E+02  0.00000000000E+00 0.  1.
          1   -1    0    0  501    0  0.00000000000E+00 -0.00000000000E+00 -0.51164742341E+03  0.51164742341E+03  0.00000000000E+00 0. -1.
         25    2    1    2    0    0 -0.49958955150E+02  0.76646271027E+02 -0.25750466382E+03  0.30054462035E+03  0.12509144204E+03 0.  0.
          5    1    3    3  502    0 -0.48977705296E+02 -0.20519260976E+02 -0.58965300998E+02  0.79462159604E+02  0.41800000000E+01 0.  1.
         -5    1    3    3    0  502 -0.98124985433E+00  0.97165532003E+02 -0.19853936282E+03  0.22108246075E+03  0.41800000000E+01 0.  1.
        -11    1    1    2    0    0  0.29911664538E+02  0.11813226207E+02 -0.28444554305E+02  0.42934283020E+02  0.00000000000E+00 0.  1.
         11    1    1    2    0    0  0.20047290613E+02 -0.88459497234E+02 -0.18648950439E+03  0.20737722093E+03  0.00000000000E+00 0. -1.
</event>
<event>
 7    1  0.2723366E-009  0.9287675E+02  0.7561462E-02  0.1296031E+00
         -1   -1    0    0    0  501 -0.00000000000E+00  0.00000000000E+00  0.19514234617E+03  0.19514234617E+03  0.00000000000E+00 0.  1.
          1   -1    0    0  501    0  0.00000000000E+00 -0.00000000000E+00 -0.88126793911E+02  0.88126793911E+02  0.00000000000E+00 0. -1.
         25    2    1    2    0    0  0.26165459125E+01 -0.30062498980E+02  0.12991898525E+03  0.18286470155E+03  0.12509978493E+03 0.  0.
          5    1    3    3  502    0  0.10877607613E+02  0.27498071174E+02 -0.98307269990E+01  0.31441721629E+02  0.41800000000E+01 0.  1.
         -5    1    3    3    0  502 -0.82610617007E+01 -0.57560570154E+02  0.13974971224E+03  0.15142297992E+03  0.41800000000E+01 0.  1.
        -11    1    1    2    0    0  0.43248950623E+02  0.94301158144E+00 -0.13093431891E+02  0.45197333544E+02  0.00000000000E+00 0. -1.
         11    1    1    2    0    0 -0.45865496536E+02  0.29119487398E+02 -0.98100010977E+01  0.55207104981E+02  0.00000000000E+00 0.  1.
</event>
<event>
 7    1  0.2723366E-009  0.8913694E+02  0.7561462E-02  0.1304955E+00
          1   -1    0    0  501    0  0.00000000000E+00  0.00000000000E+00  0.30801463060E+03  0.30801463060E+03  0.00000000000E+00 0. -1.
         -1   -1    0    0    0  501 -0.00000000000E+00 -0.00000000000E+00 -0.50908180035E+02  0.50908180035E+02  0.00000000000E+00 0.  1.
         25    2    1    2    0    0 -0.46697257206E+02  0.78589393721E+01  0.21241223287E+03  0.25101555876E+03  0.12508979699E+03 0.  0.
          5    1    3    3  502    0  0.24079456352E+02  0.24834570177E+02  0.15314957883E+03  0.15706317834E+03  0.41800000000E+01 0.  1.
         -5    1    3    3    0  502 -0.70776713558E+02 -0.16975630805E+02  0.59262654032E+02  0.93952380418E+02  0.41800000000E+01 0.  1.
        -11    1    1    2    0    0  0.51708212884E+02 -0.21495839448E+02 -0.49157902535E+01  0.56213658368E+02  0.00000000000E+00 0.  1.
         11    1    1    2    0    0 -0.50109556787E+01  0.13636900076E+02  0.49610007955E+02  0.51693593508E+02  0.00000000000E+00 0. -1.
</event>
<event>
 7    1  0.2723366E-009  0.1475902E+03  0.7561462E-02  0.1203466E+00
         -1   -1    0    0    0  501 -0.00000000000E+00  0.00000000000E+00  0.85729390452E+02  0.85729390452E+02  0.00000000000E+00 0.  1.
          1   -1    0    0  501    0  0.00000000000E+00 -0.00000000000E+00 -0.34214725014E+03  0.34214725014E+03  0.00000000000E+00 0. -1.
         25    2    1    2    0    0  0.73946888771E+02  0.10942268185E+03 -0.15259149193E+03  0.23743348936E+03  0.12509609426E+03 0.  0.
          5    1    3    3  502    0 -0.57204904501E+00  0.15804099046E+01  0.20092798078E+02  0.20591694204E+02  0.41800000000E+01 0. -1.
         -5    1    3    3    0  502  0.74518937816E+02  0.10784227194E+03 -0.17268429000E+03  0.21684179515E+03  0.41800000000E+01 0. -1.
        -11    1    1    2    0    0 -0.81885074407E+02 -0.12062616776E+03 -0.96956715733E+02  0.17508981262E+03  0.00000000000E+00 0.  1.
         11    1    1    2    0    0  0.79381856364E+01  0.11203485906E+02 -0.68696520316E+01  0.15353338617E+02  0.00000000000E+00 0. -1.
</event>
<event>
 7    1  0.2723366E-009  0.1228307E+03  0.7561462E-02  0.1238499E+00
          2   -1    0    0  501    0  0.00000000000E+00  0.00000000000E+00  0.52360389675E+03  0.52360389675E+03  0.00000000000E+00 0. -1.
         -2   -1    0    0    0  501 -0.00000000000E+00 -0.00000000000E+00 -0.40842061305E+02  0.40842061305E+02  0.00000000000E+00 0.  1.
         25    2    1    2    0    0  0.95538559861E+02 -0.18106318309E+02  0.26257051773E+03  0.30666655682E+03  0.12508255316E+03 0.  0.
          5    1    3    3  502    0  0.10033291745E+03 -0.58201587652E+00  0.95572642136E+02  0.13863129298E+03  0.41800000000E+01 0. -1.
         -5    1    3    3    0  502 -0.47943575944E+01 -0.17524302433E+02  0.16699787560E+03  0.16803526384E+03  0.41800000000E+01 0. -1.
        -11    1    1    2    0    0 -0.94318525157E+02  0.41590314499E+02  0.20589921718E+03  0.23026121272E+03  0.00000000000E+00 0. -1.
         11    1    1    2    0    0 -0.12200347040E+01 -0.23483996190E+02  0.14292100536E+02  0.27518188521E+02  0.00000000000E+00 0.  1.
</event>
<event>
 7    1  0.2723366E-009  0.1007746E+03  0.7561462E-02  0.1278675E+00
         -2   -1    0    0    0  501 -0.00000000000E+00  0.00000000000E+00  0.75000798892E+02  0.75000798892E+02  0.00000000000E+00 0.  1.
          2   -1    0    0  501    0  0.00000000000E+00 -0.00000000000E+00 -0.23315335627E+03  0.23315335627E+03  0.00000000000E+00 0. -1.
         25    2    1    2    0    0  0.42527442011E+01 -0.30205441072E+02 -0.16626981583E+03  0.21029424457E+03  0.12509022000E+03 0.  0.
          5    1    3    3  502    0 -0.41292281897E+02  0.10605256517E+02 -0.13469530954E+03  0.14134292633E+03  0.41800000000E+01 0.  1.
         -5    1    3    3    0  502  0.45545026099E+02 -0.40810697589E+02 -0.31574506288E+02  0.68951318242E+02  0.41800000000E+01 0.  1.
        -11    1    1    2    0    0 -0.17733828464E+02 -0.30472882751E+02  0.73358953483E+00  0.35265045141E+02  0.00000000000E+00 0.  1.
         11    1    1    2    0    0  0.13481084263E+02  0.60678323823E+02  0.73836689122E+01  0.62594865456E+02  0.00000000000E+00 0. -1.
</event>
<event>
 7    1  0.2723366E-009  0.1159604E+03  0.7561462E-02  0.1249914E+00
         -2   -1    0    0    0  501 -0.00000000000E+00  0.00000000000E+00  0.68860816389E+02  0.68860816389E+02  0.00000000000E+00 0.  1.
          2   -1    0    0  501    0  0.00000000000E+00 -0.00000000000E+00 -0.38440520875E+03  0.38440520875E+03  0.00000000000E+00 0. -1.
         25    2    1    2    0    0 -0.25008366377E+02 -0.45116810423E+02 -0.32004402695E+03  0.34747045331E+03  0.12508633724E+03 0.  0.
          5    1    3    3  502    0  0.27748745545E+02 -0.70658678700E+02 -0.16534726597E+03  0.18198855051E+03  0.41800000000E+01 0. -1.
         -5    1    3    3    0  502 -0.52757111922E+02  0.25541868278E+02 -0.15469676098E+03  0.16548190280E+03  0.41800000000E+01 0. -1.
        -11    1    1    2    0    0  0.35618708403E+02 -0.13102154721E+02  0.22274503329E+02  0.44005821719E+02  0.00000000000E+00 0.  1.
         11    1    1    2    0    0 -0.10610342026E+02  0.58218965144E+02 -0.17774868737E+02  0.61789750112E+02  0.00000000000E+00 0. -1.
</event>
<event>
 7    1  0.2723366E-009  0.9050364E+02  0.7561462E-02  0.1301637E+00
          3   -1    0    0  501    0  0.00000000000E+00  0.00000000000E+00  0.47756997859E+03  0.47756997859E+03  0.00000000000E+00 0. -1.
         -3   -1    0    0    0  501 -0.00000000000E+00 -0.00000000000E+00 -0.25023614540E+02  0.25023614540E+02  0.00000000000E+00 0.  1.
         25    2    1    2    0    0  0.51262489418E+01  0.10112650306E+02  0.25551276842E+03  0.28471554263E+03  0.12509045234E+03 0.  0.
          5    1    3    3  502    0 -0.82437480989E+00  0.49230817388E+02  0.23463561753E+03  0.23978260652E+03  0.41800000000E+01 0.  1.
         -5    1    3    3    0  502  0.59506237517E+01 -0.39118167082E+02  0.20877150891E+02  0.44932936118E+02  0.41800000000E+01 0.  1.
        -11    1    1    2    0    0 -0.17251735897E+01 -0.50872924123E+02  0.12627282031E+03  0.13614644976E+03  0.00000000000E+00 0. -1.
         11    1    1    2    0    0 -0.34010753521E+01  0.40760273817E+02  0.70760775317E+02  0.81731600735E+02  0.00000000000E+00 0.  1.
</event>
<event>
 7    1  0.3833054E-009  0.1013812E+03  0.7561462E-02  0.1277418E+00
         -2   -1    0    0    0  501 -0.00000000000E+00  0.00000000000E+00  0.15845278579E+02  0.15845278579E+02  0.00000000000E+00 0.  1.
          2   -1    0    0  501    0  0.00000000000E+00 -0.00000000000E+00 -0.80298491617E+03  0.80298491617E+03  0.00000000000E+00 0. -1.
         25    2    1    2    0    0 -0.10633699694E+02 -0.14642846490E+02 -0.54201530537E+03  0.55655657042E+03  0.12508851385E+03 0.  0.
          5    1    3    3  502    0 -0.13485236896E+02  0.51972025705E+02 -0.16210379224E+03  0.17081585093E+03  0.41800000000E+01 0.  1.
         -5    1    3    3    0  502  0.28515372018E+01 -0.66614872195E+02 -0.37991151313E+03  0.38574071949E+03  0.41800000000E+01 0.  1.
        -11    1    1    2    0    0  0.33570509541E+02 -0.21085332284E+02 -0.57081111193E+02  0.69496932331E+02  0.00000000000E+00 0. -1.
         11    1    1    2    0    0 -0.22936809846E+02  0.35728178775E+02 -0.18804322103E+03  0.19277669200E+03  0.00000000000E+00 0.  1.
</event>
<event>
 7    1  0.2723366E-009  0.1388036E+03  0.7561462E-02  0.1214948E+00
         -1   -1    0    0    0  501 -0.00000000000E+00  0.00000000000E+00  0.15327414603E+02  0.15327414603E+02  0.00000000000E+00 0.  1.
          1   -1    0    0  501    0  0.00000000000E+00 -0.00000000000E+00 -0.14770271610E+04  0.14770271610E+04  0.00000000000E+00 0. -1.
         25    2    1    2    0    0  0.31964503067E+02 -0.98710562585E+02 -0.77242767323E+03  0.78933863167E+03  0.12508181507E+03 0.  0.
          5    1    3    3  502    0 -0.11981002286E+02  0.13818152756E+02 -0.33476212848E+03  0.33528740034E+03  0.41800000000E+01 0.  1.
         -5    1    3    3    0  502  0.43945505353E+02 -0.11252871534E+03 -0.43766554475E+03  0.45405123133E+03  0.41800000000E+01 0.  1.
        -11    1    1    2    0    0 -0.49083144543E+02  0.10790039698E+03 -0.60863668052E+03  0.62007278574E+03  0.00000000000E+00 0.  1.
         11    1    1    2    0    0  0.17118641476E+02 -0.91898343909E+01 -0.80635392628E+02  0.82943158165E+02  0.00000000000E+00 0. -1.
</event>
<event>
 7    1  0.2723366E-009  0.1183874E+03  0.7561462E-02  0.1245781E+00
         -2   -1    0    0    0  501 -0.00000000000E+00  0.00000000000E+00  0.89248236152E+02  0.89248236152E+02  0.00000000000E+00 0. -1.
          2   -1    0    0  501    0  0.00000000000E+00 -0.00000000000E+00 -0.20020072068E+03  0.20020072068E+03  0.00000000000E+00 0.  1.
         25    2    1    2    0    0 -0.48640950238E+02 -0.24868253449E+02 -0.29566421966E+00  0.13649689130E+03  0.12508773660E+03 0.  0.
          5    1    3    3  502    0  0.11005944278E+02  0.43740504768E+02  0.33092594952E+01  0.45417905777E+02  0.41800000000E+01 0. -1.
         -5    1    3    3    0  502 -0.59646894516E+02 -0.68608758217E+02 -0.36049237148E+01  0.91078985526E+02  0.41800000000E+01 0. -1.
        -11    1    1    2    0    0  0.69263328700E+02  0.14672911517E+01 -0.52375201456E+02  0.86848853610E+02  0.00000000000E+00 0. -1.
         11    1    1    2    0    0 -0.20622378462E+02  0.23400962298E+02 -0.58281618852E+02  0.66103211918E+02  0.00000000000E+00 0.  1.
</event>
<event>
 7    1  0.3509854E-009  0.1268827E+03  0.7561462E-02  0.1232156E+00
         -1   -1    0    0    0  501 -0.00000000000E+00  0.00000000000E+00  0.12164201693E+03  0.12164201693E+03  0.00000000000E+00 0.  1.
          1   -1    0    0  501    0  0.00000000000E+00 -0.00000000000E+00 -0.16679243939E+03  0.16679243939E+03  0.00000000000E+00 0. -1.
         25    2    1    2    0    0  0.88921439160E+02 -0.21812426345E+02 -0.32085569618E+02  0.15830307245E+03  0.12509026615E+03 0.  0.
          5    1    3    3  502    0  0.64709525322E+02  0.33682657543E+02  0.22727639100E+02  0.76523604630E+02  0.41800000000E+01 0.  1.
         -5    1    3    3    0  502  0.24211913838E+02 -0.55495083888E+02 -0.54813208718E+02  0.81779467822E+02  0.41800000000E+01 0.  1.
        -11    1    1    2    0    0  0.11708439983E+02  0.15158963967E+02  0.16238081446E+02  0.25110894935E+02  0.00000000000E+00 0.  1.
         11    1    1    2    0    0 -0.10062987914E+03  0.66534623778E+01 -0.29302934283E+02  0.10502048893E+03  0.00000000000E+00 0. -1.
</event>
<event>
 7    1  0.2723366E-009  0.1196727E+03  0.7561462E-02  0.1243638E+00
         -1   -1    0    0    0  501 -0.00000000000E+00  0.00000000000E+00  0.91764314232E+02  0.91764314232E+02  0.00000000000E+00 0.  1.
          1   -1    0    0  501    0  0.00000000000E+00 -0.00000000000E+00 -0.21570144164E+03  0.21570144164E+03  0.00000000000E+00 0. -1.
         25    2    1    2    0    0 -0.45115356548E+02  0.66068066601E+02 -0.11719169804E+03  0.18916005288E+03  0.12508895512E+03 0.  0.
          5    1    3    3  502    0 -0.44582872062E+02  0.99397662867E+02 -0.64500172510E+02  0.12666993534E+03  0.41800000000E+01 0. -1.
         -5    1    3    3    0  502 -0.53248448564E+00 -0.33329596266E+02 -0.52691525532E+02  0.62490117537E+02  0.41800000000E+01 0. -1.
        -11    1    1    2    0    0  0.15361853747E+02  0.77044527439E+01  0.26912368355E+02  0.31931500327E+02  0.00000000000E+00 0.  1.
         11    1    1    2    0    0  0.29753502801E+02 -0.73772519345E+02 -0.33657797720E+02  0.86374202669E+02  0.00000000000E+00 0. -1.
</event>
<event>
 7    1  0.2723366E-009  0.1292108E+03  0.7561462E-02  0.1228631E+00
          2   -1    0    0  501    0  0.00000000000E+00  0.00000000000E+00  0.73612629438E+03  0.73612629438E+03  0.00000000000E+00 0. -1.
         -2   -1    0    0    0  501 -0.00000000000E+00 -0.00000000000E+00 -0.26925557243E+02  0.26925557243E+02  0.00000000000E+00 0.  1.
         25    2    1    2    0    0 -0.58403569453E+02  0.54727041344E+02  0.50455312230E+03  0.52595404370E+03  0.12509107436E+03 0.  0.
          5    1    3    3  502    0  0.12317647948E+02 -0.31437859501E+02  0.78819819011E+02  0.85849284970E+02  0.41800000000E+01 0.  1.
         -5    1    3    3    0  502 -0.70721217401E+02  0.86164900844E+02  0.42573330329E+03  0.44010475873E+03  0.41800000000E+01 0.  1.
        -11    1    1    2    0    0  0.75101504756E+02 -0.25727671611E+02  0.17589072301E+03  0.19297589369E+03  0.00000000000E+00 0. -1.
         11    1    1    2    0    0 -0.16697935303E+02 -0.28999369733E+02  0.28756891830E+02  0.44121914238E+02  0.00000000000E+00 0.  1.
</event>
<event>
 7    1  0.2723366E-009  0.1050072E+03  0.7561462E-02  0.1270105E+00
          1   -1    0    0  501    0  0.00000000000E+00  0.00000000000E+00  0.14545590017E+03  0.14545590017E+03  0.00000000000E+00 0. -1.
         -1   -1    0    0    0  501 -0.00000000000E+00 -0.00000000000E+00 -0.17044935162E+03  0.17044935162E+03  0.00000000000E+00 0.  1.
         25    2    1    2    0    0  0.83064473009E+02  0.12686427022E+02  0.65515678017E+02  0.16432357280E+03  0.12509708392E+03 0.  0.
          5    1    3    3  502    0  0.95076458839E+02  0.56348051034E+00 -0.13584881344E+01  0.95179663929E+02  0.41800000000E+01 0. -1.
         -5    1    3    3    0  502 -0.12011985830E+02  0.12122946512E+02  0.66874166152E+02  0.69143908873E+02  0.41800000000E+01 0. -1.
        -11    1    1    2    0    0 -0.27906721295E+02  0.18907316426E+02  0.77182780075E+01  0.34580970537E+02  0.00000000000E+00 0. -1.
         11    1    1    2    0    0 -0.55157751714E+02 -0.31593743448E+02 -0.98227407475E+02  0.11700070845E+03  0.00000000000E+00 0.  1.
</event>
<event>
 7    1  0.2723366E-009  0.1176223E+03  0.7561462E-02  0.1247072E+00
         -2   -1    0    0    0  501 -0.00000000000E+00  0.00000000000E+00  0.54327566056E+02  0.54327566056E+02  0.00000000000E+00 0.  1.
          2   -1    0    0  501    0  0.00000000000E+00 -0.00000000000E+00 -0.29140128474E+03  0.29140128474E+03  0.00000000000E+00 0. -1.
         25    2    1    2    0    0 -0.53991513550E+02  0.42230054814E+02 -0.11892792180E+03  0.18571119854E+03  0.12508532135E+03 0.  0.
          5    1    3    3  502    0 -0.54310004505E+02 -0.35127062883E+02 -0.60673857761E+02  0.88782186005E+02  0.41800000000E+01 0. -1.
         -5    1    3    3    0  502  0.31849095562E+00  0.77357117697E+02 -0.58254064035E+02  0.96929012538E+02  0.41800000000E+01 0. -1.
        -11    1    1    2    0    0 -0.12861480400E+02 -0.17414337466E+02 -0.71745137125E+02  0.74940253059E+02  0.00000000000E+00 0. -1.
         11    1    1    2    0    0  0.66852993950E+02 -0.24815717348E+02 -0.46400659766E+02  0.85077399198E+02  0.00000000000E+00 0.  1.
</event>
<event>
 7    1  0.2723366E-009  0.1616324E+03  0.7561462E-02  0.1186866E+00
         -2   -1    0    0    0  501 -0.00000000000E+00  0.00000000000E+00  0.26964277058E+03  0.26964277058E+03  0.00000000000E+00 0. -1.
          2   -1    0    0  501    0  0.00000000000E+00 -0.00000000000E+00 -0.14411466482E+03  0.14411466482E+03  0.00000000000E+00 0.  1.
         25    2    1    2    0    0  0.14610293392E+03  0.45824867674E+01 -0.12723633141E+02  0.19281311213E+03  0.12509172189E+03 0.  0.
          5    1    3    3  502    0  0.71068725839E+02  0.33568211575E+02  0.47777781013E+02  0.92074846616E+02  0.41800000000E+01 0. -1.
         -5    1    3    3    0  502  0.75034208078E+02 -0.28985724807E+02 -0.60501414154E+02  0.10073826552E+03  0.41800000000E+01 0. -1.
        -11    1    1    2    0    0 -0.13180030639E+03 -0.29699913885E+02  0.13639316936E+03  0.19198047374E+03  0.00000000000E+00 0. -1.
         11    1    1    2    0    0 -0.14302627525E+02  0.25117427118E+02  0.18585695463E+01  0.28963849535E+02  0.00000000000E+00 0.  1.
</event>
<event>
 7    1  0.2723366E-009  0.1811780E+03  0.7561462E-02  0.1166668E+00
         -1   -1    0    0    0  501 -0.00000000000E+00  0.00000000000E+00  0.48773351008E+02  0.48773351008E+02  0.00000000000E+00 0.  1.
          1   -1    0    0  501    0  0.00000000000E+00 -0.00000000000E+00 -0.10306109635E+04  0.10306109635E+04  0.00000000000E+00 0. -1.
         25    2    1    2    0    0 -0.16627182671E+03 -0.68981796717E+02 -0.32408698981E+03  0.39125986196E+03  0.12508834469E+03 0.  0.
          5    1    3    3  502    0 -0.14221462296E+03 -0.67287119549E+02 -0.15669769905E+03  0.22209051472E+03  0.41800000000E+01 0. -1.
         -5    1    3    3    0  502 -0.24057203750E+02 -0.16946771685E+01 -0.16738929076E+03  0.16916934724E+03  0.41800000000E+01 0. -1.
        -11    1    1    2    0    0  0.87791275225E+01  0.70615982846E+01 -0.27249079249E+01  0.11591564760E+02  0.00000000000E+00 0.  1.
         11    1    1    2    0    0  0.15749269919E+03  0.61920198433E+02 -0.65502571477E+03  0.67653288780E+03  0.00000000000E+00 0. -1.
</event>
<event>
 7    1  0.2723366E-009  0.1409500E+03  0.7561462E-02  0.1212056E+00
         -2   -1    0    0    0  501 -0.00000000000E+00  0.00000000000E+00  0.16194025938E+02  0.16194025938E+02  0.00000000000E+00 0.  1.
          2   -1    0    0  501    0  0.00000000000E+00 -0.00000000000E+00 -0.17152424590E+04  0.17152424590E+04  0.00000000000E+00 0. -1.
         25    2    1    2    0    0 -0.71737417687E+02  0.73630506876E+02 -0.13416080899E+04  0.13513425249E+04  0.12508654693E+03 0.  0.
          5    1    3    3  502    0 -0.79286071746E+02  0.72113213191E+00 -0.47112566815E+03  0.47776947244E+03  0.41800000000E+01 0. -1.
         -5    1    3    3    0  502  0.75486540597E+01  0.72909374744E+02 -0.87048242174E+03  0.87357305251E+03  0.41800000000E+01 0. -1.
        -11    1    1    2    0    0  0.51801251890E+02  0.10244025083E+01 -0.15329616153E+03  0.16181511745E+03  0.00000000000E+00 0.  1.
         11    1    1    2    0    0  0.19936165796E+02 -0.74654909384E+02 -0.20414418167E+03  0.21827884257E+03  0.00000000000E+00 0. -1.
</event>
<event>
 7    1  0.2723366E-009  0.1156807E+03  0.7561462E-02  0.1250398E+00
          2   -1    0    0  501    0  0.00000000000E+00  0.00000000000E+00  0.21110713997E+03  0.21110713997E+03  0.00000000000E+00 0. -1.
         -2   -1    0    0    0  501 -0.00000000000E+00 -0.00000000000E+00 -0.83052059512E+02  0.83052059512E+02  0.00000000000E+00 0.  1.
         25    2    1    2    0    0  0.36663997720E+02 -0.60965642621E+02  0.99194315127E+02  0.17477907245E+03  0.12508858343E+03 0.  0.
          5    1    3    3  502    0  0.19679337064E+02 -0.90027420062E+02  0.10564480309E+03  0.14025159354E+03  0.41800000000E+01 0. -1.
         -5    1    3    3    0  502  0.16984660656E+02  0.29061777440E+02 -0.64504879589E+01  0.34527478919E+02  0.41800000000E+01 0. -1.
        -11    1    1    2    0    0  0.37702930518E+01  0.64495590916E+02 -0.73044505315E+01  0.65017315808E+02  0.00000000000E+00 0.  1.
         11    1    1    2    0    0 -0.40434290771E+02 -0.35299482948E+01  0.36165215859E+02  0.54362811216E+02  0.00000000000E+00 0. -1.
</event>
<event>
 7    1  0.2723366E-009  0.1087680E+03  0.7561462E-02  0.1262868E+00
          1   -1    0    0  501    0  0.00000000000E+00  0.00000000000E+00  0.56700960027E+03  0.56700960027E+03  0.00000000000E+00 0. -1.
         -1   -1    0    0    0  501 -0.00000000000E+00 -0.00000000000E+00 -0.29997683396E+02  0.29997683396E+02  0.00000000000E+00 0.  1.
         25    2    1    2    0    0  0.86650725424E+01 -0.64563634677E+02  0.35280652244E+03  0.37995156190E+03  0.12508877133E+03 0.  0.
          5    1    3    3  502    0 -0.41190598071E+02  0.17204505448E+02  0.12503202572E+03  0.13282748297E+03  0.41800000000E+01 0.  1.
         -5    1    3    3    0  502  0.49855670614E+02 -0.81768140126E+02  0.22777449672E+03  0.24712407893E+03  0.41800000000E+01 0.  1.
        -11    1    1    2    0    0 -0.20996013322E+02  0.60208477543E+02  0.19166973399E+03  0.20199797096E+03  0.00000000000E+00 0. -1.
         11    1    1    2    0    0  0.12330940780E+02  0.43551571348E+01 -0.74643395581E+01  0.15057750802E+02  0.00000000000E+00 0.  1.
</event>
<event>
 7    1  0.2723366E-009  0.8292799E+02  0.7561462E-02  0.1320942E+00
          2   -1    0    0  501    0  0.00000000000E+00  0.00000000000E+00  0.11909284411E+03  0.11909284411E+03  0.00000000000E+00 0. -1.
         -2   -1    0    0    0  501 -0.00000000000E+00 -0.00000000000E+00 -0.11305458658E+03  0.11305458658E+03  0.00000000000E+00 0.  1.
         25    2    1    2    0    0 -0.54558706747E+01  0.40316957519E+02 -0.58122173524E+01  0.13166762244E+03  0.12508939739E+03 0.  0.
          5    1    3    3  502    0 -0.88010675124E+01 -0.11119660324E+02  0.52023276835E+02  0.54083263287E+02  0.41800000000E+01 0. -1.
         -5    1    3    3    0  502  0.33451968377E+01  0.51436617843E+02 -0.57835494187E+02  0.77584359151E+02  0.41800000000E+01 0. -1.
        -11    1    1    2    0    0  0.48012286036E+02 -0.17757027197E+02  0.10714647231E+02  0.52300050579E+02  0.00000000000E+00 0. -1.
         11    1    1    2    0    0 -0.42556415361E+02 -0.22559930323E+02  0.11358276504E+01  0.48179757668E+02  0.00000000000E+00 0.  1.
</event>
<event>
 7    1  0.2723366E-009  0.1903665E+03  0.7561462E-02  0.1158131E+00
          1   -1    0    0  501    0  0.00000000000E+00  0.00000000000E+00  0.70037679262E+03  0.70037679262E+03  0.00000000000E+00 0. -1.
         -1   -1    0    0    0  501 -0.00000000000E+00 -0.00000000000E+00 -0.94451979226E+02  0.94451979226E+02  0.00000000000E+00 0.  1.
         25    2    1    2    0    0  0.27454375714E+02 -0.15924612345E+03  0.56964808275E+03  0.60519168769E+03  0.12507985485E+03 0.  0.
          5    1    3    3  502    0 -0.39100298243E+02 -0.22423106501E+02  0.74472388473E+02  0.87150663066E+02  0.41800000000E+01 0.  1.
         -5    1    3    3    0  502  0.66554673957E+02 -0.13682301695E+03  0.49517569427E+03  0.51804102462E+03  0.41800000000E+01 0.  1.
        -11    1    1    2    0    0  0.17115908455E+02  0.12723867099E+03  0.40449803757E+02  0.13460616755E+03  0.00000000000E+00 0.  1.
         11    1    1    2    0    0 -0.44570284169E+02  0.32007452457E+02 -0.41730731111E+01  0.55030916609E+02  0.00000000000E+00 0. -1.
</event>
<event>
 7    1  0.2723366E-009  0.1571895E+03  0.7561462E-02  0.1191907E+00
          1   -1    0    0  501    0  0.00000000000E+00  0.00000000000E+00  0.67245311728E+03  0.67245311728E+03  0.00000000000E+00 0. -1.
         -1   -1    0    0    0  501 -0.00000000000E+00 -0.00000000000E+00 -0.39625966363E+02  0.39625966363E+02  0.00000000000E+00 0.  1.
         25    2    1    2    0    0 -0.10981265589E+03  0.28903971191E+02  0.38873897162E+03  0.42386260642E+03  0.12508901679E+03 0.  0.
          5    1    3    3  502    0  0.23402406477E+02 -0.62669197993E+01  0.25842712735E+02  0.35668825523E+02  0.41800000000E+01 0.  1.
         -5    1    3    3    0  502 -0.13321506236E+03  0.35170890991E+02  0.36289625889E+03  0.38819378090E+03  0.41800000000E+01 0.  1.
        -11    1    1    2    0    0  0.96021113643E+02 -0.63221889678E+02  0.19980937823E+03  0.23052299067E+03  0.00000000000E+00 0. -1.
         11    1    1    2    0    0  0.13791542243E+02  0.34317918487E+02  0.44278801072E+02  0.57693486557E+02  0.00000000000E+00 0.  1.
</event>
<event>
 7    1  0.2723366E-009  0.1769458E+03  0.7561462E-02  0.1170792E+00
         -1   -1    0    0    0  501 -0.00000000000E+00  0.00000000000E+00  0.68142419012E+02  0.68142419012E+02  0.00000000000E+00 0.  1.
          1   -1    0    0  501    0  0.00000000000E+00 -0.00000000000E+00 -0.59114632363E+03  0.59114632363E+03  0.00000000000E+00 0. -1.
         25    2    1    2    0    0  0.11639132413E+03  0.10553710892E+03 -0.37233441005E+03  0.42304294052E+03  0.12508954763E+03 0.  0.
          5    1    3    3  502    0 -0.28590254601E+01 -0.11836655168E+02 -0.11720899691E+03  0.11791395927E+03  0.41800000000E+01 0.  1.
         -5    1    3    3    0  502  0.11925034959E+03  0.11737376409E+03 -0.25512541314E+03  0.30512898126E+03  0.41800000000E+01 0.  1.
        -11    1    1    2    0    0 -0.35429295578E+02  0.58806521066E+01 -0.64380659473E+02  0.73720325342E+02  0.00000000000E+00 0. -1.
         11    1    1    2    0    0 -0.80962028552E+02 -0.11141776103E+03 -0.86288835101E+02  0.16252547678E+03  0.00000000000E+00 0.  1.
</event>
<event>
 7    1  0.2723366E-009  0.1030519E+03  0.7561462E-02  0.1274006E+00
         -2   -1    0    0    0  501 -0.00000000000E+00  0.00000000000E+00  0.26400111215E+02  0.26400111215E+02  0.00000000000E+00 0.  1.
          2   -1    0    0  501    0  0.00000000000E+00 -0.00000000000E+00 -0.74449925923E+03  0.74449925923E+03  0.00000000000E+00 0. -1.
         25    2    1    2    0    0 -0.48923844723E+02 -0.53972868011E+02 -0.43672837335E+03  0.46009517139E+03  0.12509708863E+03 0.  0.
          5    1    3    3  502    0 -0.99550540105E+01 -0.22149626604E+02 -0.46482463761E+01  0.25075638644E+02  0.41800000000E+01 0. -1.
         -5    1    3    3    0  502 -0.38968790713E+02 -0.31823241407E+02 -0.43208012698E+03  0.43501953275E+03  0.41800000000E+01 0. -1.
        -11    1    1    2    0    0  0.92486161836E+01  0.81924433075E+02 -0.19539009694E+03  0.21207177940E+03  0.00000000000E+00 0. -1.
         11    1    1    2    0    0  0.39675228540E+02 -0.27951565064E+02 -0.85980677730E+02  0.98732419661E+02  0.00000000000E+00 0.  1.
</event>
<event>
 7    1  0.2723366E-009  0.1981637E+03  0.7561462E-02  0.1151298E+00
          2   -1    0    0  501    0  0.00000000000E+00  0.00000000000E+00  0.39476071422E+03  0.39476071422E+03  0.00000000000E+00 0. -1.
         -2   -1    0    0    0  501 -0.00000000000E+00 -0.00000000000E+00 -0.11583424655E+03  0.11583424655E+03  0.00000000000E+00 0.  1.
         25    2    1    2    0    0  0.13241515837E+03 -0.10805793386E+03  0.22667647963E+03  0.31022648409E+03  0.12509178142E+03 0.  0.
          5    1    3    3  502    0  0.61775513986E+02  0.20063571252E+02  0.61721401113E+02  0.89698187133E+02  0.41800000000E+01 0. -1.
         -5    1    3    3    0  502  0.70639644388E+02 -0.12812150511E+03  0.16495507851E+03  0.22052829696E+03  0.41800000000E+01 0. -1.
        -11    1    1    2    0    0 -0.59571925190E+02  0.93077300892E+02  0.18371038192E+01  0.11052408408E+03  0.00000000000E+00 0.  1.
         11    1    1    2    0    0 -0.72843233184E+02  0.14980632967E+02  0.50412884231E+02  0.89844392598E+02  0.00000000000E+00 0. -1.
</event>
<event>
 7    1  0.2723366E-009  0.1671862E+03  0.7561462E-02  0.1180814E+00
          1   -1    0    0  501    0  0.00000000000E+00  0.00000000000E+00  0.56743007368E+03  0.56743007368E+03  0.00000000000E+00 0. -1.
         -1   -1    0    0    0  501 -0.00000000000E+00 -0.00000000000E+00 -0.65948310558E+02  0.65948310558E+02  0.00000000000E+00 0.  1.
         25    2    1    2    0    0  0.15379376990E+03  0.18906137947E+02  0.32963186242E+03  0.38511621307E+03  0.12508943654E+03 0.  0.
          5    1    3    3  502    0  0.12173294296E+03  0.36591740668E+02  0.12909234108E+03  0.18121856917E+03  0.41800000000E+01 0.  1.
         -5    1    3    3    0  502  0.32060826940E+02 -0.17685602721E+02  0.20053952134E+03  0.20389764390E+03  0.41800000000E+01 0.  1.
        -11    1    1    2    0    0 -0.48936100770E+02  0.26977836091E+02  0.22839606314E+02  0.60367153447E+02  0.00000000000E+00 0.  1.
         11    1    1    2    0    0 -0.10485766913E+03 -0.45883974038E+02  0.14901029438E+03  0.18789501771E+03  0.00000000000E+00 0. -1.
</event>
<event>
 7    1  0.2723366E-009  0.1355928E+03  0.7561462E-02  0.1219385E+00
         -1   -1    0    0    0  501 -0.00000000000E+00  0.00000000000E+00  0.30252334722E+02  0.30252334722E+02  0.00000000000E+00 0.  1.
          1   -1    0    0  501    0  0.00000000000E+00 -0.00000000000E+00 -0.75561504581E+03  0.75561504581E+03  0.00000000000E+00 0. -1.
         25    2    1    2    0    0  0.48629146571E+02 -0.83853221284E+02 -0.29532503124E+03  0.33505294850E+03  0.12508975820E+03 0.  0.
          5    1    3    3  502    0  0.80934926556E+02 -0.90646749291E+02 -0.19971760685E+03  0.23382020952E+03  0.41800000000E+01 0.  1.
         -5    1    3    3    0  502 -0.32305779985E+02  0.67935280068E+01 -0.95607424384E+02  0.10123273898E+03  0.41800000000E+01 0.  1.
        -11    1    1    2    0    0  0.14252872605E+02  0.42491901900E+01 -0.82678342446E+01  0.17016376754E+02  0.00000000000E+00 0.  1.
         11    1    1    2    0    0 -0.62882019176E+02  0.79604031094E+02 -0.42176984560E+03  0.43379805528E+03  0.00000000000E+00 0. -1.
</event>
<event>
 7    1  0.2723366E-009  0.1295536E+03  0.7561462E-02  0.1228120E+00
         -2   -1    0    0    0  501 -0.00000000000E+00  0.00000000000E+00  0.21601437597E+03  0.21601437597E+03  0.00000000000E+00 0. -1.
          2   -1    0    0  501    0  0.00000000000E+00 -0.00000000000E+00 -0.81782465218E+02  0.81782465218E+02  0.00000000000E+00 0.  1.
         25    2    1    2    0    0 -0.28218475727E+02  0.68030641405E+02  0.60862650759E+02  0.15740507775E+03  0.12509055001E+03 0.  0.
          5    1    3    3  502    0 -0.77215753081E+02  0.31516527765E+02  0.29255248209E+02  0.88481105294E+02  0.41800000000E+01 0.  1.
         -5    1    3    3    0  502  0.48997277354E+02  0.36514113640E+02  0.31607402550E+02  0.68923972455E+02  0.41800000000E+01 0.  1.
        -11    1    1    2    0    0  0.55055869803E+02 -0.68028263069E+02  0.36577803316E+02  0.94852143209E+02  0.00000000000E+00 0.  1.
         11    1    1    2    0    0 -0.26837394076E+02 -0.23783362113E-02  0.36791456678E+02  0.45539620233E+02  0.00000000000E+00 0. -1.
</event>
<event>
 7    1  0.2723366E-009  0.6308186E+02  0.7561462E-02  0.1385336E+00
         -2   -1    0    0    0  501 -0.00000000000E+00  0.00000000000E+00  0.23783566423E+02  0.23783566423E+02  0.00000000000E+00 0.  1.
          2   -1    0    0  501    0  0.00000000000E+00 -0.00000000000E+00 -0.55680125046E+03  0.55680125046E+03  0.00000000000E+00 0. -1.
         25    2    1    2    0    0 -0.11010439853E+02  0.38969401247E+02 -0.30416085913E+03  0.33136232881E+03  0.12508925096E+03 0.  0.
          5    1    3    3  502    0  0.40293770788E+01  0.39283984875E+02 -0.31156297766E+03  0.31408347425E+03  0.41800000000E+01 0. -1.
         -5    1    3    3    0  502 -0.15039816932E+02 -0.31458362787E+00  0.74021185288E+01  0.17278854561E+02  0.41800000000E+01 0. -1.
        -11    1    1    2    0    0  0.34855865531E+02 -0.18766426113E+02 -0.20780103682E+03  0.21153813134E+03  0.00000000000E+00 0. -1.
         11    1    1    2    0    0 -0.23845425678E+02 -0.20202975134E+02 -0.21055788088E+02  0.37684356728E+02  0.00000000000E+00 0.  1.
</event>
<event>
 7    1  0.2723366E-009  0.1135181E+03  0.7561462E-02  0.1254190E+00
          2   -1    0    0  501    0  0.00000000000E+00  0.00000000000E+00  0.14173374063E+03  0.14173374063E+03  0.00000000000E+00 0.  1.
         -2   -1    0    0    0  501 -0.00000000000E+00 -0.00000000000E+00 -0.21140333049E+03  0.21140333049E+03  0.00000000000E+00 0. -1.
         25    2    1    2    0    0 -0.42487279540E+02 -0.38119253039E+02 -0.16075899801E+03  0.21154036182E+03  0.12509045872E+03 0.  0.
          5    1    3    3  502    0  0.41148045649E+02 -0.21920992825E+02 -0.86935952473E+02  0.98737145085E+02  0.41800000000E+01 0. -1.
         -5    1    3    3    0  502 -0.83635325188E+02 -0.16198260214E+02 -0.73823045541E+02  0.11280321674E+03  0.41800000000E+01 0. -1.
        -11    1    1    2    0    0  0.63035138793E+02  0.16608028448E+02  0.26276828572E+02  0.70283191812E+02  0.00000000000E+00 0. -1.
         11    1    1    2    0    0 -0.20547859253E+02  0.21511224591E+02  0.64812579585E+02  0.71313517482E+02  0.00000000000E+00 0.  1.
</event>
<event>
 7    1  0.2723366E-009  0.1020146E+03  0.7561462E-02  0.1276116E+00
         -1   -1    0    0    0  501 -0.00000000000E+00  0.00000000000E+00  0.24845720699E+03  0.24845720699E+03  0.00000000000E+00 0.  1.
          1   -1    0    0  501    0  0.00000000000E+00 -0.00000000000E+00 -0.59036983786E+02  0.59036983786E+02  0.00000000000E+00 0. -1.
         25    2    1    2    0    0 -0.11635471991E+02 -0.10791612189E+02  0.17047392520E+03  0.21203994008E+03  0.12509090261E+03 0.  0.
          5    1    3    3  502    0 -0.22786315090E+02 -0.63035768804E+02  0.63642423541E+02  0.92523266146E+02  0.41800000000E+01 0.  1.
         -5    1    3    3    0  502  0.11150843099E+02  0.52244156615E+02  0.10683150166E+03  0.11951667393E+03  0.41800000000E+01 0.  1.
        -11    1    1    2    0    0 -0.25244156943E+02 -0.22340762812E+02  0.29466716443E+02  0.44773480105E+02  0.00000000000E+00 0.  1.
         11    1    1    2    0    0  0.36879628933E+02  0.33132375001E+02 -0.10520418437E+02  0.50680770590E+02  0.00000000000E+00 0. -1.
</event>
<event>
 7    1  0.2723366E-009  0.9366811E+02  0.7561462E-02  0.1294204E+00
         -3   -1    0    0    0  501 -0.00000000000E+00  0.00000000000E+00  0.83107492354E+02  0.83107492354E+02  0.00000000000E+00 0.  1.
          3   -1    0    0  501    0  0.00000000000E+00 -0.00000000000E+00 -0.33134041329E+03  0.33134041329E+03  0.00000000000E+00 0. -1.
         25    2    1    2    0    0  0.28671972434E+02 -0.76770629142E+02 -0.22925036864E+02  0.15129131879E+03  0.12509074436E+03 0.  0.
          5    1    3    3  502    0  0.13139575153E+02 -0.71410799787E+02  0.42138381280E+02  0.84055138679E+02  0.41800000000E+01 0. -1.
         -5    1    3    3    0  502  0.15532397281E+02 -0.53598293552E+01 -0.65063418143E+02  0.67236180116E+02  0.41800000000E+01 0. -1.
        -11    1    1    2    0    0 -0.40224626419E+02  0.76103531752E+02 -0.23357708385E+03  0.24893377074E+03  0.00000000000E+00 0. -1.
         11    1    1    2    0    0  0.11552653985E+02  0.66709739030E+00  0.82691997794E+01  0.14222816107E+02  0.00000000000E+00 0.  1.
</event>
<event>
 7    1  0.2723366E-009  0.3153014E+03  0.7561462E-02  0.1077832E+00
          1   -1    0    0  501    0  0.00000000000E+00  0.00000000000E+00  0.95858207728E+02  0.95858207728E+02  0.00000000000E+00 0. -1.
         -1   -1    0    0    0  501 -0.00000000000E+00 -0.00000000000E+00 -0.11416971196E+04  0.11416971196E+04  0.00000000000E+00 0.  1.
         25    2    1    2    0    0  0.10340952885E+03  0.29434902933E+03 -0.46720139122E+03  0.57555099947E+03  0.12508769448E+03 0.  0.
          5    1    3    3  502    0  0.47845412023E+02  0.14867340816E+03 -0.34039389960E+03  0.37453764168E+03  0.41800000000E+01 0.  1.
         -5    1    3    3    0  502  0.55564116823E+02  0.14567562117E+03 -0.12680749161E+03  0.20101335779E+03  0.41800000000E+01 0.  1.
        -11    1    1    2    0    0 -0.62760413705E+02 -0.88037484397E+02 -0.24254382108E+03  0.26555032165E+03  0.00000000000E+00 0.  1.
         11    1    1    2    0    0 -0.40649115140E+02 -0.20631154493E+03 -0.33609369953E+03  0.39645400616E+03  0.00000000000E+00 0. -1.
</event>
<event>
 7    1  0.2723366E-009  0.1158721E+03  0.7561462E-02  0.1250066E+00
          2   -1    0    0  501    0  0.00000000000E+00  0.00000000000E+00  0.30167179349E+03  0.30167179349E+03  0.00000000000E+00 0. -1.
         -2   -1    0    0    0  501 -0.00000000000E+00 -0.00000000000E+00 -0.82316211109E+02  0.82316211109E+02  0.00000000000E+00 0.  1.
         25    2    1    2    0    0 -0.38360050674E+02 -0.33140266455E+02  0.24252373579E+03  0.27754894765E+03  0.12508351278E+03 0.  0.
          5    1    3    3  502    0  0.40660322098E+02 -0.26030131887E+02  0.51772271949E+02  0.70913116572E+02  0.41800000000E+01 0.  1.
         -5    1    3    3    0  502 -0.79020372772E+02 -0.71101345685E+01  0.19075146384E+03  0.20663583107E+03  0.41800000000E+01 0.  1.
        -11    1    1    2    0    0  0.11641042828E+02 -0.31665517560E+02 -0.91050695091E+01  0.34944544227E+02  0.00000000000E+00 0.  1.
         11    1    1    2    0    0  0.26719007846E+02  0.64805784015E+02 -0.14063083894E+02  0.71494512731E+02  0.00000000000E+00 0. -1.
</event>
<event>
 7    1  0.2723366E-009  0.1082905E+03  0.7561462E-02  0.1263769E+00
          1   -1    0    0  501    0  0.00000000000E+00  0.00000000000E+00  0.16016518152E+04  0.16016518152E+04  0.00000000000E+00 0. -1.
         -1   -1    0    0    0  501 -0.00000000000E+00 -0.00000000000E+00 -0.87797192483E+01  0.87797192483E+01  0.00000000000E+00 0.  1.
         25    2    1    2    0    0  0.11901722412E+02 -0.57320282709E+01  0.12001999074E+04  0.12067731131E+04  0.12508805530E+03 0.  0.
          5    1    3    3  502    0  0.63984305215E+02  0.20440787468E+02  0.65844897455E+03  0.66187940110E+03  0.41800000000E+01 0.  1.
         -5    1    3    3    0  502 -0.52082582803E+02 -0.26172815739E+02  0.54175093287E+03  0.54489371200E+03  0.41800000000E+01 0.  1.
        -11    1    1    2    0    0 -0.28418180751E+02 -0.36055853921E+02  0.15025342961E+03  0.15711050476E+03  0.00000000000E+00 0.  1.
         11    1    1    2    0    0  0.16516458339E+02  0.41787882192E+02  0.24241875894E+03  0.24654791660E+03  0.00000000000E+00 0. -1.
</event>
<event>
 7    1  0.2723366E-009  0.1123261E+03  0.7561462E-02  0.1256322E+00
         -3   -1    0    0    0  501 -0.00000000000E+00  0.00000000000E+00  0.23587870007E+03  0.23587870007E+03  0.00000000000E+00 0.  1.
          3   -1    0    0  501    0  0.00000000000E+00 -0.00000000000E+00 -0.59089650859E+02  0.59089650859E+02  0.00000000000E+00 0. -1.
         25    2    1    2    0    0  0.11466329842E+02  0.28449271857E+02  0.57151989861E+02  0.14089472391E+03  0.12507651855E+03 0.  0.
          5    1    3    3  502    0 -0.44279000012E+02  0.50681002200E+02  0.39726851121E+02  0.78261669583E+02  0.41800000000E+01 0. -1.
         -5    1    3    3    0  502  0.55745329853E+02 -0.22231730343E+02  0.17425138740E+02  0.62633054329E+02  0.41800000000E+01 0. -1.
        -11    1    1    2    0    0 -0.45663138332E+02  0.87929046124E+01  0.55645269600E+02  0.72517814382E+02  0.00000000000E+00 0.  1.
         11    1    1    2    0    0  0.34196808491E+02 -0.37242176469E+02  0.63991789748E+02  0.81555812633E+02  0.00000000000E+00 0. -1.
</event>
<event>
 7    1  0.2723366E-009  0.1565561E+03  0.7561462E-02  0.1192641E+00
         -1   -1    0    0    0  501 -0.00000000000E+00  0.00000000000E+00  0.24480473836E+02  0.24480473836E+02  0.00000000000E+00 0.  1.
          1   -1    0    0  501    0  0.00000000000E+00 -0.00000000000E+00 -0.19062356485E+04  0.19062356485E+04  0.00000000000E+00 0. -1.
         25    2    1    2    0    0 -0.14507542056E+03 -0.15483614484E+02 -0.15020244878E+04  0.15142679714E+04  0.12507320813E+03 0.  0.
          5    1    3    3  502    0 -0.14802602603E+03 -0.15150142720E+02 -0.90042521696E+03  0.91264685116E+03  0.41800000000E+01 0. -1.
         -5    1    3    3    0  502  0.29506054719E+01 -0.33347176321E+00 -0.60159927086E+03  0.60162112028E+03  0.41800000000E+01 0. -1.
        -11    1    1    2    0    0  0.70392680039E+02  0.39449240428E+02 -0.26836739052E+03  0.28023637927E+03  0.00000000000E+00 0.  1.
         11    1    1    2    0    0  0.74682740520E+02 -0.23965625945E+02 -0.11136329635E+03  0.13621177164E+03  0.00000000000E+00 0. -1.
</event>
<event>
 7    1  0.2723366E-009  0.1603999E+03  0.7561462E-02  0.1188246E+00
         -2   -1    0    0    0  501 -0.00000000000E+00  0.00000000000E+00  0.34425586259E+02  0.34425586259E+02  0.00000000000E+00 0.  1.
          2   -1    0    0  501    0  0.00000000000E+00 -0.00000000000E+00 -0.99212631727E+03  0.99212631727E+03  0.00000000000E+00 0. -1.
         25    2    1    2    0    0  0.12736758901E+03  0.64794653422E+02 -0.32454814043E+03  0.37603288534E+03  0.12509350726E+03 0.  0.
          5    1    3    3  502    0  0.28406091325E+02  0.66635274907E+02 -0.62080701458E+02  0.95491631988E+02  0.41800000000E+01 0.  1.
         -5    1    3    3    0  502  0.98961497689E+02 -0.18406214847E+01 -0.26246743897E+03  0.28054125335E+03  0.41800000000E+01 0.  1.
        -11    1    1    2    0    0 -0.12547753316E+03 -0.51317195149E+02 -0.58283754698E+03  0.59839591578E+03  0.00000000000E+00 0. -1.
         11    1    1    2    0    0 -0.18900558541E+01 -0.13477458273E+02 -0.50315043598E+02  0.52123102411E+02  0.00000000000E+00 0.  1.
</event>
<event>
 7    1  0.2723366E-009  0.9038263E+02  0.7561462E-02  0.1301928E+00
          1   -1    0    0  501    0  0.00000000000E+00  0.00000000000E+00  0.17020136151E+03  0.17020136151E+03  0.00000000000E+00 0. -1.
         -1   -1    0    0    0  501 -0.00000000000E+00 -0.00000000000E+00 -0.97553482080E+02  0.97553482080E+02  0.00000000000E+00 0.  1.
         25    2    1    2    0    0 -0.18139389838E+02  0.65014666102E+02  0.58743904026E+02  0.15380010803E+03  0.12509069788E+03 0.  0.
          5    1    3    3  502    0  0.29487601874E+01  0.35478791682E+01  0.83797800388E+02  0.84028723560E+02  0.41800000000E+01 0. -1.
         -5    1    3    3    0  502 -0.21088150025E+02  0.61466786934E+02 -0.25053896362E+02  0.69771384467E+02  0.41800000000E+01 0. -1.
        -11    1    1    2    0    0 -0.26206997389E+02 -0.59142069274E+02 -0.60537494266E+01  0.64971062422E+02  0.00000000000E+00 0. -1.
         11    1    1    2    0    0  0.44346387227E+02 -0.58725968281E+01  0.19957724826E+02  0.48983673136E+02  0.00000000000E+00 0.  1.
</event>
<event>
 7    1  0.2723366E-009  0.1055773E+03  0.7561462E-02  0.1268986E+00
         -1   -1    0    0    0  501 -0.00000000000E+00  0.00000000000E+00  0.48045185120E+03  0.48045185120E+03  0.00000000000E+00 0.  1.
          1   -1    0    0  501    0  0.00000000000E+00 -0.00000000000E+00 -0.29762117863E+02  0.29762117863E+02  0.00000000000E+00 0. -1.
         25    2    1    2    0    0 -0.31784887812E+02 -0.35295994143E+02  0.22215151373E+03  0.25934076283E+03  0.12510095890E+03 0.  0.
          5    1    3    3  502    0 -0.28464283037E+02 -0.71921272242E+02  0.20380799201E+03  0.21803223343E+03  0.41800000000E+01 0. -1.
         -5    1    3    3    0  502 -0.33206047748E+01  0.36625278099E+02  0.18343521724E+02  0.41308529400E+02  0.41800000000E+01 0. -1.
        -11    1    1    2    0    0 -0.29099251729E+02  0.12456460997E+02  0.37512023149E+02  0.49082397582E+02  0.00000000000E+00 0. -1.
         11    1    1    2    0    0  0.60884139541E+02  0.22839533147E+02  0.19102619646E+03  0.20179080865E+03  0.00000000000E+00 0.  1.
</event>
<event>
 7    1  0.2723366E-009  0.1892722E+03  0.7561462E-02  0.1159119E+00
          1   -1    0    0  501    0  0.00000000000E+00  0.00000000000E+00  0.45990912553E+03  0.45990912553E+03  0.00000000000E+00 0. -1.
         -1   -1    0    0    0  501 -0.00000000000E+00 -0.00000000000E+00 -0.10703087700E+03  0.10703087700E+03  0.00000000000E+00 0.  1.
         25    2    1    2    0    0  0.13717748405E+03 -0.10839935146E+03  0.77862210017E+02  0.22864452475E+03  0.12509082069E+03 0.  0.
          5    1    3    3  502    0  0.82270003645E+02 -0.34319858724E+02  0.99686908058E+02  0.13379521008E+03  0.41800000000E+01 0. -1.
         -5    1    3    3    0  502  0.54907480406E+02 -0.74079492734E+02 -0.21824698041E+02  0.94849314667E+02  0.41800000000E+01 0. -1.
        -11    1    1    2    0    0 -0.31004119606E+02  0.81897431756E+02  0.12150223326E+03  0.14977061611E+03  0.00000000000E+00 0.  1.
         11    1    1    2    0    0 -0.10617336444E+03  0.26501919702E+02  0.15351380525E+03  0.18852486167E+03  0.00000000000E+00 0. -1.
</event>
<event>
 7    1  0.2723366E-009  0.4176495E+03  0.7561462E-02  0.1037834E+00
         -1   -1    0    0    0  501 -0.00000000000E+00  0.00000000000E+00  0.19669473053E+03  0.19669473053E+03  0.00000000000E+00 0.  1.
          1   -1    0    0  501    0  0.00000000000E+00 -0.00000000000E+00 -0.11052731805E+04  0.11052731805E+04  0.00000000000E+00 0. -1.
         25    2    1    2    0    0  0.31625323912E+03 -0.25708005523E+03 -0.18114402334E+03  0.46321337267E+03  0.12508878996E+03 0.  0.
          5    1    3    3  502    0  0.29418862267E+03 -0.19403966286E+03 -0.11928423864E+03  0.37208136000E+03  0.41800000000E+01 0.  1.
         -5    1    3    3    0  502  0.22064616453E+02 -0.63040392367E+02 -0.61859784705E+02  0.91132012667E+02  0.41800000000E+01 0.  1.
        -11    1    1    2    0    0 -0.16407968314E+03  0.18585003960E+03 -0.39687586253E+03  0.46794532789E+03  0.00000000000E+00 0.  1.
         11    1    1    2    0    0 -0.15217355598E+03  0.71230015630E+02 -0.33055856411E+03  0.37080921047E+03  0.00000000000E+00 0. -1.
</event>
<event>
 7    1  0.2723366E-009  0.1290761E+03  0.7561462E-02  0.1228833E+00
          1   -1    0    0  501    0  0.00000000000E+00  0.00000000000E+00  0.96382898054E+02  0.96382898054E+02  0.00000000000E+00 0. -1.
         -1   -1    0    0    0  501 -0.00000000000E+00 -0.00000000000E+00 -0.18058384061E+03  0.18058384061E+03  0.00000000000E+00 0.  1.
         25    2    1    2    0    0  0.61959145431E+02  0.58360607881E+02 -0.35900338092E+02  0.15550024846E+03  0.12508635714E+03 0.  0.
          5    1    3    3  502    0 -0.36170305851E+02  0.54969863946E+01 -0.22508673183E+02  0.43158089082E+02  0.41800000000E+01 0.  1.
         -5    1    3    3    0  502  0.98129451282E+02  0.52863621486E+02 -0.13391664909E+02  0.11234215938E+03  0.41800000000E+01 0.  1.
        -11    1    1    2    0    0 -0.66462109013E+02 -0.70470514152E+02 -0.35194776832E+02  0.10306297888E+03  0.00000000000E+00 0.  1.
         11    1    1    2    0    0  0.45029635822E+01  0.12109906272E+02 -0.13105827628E+02  0.18403511316E+02  0.00000000000E+00 0. -1.
</event>
<event>
 7    1  0.2723366E-009  0.1393353E+03  0.7561462E-02  0.1214226E+00
          1   -1    0    0  501    0  0.00000000000E+00  0.00000000000E+00  0.23982500875E+03  0.23982500875E+03  0.00000000000E+00 0. -1.
         -1   -1    0    0    0  501 -0.00000000000E+00 -0.00000000000E+00 -0.15076801463E+03  0.15076801463E+03  0.00000000000E+00 0.  1.
         25    2    1    2    0    0  0.61502378870E+02  0.80135943005E+02  0.16814922333E+03  0.23264911386E+03  0.12508851627E+03 0.  0.
          5    1    3    3  502    0  0.89593667302E+02  0.34556399736E+02  0.14546234496E+03  0.17435003924E+03  0.41800000000E+01 0.  1.
         -5    1    3    3    0  502 -0.28091288432E+02  0.45579543269E+02  0.22686878374E+02  0.58299074614E+02  0.41800000000E+01 0.  1.
        -11    1    1    2    0    0 -0.54878021167E+02 -0.68953071991E+01 -0.84129185024E+01  0.55945684966E+02  0.00000000000E+00 0.  1.
         11    1    1    2    0    0 -0.66243577034E+01 -0.73240635806E+02 -0.70679310711E+02  0.10199822455E+03  0.00000000000E+00 0. -1.
</event>
<event>
 7    1  0.2723366E-009  0.1510718E+03  0.7561462E-02  0.1199162E+00
          2   -1    0    0  501    0  0.00000000000E+00  0.00000000000E+00  0.18641597942E+04  0.18641597942E+04  0.00000000000E+00 0. -1.
         -2   -1    0    0    0  501 -0.00000000000E+00 -0.00000000000E+00 -0.13565272170E+02  0.13565272170E+02  0.00000000000E+00 0.  1.
         25    2    1    2    0    0 -0.21741848919E+01  0.11014475091E+03  0.11785768347E+04  0.11903055073E+04  0.12508897737E+03 0.  0.
          5    1    3    3  502    0  0.33744285416E+02 -0.86426987843E+01  0.43690885741E+03  0.43831517784E+03  0.41800000000E+01 0.  1.
         -5    1    3    3    0  502 -0.35918470308E+02  0.11878744969E+03  0.74166797726E+03  0.75199032946E+03  0.41800000000E+01 0.  1.
        -11    1    1    2    0    0 -0.40795192540E+02 -0.81817903955E+02  0.37556975236E+03  0.38653726345E+03  0.00000000000E+00 0.  1.
         11    1    1    2    0    0  0.42969377432E+02 -0.28326846953E+02  0.29644793502E+03  0.30088229565E+03  0.00000000000E+00 0. -1.
</event>
<event>
 7    1  0.2723366E-009  0.6227751E+02  0.7561462E-02  0.1388515E+00
          1   -1    0    0  501    0  0.00000000000E+00  0.00000000000E+00  0.33154923324E+03  0.33154923324E+03  0.00000000000E+00 0.  1.
         -1   -1    0    0    0  501 -0.00000000000E+00 -0.00000000000E+00 -0.13809748725E+03  0.13809748725E+03  0.00000000000E+00 0. -1.
         25    2    1    2    0    0 -0.45042914269E+02 -0.20269333291E+02  0.29569626234E+03  0.32484426581E+03  0.12509119660E+03 0.  0.
          5    1    3    3  502    0  0.31234156695E+01 -0.25869454870E+02  0.26708758420E+03  0.26838821594E+03  0.41800000000E+01 0. -1.
         -5    1    3    3    0  502 -0.48166329939E+02  0.56001215788E+01  0.28608678140E+02  0.56456049866E+02  0.41800000000E+01 0. -1.
        -11    1    1    2    0    0  0.14814750753E+02  0.50594097803E+01  0.15657059325E+02  0.22140866602E+02  0.00000000000E+00 0.  1.
         11    1    1    2    0    0  0.30228163517E+02  0.15209923511E+02 -0.11790157568E+03  0.12266158808E+03  0.00000000000E+00 0. -1.
</event>
<event>
 7    1  0.2723366E-009  0.6664071E+02  0.7561462E-02  0.1371904E+00
         -2   -1    0    0    0  501 -0.00000000000E+00  0.00000000000E+00  0.27772253813E+03  0.27772253813E+03  0.00000000000E+00 0.  1.
          2   -1    0    0  501    0  0.00000000000E+00 -0.00000000000E+00 -0.53084428263E+02  0.53084428263E+02  0.00000000000E+00 0. -1.
         25    2    1    2    0    0 -0.31294370893E+02  0.96271700868E+01  0.14689385639E+03  0.19569771212E+03  0.12509104457E+03 0.  0.
          5    1    3    3  502    0  0.38826594538E+01  0.36765383871E+02  0.14641719609E+03  0.15107030220E+03  0.41800000000E+01 0. -1.
         -5    1    3    3    0  502 -0.35177030346E+02 -0.27138213784E+02  0.47666029503E+00  0.44627409923E+02  0.41800000000E+01 0. -1.
        -11    1    1    2    0    0  0.42710854661E+01  0.14566701115E+02 -0.23268252985E+02  0.27782054449E+02  0.00000000000E+00 0. -1.
         11    1    1    2    0    0  0.27023285426E+02 -0.24193871201E+02  0.10101250646E+03  0.10732719982E+03  0.00000000000E+00 0.  1.
</event>
<event>
 7    1  0.2723366E-009  0.1203587E+03  0.7561462E-02  0.1242506E+00
          1   -1    0    0  501    0  0.00000000000E+00  0.00000000000E+00  0.75094528351E+03  0.75094528351E+03  0.00000000000E+00 0. -1.
         -1   -1    0    0    0  501 -0.00000000000E+00 -0.00000000000E+00 -0.21370050475E+02  0.21370050475E+02  0.00000000000E+00 0.  1.
         25    2    1    2    0    0 -0.50959681537E+02  0.41367180525E+02  0.44263911333E+03  0.46463438127E+03  0.12509033071E+03 0.  0.
          5    1    3    3  502    0 -0.92084400143E+02  0.26672700203E+02  0.27141646040E+03  0.28788076883E+03  0.41800000000E+01 0. -1.
         -5    1    3    3    0  502  0.41124718606E+02  0.14694480322E+02  0.17122265294E+03  0.17675361244E+03  0.41800000000E+01 0. -1.
        -11    1    1    2    0    0 -0.18314783763E+02 -0.22648568453E+02  0.15285139391E+03  0.15560185595E+03  0.00000000000E+00 0. -1.
         11    1    1    2    0    0  0.69274465300E+02 -0.18718612072E+02  0.13408472579E+03  0.15207909676E+03  0.00000000000E+00 0.  1.
</event>
<event>
 7    1  0.2723366E-009  0.1799377E+03  0.7561462E-02  0.1167863E+00
         -1   -1    0    0    0  501 -0.00000000000E+00  0.00000000000E+00  0.95361918196E+02  0.95361918196E+02  0.00000000000E+00 0.  1.
          1   -1    0    0  501    0  0.00000000000E+00 -0.00000000000E+00 -0.46147638614E+03  0.46147638614E+03  0.00000000000E+00 0. -1.
         25    2    1    2    0    0  0.17612977228E+03 -0.18345136946E+02 -0.22190767759E+03  0.31023940949E+03  0.12508890077E+03 0.  0.
          5    1    3    3  502    0  0.22131201909E+02  0.95657071346E+01  0.13176529129E+02  0.27791836406E+02  0.41800000000E+01 0. -1.
         -5    1    3    3    0  502  0.15399857037E+03 -0.27910844080E+02 -0.23508420672E+03  0.28244757309E+03  0.41800000000E+01 0. -1.
        -11    1    1    2    0    0 -0.10750435392E+03  0.23433272026E+02 -0.13943653894E+03  0.17761996717E+03  0.00000000000E+00 0. -1.
         11    1    1    2    0    0 -0.68625418359E+02 -0.50881350799E+01 -0.47702514142E+01  0.68978927667E+02  0.00000000000E+00 0.  1.
</event>
<event>
 7    1  0.2723366E-009  0.1125301E+03  0.7561462E-02  0.1255955E+00
         -2   -1    0    0    0  501 -0.00000000000E+00  0.00000000000E+00  0.29679612521E+02  0.29679612521E+02  0.00000000000E+00 0. -1.
          2   -1    0    0  501    0  0.00000000000E+00 -0.00000000000E+00 -0.59063558701E+03  0.59063558701E+03  0.00000000000E+00 0.  1.
         25    2    1    2    0    0 -0.51124811095E+01 -0.56726337798E+02 -0.43066048331E+03  0.45205741651E+03  0.12507374255E+03 0.  0.
          5    1    3    3  502    0  0.20530154751E+02 -0.90689358346E+02 -0.32518240576E+03  0.33824121036E+03  0.41800000000E+01 0. -1.
         -5    1    3    3    0  502 -0.25642635861E+02  0.33963020547E+02 -0.10547807755E+03  0.11381620615E+03  0.41800000000E+01 0. -1.
        -11    1    1    2    0    0 -0.17815261028E+02 -0.87488907282E+01 -0.80376818541E+02  0.82791059742E+02  0.00000000000E+00 0.  1.
         11    1    1    2    0    0  0.22927742137E+02  0.65475228527E+02 -0.49918672645E+02  0.85466723283E+02  0.00000000000E+00 0. -1.
</event>
<event>
 7    1  0.2723366E-009  0.9411696E+02  0.7561462E-02  0.1293177E+00
          1   -1    0    0  501    0  0.00000000000E+00  0.00000000000E+00  0.36095390210E+03  0.36095390210E+03  0.00000000000E+00 0. -1.
         -1   -1    0    0    0  501 -0.00000000000E+00 -0.00000000000E+00 -0.49230321558E+02  0.49230321558E+02  0.00000000000E+00 0.  1.
         25    2    1    2    0    0  0.34350214475E+02 -0.12294595144E+02  0.27864156061E+03  0.30760371172E+03  0.12509128611E+03 0.  0.
          5    1    3    3  502    0  0.72293106115E+02 -0.14185936504E+02  0.96412894529E+02  0.12141026570E+03  0.41800000000E+01 0.  1.
         -5    1    3    3    0  502 -0.37942891641E+02  0.18913413599E+01  0.18222866609E+03  0.18619344602E+03  0.41800000000E+01 0.  1.
        -11    1    1    2    0    0  0.17862667007E+02  0.15863210518E+02  0.43116528380E+02  0.49292507951E+02  0.00000000000E+00 0. -1.
         11    1    1    2    0    0 -0.52212881482E+02 -0.35686153735E+01 -0.10034508456E+02  0.53288003981E+02  0.00000000000E+00 0.  1.
</event>
<event>
 7    1  0.2723366E-009  0.1098431E+03  0.7561462E-02  0.1260861E+00
         -3   -1    0    0    0  501 -0.00000000000E+00  0.00000000000E+00  0.62507774591E+03  0.62507774591E+03  0.00000000000E+00 0.  1.
          3   -1    0    0  501    0  0.00000000000E+00 -0.00000000000E+00 -0.21180563780E+02  0.21180563780E+02  0.00000000000E+00 0. -1.
         25    2    1    2    0    0 -0.27258150286E+02  0.20456451569E+02  0.39525764908E+03  0.41597795360E+03  0.12509026965E+03 0.  0.
          5    1    3    3  502    0 -0.72959584188E+02  0.22025551837E+02  0.17398209309E+03  0.18998807061E+03  0.41800000000E+01 0.  1.
         -5    1    3    3    0  502  0.45701433902E+02 -0.15691002676E+01  0.22127555599E+03  0.22598988299E+03  0.41800000000E+01 0.  1.
        -11    1    1    2    0    0 -0.33910693942E+02 -0.43606307548E+01  0.75427696828E+02  0.82814779556E+02  0.00000000000E+00 0.  1.
         11    1    1    2    0    0  0.61168844228E+02 -0.16095820815E+02  0.13321183622E+03  0.14746557653E+03  0.00000000000E+00 0. -1.
</event>
<event>
 7    1  0.2723366E-009  0.1104313E+03  0.7561462E-02  0.1259773E+00
         -1   -1    0    0    0  501 -0.00000000000E+00  0.00000000000E+00  0.60339692612E+02  0.60339692612E+02  0.00000000000E+00 0.  1.
          1   -1    0    0  501    0  0.00000000000E+00 -0.00000000000E+00 -0.53777412396E+03  0.53777412396E+03  0.00000000000E+00 0. -1.
         25    2    1    2    0    0 -0.52977084277E+02 -0.59228642157E+02 -0.59193608456E+02  0.15957822560E+03  0.12508686299E+03 0.  0.
          5    1    3    3  502    0  0.10519482247E+02 -0.52866595655E+02  0.20125888148E+02  0.57689342314E+02  0.41800000000E+01 0.  1.
         -5    1    3    3    0  502 -0.63496566523E+02 -0.63620465013E+01 -0.79319496604E+02  0.10188888329E+03  0.41800000000E+01 0.  1.
        -11    1    1    2    0    0 -0.15541362295E+02  0.10096517067E+02 -0.88224007534E+01  0.20525797278E+02  0.00000000000E+00 0.  1.
         11    1    1    2    0    0  0.68518446571E+02  0.49132125090E+02 -0.40941842214E+03  0.41800979369E+03  0.00000000000E+00 0. -1.
</event>
<event>
 7    1  0.2723366E-009  0.1090112E+03  0.7561462E-02  0.1262412E+00
         -1   -1    0    0    0  501 -0.00000000000E+00  0.00000000000E+00  0.51512601702E+02  0.51512601702E+02  0.00000000000E+00 0.  1.
          1   -1    0    0  501    0  0.00000000000E+00 -0.00000000000E+00 -0.26330869025E+03  0.26330869025E+03  0.00000000000E+00 0. -1.
         25    2    1    2    0    0  0.19407319279E+02  0.23354385787E+02 -0.79168649991E+02  0.15111587528E+03  0.12508501606E+03 0.  0.
          5    1    3    3  502    0  0.49110124013E+02  0.61761537366E+02 -0.39837371479E+02  0.88491696473E+02  0.41800000000E+01 0.  1.
         -5    1    3    3    0  502 -0.29702804733E+02 -0.38407151579E+02 -0.39331278512E+02  0.62624178803E+02  0.41800000000E+01 0.  1.
        -11    1    1    2    0    0 -0.47615679637E+02 -0.35668409951E+02 -0.58477896426E+02  0.83421536704E+02  0.00000000000E+00 0.  1.
         11    1    1    2    0    0  0.28208360357E+02  0.12314024164E+02 -0.74149542133E+02  0.80283879974E+02  0.00000000000E+00 0. -1.
</event>
<event>
 7    1  0.2723366E-009  0.7692062E+02  0.7561462E-02  0.1338025E+00
          2   -1    0    0  501    0  0.00000000000E+00  0.00000000000E+00  0.21455574342E+03  0.21455574342E+03  0.00000000000E+00 0. -1.
         -2   -1    0    0    0  501 -0.00000000000E+00 -0.00000000000E+00 -0.59294072347E+02  0.59294072347E+02  0.00000000000E+00 0.  1.
         25    2    1    2    0    0  0.24434325178E+02 -0.16654083761E+02  0.10115900270E+03  0.16357670588E+03  0.12509916117E+03 0.  0.
          5    1    3    3  502    0 -0.16086816812E+02 -0.24625378299E+01 -0.25070228360E+02  0.30180101353E+02  0.41800000000E+01 0. -1.
         -5    1    3    3    0  502  0.40521141990E+02 -0.14191545931E+02  0.12622923106E+03  0.13339660452E+03  0.41800000000E+01 0. -1.
        -11    1    1    2    0    0  0.31861545686E+02  0.19808646451E+02  0.33330686873E+02  0.50184412472E+02  0.00000000000E+00 0. -1.
         11    1    1    2    0    0 -0.56295870864E+02 -0.31545626901E+01  0.20771981499E+02  0.60088697419E+02  0.00000000000E+00 0.  1.
</event>
<event>
 7    1  0.2723366E-009  0.1131642E+03  0.7561462E-02  0.1254820E+00
          2   -1    0    0  501    0  0.00000000000E+00  0.00000000000E+00  0.17674457178E+03  0.17674457178E+03  0.00000000000E+00 0. -1.
         -2   -1    0    0    0  501 -0.00000000000E+00 -0.00000000000E+00 -0.83680419722E+02  0.83680419722E+02  0.00000000000E+00 0.  1.
         25    2    1    2    0    0  0.47797210033E+02 -0.13457764933E+02  0.23531206351E+02  0.13662211982E+03  0.12508477616E+03 0.  0.
          5    1    3    3  502    0  0.53372875731E+01 -0.60503289505E+02 -0.14514070906E+02  0.62588060633E+02  0.41800000000E+01 0.  1.
         -5    1    3    3    0  502  0.42459922459E+02  0.47045524572E+02  0.38045277257E+02  0.74034059183E+02  0.41800000000E+01 0.  1.
        -11    1    1    2    0    0 -0.11695548035E+02  0.49535372014E+02  0.28633034133E+02  0.58398540804E+02  0.00000000000E+00 0. -1.
         11    1    1    2    0    0 -0.36101661998E+02 -0.36077607080E+02  0.40899911577E+02  0.65404330886E+02  0.00000000000E+00 0.  1.
</event>
<event>
 7    1  0.2723366E-009  0.1131538E+03  0.7561462E-02  0.1254839E+00
          1   -1    0    0  501    0  0.00000000000E+00  0.00000000000E+00  0.12128602113E+04  0.12128602113E+04  0.00000000000E+00 0. -1.
         -1   -1    0    0    0  501 -0.00000000000E+00 -0.00000000000E+00 -0.16216854566E+02  0.16216854566E+02  0.00000000000E+00 0.  1.
         25    2    1    2    0    0  0.48732522490E+02 -0.26245486273E+02  0.95182351485E+03  0.96160241323E+03  0.12509002121E+03 0.  0.
          5    1    3    3  502    0 -0.28929350496E+02  0.16698680874E+02  0.49970572366E+03  0.50083833312E+03  0.41800000000E+01 0.  1.
         -5    1    3    3    0  502  0.77661872985E+02 -0.42944167146E+02  0.45211779119E+03  0.46076408011E+03  0.41800000000E+01 0.  1.
        -11    1    1    2    0    0  0.32130092777E+01 -0.28298013766E+02  0.38896747113E+02  0.48208484188E+02  0.00000000000E+00 0.  1.
         11    1    1    2    0    0 -0.51945531767E+02  0.54543500039E+02  0.20592309477E+03  0.21926616845E+03  0.00000000000E+00 0. -1.
</event>
<event>
 7    1  0.2723366E-009  0.1208694E+03  0.7561462E-02  0.1241670E+00
          1   -1    0    0  501    0  0.00000000000E+00  0.00000000000E+00  0.18173142760E+03  0.18173142760E+03  0.00000000000E+00 0. -1.
         -1   -1    0    0    0  501 -0.00000000000E+00 -0.00000000000E+00 -0.99627476811E+02  0.99627476811E+02  0.00000000000E+00 0.  1.
         25    2    1    2    0    0  0.41080871066E+02 -0.52777967616E+02  0.91951485446E+02  0.16904326119E+03  0.12508955450E+03 0.  0.
          5    1    3    3  502    0  0.65000540109E+02  0.17534854845E+02  0.42983449120E+02  0.79984940127E+02  0.41800000000E+01 0.  1.
         -5    1    3    3    0  502 -0.23919669043E+02 -0.70312822461E+02  0.48968036326E+02  0.89058321066E+02  0.41800000000E+01 0.  1.
        -11    1    1    2    0    0 -0.17926228989E+02  0.69216967761E+02  0.16718832406E+02  0.73429269837E+02  0.00000000000E+00 0. -1.
         11    1    1    2    0    0 -0.23154642077E+02 -0.16439000145E+02 -0.26566367065E+02  0.38886373378E+02  0.00000000000E+00 0.  1.
</event>
<event>
 7    1  0.2723366E-009  0.8262891E+02  0.7561462E-02  0.1321752E+00
          1   -1    0    0  501    0  0.00000000000E+00  0.00000000000E+00  0.32116447242E+02  0.32116447242E+02  0.00000000000E+00 0. -1.
         -1   -1    0    0    0  501 -0.00000000000E+00 -0.00000000000E+00 -0.42379645059E+03  0.42379645059E+03  0.00000000000E+00 0.  1.
         25    2    1    2    0    0  0.83342103722E+01 -0.41280919418E+02 -0.20803576529E+03  0.24637328108E+03  0.12508933056E+03 0.  0.
          5    1    3    3  502    0 -0.35726764338E+01  0.11366710767E+02 -0.18834033353E+03  0.18876313137E+03  0.41800000000E+01 0. -1.
         -5    1    3    3    0  502  0.11906886806E+02 -0.52647630185E+02 -0.19695431764E+02  0.57610149712E+02  0.41800000000E+01 0. -1.
        -11    1    1    2    0    0  0.22961006501E+02 -0.19502246400E+02 -0.78927300480E+02  0.84481146982E+02  0.00000000000E+00 0.  1.
         11    1    1    2    0    0 -0.31295216873E+02  0.60783165819E+02 -0.10471693758E+03  0.12505846977E+03  0.00000000000E+00 0. -1.
</event>
<event>
 7    1  0.2723366E-009  0.2060360E+03  0.7561462E-02  0.1144744E+00
         -1   -1    0    0    0  501 -0.00000000000E+00  0.00000000000E+00  0.52646931417E+02  0.52646931417E+02  0.00000000000E+00 0.  1.
          1   -1    0    0  501    0  0.00000000000E+00 -0.00000000000E+00 -0.84334115716E+03  0.84334115716E+03  0.00000000000E+00 0. -1.
         25    2    1    2    0    0 -0.16757520049E+03  0.78915274145E+02 -0.37013814303E+03  0.43238709114E+03  0.12508910160E+03 0.  0.
          5    1    3    3  502    0 -0.18439923333E+03  0.67722980383E+02 -0.29484034330E+03  0.35431310978E+03  0.41800000000E+01 0. -1.
         -5    1    3    3    0  502  0.16824032832E+02  0.11192293761E+02 -0.75297799734E+02  0.78073981358E+02  0.41800000000E+01 0. -1.
        -11    1    1    2    0    0  0.12952694595E+03 -0.29956869363E+02 -0.29472186708E+03  0.32331969115E+03  0.00000000000E+00 0.  1.
         11    1    1    2    0    0  0.38048254540E+02 -0.48958404782E+02 -0.12583421563E+03  0.14028130630E+03  0.00000000000E+00 0. -1.
</event>
<event>
 7    1  0.2723366E-009  0.1452967E+03  0.7561462E-02  0.1206374E+00
         -1   -1    0    0    0  501 -0.00000000000E+00  0.00000000000E+00  0.93344032067E+02  0.93344032067E+02  0.00000000000E+00 0.  1.
          1   -1    0    0  501    0  0.00000000000E+00 -0.00000000000E+00 -0.28505928957E+03  0.28505928957E+03  0.00000000000E+00 0. -1.
         25    2    1    2    0    0  0.99123527484E+02 -0.80937555199E+02 -0.12579976740E+03  0.21874522440E+03  0.12509008825E+03 0.  0.
          5    1    3    3  502    0  0.44307702790E+02 -0.78537663824E+02 -0.13555309363E+03  0.16286021847E+03  0.41800000000E+01 0. -1.
         -5    1    3    3    0  502  0.54815824694E+02 -0.23998913746E+01  0.97533262369E+01  0.55885005933E+02  0.41800000000E+01 0. -1.
        -11    1    1    2    0    0 -0.72331195889E+02  0.91377853014E+02 -0.55432063073E+02  0.12905203422E+03  0.00000000000E+00 0.  1.
         11    1    1    2    0    0 -0.26792331595E+02 -0.10440297815E+02 -0.10483427030E+02  0.30606063011E+02  0.00000000000E+00 0. -1.
</event>
<event>
 7    1  0.2723366E-009  0.6167609E+02  0.7561462E-02  0.1390930E+00
          1   -1    0    0  501    0  0.00000000000E+00  0.00000000000E+00  0.43165748240E+03  0.43165748240E+03  0.00000000000E+00 0. -1.
         -1   -1    0    0    0  501 -0.00000000000E+00 -0.00000000000E+00 -0.29970016210E+02  0.29970016210E+02  0.00000000000E+00 0.  1.
         25    2    1    2    0    0 -0.80511889066E+01 -0.18177769160E+01  0.15670490247E+03  0.20068562191E+03  0.12510062522E+03 0.  0.
          5    1    3    3  502    0  0.13802495527E+01 -0.19242578128E+02  0.17335160477E+03  0.17447186930E+03  0.41800000000E+01 0. -1.
         -5    1    3    3    0  502 -0.94314384593E+01  0.17424801212E+02 -0.16646702298E+02  0.26213752614E+02  0.41800000000E+01 0. -1.
        -11    1    1    2    0    0 -0.37551589077E+02 -0.19688111366E+01  0.16067258601E+03  0.16501417502E+03  0.00000000000E+00 0. -1.
         11    1    1    2    0    0  0.45602777984E+02  0.37865880526E+01  0.84309977705E+02  0.95927701680E+02  0.00000000000E+00 0.  1.
</event>
<event>
 7    1  0.2723366E-009  0.1009055E+03  0.7561462E-02  0.1278403E+00
          2   -1    0    0  501    0  0.00000000000E+00  0.00000000000E+00  0.67290400420E+03  0.67290400420E+03  0.00000000000E+00 0. -1.
         -2   -1    0    0    0  501 -0.00000000000E+00 -0.00000000000E+00 -0.19562806861E+02  0.19562806861E+02  0.00000000000E+00 0.  1.
         25    2    1    2    0    0  0.34241888215E+02  0.11522006816E+02  0.34932311376E+03  0.37280011783E+03  0.12509207208E+03 0.  0.
          5    1    3    3  502    0  0.88059704846E+00 -0.40906781260E+02  0.40368721303E+02  0.57630254761E+02  0.41800000000E+01 0.  1.
         -5    1    3    3    0  502  0.33361291167E+02  0.52428788076E+02  0.30895439246E+03  0.31516986307E+03  0.41800000000E+01 0.  1.
        -11    1    1    2    0    0  0.50525470137E+01 -0.45906653491E+02  0.12854514308E+03  0.13658990767E+03  0.00000000000E+00 0. -1.
         11    1    1    2    0    0 -0.39294435229E+02  0.34384646675E+02  0.17547294050E+03  0.18307678557E+03  0.00000000000E+00 0.  1.
</event>
<event>
 7    1  0.2723366E-009  0.1323068E+03  0.7561462E-02  0.1224072E+00
         -2   -1    0    0    0  501 -0.00000000000E+00  0.00000000000E+00  0.26249365322E+03  0.26249365322E+03  0.00000000000E+00 0.  1.
          2   -1    0    0  501    0  0.00000000000E+00 -0.00000000000E+00 -0.68947841565E+02  0.68947841565E+02  0.00000000000E+00 0. -1.
         25    2    1    2    0    0 -0.80208841107E+02  0.12857747720E+02  0.10559872485E+03  0.18274945939E+03  0.12508994504E+03 0.  0.
          5    1    3    3  502    0 -0.10705396741E+03 -0.17338828610E+02  0.77313493326E+02  0.13325177510E+03  0.41800000000E+01 0.  1.
         -5    1    3    3    0  502  0.26845126302E+02  0.30196576330E+02  0.28285231526E+02  0.49497684296E+02  0.41800000000E+01 0.  1.
        -11    1    1    2    0    0  0.25899264021E+02 -0.45315669242E+02  0.59998833853E+02  0.79524473085E+02  0.00000000000E+00 0.  1.
         11    1    1    2    0    0  0.54309577086E+02  0.32457921522E+02  0.27948252950E+02  0.69167562309E+02  0.00000000000E+00 0. -1.
</event>
<event>
 7    1  0.2723366E-009  0.2609898E+03  0.7561462E-02  0.1106550E+00
         -3   -1    0    0    0  501 -0.00000000000E+00  0.00000000000E+00  0.18897228532E+03  0.18897228532E+03  0.00000000000E+00 0.  1.
          3   -1    0    0  501    0  0.00000000000E+00 -0.00000000000E+00 -0.41155790752E+03  0.41155790752E+03  0.00000000000E+00 0. -1.
         25    2    1    2    0    0  0.13180659591E+03  0.21690008923E+03 -0.15333502111E+03  0.32183613585E+03  0.12509293430E+03 0.  0.
          5    1    3    3  502    0 -0.82606657959E+01  0.40054750233E+02 -0.70242782942E+02  0.81388835665E+02  0.41800000000E+01 0. -1.
         -5    1    3    3    0  502  0.14006726170E+03  0.17684533899E+03 -0.83092238165E+02  0.24044730019E+03  0.41800000000E+01 0. -1.
        -11    1    1    2    0    0 -0.16985583993E+02 -0.48729507632E+02 -0.53691405607E+02  0.74470410323E+02  0.00000000000E+00 0.  1.
         11    1    1    2    0    0 -0.11482101191E+03 -0.16817058159E+03 -0.15559195487E+02  0.20422364666E+03  0.00000000000E+00 0. -1.
</event>
<event>
 7    1  0.2723366E-009  0.1024673E+03  0.7561462E-02  0.1275191E+00
         -1   -1    0    0    0  501 -0.00000000000E+00  0.00000000000E+00  0.20784605104E+03  0.20784605104E+03  0.00000000000E+00 0.  1.
          1   -1    0    0  501    0  0.00000000000E+00 -0.00000000000E+00 -0.15590449507E+03  0.15590449507E+03  0.00000000000E+00 0. -1.
         25    2    1    2    0    0  0.79274909191E+02 -0.41427191224E-03  0.13600614500E+03  0.20107239735E+03  0.12509167146E+03 0.  0.
          5    1    3    3  502    0  0.65977915687E+02 -0.22879897632E+02  0.81396625181E+01  0.70429408487E+02  0.41800000000E+01 0. -1.
         -5    1    3    3    0  502  0.13296993504E+02  0.22879483360E+02  0.12786648248E+03  0.13064298886E+03  0.41800000000E+01 0. -1.
        -11    1    1    2    0    0 -0.84223012969E+02 -0.20842812016E+02 -0.10258744735E+03  0.13435818948E+03  0.00000000000E+00 0. -1.
         11    1    1    2    0    0  0.49481037780E+01  0.20843226287E+02  0.18522858321E+02  0.28319959277E+02  0.00000000000E+00 0.  1.
</event>
<event>
 7    1  0.2723366E-009  0.1042723E+03  0.7561462E-02  0.1271560E+00
         -1   -1    0    0    0  501 -0.00000000000E+00  0.00000000000E+00  0.43694520304E+02  0.43694520304E+02  0.00000000000E+00 0.  1.
          1   -1    0    0  501    0  0.00000000000E+00 -0.00000000000E+00 -0.31727768515E+03  0.31727768515E+03  0.00000000000E+00 0. -1.
         25    2    1    2    0    0  0.88846029250E+01  0.11424560844E+02 -0.22323929674E+03  0.25630659900E+03  0.12509129594E+03 0.  0.
          5    1    3    3  502    0 -0.24422638169E+02  0.60971162178E+02 -0.12519418211E+03  0.14143904519E+03  0.41800000000E+01 0. -1.
         -5    1    3    3    0  502  0.33307241094E+02 -0.49546601334E+02 -0.98045114636E+02  0.11486755380E+03  0.41800000000E+01 0. -1.
        -11    1    1    2    0    0  0.14604377282E+02  0.31068953588E+02  0.53867881014E+00  0.34334499963E+02  0.00000000000E+00 0.  1.
         11    1    1    2    0    0 -0.23488980207E+02 -0.42493514431E+02 -0.50882546915E+02  0.70331106492E+02  0.00000000000E+00 0. -1.
</event>
<event>
 7    1  0.2723366E-009  0.7226744E+02  0.7561462E-02  0.1352548E+00
         -1   -1    0    0    0  501 -0.00000000000E+00  0.00000000000E+00  0.32351074946E+03  0.32351074946E+03  0.00000000000E+00 0.  1.
          1   -1    0    0  501    0  0.00000000000E+00 -0.00000000000E+00 -0.60074655436E+02  0.60074655436E+02  0.00000000000E+00 0. -1.
         25    2    1    2    0    0  0.30455245692E+02 -0.36153653718E+02  0.25229996275E+03  0.28554785454E+03  0.12509075649E+03 0.  0.
          5    1    3    3  502    0  0.20758647693E+02 -0.96529110513E+01  0.25575577734E+03  0.25681236378E+03  0.41800000000E+01 0. -1.
         -5    1    3    3    0  502  0.96965979995E+01 -0.26500742667E+02 -0.34558145898E+01  0.28735490758E+02  0.41800000000E+01 0. -1.
        -11    1    1    2    0    0  0.19634288982E+01  0.55134683636E+02  0.21270423062E+02  0.59127990748E+02  0.00000000000E+00 0. -1.
         11    1    1    2    0    0 -0.32418674591E+02 -0.18981029918E+02 -0.10134291791E+02  0.38909559610E+02  0.00000000000E+00 0.  1.
</event>
<event>
 7    1  0.2723366E-009  0.1569835E+03  0.7561462E-02  0.1192145E+00
          2   -1    0    0  501    0  0.00000000000E+00  0.00000000000E+00  0.54839350712E+03  0.54839350712E+03  0.00000000000E+00 0. -1.
         -2   -1    0    0    0  501 -0.00000000000E+00 -0.00000000000E+00 -0.68896357864E+02  0.68896357864E+02  0.00000000000E+00 0.  1.
         25    2    1    2    0    0  0.14474140070E+03 -0.56088174478E+02  0.28358472389E+03  0.34664588912E+03  0.12508845043E+03 0.  0.
          5    1    3    3  502    0  0.40164001143E+02 -0.30914388039E+02  0.21044694360E+03  0.21650458390E+03  0.41800000000E+01 0. -1.
         -5    1    3    3    0  502  0.10457739955E+03 -0.25173786439E+02  0.73137780282E+02  0.13014130522E+03  0.41800000000E+01 0. -1.
        -11    1    1    2    0    0 -0.45981378586E+02  0.13573008602E+02  0.89707484279E+00  0.47951209395E+02  0.00000000000E+00 0.  1.
         11    1    1    2    0    0 -0.98760022110E+02  0.42515165876E+02  0.19501535053E+03  0.22269276647E+03  0.00000000000E+00 0. -1.
</event>
<event>
 7    1  0.2723366E-009  0.1771101E+03  0.7561462E-02  0.1170630E+00
          2   -1    0    0  501    0  0.00000000000E+00  0.00000000000E+00  0.83748652857E+03  0.83748652857E+03  0.00000000000E+00 0. -1.
         -2   -1    0    0    0  501 -0.00000000000E+00 -0.00000000000E+00 -0.67157758974E+02  0.67157758974E+02  0.00000000000E+00 0.  1.
         25    2    1    2    0    0 -0.80279983007E+02 -0.12816338484E+03  0.11796214178E+03  0.22898277520E+03  0.12508923039E+03 0.  0.
          5    1    3    3  502    0 -0.20916433542E+02  0.15422582796E+02  0.55587298963E+02  0.61504255611E+02  0.41800000000E+01 0. -1.
         -5    1    3    3    0  502 -0.59363549465E+02 -0.14358596764E+03  0.62374842812E+02  0.16747851959E+03  0.41800000000E+01 0. -1.
        -11    1    1    2    0    0 -0.10287748476E+02  0.55245749021E+02  0.27922688554E+03  0.28482553284E+03  0.00000000000E+00 0. -1.
         11    1    1    2    0    0  0.90567731483E+02  0.72917635822E+02  0.37313974228E+03  0.39083597950E+03  0.00000000000E+00 0.  1.
</event>
<event>
 7    1  0.2723366E-009  0.1151332E+03  0.7561462E-02  0.1251349E+00
         -1   -1    0    0    0  501 -0.00000000000E+00  0.00000000000E+00  0.38490623778E+02  0.38490623778E+02  0.00000000000E+00 0.  1.
          1   -1    0    0  501    0  0.00000000000E+00 -0.00000000000E+00 -0.41931634058E+03  0.41931634058E+03  0.00000000000E+00 0. -1.
         25    2    1    2    0    0 -0.40837139123E+02 -0.29221728343E+02 -0.29115852942E+03  0.32084617716E+03  0.12508956312E+03 0.  0.
          5    1    3    3  502    0 -0.59266616446E+02 -0.68818080628E+02 -0.19679052050E+03  0.21677740059E+03  0.41800000000E+01 0.  1.
         -5    1    3    3    0  502  0.18429477323E+02  0.39596352285E+02 -0.94368008919E+02  0.10406877657E+03  0.41800000000E+01 0.  1.
        -11    1    1    2    0    0 -0.22946869113E+02  0.21104296547E+02 -0.65167155338E+01  0.31849924901E+02  0.00000000000E+00 0.  1.
         11    1    1    2    0    0  0.63784008236E+02  0.81174317964E+01 -0.83150471847E+02  0.10511086230E+03  0.00000000000E+00 0. -1.
</event>
<event>
 7    1  0.2723366E-009  0.4283079E+03  0.7561462E-02  0.1034396E+00
         -1   -1    0    0    0  501 -0.00000000000E+00  0.00000000000E+00  0.15918379911E+03  0.15918379911E+03  0.00000000000E+00 0.  1.
          1   -1    0    0  501    0  0.00000000000E+00 -0.00000000000E+00 -0.13648290385E+04  0.13648290385E+04  0.00000000000E+00 0. -1.
         25    2    1    2    0    0  0.34318579705E+03 -0.23655938499E+03 -0.89798493949E+03  0.99787819083E+03  0.12508836179E+03 0.  0.
          5    1    3    3  502    0  0.33703073638E+03 -0.25011221710E+03 -0.86531227573E+03  0.96173210685E+03  0.41800000000E+01 0.  1.
         -5    1    3    3    0  502  0.61550606732E+01  0.13552832113E+02 -0.32672663759E+02  0.36146083983E+02  0.41800000000E+01 0.  1.
        -11    1    1    2    0    0 -0.23021445216E+03  0.19280871182E+03 -0.17983294298E+03  0.35001968619E+03  0.00000000000E+00 0.  1.
         11    1    1    2    0    0 -0.11297134489E+03  0.43750673165E+02 -0.12782735694E+03  0.17611496061E+03  0.00000000000E+00 0. -1.
</event>
<event>
 7    1  0.2723366E-009  0.9888350E+02  0.7561462E-02  0.1282661E+00
          1   -1    0    0  501    0  0.00000000000E+00  0.00000000000E+00  0.70497954952E+03  0.70497954952E+03  0.00000000000E+00 0. -1.
         -1   -1    0    0    0  501 -0.00000000000E+00 -0.00000000000E+00 -0.23973021204E+02  0.23973021204E+02  0.00000000000E+00 0.  1.
         25    2    1    2    0    0  0.21619406183E+02 -0.68144377711E+02  0.42747565110E+03  0.45110222008E+03  0.12508687280E+03 0.  0.
          5    1    3    3  502    0  0.34822637234E+02 -0.43911745810E+02  0.58675503372E+02  0.81247428143E+02  0.41800000000E+01 0.  1.
         -5    1    3    3    0  502 -0.13203231051E+02 -0.24232631901E+02  0.36880014773E+03  0.36985479194E+03  0.41800000000E+01 0.  1.
        -11    1    1    2    0    0 -0.17847037907E+02 -0.19210162870E+02  0.56218686250E+02  0.62032957395E+02  0.00000000000E+00 0.  1.
         11    1    1    2    0    0 -0.37723682758E+01  0.87354540581E+02  0.19731219097E+03  0.21581739325E+03  0.00000000000E+00 0. -1.
</event>
<event>
 7    1  0.2723366E-009  0.1247032E+03  0.7561462E-02  0.1235534E+00
         -2   -1    0    0    0  501 -0.00000000000E+00  0.00000000000E+00  0.54140047174E+02  0.54140047174E+02  0.00000000000E+00 0.  1.
          2   -1    0    0  501    0  0.00000000000E+00 -0.00000000000E+00 -0.40314171616E+03  0.40314171616E+03  0.00000000000E+00 0. -1.
         25    2    1    2    0    0  0.37386212671E+02  0.78967944910E+02 -0.11512518181E+03  0.19113879086E+03  0.12508622891E+03 0.  0.
          5    1    3    3  502    0  0.66641087175E+02  0.50602606394E+02 -0.17948036721E+02  0.85681168852E+02  0.41800000000E+01 0. -1.
         -5    1    3    3    0  502 -0.29254874503E+02  0.28365338516E+02 -0.97177145090E+02  0.10545762201E+03  0.41800000000E+01 0. -1.
        -11    1    1    2    0    0  0.29255060539E+02 -0.18051018410E+02 -0.43514804484E+02  0.55454810811E+02  0.00000000000E+00 0.  1.
         11    1    1    2    0    0 -0.66641273210E+02 -0.60916926500E+02 -0.19036168269E+03  0.21068816166E+03  0.00000000000E+00 0. -1.
</event>
<event>
 7    1  0.2723366E-009  0.2017358E+03  0.7561462E-02  0.1148283E+00
         -1   -1    0    0    0  501 -0.00000000000E+00  0.00000000000E+00  0.13277036533E+03  0.13277036533E+03  0.00000000000E+00 0.  1.
          1   -1    0    0  501    0  0.00000000000E+00 -0.00000000000E+00 -0.35114633331E+03  0.35114633331E+03  0.00000000000E+00 0. -1.
         25    2    1    2    0    0 -0.14018702097E+03  0.11128940375E+03 -0.17835998536E+03  0.28195353501E+03  0.12509108399E+03 0.  0.
          5    1    3    3  502    0  0.78077802382E+01  0.57714762346E+02 -0.30121812990E+02  0.65701988118E+02  0.41800000000E+01 0. -1.
         -5    1    3    3    0  502 -0.14799480121E+03  0.53574641402E+02 -0.14823817237E+03  0.21625154689E+03  0.41800000000E+01 0. -1.
        -11    1    1    2    0    0  0.14457242514E+03 -0.10074469380E+03 -0.53630913794E+02  0.18419270983E+03  0.00000000000E+00 0. -1.
         11    1    1    2    0    0 -0.43854041636E+01 -0.10544709948E+02  0.13614931172E+02  0.17770453803E+02  0.00000000000E+00 0.  1.
</event>
<event>
 7    1  0.2723366E-009  0.1069437E+03  0.7561462E-02  0.1266337E+00
         -1   -1    0    0    0  501 -0.00000000000E+00  0.00000000000E+00  0.59625593861E+02  0.59625593861E+02  0.00000000000E+00 0.  1.
          1   -1    0    0  501    0  0.00000000000E+00 -0.00000000000E+00 -0.47668700767E+03  0.47668700767E+03  0.00000000000E+00 0. -1.
         25    2    1    2    0    0  0.74565549083E+02  0.17639669011E+02 -0.39184100113E+03  0.41840033975E+03  0.12509314571E+03 0.  0.
          5    1    3    3  502    0 -0.46817656160E+01 -0.34343769026E+02 -0.21408602434E+03  0.21691406505E+03  0.41800000000E+01 0.  1.
         -5    1    3    3    0  502  0.79247314699E+02  0.51983438037E+02 -0.17775497679E+03  0.20148627469E+03  0.41800000000E+01 0.  1.
        -11    1    1    2    0    0 -0.66280250514E+02 -0.27033633182E+02 -0.51914769273E+02  0.88425291630E+02  0.00000000000E+00 0. -1.
         11    1    1    2    0    0 -0.82852985697E+01  0.93939641704E+01  0.26694356590E+02  0.29486970156E+02  0.00000000000E+00 0.  1.
</event>
<event>
 7    1  0.2723366E-009  0.1337782E+03  0.7561462E-02  0.1221955E+00
          1   -1    0    0  501    0  0.00000000000E+00  0.00000000000E+00  0.90556631268E+02  0.90556631268E+02  0.00000000000E+00 0. -1.
         -1   -1    0    0    0  501 -0.00000000000E+00 -0.00000000000E+00 -0.24557201401E+03  0.24557201401E+03  0.00000000000E+00 0.  1.
         25    2    1    2    0    0  0.72215965631E+02 -0.32640735831E+02 -0.12019526339E+02  0.14856080008E+03  0.12508108962E+03 0.  0.
          5    1    3    3  502    0  0.10766590037E+03 -0.18112497218E+02 -0.48906180778E+01  0.10936818186E+03  0.41800000000E+01 0.  1.
         -5    1    3    3    0  502 -0.35449934739E+02 -0.14528238613E+02 -0.71289082608E+01  0.39192618223E+02  0.41800000000E+01 0.  1.
        -11    1    1    2    0    0 -0.76165396785E+02 -0.10103485687E+02 -0.10588489564E+03  0.13082377160E+03  0.00000000000E+00 0.  1.
         11    1    1    2    0    0  0.39494311537E+01  0.42744221518E+02 -0.37110960762E+02  0.56744073596E+02  0.00000000000E+00 0. -1.
</event>
<event>
 7    1  0.2723366E-009  0.3020659E+03  0.7561462E-02  0.1084212E+00
          1   -1    0    0  501    0  0.00000000000E+00  0.00000000000E+00  0.49816967501E+03  0.49816967501E+03  0.00000000000E+00 0. -1.
         -1   -1    0    0    0  501 -0.00000000000E+00 -0.00000000000E+00 -0.18573356142E+03  0.18573356142E+03  0.00000000000E+00 0.  1.
         25    2    1    2    0    0 -0.14115012265E+03 -0.24456404153E+03  0.13211972398E+03  0.33591152391E+03  0.12508398338E+03 0.  0.
          5    1    3    3  502    0 -0.95871151539E+02 -0.49395207680E+02  0.37079281960E+02  0.11412059319E+03  0.41800000000E+01 0.  1.
         -5    1    3    3    0  502 -0.45278971113E+02 -0.19516883385E+03  0.95040442022E+02  0.22179093072E+03  0.41800000000E+01 0.  1.
        -11    1    1    2    0    0  0.60584680871E+02  0.32062388306E+02  0.58645535805E+02  0.90209750969E+02  0.00000000000E+00 0.  1.
         11    1    1    2    0    0  0.80565441781E+02  0.21250165322E+03  0.12167085381E+03  0.25778196155E+03  0.00000000000E+00 0. -1.
</event>
<event>
 7    1  0.2723366E-009  0.3081160E+03  0.7561462E-02  0.1081252E+00
         -2   -1    0    0    0  501 -0.00000000000E+00  0.00000000000E+00  0.53771191830E+02  0.53771191830E+02  0.00000000000E+00 0.  1.
          2   -1    0    0  501    0  0.00000000000E+00 -0.00000000000E+00 -0.19109213936E+04  0.19109213936E+04  0.00000000000E+00 0. -1.
         25    2    1    2    0    0  0.14917240458E+03  0.25294679790E+03 -0.74233045753E+03  0.80804530187E+03  0.12509281690E+03 0.  0.
          5    1    3    3  502    0 -0.21792490897E+02  0.35613703521E+02 -0.81092357672E+02  0.91305484013E+02  0.41800000000E+01 0.  1.
         -5    1    3    3    0  502  0.17096489548E+03  0.21733309438E+03 -0.66123809986E+03  0.71673981786E+03  0.41800000000E+01 0.  1.
        -11    1    1    2    0    0 -0.79866481189E+02 -0.18092223091E+03 -0.58622360222E+03  0.61868378050E+03  0.00000000000E+00 0. -1.
         11    1    1    2    0    0 -0.69305923393E+02 -0.72024566988E+02 -0.52859614204E+03  0.53796350308E+03  0.00000000000E+00 0.  1.
</event>
<event>
 7    1  0.2723366E-009  0.1776997E+03  0.7561462E-02  0.1170048E+00
         -2   -1    0    0    0  501 -0.00000000000E+00  0.00000000000E+00  0.11753715090E+03  0.11753715090E+03  0.00000000000E+00 0. -1.
          2   -1    0    0  501    0  0.00000000000E+00 -0.00000000000E+00 -0.38085988338E+03  0.38085988338E+03  0.00000000000E+00 0.  1.
         25    2    1    2    0    0  0.64786813464E+02 -0.16196058396E+03 -0.20255520170E+03  0.29513704216E+03  0.12509477194E+03 0.  0.
          5    1    3    3  502    0  0.43161569403E+02 -0.10212582059E+03 -0.20303809393E+03  0.23137533207E+03  0.41800000000E+01 0. -1.
         -5    1    3    3    0  502  0.21625244062E+02 -0.59834763376E+02  0.48289223361E+00  0.63761710092E+02  0.41800000000E+01 0. -1.
        -11    1    1    2    0    0 -0.31682850737E+02  0.26690360076E+02  0.15799436841E+02  0.44337349450E+02  0.00000000000E+00 0. -1.
         11    1    1    2    0    0 -0.33103962728E+02  0.13527022389E+03 -0.76566967624E+02  0.15892264266E+03  0.00000000000E+00 0.  1.
</event>
<event>
 7    1  0.2723366E-009  0.1018339E+03  0.7561462E-02  0.1276486E+00
          2   -1    0    0  501    0  0.00000000000E+00  0.00000000000E+00  0.79235421326E+03  0.79235421326E+03  0.00000000000E+00 0. -1.
         -2   -1    0    0    0  501 -0.00000000000E+00 -0.00000000000E+00 -0.15468406060E+02  0.15468406060E+02  0.00000000000E+00 0.  1.
         25    2    1    2    0    0 -0.39116494241E+01 -0.15759399174E+02  0.52392827742E+03  0.53889942845E+03  0.12509234364E+03 0.  0.
          5    1    3    3  502    0 -0.54292318037E+02  0.24777304929E+02  0.21011903825E+03  0.21846979946E+03  0.41800000000E+01 0. -1.
         -5    1    3    3    0  502  0.50380668613E+02 -0.40536704103E+02  0.31380923917E+03  0.32042962899E+03  0.41800000000E+01 0. -1.
        -11    1    1    2    0    0 -0.35405956256E+02  0.17888745507E+02  0.59580507929E+02  0.71578110337E+02  0.00000000000E+00 0.  1.
         11    1    1    2    0    0  0.39317605680E+02 -0.21293463334E+01  0.19337702185E+03  0.19734508054E+03  0.00000000000E+00 0. -1.
</event>
<event>
 7    1  0.2723366E-009  0.8414544E+02  0.7561462E-02  0.1317683E+00
          2   -1    0    0  501    0  0.00000000000E+00  0.00000000000E+00  0.24346754613E+02  0.24346754613E+02  0.00000000000E+00 0. -1.
         -2   -1    0    0    0  501 -0.00000000000E+00 -0.00000000000E+00 -0.71032488964E+03  0.71032488964E+03  0.00000000000E+00 0.  1.
         25    2    1    2    0    0  0.28267207808E+02  0.22102420977E+02 -0.56217118440E+03  0.57703623323E+03  0.12508725692E+03 0.  0.
          5    1    3    3  502    0  0.56264942373E+02  0.28300624447E+02 -0.52996989196E+03  0.53371549338E+03  0.41800000000E+01 0.  1.
         -5    1    3    3    0  502 -0.27997734565E+02 -0.61982034699E+01 -0.32201292441E+02  0.43320739859E+02  0.41800000000E+01 0.  1.
        -11    1    1    2    0    0  0.16489261448E+02  0.11603976360E+02  0.16551876806E+01  0.20230859020E+02  0.00000000000E+00 0. -1.
         11    1    1    2    0    0 -0.44756469255E+02 -0.33706397337E+02 -0.12546213830E+03  0.13740455200E+03  0.00000000000E+00 0.  1.
</event>
<event>
 7    1  0.2723366E-009  0.1814246E+03  0.7561462E-02  0.1166431E+00
         -3   -1    0    0    0  501 -0.00000000000E+00  0.00000000000E+00  0.72577381458E+02  0.72577381458E+02  0.00000000000E+00 0.  1.
          3   -1    0    0  501    0  0.00000000000E+00 -0.00000000000E+00 -0.56300550418E+03  0.56300550418E+03  0.00000000000E+00 0. -1.
         25    2    1    2    0    0  0.96879521409E+02 -0.13984467024E+03 -0.25838814966E+03  0.33369914876E+03  0.12509401478E+03 0.  0.
          5    1    3    3  502    0  0.16064132256E+02 -0.46058050346E+01  0.11817801308E+02  0.20890251624E+02  0.41800000000E+01 0. -1.
         -5    1    3    3    0  502  0.80815389153E+02 -0.13523886521E+03 -0.27020595097E+03  0.31280889714E+03  0.41800000000E+01 0. -1.
        -11    1    1    2    0    0 -0.46909656102E+02  0.12848011334E+03 -0.13519356699E+03  0.19231473140E+03  0.00000000000E+00 0.  1.
         11    1    1    2    0    0 -0.49969865307E+02  0.11364556907E+02 -0.96846406073E+02  0.10956900548E+03  0.00000000000E+00 0. -1.
</event>
<event>
 7    1  0.2723366E-009  0.1028663E+03  0.7561462E-02  0.1274381E+00
         -2   -1    0    0    0  501 -0.00000000000E+00  0.00000000000E+00  0.25700684871E+02  0.25700684871E+02  0.00000000000E+00 0.  1.
          2   -1    0    0  501    0  0.00000000000E+00 -0.00000000000E+00 -0.60485248262E+03  0.60485248262E+03  0.00000000000E+00 0. -1.
         25    2    1    2    0    0  0.49474151981E+02 -0.45472232770E+02 -0.30286805494E+03  0.33450354817E+03  0.12509256321E+03 0.  0.
          5    1    3    3  502    0 -0.17721086339E+02 -0.22479905381E+02 -0.23300231283E+03  0.23479125459E+03  0.41800000000E+01 0. -1.
         -5    1    3    3    0  502  0.67195238320E+02 -0.22992327389E+02 -0.69865742106E+02  0.99712293583E+02  0.41800000000E+01 0. -1.
        -11    1    1    2    0    0 -0.69470113024E+02  0.18147275288E+02 -0.17125773114E+03  0.18570037878E+03  0.00000000000E+00 0.  1.
         11    1    1    2    0    0  0.19995961044E+02  0.27324957482E+02 -0.10502601167E+03  0.11034924054E+03  0.00000000000E+00 0. -1.
</event>
<event>
 7    1  0.2723366E-009  0.1001353E+03  0.7561462E-02  0.1280012E+00
          2   -1    0    0  501    0  0.00000000000E+00  0.00000000000E+00  0.45632141180E+02  0.45632141180E+02  0.00000000000E+00 0. -1.
         -2   -1    0    0    0  501 -0.00000000000E+00 -0.00000000000E+00 -0.37572418375E+03  0.37572418375E+03  0.00000000000E+00 0.  1.
         25    2    1    2    0    0  0.57980526353E+02  0.58620706828E+00 -0.11028233732E+03  0.17655321162E+03  0.12508699986E+03 0.  0.
          5    1    3    3  502    0 -0.17202109405E+02 -0.95208499749E+01 -0.97452034541E+02  0.99503419983E+02  0.41800000000E+01 0. -1.
         -5    1    3    3    0  502  0.75182635759E+02  0.10107057043E+02 -0.12830302778E+02  0.77049791635E+02  0.41800000000E+01 0. -1.
        -11    1    1    2    0    0 -0.96046962090E+01 -0.40410813777E+02 -0.11968782404E+03  0.12669040723E+03  0.00000000000E+00 0.  1.
         11    1    1    2    0    0 -0.48375830144E+02  0.39824606709E+02 -0.10012188121E+03  0.11811270609E+03  0.00000000000E+00 0. -1.
</event>
<event>
 7    1  0.2723366E-009  0.1571166E+03  0.7561462E-02  0.1191991E+00
         -1   -1    0    0    0  501 -0.00000000000E+00  0.00000000000E+00  0.68642881161E+02  0.68642881161E+02  0.00000000000E+00 0.  1.
          1   -1    0    0  501    0  0.00000000000E+00 -0.00000000000E+00 -0.47677888657E+03  0.47677888657E+03  0.00000000000E+00 0. -1.
         25    2    1    2    0    0 -0.14279389990E+03 -0.19977613469E+02 -0.22998418146E+03  0.29887858777E+03  0.12508590495E+03 0.  0.
          5    1    3    3  502    0 -0.42915444998E+02 -0.10702184343E+02 -0.18248259653E+03  0.18781278606E+03  0.41800000000E+01 0. -1.
         -5    1    3    3    0  502 -0.99878454905E+02 -0.92754291262E+01 -0.47501584925E+02  0.11106580171E+03  0.41800000000E+01 0. -1.
        -11    1    1    2    0    0  0.44720455709E+02  0.49772124649E+02 -0.83731882059E+02  0.10718307527E+03  0.00000000000E+00 0.  1.
         11    1    1    2    0    0  0.98073444194E+02 -0.29794511180E+02 -0.94419941889E+02  0.13936010469E+03  0.00000000000E+00 0. -1.
</event>
<event>
 7    1  0.2723366E-009  0.1430587E+03  0.7561462E-02  0.1209272E+00
          2   -1    0    0  501    0  0.00000000000E+00  0.00000000000E+00  0.97544139709E+03  0.97544139709E+03  0.00000000000E+00 0.  1.
         -2   -1    0    0    0  501 -0.00000000000E+00 -0.00000000000E+00 -0.26029598906E+02  0.26029598906E+02  0.00000000000E+00 0. -1.
         25    2    1    2    0    0 -0.11569271515E+03  0.64355438506E+01  0.48612024876E+03  0.51515700209E+03  0.12509044723E+03 0.  0.
          5    1    3    3  502    0 -0.85788670620E+02  0.56297032064E+02  0.38477010036E+03  0.39823931794E+03  0.41800000000E+01 0. -1.
         -5    1    3    3    0  502 -0.29904044530E+02 -0.49861488213E+02  0.10135014840E+03  0.11691768415E+03  0.41800000000E+01 0. -1.
        -11    1    1    2    0    0  0.67548906096E+02 -0.27042626231E+02  0.38698467001E+03  0.39376553070E+03  0.00000000000E+00 0.  1.
         11    1    1    2    0    0  0.48143809054E+02  0.20607082380E+02  0.76306879422E+02  0.92548463205E+02  0.00000000000E+00 0. -1.
</event>
<event>
 7    1  0.2723366E-009  0.2382870E+03  0.7561462E-02  0.1120939E+00
          3   -1    0    0  501    0  0.00000000000E+00  0.00000000000E+00  0.11829823717E+04  0.11829823717E+04  0.00000000000E+00 0. -1.
         -3   -1    0    0    0  501 -0.00000000000E+00 -0.00000000000E+00 -0.52497232458E+02  0.52497232458E+02  0.00000000000E+00 0.  1.
         25    2    1    2    0    0  0.21310671179E+03 -0.51327716340E+02  0.47143152271E+03  0.53473772578E+03  0.12509096571E+03 0.  0.
          5    1    3    3  502    0  0.19824882648E+03 -0.96356856325E-01  0.35574791787E+03  0.40727958451E+03  0.41800000000E+01 0.  1.
         -5    1    3    3    0  502  0.14857885304E+02 -0.51231359483E+02  0.11568360483E+03  0.12745814128E+03  0.41800000000E+01 0.  1.
        -11    1    1    2    0    0 -0.12403236567E+03  0.54877075755E+02  0.27695647702E+03  0.30838354583E+03  0.00000000000E+00 0.  1.
         11    1    1    2    0    0 -0.89074346114E+02 -0.35493594154E+01  0.38209713948E+03  0.39235833251E+03  0.00000000000E+00 0. -1.
</event>
<event>
 7    1  0.2723366E-009  0.1364617E+03  0.7561462E-02  0.1218171E+00
         -1   -1    0    0    0  501 -0.00000000000E+00  0.00000000000E+00  0.44206643473E+02  0.44206643473E+02  0.00000000000E+00 0.  1.
          1   -1    0    0  501    0  0.00000000000E+00 -0.00000000000E+00 -0.50389294928E+03  0.50389294928E+03  0.00000000000E+00 0. -1.
         25    2    1    2    0    0 -0.94096113804E+02  0.27359545918E+02 -0.29918616519E+03  0.33876476826E+03  0.12508630377E+03 0.  0.
          5    1    3    3  502    0 -0.56158062578E+02 -0.42883522140E+02 -0.87874387734E+02  0.11283662917E+03  0.41800000000E+01 0.  1.
         -5    1    3    3    0  502 -0.37938051226E+02  0.70243068058E+02 -0.21131177745E+03  0.22592813909E+03  0.41800000000E+01 0.  1.
        -11    1    1    2    0    0  0.55280443851E+02 -0.52267435519E+02 -0.13898219206E+03  0.15844198306E+03  0.00000000000E+00 0. -1.
         11    1    1    2    0    0  0.38815669954E+02  0.24907889601E+02 -0.21517948563E+02  0.50892841429E+02  0.00000000000E+00 0.  1.
</event>
<event>
 7    1  0.2723366E-009  0.1257010E+03  0.7561462E-02  0.1233978E+00
         -1   -1    0    0    0  501 -0.00000000000E+00  0.00000000000E+00  0.11003486809E+04  0.11003486809E+04  0.00000000000E+00 0. -1.
          1   -1    0    0  501    0  0.00000000000E+00 -0.00000000000E+00 -0.33388958838E+02  0.33388958838E+02  0.00000000000E+00 0.  1.
         25    2    1    2    0    0 -0.41707161133E+01 -0.76489143032E+02  0.96095213867E+03  0.97208056011E+03  0.12507445246E+03 0.  0.
          5    1    3    3  502    0  0.35972724909E+02 -0.87375990708E+02  0.80805756004E+03  0.81357427038E+03  0.41800000000E+01 0.  1.
         -5    1    3    3    0  502 -0.40143441022E+02  0.10886847677E+02  0.15289457863E+03  0.15850628973E+03  0.41800000000E+01 0.  1.
        -11    1    1    2    0    0 -0.39797187416E+02  0.23722030407E+02  0.70436877683E+02  0.84308389799E+02  0.00000000000E+00 0. -1.
         11    1    1    2    0    0  0.43967903529E+02  0.52767112625E+02  0.35570705737E+02  0.77348689854E+02  0.00000000000E+00 0.  1.
</event>
<event>
 7    1  0.2723366E-009  0.9463125E+02  0.7561462E-02  0.1292009E+00
         -3   -1    0    0    0  501 -0.00000000000E+00  0.00000000000E+00  0.28820707408E+02  0.28820707408E+02  0.00000000000E+00 0.  1.
          3   -1    0    0  501    0  0.00000000000E+00 -0.00000000000E+00 -0.51183557807E+03  0.51183557807E+03  0.00000000000E+00 0. -1.
         25    2    1    2    0    0 -0.26048471609E+02  0.49776896951E+02 -0.26526235759E+03  0.29861170473E+03  0.12509424249E+03 0.  0.
          5    1    3    3  502    0 -0.32708136494E+02 -0.16324889571E+01 -0.52259662700E+01  0.33425594034E+02  0.41800000000E+01 0.  1.
         -5    1    3    3    0  502  0.66596648846E+01  0.51409385908E+02 -0.26003639132E+03  0.26518611069E+03  0.41800000000E+01 0.  1.
        -11    1    1    2    0    0  0.14813858184E+02  0.24764728289E+02 -0.43694677175E+02  0.52363794505E+02  0.00000000000E+00 0.  1.
         11    1    1    2    0    0  0.11234613425E+02 -0.74541625239E+02 -0.17405783591E+03  0.18968078625E+03  0.00000000000E+00 0. -1.
</event>
<event>
 7    1  0.2723366E-009  0.9022048E+02  0.7561462E-02  0.1302319E+00
          2   -1    0    0  501    0  0.00000000000E+00  0.00000000000E+00  0.10107380423E+04  0.10107380423E+04  0.00000000000E+00 0. -1.
         -2   -1    0    0    0  501 -0.00000000000E+00 -0.00000000000E+00 -0.15367589508E+02  0.15367589508E+02  0.00000000000E+00 0.  1.
         25    2    1    2    0    0 -0.59656894664E+02  0.55184574973E+01  0.61233195298E+03  0.62784350632E+03  0.12509056450E+03 0.  0.
          5    1    3    3  502    0 -0.46815665664E+02  0.20822463057E+02  0.79829252895E+02  0.94949794824E+02  0.41800000000E+01 0. -1.
         -5    1    3    3    0  502 -0.12841229000E+02 -0.15304005560E+02  0.53250270009E+03  0.53289371149E+03  0.41800000000E+01 0. -1.
        -11    1    1    2    0    0 -0.23025994931E+02  0.89114311546E+01  0.10286780282E+03  0.10578938937E+03  0.00000000000E+00 0.  1.
         11    1    1    2    0    0  0.82682889595E+02 -0.14429888652E+02  0.28017069700E+03  0.29247273612E+03  0.00000000000E+00 0. -1.
</event>
<event>
 7    1  0.2723366E-009  0.2947485E+03  0.7561462E-02  0.1087896E+00
         -1   -1    0    0    0  501 -0.00000000000E+00  0.00000000000E+00  0.28066955181E+03  0.28066955181E+03  0.00000000000E+00 0.  1.
          1   -1    0    0  501    0  0.00000000000E+00 -0.00000000000E+00 -0.32521675510E+03  0.32521675510E+03  0.00000000000E+00 0. -1.
         25    2    1    2    0    0 -0.23055803269E+03 -0.16197042863E+03 -0.22436867749E+02  0.30909846021E+03  0.12508804452E+03 0.  0.
          5    1    3    3  502    0 -0.23865030580E+03 -0.12875837659E+03 -0.32694511812E+02  0.27316495291E+03  0.41800000000E+01 0.  1.
         -5    1    3    3    0  502  0.80922731043E+01 -0.33212052047E+02  0.10257644063E+02  0.35933507300E+02  0.41800000000E+01 0.  1.
        -11    1    1    2    0    0  0.19818485600E+03  0.12323640573E+03 -0.50633526251E+02  0.23880578474E+03  0.00000000000E+00 0. -1.
         11    1    1    2    0    0  0.32373176689E+02  0.38734022901E+02  0.28523190713E+02  0.57982061946E+02  0.00000000000E+00 0.  1.
</event>
<event>
 7    1  0.2723366E-009  0.8351706E+02  0.7561462E-02  0.1319357E+00
         -2   -1    0    0    0  501 -0.00000000000E+00  0.00000000000E+00  0.81079852364E+02  0.81079852364E+02  0.00000000000E+00 0.  1.
          2   -1    0    0  501    0  0.00000000000E+00 -0.00000000000E+00 -0.15424900025E+03  0.15424900025E+03  0.00000000000E+00 0. -1.
         25    2    1    2    0    0 -0.13848086269E+02  0.36703731357E+02 -0.30454062067E+02  0.13459365268E+03  0.12509623518E+03 0.  0.
          5    1    3    3  502    0 -0.40226143538E+02  0.24976023696E+02  0.37564428534E+02  0.60584676897E+02  0.41800000000E+01 0. -1.
         -5    1    3    3    0  502  0.26378057270E+02  0.11727707661E+02 -0.68018490601E+02  0.74008975779E+02  0.41800000000E+01 0. -1.
        -11    1    1    2    0    0 -0.24608024246E+02  0.12726766549E+02 -0.19776288806E+02  0.34038611062E+02  0.00000000000E+00 0.  1.
         11    1    1    2    0    0  0.38456110515E+02 -0.49430497906E+02 -0.22938797012E+02  0.66696588875E+02  0.00000000000E+00 0. -1.
</event>
<event>
 7    1  0.2723366E-009  0.1630443E+03  0.7561462E-02  0.1185302E+00
         -1   -1    0    0    0  501 -0.00000000000E+00  0.00000000000E+00  0.31830006394E+02  0.31830006394E+02  0.00000000000E+00 0.  1.
          1   -1    0    0  501    0  0.00000000000E+00 -0.00000000000E+00 -0.12986017642E+04  0.12986017642E+04  0.00000000000E+00 0. -1.
         25    2    1    2    0    0  0.72968186191E+01  0.14689164115E+03 -0.94774129384E+03  0.96720809739E+03  0.12509015073E+03 0.  0.
          5    1    3    3  502    0  0.53846401104E+02  0.85632831775E+02 -0.34458054563E+03  0.35914571084E+03  0.41800000000E+01 0.  1.
         -5    1    3    3    0  502 -0.46549582485E+02  0.61258809374E+02 -0.60316074821E+03  0.60806238655E+03  0.41800000000E+01 0.  1.
        -11    1    1    2    0    0  0.45090274100E+01 -0.39515163678E+02 -0.18490630767E+02  0.43859809790E+02  0.00000000000E+00 0.  1.
         11    1    1    2    0    0 -0.11805846029E+02 -0.10737647747E+03 -0.30053983320E+03  0.31936386342E+03  0.00000000000E+00 0. -1.
</event>
<event>
 7    1  0.2723366E-009  0.2083490E+03  0.7561462E-02  0.1142880E+00
         -2   -1    0    0    0  501 -0.00000000000E+00  0.00000000000E+00  0.17536474011E+03  0.17536474011E+03  0.00000000000E+00 0.  1.
          2   -1    0    0  501    0  0.00000000000E+00 -0.00000000000E+00 -0.30004427217E+03  0.30004427217E+03  0.00000000000E+00 0. -1.
         25    2    1    2    0    0 -0.11254828318E+03 -0.16085386877E+03 -0.13652381931E+02  0.23318584559E+03  0.12509263731E+03 0.  0.
          5    1    3    3  502    0 -0.50482707284E+02 -0.11104202362E+03 -0.65102829611E+02  0.13832818067E+03  0.41800000000E+01 0.  1.
         -5    1    3    3    0  502 -0.62065575896E+02 -0.49811845147E+02  0.51450447680E+02  0.94857664923E+02  0.41800000000E+01 0.  1.
        -11    1    1    2    0    0  0.25510303702E+02  0.11256483981E+03 -0.52983973761E+02  0.12699968595E+03  0.00000000000E+00 0.  1.
         11    1    1    2    0    0  0.87037979477E+02  0.48289028953E+02 -0.58043176371E+02  0.11522348073E+03  0.00000000000E+00 0. -1.
</event>
<event>
 7    1  0.2723366E-009  0.1294558E+03  0.7561462E-02  0.1228265E+00
         -2   -1    0    0    0  501 -0.00000000000E+00  0.00000000000E+00  0.40566307063E+02  0.40566307063E+02  0.00000000000E+00 0.  1.
          2   -1    0    0  501    0  0.00000000000E+00 -0.00000000000E+00 -0.50291391949E+03  0.50291391949E+03  0.00000000000E+00 0. -1.
         25    2    1    2    0    0  0.88596897913E+02 -0.15510059150E+02 -0.28649120833E+03  0.32529257046E+03  0.12509225273E+03 0.  0.
          5    1    3    3  502    0  0.66732022893E+02  0.49416477266E+02 -0.18436099428E+03  0.20224143916E+03  0.41800000000E+01 0.  1.
         -5    1    3    3    0  502  0.21864875020E+02 -0.64926536416E+02 -0.10213021405E+03  0.12305113129E+03  0.41800000000E+01 0.  1.
        -11    1    1    2    0    0 -0.20159049497E+02  0.30986350949E+02 -0.12806095383E+03  0.13328971872E+03  0.00000000000E+00 0. -1.
         11    1    1    2    0    0 -0.68437848416E+02 -0.15476291799E+02 -0.47795450278E+02  0.84897937377E+02  0.00000000000E+00 0.  1.
</event>
<event>
 7    1  0.2723366E-009  0.1229405E+03  0.7561462E-02  0.1238323E+00
          3   -1    0    0  501    0  0.00000000000E+00  0.00000000000E+00  0.62752479156E+02  0.62752479156E+02  0.00000000000E+00 0. -1.
         -3   -1    0    0    0  501 -0.00000000000E+00 -0.00000000000E+00 -0.52092914474E+03  0.52092914474E+03  0.00000000000E+00 0.  1.
         25    2    1    2    0    0 -0.77692653461E+02 -0.50365993901E+02 -0.63199551458E+02  0.16796874158E+03  0.12508570302E+03 0.  0.
          5    1    3    3  502    0 -0.89646006860E+02 -0.74802128398E+02 -0.22719373618E+02  0.11901851661E+03  0.41800000000E+01 0. -1.
         -5    1    3    3    0  502  0.11953353400E+02  0.24436134497E+02 -0.40480177840E+02  0.48950224970E+02  0.41800000000E+01 0. -1.
        -11    1    1    2    0    0  0.69828954877E+02  0.23721656916E+02 -0.37319234049E+03  0.38040941491E+03  0.00000000000E+00 0.  1.
         11    1    1    2    0    0  0.78636985840E+01  0.26644336985E+02 -0.21784773627E+02  0.35303467405E+02  0.00000000000E+00 0. -1.
</event>
<event>
 7    1  0.2723366E-009  0.9918339E+02  0.7561462E-02  0.1282023E+00
         -2   -1    0    0    0  501 -0.00000000000E+00  0.00000000000E+00  0.20919642540E+03  0.20919642540E+03  0.00000000000E+00 0.  1.
          2   -1    0    0  501    0  0.00000000000E+00 -0.00000000000E+00 -0.55870864545E+02  0.55870864545E+02  0.00000000000E+00 0. -1.
         25    2    1    2    0    0 -0.10672274358E+02 -0.97665494147E+00  0.98885759046E+02  0.15982105601E+03  0.12509806276E+03 0.  0.
          5    1    3    3  502    0  0.46273497037E+02  0.17805621156E+02  0.73255671910E+01  0.50293270002E+02  0.41800000000E+01 0. -1.
         -5    1    3    3    0  502 -0.56945771395E+02 -0.18782276098E+02  0.91560191855E+02  0.10952778601E+03  0.41800000000E+01 0. -1.
        -11    1    1    2    0    0  0.35387314714E+02  0.32770921166E+02  0.39332315515E+02  0.62235250145E+02  0.00000000000E+00 0. -1.
         11    1    1    2    0    0 -0.24715040356E+02 -0.31794266225E+02  0.15107486293E+02  0.43010983791E+02  0.00000000000E+00 0.  1.
</event>
<event>
 7    1  0.2723366E-009  0.9596325E+02  0.7561462E-02  0.1289021E+00
          2   -1    0    0  501    0  0.00000000000E+00  0.00000000000E+00  0.53433973582E+03  0.53433973582E+03  0.00000000000E+00 0. -1.
         -2   -1    0    0    0  501 -0.00000000000E+00 -0.00000000000E+00 -0.54817170515E+02  0.54817170515E+02  0.00000000000E+00 0.  1.
         25    2    1    2    0    0  0.14936904704E+02  0.15771284361E+02  0.47954348848E+03  0.49606540809E+03  0.12508831771E+03 0.  0.
          5    1    3    3  502    0  0.53985461077E+02 -0.19863533697E+02  0.36877133535E+03  0.37325428351E+03  0.41800000000E+01 0. -1.
         -5    1    3    3    0  502 -0.39048556373E+02  0.35634818058E+02  0.11077215313E+03  0.12281112459E+03  0.41800000000E+01 0. -1.
        -11    1    1    2    0    0  0.52960846365E+01 -0.45199710759E+02 -0.22628569927E+02  0.50824349893E+02  0.00000000000E+00 0.  1.
         11    1    1    2    0    0 -0.20232989341E+02  0.29428426398E+02  0.22607646744E+02  0.42267148345E+02  0.00000000000E+00 0. -1.
</event>
<event>
 7    1  0.2723366E-009  0.9523076E+02  0.7561462E-02  0.1290657E+00
          1   -1    0    0  501    0  0.00000000000E+00  0.00000000000E+00  0.24688607722E+03  0.24688607722E+03  0.00000000000E+00 0. -1.
         -1   -1    0    0    0  501 -0.00000000000E+00 -0.00000000000E+00 -0.50202824375E+02  0.50202824375E+02  0.00000000000E+00 0.  1.
         25    2    1    2    0    0 -0.20498223826E+02  0.12426832826E+02  0.91023806133E+02  0.15654897688E+03  0.12509054930E+03 0.  0.
          5    1    3    3  502    0  0.29312930637E+02  0.36442040725E+02  0.89503410850E+02  0.10107226716E+03  0.41800000000E+01 0. -1.
         -5    1    3    3    0  502 -0.49811154463E+02 -0.24015207898E+02  0.15203952826E+01  0.55476709718E+02  0.41800000000E+01 0. -1.
        -11    1    1    2    0    0 -0.19445898714E+02  0.26104593933E+02  0.61623100975E+02  0.69692175852E+02  0.00000000000E+00 0. -1.
         11    1    1    2    0    0  0.39944122540E+02 -0.38531426759E+02  0.44036345736E+02  0.70847748865E+02  0.00000000000E+00 0.  1.
</event>
<event>
 7    1  0.2723366E-009  0.1279564E+03  0.7561462E-02  0.1230520E+00
          2   -1    0    0  501    0  0.00000000000E+00  0.00000000000E+00  0.10945741325E+03  0.10945741325E+03  0.00000000000E+00 0. -1.
         -2   -1    0    0    0  501 -0.00000000000E+00 -0.00000000000E+00 -0.16749406024E+03  0.16749406024E+03  0.00000000000E+00 0.  1.
         25    2    1    2    0    0  0.13079346752E+02  0.80404038304E+02 -0.39244665334E+02  0.15435302829E+03  0.12509530327E+03 0.  0.
          5    1    3    3  502    0  0.68270800662E+02  0.31846654185E+02 -0.15854249072E+02  0.77096959859E+02  0.41800000000E+01 0. -1.
         -5    1    3    3    0  502 -0.55191453910E+02  0.48557384119E+02 -0.23390416262E+02  0.77256068436E+02  0.41800000000E+01 0. -1.
        -11    1    1    2    0    0  0.28342803111E+02 -0.26056299382E+02  0.20660876383E+02  0.43693443885E+02  0.00000000000E+00 0. -1.
         11    1    1    2    0    0 -0.41422149863E+02 -0.54347738922E+02 -0.39452858039E+02  0.78905001316E+02  0.00000000000E+00 0.  1.
</event>
<event>
 7    1  0.2723366E-009  0.1630636E+03  0.7561462E-02  0.1185281E+00
          1   -1    0    0  501    0  0.00000000000E+00  0.00000000000E+00  0.44290050293E+03  0.44290050293E+03  0.00000000000E+00 0. -1.
         -1   -1    0    0    0  501 -0.00000000000E+00 -0.00000000000E+00 -0.10848013267E+03  0.10848013267E+03  0.00000000000E+00 0.  1.
         25    2    1    2    0    0 -0.11949499378E+03  0.97444310696E+02  0.31391806223E+03  0.37143273366E+03  0.12507309309E+03 0.  0.
          5    1    3    3  502    0 -0.10766656750E+03  0.51224677325E+02  0.11105475030E+03  0.16299290564E+03  0.41800000000E+01 0. -1.
         -5    1    3    3    0  502 -0.11828426273E+02  0.46219633371E+02  0.20286331193E+03  0.20843982802E+03  0.41800000000E+01 0. -1.
        -11    1    1    2    0    0  0.10959763671E+03 -0.70722592926E+02  0.49294050973E+02  0.13943898516E+03  0.00000000000E+00 0. -1.
         11    1    1    2    0    0  0.98973570695E+01 -0.26721717769E+02 -0.28791742942E+02  0.40508916786E+02  0.00000000000E+00 0.  1.
</event>
<event>
 7    1  0.2723366E-009  0.1132416E+03  0.7561462E-02  0.1254682E+00
          1   -1    0    0  501    0  0.00000000000E+00  0.00000000000E+00  0.10369275066E+03  0.10369275066E+03  0.00000000000E+00 0. -1.
         -1   -1    0    0    0  501 -0.00000000000E+00 -0.00000000000E+00 -0.20028296481E+03  0.20028296481E+03  0.00000000000E+00 0.  1.
         25    2    1    2    0    0  0.50824990921E+02 -0.47990117355E+02  0.11083314635E+02  0.14372127578E+03  0.12508690652E+03 0.  0.
          5    1    3    3  502    0  0.73710534154E+02 -0.76318150182E+02  0.13209866725E+02  0.10700315823E+03  0.41800000000E+01 0. -1.
         -5    1    3    3    0  502 -0.22885543233E+02  0.28328032827E+02 -0.21265520902E+01  0.36718117554E+02  0.41800000000E+01 0. -1.
        -11    1    1    2    0    0 -0.59643629720E+02  0.40795852099E+02 -0.12209922327E+03  0.14187982393E+03  0.00000000000E+00 0.  1.
         11    1    1    2    0    0  0.88186387989E+01  0.71942652563E+01  0.14425694487E+02  0.18374615759E+02  0.00000000000E+00 0. -1.
</event>
<event>
 7    1  0.2723366E-009  0.1839399E+03  0.7561462E-02  0.1164044E+00
         -1   -1    0    0    0  501 -0.00000000000E+00  0.00000000000E+00  0.48410674994E+03  0.48410674994E+03  0.00000000000E+00 0.  1.
          1   -1    0    0  501    0  0.00000000000E+00 -0.00000000000E+00 -0.12173569429E+03  0.12173569429E+03  0.00000000000E+00 0. -1.
         25    2    1    2    0    0 -0.15017096075E+03  0.81462384911E+02  0.35396223788E+03  0.41246145103E+03  0.12509094744E+03 0.  0.
          5    1    3    3  502    0 -0.89191753237E+02  0.92059624154E+02  0.31264617112E+03  0.33792786799E+03  0.41800000000E+01 0. -1.
         -5    1    3    3    0  502 -0.60979207513E+02 -0.10597239244E+02  0.41316066760E+02  0.74533583041E+02  0.41800000000E+01 0. -1.
        -11    1    1    2    0    0  0.11975582277E+03 -0.40171932218E+02  0.40782078228E+02  0.13273439317E+03  0.00000000000E+00 0.  1.
         11    1    1    2    0    0  0.30415137980E+02 -0.41290452692E+02 -0.32373260464E+02  0.60646600028E+02  0.00000000000E+00 0. -1.
</event>
<event>
 7    1  0.3529368E-009  0.1918263E+03  0.7561462E-02  0.1156824E+00
          3   -1    0    0  501    0  0.00000000000E+00  0.00000000000E+00  0.56512782022E+03  0.56512782022E+03  0.00000000000E+00 0. -1.
         -3   -1    0    0    0  501 -0.00000000000E+00 -0.00000000000E+00 -0.78538476745E+02  0.78538476745E+02  0.00000000000E+00 0.  1.
         25    2    1    2    0    0  0.86527435303E+02 -0.15786690872E+03  0.24420413043E+03  0.32816568520E+03  0.12509237264E+03 0.  0.
          5    1    3    3  502    0  0.89297546975E+02 -0.85711264959E+02  0.76601413714E+02  0.14562184527E+03  0.41800000000E+01 0.  1.
         -5    1    3    3    0  502 -0.27701116716E+01 -0.72155643756E+02  0.16760271672E+03  0.18254383993E+03  0.41800000000E+01 0.  1.
        -11    1    1    2    0    0 -0.20965422989E+02  0.92683603614E+02  0.18129378455E+03  0.20468814244E+03  0.00000000000E+00 0.  1.
         11    1    1    2    0    0 -0.65562012314E+02  0.65183305102E+02  0.61091428496E+02  0.11081246933E+03  0.00000000000E+00 0. -1.
</event>
<event>
 7    1  0.2723366E-009  0.1044774E+03  0.7561462E-02  0.1271153E+00
         -1   -1    0    0    0  501 -0.00000000000E+00  0.00000000000E+00  0.19842600038E+02  0.19842600038E+02  0.00000000000E+00 0.  1.
          1   -1    0    0  501    0  0.00000000000E+00 -0.00000000000E+00 -0.73515909176E+03  0.73515909176E+03  0.00000000000E+00 0. -1.
         25    2    1    2    0    0 -0.46077236247E+02 -0.11304090599E+02 -0.46732545168E+03  0.48609825854E+03  0.12509014749E+03 0.  0.
          5    1    3    3  502    0 -0.67493792287E+02  0.17357368854E+02 -0.42420251465E+03  0.42990921842E+03  0.41800000000E+01 0.  1.
         -5    1    3    3    0  502  0.21416556040E+02 -0.28661459453E+02 -0.43122937034E+02  0.56189040115E+02  0.41800000000E+01 0.  1.
        -11    1    1    2    0    0 -0.16782583847E+02 -0.25311979611E+02 -0.89553683291E+02  0.94563278408E+02  0.00000000000E+00 0. -1.
         11    1    1    2    0    0  0.62859820094E+02  0.36616070210E+02 -0.15843735675E+03  0.17434015485E+03  0.00000000000E+00 0.  1.
</event>
<event>
 7    1  0.2723366E-009  0.4878665E+02  0.7561462E-02  0.1451998E+00
          1   -1    0    0  501    0  0.00000000000E+00  0.00000000000E+00  0.40882366652E+03  0.40882366652E+03  0.00000000000E+00 0. -1.
         -1   -1    0    0    0  501 -0.00000000000E+00 -0.00000000000E+00 -0.30960408881E+02  0.30960408881E+02  0.00000000000E+00 0.  1.
         25    2    1    2    0    0 -0.17226126153E+02 -0.23359884647E+02  0.20417339994E+03  0.24119891658E+03  0.12509083292E+03 0.  0.
          5    1    3    3  502    0 -0.17510372148E+02 -0.15274152083E+02 -0.10849945307E+02  0.25982812931E+02  0.41800000000E+01 0.  1.
         -5    1    3    3    0  502  0.28424599546E+00 -0.80857325643E+01  0.21502334525E+03  0.21521610365E+03  0.41800000000E+01 0.  1.
        -11    1    1    2    0    0  0.31636288187E+02  0.34376814496E+02  0.17428330914E+03  0.18043639309E+03  0.00000000000E+00 0. -1.
         11    1    1    2    0    0 -0.14410162034E+02 -0.11016929848E+02 -0.59345144430E+00  0.18148765736E+02  0.00000000000E+00 0.  1.
</event>
<event>
 7    1  0.2723366E-009  0.1150477E+03  0.7561462E-02  0.1251498E+00
          3   -1    0    0  501    0  0.00000000000E+00  0.00000000000E+00  0.29330005106E+03  0.29330005106E+03  0.00000000000E+00 0. -1.
         -3   -1    0    0    0  501 -0.00000000000E+00 -0.00000000000E+00 -0.47331104500E+02  0.47331104500E+02  0.00000000000E+00 0.  1.
         25    2    1    2    0    0 -0.43810478188E+02  0.18597024881E+02  0.12563337290E+03  0.18356566166E+03  0.12508956959E+03 0.  0.
          5    1    3    3  502    0  0.20421083809E+02 -0.40330492098E+02  0.54848158279E+02  0.71199453112E+02  0.41800000000E+01 0.  1.
         -5    1    3    3    0  502 -0.64231561998E+02  0.58927516978E+02  0.70785214625E+02  0.11236620855E+03  0.41800000000E+01 0.  1.
        -11    1    1    2    0    0  0.51334404112E+02  0.22210954514E+02  0.88795517457E+02  0.10494375382E+03  0.00000000000E+00 0. -1.
         11    1    1    2    0    0 -0.75239259241E+01 -0.40807979394E+02  0.31540056196E+02  0.52121740075E+02  0.00000000000E+00 0.  1.
</event>
<event>
 7    1  0.2723366E-009  0.1237516E+03  0.7561462E-02  0.1237033E+00
         -2   -1    0    0    0  501 -0.00000000000E+00  0.00000000000E+00  0.26776832508E+03  0.26776832508E+03  0.00000000000E+00 0.  1.
          2   -1    0    0  501    0  0.00000000000E+00 -0.00000000000E+00 -0.75100124217E+02  0.75100124217E+02  0.00000000000E+00 0. -1.
         25    2    1    2    0    0 -0.72732446109E+02  0.52542726671E+02  0.85469572082E+02  0.17607791765E+03  0.12509052118E+03 0.  0.
          5    1    3    3  502    0 -0.89957583818E+02  0.40789207475E+02  0.11994258691E+02  0.99586449753E+02  0.41800000000E+01 0. -1.
         -5    1    3    3    0  502  0.17225137709E+02  0.11753519197E+02  0.73475313391E+02  0.76491467894E+02  0.41800000000E+01 0. -1.
        -11    1    1    2    0    0  0.91481101177E+02 -0.57410523002E+02  0.85878529899E+02  0.13798507862E+03  0.00000000000E+00 0.  1.
         11    1    1    2    0    0 -0.18748655068E+02  0.48677963313E+01  0.21320098882E+02  0.28805453031E+02  0.00000000000E+00 0. -1.
</event>
<event>
 7    1  0.2723366E-009  0.1008447E+03  0.7561462E-02  0.1278530E+00
          2   -1    0    0  501    0  0.00000000000E+00  0.00000000000E+00  0.90031097631E+03  0.90031097631E+03  0.00000000000E+00 0. -1.
         -2   -1    0    0    0  501 -0.00000000000E+00 -0.00000000000E+00 -0.33184555299E+02  0.33184555299E+02  0.00000000000E+00 0.  1.
         25    2    1    2    0    0  0.27886444286E+01 -0.57893942716E+02  0.78692958601E+03  0.79891451527E+03  0.12508694671E+03 0.  0.
          5    1    3    3  502    0  0.28335185913E+02 -0.61149931015E+02  0.75344833902E+03  0.75646815451E+03  0.41800000000E+01 0.  1.
         -5    1    3    3    0  502 -0.25546541485E+02  0.32559882995E+01  0.33481246991E+02  0.42446360759E+02  0.41800000000E+01 0.  1.
        -11    1    1    2    0    0  0.19962149501E+02  0.76263513665E+02  0.58910319963E+02  0.98412584193E+02  0.00000000000E+00 0. -1.
         11    1    1    2    0    0 -0.22750793930E+02 -0.18369570950E+02  0.21286515040E+02  0.36168432146E+02  0.00000000000E+00 0.  1.
</event>
<event>
 7    1  0.2723366E-009  0.1099928E+03  0.7561462E-02  0.1260583E+00
         -1   -1    0    0    0  501 -0.00000000000E+00  0.00000000000E+00  0.11357955233E+03  0.11357955233E+03  0.00000000000E+00 0.  1.
          1   -1    0    0  501    0  0.00000000000E+00 -0.00000000000E+00 -0.17900411985E+03  0.17900411985E+03  0.00000000000E+00 0. -1.
         25    2    1    2    0    0 -0.57263482768E+01 -0.59068843780E+02  0.30620928828E+02  0.14179029982E+03  0.12507968848E+03 0.  0.
          5    1    3    3  502    0  0.52482372600E+02  0.24366602912E+01  0.37068065545E+01  0.52835116749E+02  0.41800000000E+01 0.  1.
         -5    1    3    3    0  502 -0.58208720877E+02 -0.61505504072E+02  0.26914122273E+02  0.88955183070E+02  0.41800000000E+01 0.  1.
        -11    1    1    2    0    0 -0.25376659202E+02  0.18643940856E+02  0.10066595948E+02  0.33059154812E+02  0.00000000000E+00 0.  1.
         11    1    1    2    0    0  0.31103007479E+02  0.40424902925E+02 -0.10611209229E+03  0.11773421755E+03  0.00000000000E+00 0. -1.
</event>
<event>
 7    1  0.2723366E-009  0.1293360E+03  0.7561462E-02  0.1228444E+00
         -2   -1    0    0    0  501 -0.00000000000E+00  0.00000000000E+00  0.99513174722E+02  0.99513174722E+02  0.00000000000E+00 0.  1.
          2   -1    0    0  501    0  0.00000000000E+00 -0.00000000000E+00 -0.25741761336E+03  0.25741761336E+03  0.00000000000E+00 0. -1.
         25    2    1    2    0    0  0.66531132753E+02 -0.97607229640E+02 -0.81114957406E+02  0.19021054243E+03  0.12508737439E+03 0.  0.
          5    1    3    3  502    0  0.80558013746E+02 -0.83574877051E+02 -0.10659140914E+03  0.15765010167E+03  0.41800000000E+01 0. -1.
         -5    1    3    3    0  502 -0.14026880992E+02 -0.14032352589E+02  0.25476451737E+02  0.32560440762E+02  0.41800000000E+01 0. -1.
        -11    1    1    2    0    0 -0.41869322352E+02  0.33720512697E+02  0.11509049512E+02  0.54977916943E+02  0.00000000000E+00 0.  1.
         11    1    1    2    0    0 -0.24661810402E+02  0.63886716942E+02 -0.88298530747E+02  0.11174232871E+03  0.00000000000E+00 0. -1.
</event>
<event>
 7    1  0.2723366E-009  0.1310811E+03  0.7561462E-02  0.1225860E+00
         -1   -1    0    0    0  501 -0.00000000000E+00  0.00000000000E+00  0.43686819809E+03  0.43686819809E+03  0.00000000000E+00 0.  1.
          1   -1    0    0  501    0  0.00000000000E+00 -0.00000000000E+00 -0.44491854887E+02  0.44491854887E+02  0.00000000000E+00 0. -1.
         25    2    1    2    0    0  0.43108011985E+02 -0.72116258311E+02  0.25725284076E+03  0.29813737253E+03  0.12509122035E+03 0.  0.
          5    1    3    3  502    0  0.63909909616E+02 -0.93474598918E+02  0.23436252748E+03  0.26031758272E+03  0.41800000000E+01 0. -1.
         -5    1    3    3    0  502 -0.20801897631E+02  0.21358340607E+02  0.22890313286E+02  0.37819789805E+02  0.41800000000E+01 0. -1.
        -11    1    1    2    0    0  0.24080517487E+02  0.67572396999E+01  0.10122624936E+02  0.26981459308E+02  0.00000000000E+00 0. -1.
         11    1    1    2    0    0 -0.67188529473E+02  0.65359018611E+02  0.12500087751E+03  0.15624122114E+03  0.00000000000E+00 0.  1.
</event>
<event>
 7    1  0.2723366E-009  0.1892264E+03  0.7561462E-02  0.1159161E+00
          1   -1    0    0  501    0  0.00000000000E+00  0.00000000000E+00  0.10779413297E+03  0.10779413297E+03  0.00000000000E+00 0. -1.
         -1   -1    0    0    0  501 -0.00000000000E+00 -0.00000000000E+00 -0.48390586405E+03  0.48390586405E+03  0.00000000000E+00 0.  1.
         25    2    1    2    0    0 -0.10184801396E+03 -0.12451987937E+03 -0.43841072319E+02  0.20844848418E+03  0.12510200889E+03 0.  0.
          5    1    3    3  502    0 -0.71025329973E+02 -0.13780568514E+02  0.22223528939E+02  0.75801445928E+02  0.41800000000E+01 0. -1.
         -5    1    3    3    0  502 -0.30822683986E+02 -0.11073931086E+03 -0.66064601257E+02  0.13264703825E+03  0.41800000000E+01 0. -1.
        -11    1    1    2    0    0  0.15639492583E+02  0.10015972134E+03 -0.17275882195E+03  0.20030520230E+03  0.00000000000E+00 0. -1.
         11    1    1    2    0    0  0.86208521376E+02  0.24360158035E+02 -0.15951183682E+03  0.18294631054E+03  0.00000000000E+00 0.  1.
</event>
<event>
 7    1  0.2723366E-009  0.8131501E+02  0.7561462E-02  0.1325361E+00
          2   -1    0    0  501    0  0.00000000000E+00  0.00000000000E+00  0.11400080586E+04  0.11400080586E+04  0.00000000000E+00 0. -1.
         -2   -1    0    0    0  501 -0.00000000000E+00 -0.00000000000E+00 -0.18023784721E+02  0.18023784721E+02  0.00000000000E+00 0.  1.
         25    2    1    2    0    0 -0.19731256530E+01  0.40796612209E+02  0.93499767023E+03  0.94421232819E+03  0.12509204842E+03 0.  0.
          5    1    3    3  502    0 -0.25043307527E+02  0.23767047197E+02  0.64889272186E+02  0.73621531016E+02  0.41800000000E+01 0.  1.
         -5    1    3    3    0  502  0.23070181874E+02  0.17029565012E+02  0.87010839804E+03  0.87059079717E+03  0.41800000000E+01 0.  1.
        -11    1    1    2    0    0  0.45589616624E+02 -0.14030539880E+02  0.58274209292E+02  0.75307055857E+02  0.00000000000E+00 0.  1.
         11    1    1    2    0    0 -0.43616490971E+02 -0.26766072329E+02  0.12871239432E+03  0.13851245923E+03  0.00000000000E+00 0. -1.
</event>
<event>
 7    1  0.2723366E-009  0.1055900E+03  0.7561462E-02  0.1268961E+00
         -1   -1    0    0    0  501 -0.00000000000E+00  0.00000000000E+00  0.29676831882E+03  0.29676831882E+03  0.00000000000E+00 0.  1.
          1   -1    0    0  501    0  0.00000000000E+00 -0.00000000000E+00 -0.53924421533E+02  0.53924421533E+02  0.00000000000E+00 0. -1.
         25    2    1    2    0    0 -0.25124148546E+02  0.47954035430E+02  0.79647578397E+02  0.15786663065E+03  0.12508926403E+03 0.  0.
          5    1    3    3  502    0 -0.80045024958E+01  0.79153499632E+02  0.10990517217E+02  0.80421467488E+02  0.41800000000E+01 0. -1.
         -5    1    3    3    0  502 -0.17119646050E+02 -0.31199464202E+02  0.68657061180E+02  0.77445163162E+02  0.41800000000E+01 0. -1.
        -11    1    1    2    0    0  0.81978669236E+01 -0.68540605765E+02  0.81035841070E+02  0.10645105541E+03  0.00000000000E+00 0. -1.
         11    1    1    2    0    0  0.16926281622E+02  0.20586570335E+02  0.82160477816E+02  0.86375054285E+02  0.00000000000E+00 0.  1.
</event>
<event>
 7    1  0.2723366E-009  0.1025558E+03  0.7561462E-02  0.1275011E+00
         -2   -1    0    0    0  501 -0.00000000000E+00  0.00000000000E+00  0.50642631321E+02  0.50642631321E+02  0.00000000000E+00 0. -1.
          2   -1    0    0  501    0  0.00000000000E+00 -0.00000000000E+00 -0.29244618295E+03  0.29244618295E+03  0.00000000000E+00 0.  1.
         25    2    1    2    0    0  0.48296972552E+02  0.33501802636E+02 -0.11896130076E+03  0.18235741045E+03  0.12508983064E+03 0.  0.
          5    1    3    3  502    0  0.66036821324E+02  0.26828043039E+01 -0.12914347070E+03  0.14513293091E+03  0.41800000000E+01 0. -1.
         -5    1    3    3    0  502 -0.17739848772E+02  0.30818998332E+02  0.10182169940E+02  0.37224479544E+02  0.41800000000E+01 0. -1.
        -11    1    1    2    0    0  0.17617068990E+02  0.13443496670E+02 -0.19850387851E+02  0.29751077633E+02  0.00000000000E+00 0.  1.
         11    1    1    2    0    0 -0.65914041542E+02 -0.46945299305E+02 -0.10299186301E+03  0.13098032618E+03  0.00000000000E+00 0. -1.
</event>
<event>
 7    1  0.2723366E-009  0.1284174E+03  0.7561462E-02  0.1229823E+00
         -1   -1    0    0    0  501 -0.00000000000E+00  0.00000000000E+00  0.29014225333E+02  0.29014225333E+02  0.00000000000E+00 0.  1.
          1   -1    0    0  501    0  0.00000000000E+00 -0.00000000000E+00 -0.73956308671E+03  0.73956308671E+03  0.00000000000E+00 0. -1.
         25    2    1    2    0    0  0.70039076393E+02 -0.12291239884E+02 -0.56232997472E+03  0.58044647738E+03  0.12508623361E+03 0.  0.
          5    1    3    3  502    0  0.10383172820E+03 -0.23900682835E+02 -0.38432678870E+03  0.39884435978E+03  0.41800000000E+01 0. -1.
         -5    1    3    3    0  502 -0.33792651811E+02  0.11609442951E+02 -0.17800318602E+03  0.18160211760E+03  0.41800000000E+01 0. -1.
        -11    1    1    2    0    0 -0.62734916530E+02 -0.31245821756E+02 -0.75131503267E+02  0.10274587054E+03  0.00000000000E+00 0.  1.
         11    1    1    2    0    0 -0.73041598628E+01  0.43537061639E+02 -0.73087383386E+02  0.85384964120E+02  0.00000000000E+00 0. -1.
</event>
<event>
 7    1  0.2723366E-009  0.1232811E+03  0.7561462E-02  0.1237780E+00
         -1   -1    0    0    0  501 -0.00000000000E+00  0.00000000000E+00  0.14680955664E+03  0.14680955664E+03  0.00000000000E+00 0. -1.
          1   -1    0    0  501    0  0.00000000000E+00 -0.00000000000E+00 -0.17819313527E+03  0.17819313527E+03  0.00000000000E+00 0.  1.
         25    2    1    2    0    0 -0.70842274693E+02  0.51864271218E+02  0.54400607002E+02  0.16221901557E+03  0.12508817873E+03 0.  0.
          5    1    3    3  502    0 -0.53295980709E+02 -0.30581771188E+01 -0.28881901467E+02  0.60839548317E+02  0.41800000000E+01 0.  1.
         -5    1    3    3    0  502 -0.17546293983E+02  0.54922448337E+02  0.83282508469E+02  0.10137946725E+03  0.41800000000E+01 0.  1.
        -11    1    1    2    0    0 -0.27002256233E+02 -0.12135408908E+02 -0.34270735903E+02  0.45286568985E+02  0.00000000000E+00 0.  1.
         11    1    1    2    0    0  0.97844530926E+02 -0.39728862310E+02 -0.51513449737E+02  0.11749710735E+03  0.00000000000E+00 0. -1.
</event>
<event>
 7    1  0.2723366E-009  0.2027774E+03  0.7561462E-02  0.1147417E+00
         -1   -1    0    0    0  501 -0.00000000000E+00  0.00000000000E+00  0.22088113851E+03  0.22088113851E+03  0.00000000000E+00 0.  1.
          1   -1    0    0  501    0  0.00000000000E+00 -0.00000000000E+00 -0.21291905661E+03  0.21291905661E+03  0.00000000000E+00 0. -1.
         25    2    1    2    0    0  0.18359520300E+03 -0.12605160741E+02  0.39188832226E+02  0.22594592794E+03  0.12509879751E+03 0.  0.
          5    1    3    3  502    0  0.10393742851E+03  0.32813578341E+02 -0.27498488093E+02  0.11248715134E+03  0.41800000000E+01 0.  1.
         -5    1    3    3    0  502  0.79657774496E+02 -0.45418739082E+02  0.66687320319E+02  0.11345877661E+03  0.41800000000E+01 0.  1.
        -11    1    1    2    0    0 -0.79115469117E+02  0.50146539997E+02 -0.23464637061E+02  0.96563565177E+02  0.00000000000E+00 0. -1.
         11    1    1    2    0    0 -0.10447973389E+03 -0.37541379256E+02 -0.77621132598E+01  0.11129070200E+03  0.00000000000E+00 0.  1.
</event>
<event>
 7    1  0.2723366E-009  0.7734118E+02  0.7561462E-02  0.1336771E+00
          2   -1    0    0  501    0  0.00000000000E+00  0.00000000000E+00  0.26426479812E+03  0.26426479812E+03  0.00000000000E+00 0. -1.
         -2   -1    0    0    0  501 -0.00000000000E+00 -0.00000000000E+00 -0.70474080455E+02  0.70474080455E+02  0.00000000000E+00 0.  1.
         25    2    1    2    0    0  0.33915772898E+02 -0.99247843426E+01  0.15047208715E+02  0.13085466075E+03  0.12509093794E+03 0.  0.
          5    1    3    3  502    0  0.16685866494E+02  0.23721548321E+02  0.63100582424E+02  0.69572163239E+02  0.41800000000E+01 0. -1.
         -5    1    3    3    0  502  0.17229906404E+02 -0.33646332664E+02 -0.48053373710E+02  0.61282497512E+02  0.41800000000E+01 0. -1.
        -11    1    1    2    0    0 -0.11539752048E+02 -0.35166078297E+02  0.12449038204E+03  0.12987561034E+03  0.00000000000E+00 0. -1.
         11    1    1    2    0    0 -0.22376020850E+02  0.45090862640E+02  0.54253126915E+02  0.74008607491E+02  0.00000000000E+00 0.  1.
</event>
<event>
 7    1  0.2723366E-009  0.9684807E+02  0.7561462E-02  0.1287067E+00
          2   -1    0    0  501    0  0.00000000000E+00  0.00000000000E+00  0.20060317016E+03  0.20060317016E+03  0.00000000000E+00 0. -1.
         -2   -1    0    0    0  501 -0.00000000000E+00 -0.00000000000E+00 -0.62407375870E+02  0.62407375870E+02  0.00000000000E+00 0.  1.
         25    2    1    2    0    0  0.29539405174E+02 -0.18449264100E+02  0.49415547755E+02  0.13893095236E+03  0.12508781459E+03 0.  0.
          5    1    3    3  502    0  0.22654531339E+02  0.45641222754E+02 -0.89149429192E+01  0.51896990393E+02  0.41800000000E+01 0.  1.
         -5    1    3    3    0  502  0.68848738351E+01 -0.64090486854E+02  0.58330490674E+02  0.87033961964E+02  0.41800000000E+01 0.  1.
        -11    1    1    2    0    0 -0.52633417967E+02  0.11735593579E+02  0.83591203639E+02  0.99476078377E+02  0.00000000000E+00 0.  1.
         11    1    1    2    0    0  0.23094012793E+02  0.67136705205E+01  0.51890428964E+01  0.24603515296E+02  0.00000000000E+00 0. -1.
</event>
<event>
 7    1  0.2723366E-009  0.7138250E+02  0.7561462E-02  0.1355454E+00
         -3   -1    0    0    0  501 -0.00000000000E+00  0.00000000000E+00  0.39195104078E+03  0.39195104078E+03  0.00000000000E+00 0.  1.
          3   -1    0    0  501    0  0.00000000000E+00 -0.00000000000E+00 -0.31867972531E+02  0.31867972531E+02  0.00000000000E+00 0. -1.
         25    2    1    2    0    0  0.24830022203E+01  0.89970834207E+01  0.25176366446E+03  0.28128036767E+03  0.12508632893E+03 0.  0.
          5    1    3    3  502    0  0.21993593811E+02  0.26434256971E+02  0.25240772297E+03  0.25477366254E+03  0.41800000000E+01 0. -1.
         -5    1    3    3    0  502 -0.19510591590E+02 -0.17437173550E+02 -0.64405850980E+00  0.26506705132E+02  0.41800000000E+01 0. -1.
        -11    1    1    2    0    0  0.39384260082E+01  0.35978787521E+02  0.82952219471E+02  0.90504447770E+02  0.00000000000E+00 0.  1.
         11    1    1    2    0    0 -0.64214282285E+01 -0.44975870942E+02  0.25367184320E+02  0.52034197868E+02  0.00000000000E+00 0. -1.
</event>
<event>
 7    1  0.2723366E-009  0.2047705E+03  0.7561462E-02  0.1145775E+00
          2   -1    0    0  501    0  0.00000000000E+00  0.00000000000E+00  0.79568562534E+03  0.79568562534E+03  0.00000000000E+00 0.  1.
         -2   -1    0    0    0  501 -0.00000000000E+00 -0.00000000000E+00 -0.59448717945E+02  0.59448717945E+02  0.00000000000E+00 0. -1.
         25    2    1    2    0    0  0.14612395782E+03  0.11056401915E+03  0.29729133692E+03  0.37095339952E+03  0.12509065603E+03 0.  0.
          5    1    3    3  502    0  0.19366536439E+01  0.53159494019E+02  0.14055667242E+03  0.15034404875E+03  0.41800000000E+01 0. -1.
         -5    1    3    3    0  502  0.14418730418E+03  0.57404525133E+02  0.15673466450E+03  0.22060935077E+03  0.41800000000E+01 0. -1.
        -11    1    1    2    0    0 -0.46991490928E+02  0.66041096422E+01  0.14518639587E+03  0.15274457119E+03  0.00000000000E+00 0.  1.
         11    1    1    2    0    0 -0.99132466897E+02 -0.11716812879E+03  0.29375917460E+03  0.33143637257E+03  0.00000000000E+00 0. -1.
</event>
<event>
 7    1  0.2723366E-009  0.1150535E+03  0.7561462E-02  0.1251488E+00
         -2   -1    0    0    0  501 -0.00000000000E+00  0.00000000000E+00  0.22811148812E+03  0.22811148812E+03  0.00000000000E+00 0.  1.
          2   -1    0    0  501    0  0.00000000000E+00 -0.00000000000E+00 -0.84881735635E+02  0.84881735635E+02  0.00000000000E+00 0. -1.
         25    2    1    2    0    0  0.82584349834E+02 -0.29867145122E+02  0.72142543994E+02  0.16901058525E+03  0.12509120704E+03 0.  0.
          5    1    3    3  502    0  0.61425827792E+02 -0.65443068651E+02  0.86771368959E+02  0.12491064977E+03  0.41800000000E+01 0.  1.
         -5    1    3    3    0  502  0.21158522042E+02  0.35575923529E+02 -0.14628824965E+02  0.44099935485E+02  0.41800000000E+01 0.  1.
        -11    1    1    2    0    0 -0.70167372821E+02  0.43834557982E+01  0.86697848586E+02  0.11162075005E+03  0.00000000000E+00 0.  1.
         11    1    1    2    0    0 -0.12416977013E+02  0.25483689324E+02 -0.15610640095E+02  0.32361888447E+02  0.00000000000E+00 0. -1.
</event>
<event>
 7    1  0.2723366E-009  0.7678359E+02  0.7561462E-02  0.1338435E+00
          1   -1    0    0  501    0  0.00000000000E+00  0.00000000000E+00  0.50354354147E+02  0.50354354147E+02  0.00000000000E+00 0. -1.
         -1   -1    0    0    0  501 -0.00000000000E+00 -0.00000000000E+00 -0.33115106661E+03  0.33115106661E+03  0.00000000000E+00 0.  1.
         25    2    1    2    0    0  0.36968804914E+02  0.26548946975E+02 -0.79266911177E+02  0.15492495962E+03  0.12508781229E+03 0.  0.
          5    1    3    3  502    0  0.21093410788E+02  0.25785809899E+02 -0.11274093060E+03  0.11763430539E+03  0.41800000000E+01 0. -1.
         -5    1    3    3    0  502  0.15875394126E+02  0.76313707620E+00  0.33474019425E+02  0.37290654236E+02  0.41800000000E+01 0. -1.
        -11    1    1    2    0    0 -0.74220856776E+01 -0.59118564823E+02 -0.11652990586E+03  0.13087899381E+03  0.00000000000E+00 0. -1.
         11    1    1    2    0    0 -0.29546719236E+02  0.32569617848E+02 -0.84999895424E+02  0.95701467316E+02  0.00000000000E+00 0.  1.
</event>
<event>
 7    1  0.2723366E-009  0.1084780E+03  0.7561462E-02  0.1263415E+00
         -2   -1    0    0    0  501 -0.00000000000E+00  0.00000000000E+00  0.28406442063E+02  0.28406442063E+02  0.00000000000E+00 0.  1.
          2   -1    0    0  501    0  0.00000000000E+00 -0.00000000000E+00 -0.51340523626E+03  0.51340523626E+03  0.00000000000E+00 0. -1.
         25    2    1    2    0    0  0.13709641388E+02  0.33901533598E+02 -0.18595309985E+03  0.22707507758E+03  0.12508903735E+03 0.  0.
          5    1    3    3  502    0 -0.49110556037E+02 -0.73639552531E+01 -0.10672768648E+03  0.11778941384E+03  0.41800000000E+01 0. -1.
         -5    1    3    3    0  502  0.62820197425E+02  0.41265488852E+02 -0.79225413371E+02  0.10928566374E+03  0.41800000000E+01 0. -1.
        -11    1    1    2    0    0 -0.44948380643E+02 -0.39818767037E+02 -0.13671225343E+03  0.14931889154E+03  0.00000000000E+00 0. -1.
         11    1    1    2    0    0  0.31238739255E+02  0.59172334385E+01 -0.16233344092E+03  0.16541770921E+03  0.00000000000E+00 0.  1.
</event>
<event>
 7    1  0.2723366E-009  0.2124655E+03  0.7561462E-02  0.1139628E+00
         -1   -1    0    0    0  501 -0.00000000000E+00  0.00000000000E+00  0.89778055306E+02  0.89778055306E+02  0.00000000000E+00 0.  1.
          1   -1    0    0  501    0  0.00000000000E+00 -0.00000000000E+00 -0.73726282397E+03  0.73726282397E+03  0.00000000000E+00 0. -1.
         25    2    1    2    0    0  0.17619298681E+03  0.10556134548E+03 -0.15652694221E+03  0.28693958441E+03  0.12508587132E+03 0.  0.
          5    1    3    3  502    0  0.80839835091E+02  0.42371372693E+02  0.20206020424E+01  0.91389098880E+02  0.41800000000E+01 0.  1.
         -5    1    3    3    0  502  0.95353151715E+02  0.63189972787E+02 -0.15854754425E+03  0.19555048553E+03  0.41800000000E+01 0.  1.
        -11    1    1    2    0    0 -0.48149630966E+02 -0.72194154359E+02 -0.25780341372E+03  0.27201651239E+03  0.00000000000E+00 0. -1.
         11    1    1    2    0    0 -0.12804335584E+03 -0.33367191122E+02 -0.23315441273E+03  0.26808478248E+03  0.00000000000E+00 0.  1.
</event>
<event>
 7    1  0.2723366E-009  0.9866968E+02  0.7561462E-02  0.1283119E+00
          3   -1    0    0  501    0  0.00000000000E+00  0.00000000000E+00  0.22516704045E+02  0.22516704045E+02  0.00000000000E+00 0. -1.
         -3   -1    0    0    0  501 -0.00000000000E+00 -0.00000000000E+00 -0.62562957705E+03  0.62562957705E+03  0.00000000000E+00 0.  1.
         25    2    1    2    0    0  0.20730189310E+02  0.16237123815E+02 -0.43873722269E+03  0.45697772870E+03  0.12507961073E+03 0.  0.
          5    1    3    3  502    0  0.66427665287E+02  0.13459645432E+01 -0.34699992887E+03  0.35332827424E+03  0.41800000000E+01 0.  1.
         -5    1    3    3    0  502 -0.45697475977E+02  0.14891159272E+02 -0.91737293814E+02  0.10364945447E+03  0.41800000000E+01 0.  1.
        -11    1    1    2    0    0 -0.49354385587E+02 -0.20761125205E+02 -0.50280897436E+02  0.73450992800E+02  0.00000000000E+00 0. -1.
         11    1    1    2    0    0  0.28624196277E+02  0.45240013897E+01 -0.11409475288E+03  0.11771755959E+03  0.00000000000E+00 0.  1.
</event>
<event>
 7    1  0.2723366E-009  0.1202831E+03  0.7561462E-02  0.1242631E+00
          3   -1    0    0  501    0  0.00000000000E+00  0.00000000000E+00  0.10567800828E+03  0.10567800828E+03  0.00000000000E+00 0. -1.
         -3   -1    0    0    0  501 -0.00000000000E+00 -0.00000000000E+00 -0.16662777518E+03  0.16662777518E+03  0.00000000000E+00 0.  1.
         25    2    1    2    0    0  0.37604695790E+02  0.48210635272E+02 -0.81625828559E+02  0.16139389639E+03  0.12508731113E+03 0.  0.
          5    1    3    3  502    0  0.82478318942E+02  0.20745690874E+02 -0.39499001398E+02  0.93865330643E+02  0.41800000000E+01 0. -1.
         -5    1    3    3    0  502 -0.44873623153E+02  0.27464944398E+02 -0.42126827161E+02  0.67528565750E+02  0.41800000000E+01 0. -1.
        -11    1    1    2    0    0 -0.58109920974E+01  0.23493822998E+02  0.21644859300E+02  0.32468866355E+02  0.00000000000E+00 0.  1.
         11    1    1    2    0    0 -0.31793703692E+02 -0.71704458270E+02 -0.96879764262E+00  0.78443020717E+02  0.00000000000E+00 0. -1.
</event>
<event>
 7    1  0.2723366E-009  0.1088356E+03  0.7561462E-02  0.1262741E+00
         -1   -1    0    0    0  501 -0.00000000000E+00  0.00000000000E+00  0.80554560670E+03  0.80554560670E+03  0.00000000000E+00 0.  1.
          1   -1    0    0  501    0  0.00000000000E+00 -0.00000000000E+00 -0.25487029209E+02  0.25487029209E+02  0.00000000000E+00 0. -1.
         25    2    1    2    0    0 -0.18798844060E+02 -0.87923750828E+02  0.49859521882E+03  0.52185084381E+03  0.12508848254E+03 0.  0.
          5    1    3    3  502    0 -0.66417379516E+01 -0.38383841941E+02  0.44858718753E+03  0.45029475816E+03  0.41800000000E+01 0. -1.
         -5    1    3    3    0  502 -0.12157106108E+02 -0.49539908887E+02  0.50008031286E+02  0.71556085657E+02  0.41800000000E+01 0. -1.
        -11    1    1    2    0    0  0.22748090903E+02  0.10620283751E+03  0.25011186836E+03  0.27267648419E+03  0.00000000000E+00 0.  1.
         11    1    1    2    0    0 -0.39492468429E+01 -0.18279086681E+02  0.31351490311E+02  0.36505307905E+02  0.00000000000E+00 0. -1.
</event>
<event>
 7    1  0.2723366E-009  0.1368879E+03  0.7561462E-02  0.1217579E+00
          4   -1    0    0  501    0  0.00000000000E+00  0.00000000000E+00  0.28855580855E+02  0.28855580855E+02  0.00000000000E+00 0. -1.
         -4   -1    0    0    0  501 -0.00000000000E+00 -0.00000000000E+00 -0.77903347392E+03  0.77903347392E+03  0.00000000000E+00 0.  1.
         25    2    1    2    0    0 -0.13643866286E+02 -0.98723125668E+02 -0.33210245685E+03  0.36860838086E+03  0.12509071095E+03 0.  0.
          5    1    3    3  502    0  0.43710037414E+02  0.13596745625E+01 -0.78065376420E+02  0.89577293335E+02  0.41800000000E+01 0. -1.
         -5    1    3    3    0  502 -0.57353903700E+02 -0.10008280023E+03 -0.25403708043E+03  0.27903108752E+03  0.41800000000E+01 0. -1.
        -11    1    1    2    0    0 -0.12208171870E+02  0.83559831086E+02 -0.38700366004E+03  0.39610998184E+03  0.00000000000E+00 0.  1.
         11    1    1    2    0    0  0.25852038156E+02  0.15163294582E+02 -0.31071776178E+02  0.43170692076E+02  0.00000000000E+00 0. -1.
</event>
<event>
 7    1  0.2723366E-009  0.1033172E+03  0.7561462E-02  0.1273471E+00
         -2   -1    0    0    0  501 -0.00000000000E+00  0.00000000000E+00  0.41542514613E+02  0.41542514613E+02  0.00000000000E+00 0.  1.
          2   -1    0    0  501    0  0.00000000000E+00 -0.00000000000E+00 -0.34198481126E+03  0.34198481126E+03  0.00000000000E+00 0. -1.
         25    2    1    2    0    0 -0.40211204680E+02 -0.59343462017E+01 -0.12740356742E+03  0.18311475265E+03  0.12508871333E+03 0.  0.
          5    1    3    3  502    0 -0.29579132063E+02  0.58285677421E+02 -0.73935375077E+02  0.98772756030E+02  0.41800000000E+01 0.  1.
         -5    1    3    3    0  502 -0.10632072617E+02 -0.64220023623E+02 -0.53468192343E+02  0.84341996624E+02  0.41800000000E+01 0.  1.
        -11    1    1    2    0    0  0.10259243130E+02  0.33603505066E+02 -0.16807857063E+02  0.38948063898E+02  0.00000000000E+00 0.  1.
         11    1    1    2    0    0  0.29951961550E+02 -0.27669158865E+02 -0.15623087217E+03  0.16146450932E+03  0.00000000000E+00 0. -1.
</event>
<event>
 7    1  0.2723366E-009  0.8941810E+02  0.7561462E-02  0.1304267E+00
          1   -1    0    0  501    0  0.00000000000E+00  0.00000000000E+00  0.79672401707E+02  0.79672401707E+02  0.00000000000E+00 0. -1.
         -1   -1    0    0    0  501 -0.00000000000E+00 -0.00000000000E+00 -0.20500577645E+03  0.20500577645E+03  0.00000000000E+00 0.  1.
         25    2    1    2    0    0  0.36938262202E+02  0.45766295058E+02 -0.10714181144E+03  0.17489150992E+03  0.12509469816E+03 0.  0.
          5    1    3    3  502    0  0.57353902674E+02 -0.87331207265E+01 -0.64580315853E+01  0.58522782927E+02  0.41800000000E+01 0.  1.
         -5    1    3    3    0  502 -0.20415640472E+02  0.54499415785E+02 -0.10068377986E+03  0.11636872700E+03  0.41800000000E+01 0.  1.
        -11    1    1    2    0    0 -0.21924969128E+02 -0.11162844350E+02 -0.53017593665E+02  0.58448084685E+02  0.00000000000E+00 0.  1.
         11    1    1    2    0    0 -0.15013293074E+02 -0.34603450708E+02  0.34826030364E+02  0.51338583548E+02  0.00000000000E+00 0. -1.
</event>
<event>
 7    1  0.2723366E-009  0.1276589E+03  0.7561462E-02  0.1230971E+00
          2   -1    0    0  501    0  0.00000000000E+00  0.00000000000E+00  0.43501795526E+03  0.43501795526E+03  0.00000000000E+00 0. -1.
         -2   -1    0    0    0  501 -0.00000000000E+00 -0.00000000000E+00 -0.59176990167E+02  0.59176990167E+02  0.00000000000E+00 0.  1.
         25    2    1    2    0    0 -0.59272080520E+02 -0.87313293090E+02  0.28001152212E+03  0.32433188194E+03  0.12509167217E+03 0.  0.
          5    1    3    3  502    0  0.24659036374E+02 -0.28746164400E+02  0.16917178151E+03  0.17340984431E+03  0.41800000000E+01 0.  1.
         -5    1    3    3    0  502 -0.83931116894E+02 -0.58567128691E+02  0.11083974060E+03  0.15092203763E+03  0.41800000000E+01 0.  1.
        -11    1    1    2    0    0  0.65801697483E+02  0.69021980750E+02  0.28117495708E+02  0.99420776416E+02  0.00000000000E+00 0.  1.
         11    1    1    2    0    0 -0.65296169632E+01  0.18291312340E+02  0.67711947267E+02  0.70442287069E+02  0.00000000000E+00 0. -1.
</event>
<event>
 7    1  0.2723366E-009  0.1817368E+03  0.7561462E-02  0.1166133E+00
         -1   -1    0    0    0  501 -0.00000000000E+00  0.00000000000E+00  0.82652174778E+02  0.82652174778E+02  0.00000000000E+00 0.  1.
          1   -1    0    0  501    0  0.00000000000E+00 -0.00000000000E+00 -0.98932833541E+03  0.98932833541E+03  0.00000000000E+00 0. -1.
         25    2    1    2    0    0 -0.10866702056E+02 -0.15400078589E+03 -0.61064476796E+02  0.20787412863E+03  0.12509378785E+03 0.  0.
          5    1    3    3  502    0 -0.54659841593E+02 -0.13059892578E+03 -0.19477210600E+02  0.14297066773E+03  0.41800000000E+01 0. -1.
         -5    1    3    3    0  502  0.43793139536E+02 -0.23401860110E+02 -0.41587266196E+02  0.64903460899E+02  0.41800000000E+01 0. -1.
        -11    1    1    2    0    0 -0.18672961538E+02  0.13629224419E+03 -0.74926543766E+03  0.76178930906E+03  0.00000000000E+00 0. -1.
         11    1    1    2    0    0  0.29539663595E+02  0.17708541692E+02 -0.96346246174E+02  0.10231707251E+03  0.00000000000E+00 0.  1.
</event>
<event>
 7    1  0.2723366E-009  0.1407579E+03  0.7561462E-02  0.1212313E+00
         -1   -1    0    0    0  501 -0.00000000000E+00  0.00000000000E+00  0.51450276594E+02  0.51450276594E+02  0.00000000000E+00 0.  1.
          1   -1    0    0  501    0  0.00000000000E+00 -0.00000000000E+00 -0.52100295476E+03  0.52100295476E+03  0.00000000000E+00 0. -1.
         25    2    1    2    0    0  0.71305898943E+02 -0.83201391863E+02 -0.15776321570E+03  0.22922251583E+03  0.12508687663E+03 0.  0.
          5    1    3    3  502    0 -0.34227872340E+02 -0.37676201642E+02 -0.53907905730E+02  0.74260205463E+02  0.41800000000E+01 0.  1.
         -5    1    3    3    0  502  0.10553377128E+03 -0.45525190222E+02 -0.10385530996E+03  0.15496231037E+03  0.41800000000E+01 0.  1.
        -11    1    1    2    0    0 -0.52770632188E+02  0.33798838907E+02 -0.62824442779E+02  0.88735628377E+02  0.00000000000E+00 0.  1.
         11    1    1    2    0    0 -0.18535266755E+02  0.49402552957E+02 -0.24896501969E+03  0.25449508715E+03  0.00000000000E+00 0. -1.
</event>
<event>
 7    1  0.2723366E-009  0.1143617E+03  0.7561462E-02  0.1252699E+00
          2   -1    0    0  501    0  0.00000000000E+00  0.00000000000E+00  0.80608230380E+03  0.80608230380E+03  0.00000000000E+00 0. -1.
         -2   -1    0    0    0  501 -0.00000000000E+00 -0.00000000000E+00 -0.19962723669E+02  0.19962723669E+02  0.00000000000E+00 0.  1.
         25    2    1    2    0    0 -0.44072620261E+02 -0.25979336585E+02  0.56820294159E+03  0.58405686690E+03  0.12510203499E+03 0.  0.
          5    1    3    3  502    0  0.17651838811E+02 -0.58368558598E+02  0.19424128928E+03  0.20363110496E+03  0.41800000000E+01 0.  1.
         -5    1    3    3    0  502 -0.61724459072E+02  0.32389222013E+02  0.37396165231E+03  0.38042576194E+03  0.41800000000E+01 0.  1.
        -11    1    1    2    0    0  0.40465536654E+02  0.55135247984E+02  0.10497453172E+03  0.12528769906E+03  0.00000000000E+00 0.  1.
         11    1    1    2    0    0  0.36070836075E+01 -0.29155911399E+02  0.11294210683E+03  0.11670046151E+03  0.00000000000E+00 0. -1.
</event>
<event>
 7    1  0.2723366E-009  0.2394468E+03  0.7561462E-02  0.1120162E+00
          2   -1    0    0  501    0  0.00000000000E+00  0.00000000000E+00  0.17736210582E+04  0.17736210582E+04  0.00000000000E+00 0. -1.
         -2   -1    0    0    0  501 -0.00000000000E+00 -0.00000000000E+00 -0.36302991311E+02  0.36302991311E+02  0.00000000000E+00 0.  1.
         25    2    1    2    0    0 -0.12414190754E+03 -0.18888896083E+03  0.75278780196E+03  0.79588318291E+03  0.12510121233E+03 0.  0.
          5    1    3    3  502    0 -0.76659349246E+02 -0.24535629404E+02  0.33169528365E+03  0.34134716424E+03  0.41800000000E+01 0.  1.
         -5    1    3    3    0  502 -0.47482558291E+02 -0.16435333143E+03  0.42109251831E+03  0.45453601867E+03  0.41800000000E+01 0.  1.
        -11    1    1    2    0    0  0.60844842540E+02  0.72206720885E+02  0.24258343785E+03  0.26031256160E+03  0.00000000000E+00 0.  1.
         11    1    1    2    0    0  0.63297064996E+02  0.11668223995E+03  0.74194682707E+03  0.75372830500E+03  0.00000000000E+00 0. -1.
</event>
<event>
 7    1  0.2723366E-009  0.1166007E+03  0.7561462E-02  0.1248812E+00
         -1   -1    0    0    0  501 -0.00000000000E+00  0.00000000000E+00  0.20926199737E+02  0.20926199737E+02  0.00000000000E+00 0.  1.
          1   -1    0    0  501    0  0.00000000000E+00 -0.00000000000E+00 -0.10292210828E+04  0.10292210828E+04  0.00000000000E+00 0. -1.
         25    2    1    2    0    0 -0.77250140508E+02  0.61898772531E+02 -0.55286091766E+03  0.57541493867E+03  0.12509242633E+03 0.  0.
          5    1    3    3  502    0 -0.13864869628E+02  0.13390622692E+02 -0.41931380879E+03  0.41977742439E+03  0.41800000000E+01 0.  1.
         -5    1    3    3    0  502 -0.63385270880E+02  0.48508149839E+02 -0.13354710887E+03  0.15563751429E+03  0.41800000000E+01 0.  1.
        -11    1    1    2    0    0  0.85141910553E+02 -0.15567817419E+02 -0.31285444375E+03  0.32460653852E+03  0.00000000000E+00 0. -1.
         11    1    1    2    0    0 -0.78917700453E+01 -0.46330955112E+02 -0.14257952161E+03  0.15012580531E+03  0.00000000000E+00 0.  1.
</event>
<event>
 7    1  0.2723366E-009  0.6100708E+02  0.7561462E-02  0.1393653E+00
          2   -1    0    0  501    0  0.00000000000E+00  0.00000000000E+00  0.42806864911E+03  0.42806864911E+03  0.00000000000E+00 0. -1.
         -2   -1    0    0    0  501 -0.00000000000E+00 -0.00000000000E+00 -0.31692759602E+02  0.31692759602E+02  0.00000000000E+00 0.  1.
         25    2    1    2    0    0  0.60900883985E+00  0.72016800416E+01  0.30616720002E+03  0.33081387419E+03  0.12508888800E+03 0.  0.
          5    1    3    3  502    0 -0.21114299451E+02  0.72001404937E+01 -0.11270409360E+01  0.22724398467E+02  0.41800000000E+01 0.  1.
         -5    1    3    3    0  502  0.21723308290E+02  0.15395478940E-02  0.30729424095E+03  0.30808947572E+03  0.41800000000E+01 0.  1.
        -11    1    1    2    0    0  0.39147560193E+01 -0.41961123465E+02  0.12916310885E+02  0.44078251826E+02  0.00000000000E+00 0.  1.
         11    1    1    2    0    0 -0.45237648592E+01  0.34759443423E+02  0.77292378602E+02  0.84869282697E+02  0.00000000000E+00 0. -1.
</event>
<event>
 7    1  0.2723366E-009  0.1150319E+03  0.7561462E-02  0.1251525E+00
         -1   -1    0    0    0  501 -0.00000000000E+00  0.00000000000E+00  0.28655248972E+03  0.28655248972E+03  0.00000000000E+00 0.  1.
          1   -1    0    0  501    0  0.00000000000E+00 -0.00000000000E+00 -0.85042856989E+02  0.85042856989E+02  0.00000000000E+00 0. -1.
         25    2    1    2    0    0  0.83161204587E+02  0.18669552957E+02  0.25058578660E+02  0.15342659638E+03  0.12508976759E+03 0.  0.
          5    1    3    3  502    0  0.10097095731E+03 -0.37060349667E+01 -0.16848696729E+02  0.10251936352E+03  0.41800000000E+01 0.  1.
         -5    1    3    3    0  502 -0.17809752721E+02  0.22375587924E+02  0.41907275389E+02  0.50907232860E+02  0.41800000000E+01 0.  1.
        -11    1    1    2    0    0 -0.20209278703E+02  0.18102552041E+02 -0.12751365609E+00  0.27131782025E+02  0.00000000000E+00 0. -1.
         11    1    1    2    0    0 -0.62951925884E+02 -0.36772104998E+02  0.17657856772E+03  0.19103696830E+03  0.00000000000E+00 0.  1.
</event>
<event>
 7    1  0.2723366E-009  0.1029111E+03  0.7561462E-02  0.1274291E+00
          1   -1    0    0  501    0  0.00000000000E+00  0.00000000000E+00  0.10253939257E+03  0.10253939257E+03  0.00000000000E+00 0. -1.
         -1   -1    0    0    0  501 -0.00000000000E+00 -0.00000000000E+00 -0.13159921825E+03  0.13159921825E+03  0.00000000000E+00 0.  1.
         25    2    1    2    0    0  0.45385539332E+02  0.15996340078E+01 -0.12058805666E+02  0.13362053471E+03  0.12508647606E+03 0.  0.
          5    1    3    3  502    0  0.50925078211E+02 -0.55466546941E+02 -0.10225101195E+02  0.76104707573E+02  0.41800000000E+01 0. -1.
         -5    1    3    3    0  502 -0.55395388785E+01  0.57066180949E+02 -0.18337044713E+01  0.57515827136E+02  0.41800000000E+01 0. -1.
        -11    1    1    2    0    0 -0.54337666039E+01  0.24568302099E+02 -0.40198064508E+02  0.47423745927E+02  0.00000000000E+00 0.  1.
         11    1    1    2    0    0 -0.39951772729E+02 -0.26167936107E+02  0.23197044500E+02  0.53094330185E+02  0.00000000000E+00 0. -1.
</event>
<event>
 7    1  0.2723366E-009  0.1119816E+03  0.7561462E-02  0.1256944E+00
          2   -1    0    0  501    0  0.00000000000E+00  0.00000000000E+00  0.33953037622E+02  0.33953037622E+02  0.00000000000E+00 0. -1.
         -2   -1    0    0    0  501 -0.00000000000E+00 -0.00000000000E+00 -0.40450509124E+03  0.40450509124E+03  0.00000000000E+00 0.  1.
         25    2    1    2    0    0 -0.27958079974E+02 -0.34370976965E+02 -0.21597791120E+03  0.25348743299E+03  0.12508557976E+03 0.  0.
          5    1    3    3  502    0 -0.24090504255E+02 -0.76424333248E+02 -0.90109006197E+02  0.12065710300E+03  0.41800000000E+01 0. -1.
         -5    1    3    3    0  502 -0.38675757196E+01  0.42053356283E+02 -0.12586890501E+03  0.13283032998E+03  0.41800000000E+01 0. -1.
        -11    1    1    2    0    0 -0.33562584507E+02  0.90778026621E+01 -0.60026351517E+02  0.69368699400E+02  0.00000000000E+00 0.  1.
         11    1    1    2    0    0  0.61520664482E+02  0.25293174303E+02 -0.94547790902E+02  0.11560199648E+03  0.00000000000E+00 0. -1.
</event>
<event>
 7    1  0.2723366E-009  0.1133897E+03  0.7561462E-02  0.1254418E+00
         -2   -1    0    0    0  501 -0.00000000000E+00  0.00000000000E+00  0.31624974696E+03  0.31624974696E+03  0.00000000000E+00 0.  1.
          2   -1    0    0  501    0  0.00000000000E+00 -0.00000000000E+00 -0.44650416379E+02  0.44650416379E+02  0.00000000000E+00 0. -1.
         25    2    1    2    0    0  0.29655713511E+02  0.23885336685E+02  0.19442108159E+03  0.23430006157E+03  0.12508793400E+03 0.  0.
          5    1    3    3  502    0 -0.24357288740E+02 -0.37305917672E+02  0.99132416691E+02  0.10876450454E+03  0.41800000000E+01 0. -1.
         -5    1    3    3    0  502  0.54013002251E+02  0.61191254357E+02  0.95288664903E+02  0.12553555704E+03  0.41800000000E+01 0. -1.
        -11    1    1    2    0    0 -0.61809567732E+02 -0.28399243596E+01  0.49566306620E+02  0.79279925489E+02  0.00000000000E+00 0.  1.
         11    1    1    2    0    0  0.32153854221E+02 -0.21045412325E+02  0.27611942365E+02  0.47320176272E+02  0.00000000000E+00 0. -1.
</event>
<event>
 7    1  0.2723366E-009  0.1460805E+03  0.7561462E-02  0.1205374E+00
         -1   -1    0    0    0  501 -0.00000000000E+00  0.00000000000E+00  0.29205066458E+03  0.29205066458E+03  0.00000000000E+00 0.  1.
          1   -1    0    0  501    0  0.00000000000E+00 -0.00000000000E+00 -0.76687869292E+02  0.76687869292E+02  0.00000000000E+00 0. -1.
         25    2    1    2    0    0  0.60997222286E+02 -0.74299558099E+02  0.76845361603E+02  0.17548060789E+03  0.12508856337E+03 0.  0.
          5    1    3    3  502    0  0.41620262693E+02  0.30021758495E+02  0.27793163030E+02  0.58510550852E+02  0.41800000000E+01 0.  1.
         -5    1    3    3    0  502  0.19376959593E+02 -0.10432131659E+03  0.49052198572E+02  0.11697005704E+03  0.41800000000E+01 0.  1.
        -11    1    1    2    0    0 -0.85565441463E+02  0.46497521845E+02  0.94608061890E+02  0.13577241872E+03  0.00000000000E+00 0.  1.
         11    1    1    2    0    0  0.24568219178E+02  0.27802036255E+02  0.43909371795E+02  0.57485507259E+02  0.00000000000E+00 0. -1.
</event>
<event>
 7    1  0.2723366E-009  0.7486769E+02  0.7561462E-02  0.1344281E+00
          3   -1    0    0  501    0  0.00000000000E+00  0.00000000000E+00  0.56761412116E+03  0.56761412116E+03  0.00000000000E+00 0. -1.
         -3   -1    0    0    0  501 -0.00000000000E+00 -0.00000000000E+00 -0.35638974397E+02  0.35638974397E+02  0.00000000000E+00 0.  1.
         25    2    1    2    0    0  0.41758713452E+02 -0.17200385688E+02  0.12103744921E+03  0.17982500521E+03  0.12508926801E+03 0.  0.
          5    1    3    3  502    0  0.41826636339E+02 -0.89190943767E+01 -0.13443377090E+02  0.45024599271E+02  0.41800000000E+01 0. -1.
         -5    1    3    3    0  502 -0.67922887558E-01 -0.82812913115E+01  0.13448082630E+03  0.13480040594E+03  0.41800000000E+01 0. -1.
        -11    1    1    2    0    0 -0.20480960493E+02 -0.35315791010E+02  0.11296402651E+03  0.12011472067E+03  0.00000000000E+00 0.  1.
         11    1    1    2    0    0 -0.21277752958E+02  0.52516176699E+02  0.29797367105E+03  0.30331336967E+03  0.00000000000E+00 0. -1.
</event>
<event>
 7    1  0.2723366E-009  0.1073369E+03  0.7561462E-02  0.1265583E+00
          2   -1    0    0  501    0  0.00000000000E+00  0.00000000000E+00  0.17527987324E+03  0.17527987324E+03  0.00000000000E+00 0. -1.
         -2   -1    0    0    0  501 -0.00000000000E+00 -0.00000000000E+00 -0.10496207126E+03  0.10496207126E+03  0.00000000000E+00 0.  1.
         25    2    1    2    0    0 -0.13266233885E+02  0.41102743749E+02  0.10596657180E+03  0.16953355305E+03  0.12508909931E+03 0.  0.
          5    1    3    3  502    0 -0.16483917656E+02  0.85330425642E+02  0.78622020679E+02  0.11726847666E+03  0.41800000000E+01 0.  1.
         -5    1    3    3    0  502  0.32176837709E+01 -0.44227681893E+02  0.27344551123E+02  0.52265076395E+02  0.41800000000E+01 0.  1.
        -11    1    1    2    0    0 -0.22762531425E+02 -0.41228933108E+02  0.14211814061E+02  0.49192818795E+02  0.00000000000E+00 0. -1.
         11    1    1    2    0    0  0.36028765310E+02  0.12618935866E+00 -0.49860583886E+02  0.61515572655E+02  0.00000000000E+00 0.  1.
</event>
<event>
 7    1  0.2723366E-009  0.1126498E+03  0.7561462E-02  0.1255740E+00
          2   -1    0    0  501    0  0.00000000000E+00  0.00000000000E+00  0.47902672976E+03  0.47902672976E+03  0.00000000000E+00 0. -1.
         -2   -1    0    0    0  501 -0.00000000000E+00 -0.00000000000E+00 -0.35457586386E+02  0.35457586386E+02  0.00000000000E+00 0.  1.
         25    2    1    2    0    0 -0.63487377572E+02 -0.17078310615E+02  0.30769347407E+03  0.33859351913E+03  0.12509189183E+03 0.  0.
          5    1    3    3  502    0 -0.19779099919E+02  0.51630436519E+02  0.16717835343E+03  0.17613344096E+03  0.41800000000E+01 0. -1.
         -5    1    3    3    0  502 -0.43708277653E+02 -0.68708747134E+02  0.14051512064E+03  0.16246007816E+03  0.41800000000E+01 0. -1.
        -11    1    1    2    0    0 -0.21418363445E+01  0.22368111995E+02 -0.25395148743E+01  0.22613470166E+02  0.00000000000E+00 0.  1.
         11    1    1    2    0    0  0.65629213916E+02 -0.52898013795E+01  0.13841518417E+03  0.15327732685E+03  0.00000000000E+00 0. -1.
</event>
<event>
 7    1  0.2723366E-009  0.1315681E+03  0.7561462E-02  0.1225147E+00
          2   -1    0    0  501    0  0.00000000000E+00  0.00000000000E+00  0.49683754350E+03  0.49683754350E+03  0.00000000000E+00 0. -1.
         -2   -1    0    0    0  501 -0.00000000000E+00 -0.00000000000E+00 -0.38846249608E+02  0.38846249608E+02  0.00000000000E+00 0.  1.
         25    2    1    2    0    0 -0.45487498964E+02  0.72629500575E+02  0.28638610671E+03  0.32404656351E+03  0.12508003954E+03 0.  0.
          5    1    3    3  502    0 -0.33182142744E+02  0.10597794772E+03  0.24687750346E+03  0.27073668779E+03  0.41800000000E+01 0. -1.
         -5    1    3    3    0  502 -0.12305356220E+02 -0.33348447148E+02  0.39508603250E+02  0.53309875724E+02  0.41800000000E+01 0. -1.
        -11    1    1    2    0    0 -0.80653063156E+01  0.12952726228E+02  0.56533631410E+02  0.58556585992E+02  0.00000000000E+00 0. -1.
         11    1    1    2    0    0  0.53552805279E+02 -0.85582226803E+02  0.11507155577E+03  0.15308064360E+03  0.00000000000E+00 0.  1.
</event>
<event>
 7    1  0.2723366E-009  0.8266975E+02  0.7561462E-02  0.1321641E+00
         -1   -1    0    0    0  501 -0.00000000000E+00  0.00000000000E+00  0.34208453621E+03  0.34208453621E+03  0.00000000000E+00 0.  1.
          1   -1    0    0  501    0  0.00000000000E+00 -0.00000000000E+00 -0.36285969991E+02  0.36285969991E+02  0.00000000000E+00 0. -1.
         25    2    1    2    0    0 -0.33255533987E+01 -0.21173520131E+02  0.17340857092E+03  0.21489096828E+03  0.12509283960E+03 0.  0.
          5    1    3    3  502    0  0.43567652060E+02  0.29986061624E+01  0.15130816937E+03  0.15753972979E+03  0.41800000000E+01 0. -1.
         -5    1    3    3    0  502 -0.46893205459E+02 -0.24172126293E+02  0.22100401552E+02  0.57351238491E+02  0.41800000000E+01 0. -1.
        -11    1    1    2    0    0  0.22790962972E+02 -0.15128946991E+02  0.11594166150E+03  0.11912506831E+03  0.00000000000E+00 0.  1.
         11    1    1    2    0    0 -0.19465409573E+02  0.36302467122E+02  0.16448333801E+02  0.44354469603E+02  0.00000000000E+00 0. -1.
</event>
<event>
 7    1  0.2723366E-009  0.1280373E+03  0.7561462E-02  0.1230397E+00
          3   -1    0    0  501    0  0.00000000000E+00  0.00000000000E+00  0.16246552104E+03  0.16246552104E+03  0.00000000000E+00 0. -1.
         -3   -1    0    0    0  501 -0.00000000000E+00 -0.00000000000E+00 -0.13618381994E+03  0.13618381994E+03  0.00000000000E+00 0.  1.
         25    2    1    2    0    0 -0.88287513571E+02  0.65756560853E+01  0.67007291287E+02  0.16725609088E+03  0.12508676406E+03 0.  0.
          5    1    3    3  502    0  0.19451230514E+02  0.17546745163E+02  0.51292329785E+02  0.57746117870E+02  0.41800000000E+01 0.  1.
         -5    1    3    3    0  502 -0.10773874409E+03 -0.10971089077E+02  0.15714961502E+02  0.10950997301E+03  0.41800000000E+01 0.  1.
        -11    1    1    2    0    0  0.10462218670E+03 -0.46873599786E+01 -0.23015285638E+02  0.10722628720E+03  0.00000000000E+00 0. -1.
         11    1    1    2    0    0 -0.16334673130E+02 -0.18882961066E+01 -0.17710304549E+02  0.24166962897E+02  0.00000000000E+00 0.  1.
</event>
<event>
 7    1  0.2723366E-009  0.8543711E+02  0.7561462E-02  0.1314293E+00
          1   -1    0    0  501    0  0.00000000000E+00  0.00000000000E+00  0.35123534350E+03  0.35123534350E+03  0.00000000000E+00 0. -1.
         -1   -1    0    0    0  501 -0.00000000000E+00 -0.00000000000E+00 -0.32715385003E+02  0.32715385003E+02  0.00000000000E+00 0.  1.
         25    2    1    2    0    0  0.12682800556E+00 -0.12827143193E+02  0.13477135767E+03  0.18432513843E+03  0.12509151100E+03 0.  0.
          5    1    3    3  502    0 -0.52191596478E+02 -0.24030820034E+00  0.11584762751E+03  0.12713050653E+03  0.41800000000E+01 0. -1.
         -5    1    3    3    0  502  0.52318424484E+02 -0.12586834992E+02  0.18923730159E+02  0.57194631905E+02  0.41800000000E+01 0. -1.
        -11    1    1    2    0    0  0.66544370121E+01  0.37945210003E+02  0.15940923886E+03  0.16399824977E+03  0.00000000000E+00 0. -1.
         11    1    1    2    0    0 -0.67812650176E+01 -0.25118066810E+02  0.24339361969E+02  0.35627340296E+02  0.00000000000E+00 0.  1.
</event>
<event>
 7    1  0.2723366E-009  0.9988037E+02  0.7561462E-02  0.1280548E+00
         -2   -1    0    0    0  501 -0.00000000000E+00  0.00000000000E+00  0.47989226215E+02  0.47989226215E+02  0.00000000000E+00 0.  1.
          2   -1    0    0  501    0  0.00000000000E+00 -0.00000000000E+00 -0.30578790160E+03  0.30578790160E+03  0.00000000000E+00 0. -1.
         25    2    1    2    0    0 -0.50524062055E+02 -0.32388253738E+02 -0.13350332958E+03  0.19254285915E+03  0.12509170147E+03 0.  0.
          5    1    3    3  502    0 -0.47855577778E+02 -0.77877574476E+02 -0.10177539280E+03  0.13686042492E+03  0.41800000000E+01 0.  1.
         -5    1    3    3    0  502 -0.26684842765E+01  0.45489320739E+02 -0.31727936779E+02  0.55682434231E+02  0.41800000000E+01 0.  1.
        -11    1    1    2    0    0  0.12252104803E+02  0.17656195914E+02 -0.11776288558E+03  0.11970777981E+03  0.00000000000E+00 0. -1.
         11    1    1    2    0    0  0.38271957252E+02  0.14732057823E+02 -0.65324602236E+01  0.41526488849E+02  0.00000000000E+00 0.  1.
</event>
<event>
 7    1  0.2723366E-009  0.1632547E+03  0.7561462E-02  0.1185071E+00
         -3   -1    0    0    0  501 -0.00000000000E+00  0.00000000000E+00  0.28391848039E+02  0.28391848039E+02  0.00000000000E+00 0.  1.
          3   -1    0    0  501    0  0.00000000000E+00 -0.00000000000E+00 -0.10163445995E+04  0.10163445995E+04  0.00000000000E+00 0. -1.
         25    2    1    2    0    0  0.60530275807E+02  0.11164649045E+03 -0.60610112476E+03  0.63177166529E+03  0.12509200816E+03 0.  0.
          5    1    3    3  502    0 -0.24800393281E+01 -0.22299679691E+02 -0.16276137976E+03  0.16435378137E+03  0.41800000000E+01 0.  1.
         -5    1    3    3    0  502  0.63010315135E+02  0.13394617014E+03 -0.44333974500E+03  0.46741788391E+03  0.41800000000E+01 0.  1.
        -11    1    1    2    0    0 -0.68358898014E+02 -0.31838998602E+02 -0.15531997150E+03  0.17265849043E+03  0.00000000000E+00 0. -1.
         11    1    1    2    0    0  0.78286222070E+01 -0.79807491849E+02 -0.22653165517E+03  0.24030629179E+03  0.00000000000E+00 0.  1.
</event>
<event>
 7    1  0.2723366E-009  0.1369139E+03  0.7561462E-02  0.1217543E+00
          1   -1    0    0  501    0  0.00000000000E+00  0.00000000000E+00  0.14530927338E+03  0.14530927338E+03  0.00000000000E+00 0. -1.
         -1   -1    0    0    0  501 -0.00000000000E+00 -0.00000000000E+00 -0.16825238055E+03  0.16825238055E+03  0.00000000000E+00 0.  1.
         25    2    1    2    0    0  0.89837770050E+02  0.66865927784E+02 -0.41514150533E+01  0.16795369610E+03  0.12509729238E+03 0.  0.
          5    1    3    3  502    0  0.72449613895E+02  0.90993633840E+01 -0.52912915809E+02  0.90271778685E+02  0.41800000000E+01 0.  1.
         -5    1    3    3    0  502  0.17388156156E+02  0.57766564400E+02  0.48761500756E+02  0.77681917414E+02  0.41800000000E+01 0.  1.
        -11    1    1    2    0    0 -0.53851538442E+02  0.10524181075E+02 -0.24453491682E+02  0.60072621345E+02  0.00000000000E+00 0.  1.
         11    1    1    2    0    0 -0.35986231608E+02 -0.77390108859E+02  0.56617995638E+01  0.85535336492E+02  0.00000000000E+00 0. -1.
</event>
<event>
 7    1  0.2723366E-009  0.8986429E+02  0.7561462E-02  0.1303181E+00
          2   -1    0    0  501    0  0.00000000000E+00  0.00000000000E+00  0.11517559523E+03  0.11517559523E+03  0.00000000000E+00 0.  1.
         -2   -1    0    0    0  501 -0.00000000000E+00 -0.00000000000E+00 -0.10896118997E+03  0.10896118997E+03  0.00000000000E+00 0. -1.
         25    2    1    2    0    0  0.11498321387E+02  0.52796670048E+02 -0.16012914257E+02  0.13719572600E+03  0.12508618647E+03 0.  0.
          5    1    3    3  502    0 -0.24491498998E+02  0.63147331153E+02 -0.51690269718E+02  0.85304017129E+02  0.41800000000E+01 0. -1.
         -5    1    3    3    0  502  0.35989820385E+02 -0.10350661104E+02  0.35677355461E+02  0.51891708869E+02  0.41800000000E+01 0. -1.
        -11    1    1    2    0    0  0.10296921400E+02 -0.51319969705E+02  0.33713217376E+02  0.62260315665E+02  0.00000000000E+00 0.  1.
         11    1    1    2    0    0 -0.21795242787E+02 -0.14767003431E+01 -0.11485897856E+02  0.24680743539E+02  0.00000000000E+00 0. -1.
</event>
<event>
 7    1  0.2723366E-009  0.6578385E+02  0.7561462E-02  0.1375047E+00
          2   -1    0    0  501    0  0.00000000000E+00  0.00000000000E+00  0.19460216073E+03  0.19460216073E+03  0.00000000000E+00 0. -1.
         -2   -1    0    0    0  501 -0.00000000000E+00 -0.00000000000E+00 -0.61394068413E+02  0.61394068413E+02  0.00000000000E+00 0.  1.
         25    2    1    2    0    0  0.38438931415E+02 -0.39662821897E+02  0.10067571661E+03  0.16980775367E+03  0.12509349465E+03 0.  0.
          5    1    3    3  502    0  0.12011185288E+02 -0.87709752236E+01  0.12250482068E+03  0.12347510708E+03  0.41800000000E+01 0. -1.
         -5    1    3    3    0  502  0.26427746127E+02 -0.30891846673E+02 -0.21829104065E+02  0.46332646595E+02  0.41800000000E+01 0. -1.
        -11    1    1    2    0    0 -0.43249381257E+02  0.48626780956E+02  0.16392945722E+02  0.67110367863E+02  0.00000000000E+00 0.  1.
         11    1    1    2    0    0  0.48104498423E+01 -0.89639590595E+01  0.16139429980E+02  0.19078107605E+02  0.00000000000E+00 0. -1.
</event>
<event>
 7    1  0.2723366E-009  0.8574908E+02  0.7561462E-02  0.1313485E+00
         -3   -1    0    0    0  501 -0.00000000000E+00  0.00000000000E+00  0.65090069783E+02  0.65090069783E+02  0.00000000000E+00 0.  1.
          3   -1    0    0  501    0  0.00000000000E+00 -0.00000000000E+00 -0.19647564280E+03  0.19647564280E+03  0.00000000000E+00 0. -1.
         25    2    1    2    0    0  0.10774487646E+01  0.19102985829E+02 -0.10636559708E+03  0.16530919703E+03  0.12508958957E+03 0.  0.
          5    1    3    3  502    0 -0.49574487990E+02 -0.24324305818E+02 -0.27213197260E+02  0.61703583511E+02  0.41800000000E+01 0. -1.
         -5    1    3    3    0  502  0.50651936755E+02  0.43427291646E+02 -0.79152399816E+02  0.10360561352E+03  0.41800000000E+01 0. -1.
        -11    1    1    2    0    0 -0.69623236745E+01 -0.33237197094E+02  0.26140319709E+02  0.42854422597E+02  0.00000000000E+00 0.  1.
         11    1    1    2    0    0  0.58848749098E+01  0.14134211265E+02 -0.51160295646E+02  0.53402092950E+02  0.00000000000E+00 0. -1.
</event>
<event>
 7    1  0.2745752E-009  0.1178240E+03  0.7561462E-02  0.1246731E+00
         -1   -1    0    0    0  501 -0.00000000000E+00  0.00000000000E+00  0.59374135027E+03  0.59374135027E+03  0.00000000000E+00 0.  1.
          1   -1    0    0  501    0  0.00000000000E+00 -0.00000000000E+00 -0.29619279048E+02  0.29619279048E+02  0.00000000000E+00 0. -1.
         25    2    1    2    0    0 -0.18446480780E+02 -0.60246251226E+02  0.41377916785E+03  0.43684347807E+03  0.12509652731E+03 0.  0.
          5    1    3    3  502    0  0.40666790861E+02 -0.59540904127E+02  0.29980080473E+03  0.30837785598E+03  0.41800000000E+01 0.  1.
         -5    1    3    3    0  502 -0.59113271641E+02 -0.70534709877E+00  0.11397836311E+03  0.12846562208E+03  0.41800000000E+01 0.  1.
        -11    1    1    2    0    0  0.51686746189E+02  0.38216795940E+02  0.12097456666E+03  0.13699229541E+03  0.00000000000E+00 0.  1.
         11    1    1    2    0    0 -0.33240265409E+02  0.22029455286E+02  0.29368336716E+02  0.49524855842E+02  0.00000000000E+00 0. -1.
</event>
<event>
 7    1  0.2723366E-009  0.9825075E+02  0.7561462E-02  0.1284018E+00
         -1   -1    0    0    0  501 -0.00000000000E+00  0.00000000000E+00  0.22864403634E+02  0.22864403634E+02  0.00000000000E+00 0.  1.
          1   -1    0    0  501    0  0.00000000000E+00 -0.00000000000E+00 -0.53936075063E+03  0.53936075063E+03  0.00000000000E+00 0. -1.
         25    2    1    2    0    0 -0.13732806549E+02 -0.22807935333E+02 -0.29471444032E+03  0.32126750168E+03  0.12508962551E+03 0.  0.
          5    1    3    3  502    0  0.32813552787E+02 -0.43663339435E+02 -0.24071997295E+03  0.24687404528E+03  0.41800000000E+01 0. -1.
         -5    1    3    3    0  502 -0.46546359335E+02  0.20855404101E+02 -0.53994467373E+02  0.74393456395E+02  0.41800000000E+01 0. -1.
        -11    1    1    2    0    0 -0.56028076849E+01 -0.31969669399E+02 -0.11385160144E+03  0.11838766137E+03  0.00000000000E+00 0. -1.
         11    1    1    2    0    0  0.19335614234E+02  0.54777604732E+02 -0.10793030524E+03  0.12256999121E+03  0.00000000000E+00 0.  1.
</event>
<event>
 7    1  0.2723366E-009  0.1538113E+03  0.7561462E-02  0.1195866E+00
         -2   -1    0    0    0  501 -0.00000000000E+00  0.00000000000E+00  0.21449192765E+02  0.21449192765E+02  0.00000000000E+00 0.  1.
          2   -1    0    0  501    0  0.00000000000E+00 -0.00000000000E+00 -0.13732278045E+04  0.13732278045E+04  0.00000000000E+00 0. -1.
         25    2    1    2    0    0  0.82343650304E+02 -0.10045784460E+03 -0.59786704778E+03  0.62447169131E+03  0.12509049183E+03 0.  0.
          5    1    3    3  502    0  0.31758699436E+01 -0.63328969732E+02 -0.43455124096E+03  0.43917297045E+03  0.41800000000E+01 0.  1.
         -5    1    3    3    0  502  0.79167780361E+02 -0.37128874866E+02 -0.16331580682E+03  0.18529872086E+03  0.41800000000E+01 0.  1.
        -11    1    1    2    0    0 -0.74132166044E+02  0.21550391789E+02 -0.41631054847E+03  0.42340816029E+03  0.00000000000E+00 0. -1.
         11    1    1    2    0    0 -0.82114842604E+01  0.78907452809E+02 -0.33760101544E+03  0.34679714562E+03  0.00000000000E+00 0.  1.
</event>
<event>
 7    1  0.2723366E-009  0.7795950E+02  0.7561462E-02  0.1334944E+00
         -2   -1    0    0    0  501 -0.00000000000E+00  0.00000000000E+00  0.14555928317E+03  0.14555928317E+03  0.00000000000E+00 0.  1.
          2   -1    0    0  501    0  0.00000000000E+00 -0.00000000000E+00 -0.88068986160E+02  0.88068986160E+02  0.00000000000E+00 0. -1.
         25    2    1    2    0    0  0.18260797844E+02  0.23410009199E+02  0.17826362234E+02  0.12979862786E+03  0.12509364227E+03 0.  0.
          5    1    3    3  502    0  0.57658626636E+02  0.34953802873E+01  0.48779923334E+02  0.75721121422E+02  0.41800000000E+01 0.  1.
         -5    1    3    3    0  502 -0.39397828792E+02  0.19914628912E+02 -0.30953561100E+02  0.54077506443E+02  0.41800000000E+01 0.  1.
        -11    1    1    2    0    0  0.11338885430E+02 -0.21121934428E+02  0.62133026339E+02  0.66597442885E+02  0.00000000000E+00 0.  1.
         11    1    1    2    0    0 -0.29599683273E+02 -0.22880747717E+01 -0.22469091559E+02  0.37232198585E+02  0.00000000000E+00 0. -1.
</event>
<event>
 7    1  0.2723366E-009  0.1027185E+03  0.7561462E-02  0.1274681E+00
         -2   -1    0    0    0  501 -0.00000000000E+00  0.00000000000E+00  0.46873976150E+02  0.46873976150E+02  0.00000000000E+00 0. -1.
          2   -1    0    0  501    0  0.00000000000E+00 -0.00000000000E+00 -0.36563384601E+03  0.36563384601E+03  0.00000000000E+00 0.  1.
         25    2    1    2    0    0 -0.49890485389E+02 -0.49777046389E+02 -0.17603067887E+03  0.22715739543E+03  0.12508743948E+03 0.  0.
          5    1    3    3  502    0 -0.54621648204E+02 -0.19807035727E+02 -0.18603125900E+03  0.19493831035E+03  0.41800000000E+01 0.  1.
         -5    1    3    3    0  502  0.47311628156E+01 -0.29970010662E+02  0.10000580129E+02  0.32219085083E+02  0.41800000000E+01 0.  1.
        -11    1    1    2    0    0  0.40686410648E+02 -0.20583738173E+02 -0.71540506364E+02  0.84835831695E+02  0.00000000000E+00 0.  1.
         11    1    1    2    0    0  0.92040747406E+01  0.70360784562E+02 -0.71188684628E+02  0.10051459503E+03  0.00000000000E+00 0. -1.
</event>
<event>
 7    1  0.2723366E-009  0.1239750E+03  0.7561462E-02  0.1236680E+00
          2   -1    0    0  501    0  0.00000000000E+00  0.00000000000E+00  0.37904758037E+03  0.37904758037E+03  0.00000000000E+00 0. -1.
         -2   -1    0    0    0  501 -0.00000000000E+00 -0.00000000000E+00 -0.68961337660E+02  0.68961337660E+02  0.00000000000E+00 0.  1.
         25    2    1    2    0    0  0.20113891345E+02 -0.11091917316E+03  0.23004534488E+03  0.28508981366E+03  0.12509080521E+03 0.  0.
          5    1    3    3  502    0 -0.24921397595E+02 -0.62505548955E+02  0.28970633337E+02  0.73381126349E+02  0.41800000000E+01 0.  1.
         -5    1    3    3    0  502  0.45035288940E+02 -0.48413624204E+02  0.20107471155E+03  0.21170868731E+03  0.41800000000E+01 0.  1.
        -11    1    1    2    0    0 -0.85920754258E+01  0.89872078156E+02  0.97775429363E+02  0.13308211292E+03  0.00000000000E+00 0. -1.
         11    1    1    2    0    0 -0.11521815920E+02  0.21047095003E+02 -0.17734531536E+02  0.29836991453E+02  0.00000000000E+00 0.  1.
</event>
<event>
 7    1  0.2723366E-009  0.8176643E+02  0.7561462E-02  0.1324112E+00
         -2   -1    0    0    0  501 -0.00000000000E+00  0.00000000000E+00  0.27954879017E+02  0.27954879017E+02  0.00000000000E+00 0.  1.
          2   -1    0    0  501    0  0.00000000000E+00 -0.00000000000E+00 -0.53251474101E+03  0.53251474101E+03  0.00000000000E+00 0. -1.
         25    2    1    2    0    0  0.31967958344E+02  0.39047932648E+02 -0.37099830593E+03  0.39475943730E+03  0.12509428016E+03 0.  0.
          5    1    3    3  502    0  0.38310751370E+02  0.10476188879E+02 -0.36151089765E+03  0.36371013971E+03  0.41800000000E+01 0. -1.
         -5    1    3    3    0  502 -0.63427930261E+01  0.28571743770E+02 -0.94874082825E+01  0.31049297598E+02  0.41800000000E+01 0. -1.
        -11    1    1    2    0    0 -0.36168873804E+02  0.15480053777E+02 -0.80052444351E+02  0.89197608397E+02  0.00000000000E+00 0.  1.
         11    1    1    2    0    0  0.42009154600E+01 -0.54527986425E+02 -0.53509111711E+02  0.76512574329E+02  0.00000000000E+00 0. -1.
</event>
<event>
 7    1  0.2723366E-009  0.1385156E+03  0.7561462E-02  0.1215340E+00
         -1   -1    0    0    0  501 -0.00000000000E+00  0.00000000000E+00  0.54856731215E+02  0.54856731215E+02  0.00000000000E+00 0.  1.
          1   -1    0    0  501    0  0.00000000000E+00 -0.00000000000E+00 -0.37228211050E+03  0.37228211050E+03  0.00000000000E+00 0. -1.
         25    2    1    2    0    0 -0.55786046401E+02  0.75039023312E+02 -0.19217013078E+03  0.24763025889E+03  0.12509375668E+03 0.  0.
          5    1    3    3  502    0 -0.79271527427E+02  0.94038623009E+02 -0.17026115772E+03  0.21007991790E+03  0.41800000000E+01 0. -1.
         -5    1    3    3    0  502  0.23485481027E+02 -0.18999599697E+02 -0.21908973062E+02  0.37550340989E+02  0.41800000000E+01 0. -1.
        -11    1    1    2    0    0  0.58822926439E+02 -0.90377829003E+02 -0.12321694276E+03  0.16373974359E+03  0.00000000000E+00 0.  1.
         11    1    1    2    0    0 -0.30368800385E+01  0.15338805691E+02 -0.20383057492E+01  0.15768839232E+02  0.00000000000E+00 0. -1.
</event>
<event>
 7    1  0.2723366E-009  0.1221364E+03  0.7561462E-02  0.1239614E+00
          2   -1    0    0  501    0  0.00000000000E+00  0.00000000000E+00  0.47038877183E+03  0.47038877183E+03  0.00000000000E+00 0. -1.
         -2   -1    0    0    0  501 -0.00000000000E+00 -0.00000000000E+00 -0.56548052909E+02  0.56548052909E+02  0.00000000000E+00 0.  1.
         25    2    1    2    0    0  0.91227689135E+02 -0.43134130707E+02  0.33378991776E+03  0.37046766827E+03  0.12509012565E+03 0.  0.
          5    1    3    3  502    0  0.94681013076E+02 -0.49561179955E+02  0.34223099897E+03  0.35855311162E+03  0.41800000000E+01 0. -1.
         -5    1    3    3    0  502 -0.34533239414E+01  0.64270492479E+01 -0.84410812048E+01  0.11914556651E+02  0.41800000000E+01 0. -1.
        -11    1    1    2    0    0 -0.90724731690E+02  0.62099470429E+02  0.82342256905E+02  0.13735926776E+03  0.00000000000E+00 0. -1.
         11    1    1    2    0    0 -0.50295744474E+00 -0.18965339722E+02 -0.22914557501E+01  0.19109888708E+02  0.00000000000E+00 0.  1.
</event>
<event>
 7    1  0.2723366E-009  0.1122689E+03  0.7561462E-02  0.1256425E+00
          2   -1    0    0  501    0  0.00000000000E+00  0.00000000000E+00  0.40934854006E+03  0.40934854006E+03  0.00000000000E+00 0. -1.
         -2   -1    0    0    0  501 -0.00000000000E+00 -0.00000000000E+00 -0.37531474215E+02  0.37531474215E+02  0.00000000000E+00 0.  1.
         25    2    1    2    0    0 -0.57780118866E+02  0.89477641299E+01  0.21742360440E+03  0.25756414088E+03  0.12509060036E+03 0.  0.
          5    1    3    3  502    0 -0.77544834914E+02  0.35586588456E+02  0.20467057024E+03  0.22178169767E+03  0.41800000000E+01 0.  1.
         -5    1    3    3    0  502  0.19764716048E+02 -0.26638824326E+02  0.12753034164E+02  0.35782443213E+02  0.41800000000E+01 0.  1.
        -11    1    1    2    0    0  0.81255807603E+02 -0.23200966009E+01  0.94539300351E+02  0.12468186888E+03  0.00000000000E+00 0.  1.
         11    1    1    2    0    0 -0.23475688737E+02 -0.66276675290E+01  0.59854161098E+02  0.64634004513E+02  0.00000000000E+00 0. -1.
</event>
<event>
 7    1  0.2723366E-009  0.1378162E+03  0.7561462E-02  0.1216298E+00
         -1   -1    0    0    0  501 -0.00000000000E+00  0.00000000000E+00  0.11205918203E+03  0.11205918203E+03  0.00000000000E+00 0.  1.
          1   -1    0    0  501    0  0.00000000000E+00 -0.00000000000E+00 -0.21548032147E+03  0.21548032147E+03  0.00000000000E+00 0. -1.
         25    2    1    2    0    0 -0.66067284218E+02 -0.88342804583E+02 -0.58927030484E+02  0.17688144530E+03  0.12508122802E+03 0.  0.
          5    1    3    3  502    0 -0.76207192102E+02 -0.29271129597E+02  0.13423341329E+02  0.82837151378E+02  0.41800000000E+01 0.  1.
         -5    1    3    3    0  502  0.10139907883E+02 -0.59071674986E+02 -0.72350371813E+02  0.94044293921E+02  0.41800000000E+01 0.  1.
        -11    1    1    2    0    0  0.72562813721E+02  0.98140880693E+02 -0.20260165658E+02  0.12372335556E+03  0.00000000000E+00 0.  1.
         11    1    1    2    0    0 -0.64955295024E+01 -0.97980761099E+01 -0.24233943293E+02  0.26934702644E+02  0.00000000000E+00 0. -1.
</event>
<event>
 7    1  0.2723366E-009  0.1131037E+03  0.7561462E-02  0.1254928E+00
         -2   -1    0    0    0  501 -0.00000000000E+00  0.00000000000E+00  0.57937709478E+02  0.57937709478E+02  0.00000000000E+00 0.  1.
          2   -1    0    0  501    0  0.00000000000E+00 -0.00000000000E+00 -0.63601590258E+03  0.63601590258E+03  0.00000000000E+00 0. -1.
         25    2    1    2    0    0 -0.87345352706E+02 -0.21112633493E+02 -0.53885050467E+03  0.56043068088E+03  0.12509087799E+03 0.  0.
          5    1    3    3  502    0 -0.19283108720E+02  0.40055314895E+02 -0.72334564627E+02  0.85006047861E+02  0.41800000000E+01 0.  1.
         -5    1    3    3    0  502 -0.68062243986E+02 -0.61167948387E+02 -0.46651594004E+03  0.47542463302E+03  0.41800000000E+01 0.  1.
        -11    1    1    2    0    0  0.42865783670E+02  0.12435723548E+02  0.27822099727E+02  0.52594599181E+02  0.00000000000E+00 0.  1.
         11    1    1    2    0    0  0.44479569037E+02  0.86769099448E+01 -0.67049788163E+02  0.80928332002E+02  0.00000000000E+00 0. -1.
</event>
<event>
 7    1  0.2723366E-009  0.6676637E+02  0.7561462E-02  0.1371448E+00
          1   -1    0    0  501    0  0.00000000000E+00  0.00000000000E+00  0.39401533827E+04  0.39401533827E+04  0.00000000000E+00 0. -1.
         -1   -1    0    0    0  501 -0.00000000000E+00 -0.00000000000E+00 -0.15501995966E+02  0.15501995966E+02  0.00000000000E+00 0.  1.
         25    2    1    2    0    0 -0.25215514617E+02  0.26943422379E+02  0.37700855832E+04  0.37723406605E+04  0.12508790516E+03 0.  0.
          5    1    3    3  502    0 -0.26878145739E+02  0.27053318796E+01  0.17103497581E+03  0.17320562603E+03  0.41800000000E+01 0.  1.
         -5    1    3    3    0  502  0.16626311225E+01  0.24238090499E+02  0.35990506074E+04  0.35991350344E+04  0.41800000000E+01 0.  1.
        -11    1    1    2    0    0 -0.22571973540E+02 -0.25051336953E+02  0.11908052297E+03  0.12376281519E+03  0.00000000000E+00 0. -1.
         11    1    1    2    0    0  0.47787488157E+02 -0.18920854259E+01  0.35485280562E+02  0.59551902977E+02  0.00000000000E+00 0.  1.
</event>
<event>
 7    1  0.2723366E-009  0.1573762E+03  0.7561462E-02  0.1191691E+00
          2   -1    0    0  501    0  0.00000000000E+00  0.00000000000E+00  0.22135899100E+04  0.22135899100E+04  0.00000000000E+00 0. -1.
         -2   -1    0    0    0  501 -0.00000000000E+00 -0.00000000000E+00 -0.22866918815E+02  0.22866918815E+02  0.00000000000E+00 0.  1.
         25    2    1    2    0    0  0.13331605356E+03 -0.51657306820E+02  0.17992835428E+04  0.18092848399E+04  0.12509483220E+03 0.  0.
          5    1    3    3  502    0  0.12805472372E+03 -0.49362826277E+02  0.94027408198E+03  0.95024603263E+03  0.41800000000E+01 0.  1.
         -5    1    3    3    0  502  0.52613298443E+01 -0.22944805429E+01  0.85900946078E+03  0.85903880724E+03  0.41800000000E+01 0.  1.
        -11    1    1    2    0    0 -0.13742436702E+03  0.20527814553E+02  0.33310997643E+03  0.36092811503E+03  0.00000000000E+00 0.  1.
         11    1    1    2    0    0  0.41083134603E+01  0.31129492267E+02  0.58329471988E+02  0.66243873911E+02  0.00000000000E+00 0. -1.
</event>
<event>
 7    1  0.2723366E-009  0.1470435E+03  0.7561462E-02  0.1204154E+00
         -2   -1    0    0    0  501 -0.00000000000E+00  0.00000000000E+00  0.21541787927E+03  0.21541787927E+03  0.00000000000E+00 0.  1.
          2   -1    0    0  501    0  0.00000000000E+00 -0.00000000000E+00 -0.19000287436E+03  0.19000287436E+03  0.00000000000E+00 0. -1.
         25    2    1    2    0    0  0.55663307919E+02 -0.10412416158E+03  0.13593006545E+03  0.21923680904E+03  0.12509017097E+03 0.  0.
          5    1    3    3  502    0  0.29107659687E+02  0.25711878495E+02  0.37030661368E+02  0.53824704640E+02  0.41800000000E+01 0.  1.
         -5    1    3    3    0  502  0.26555648232E+02 -0.12983604007E+03  0.98899404085E+02  0.16541210440E+03  0.41800000000E+01 0.  1.
        -11    1    1    2    0    0 -0.44510599939E+02  0.10171164585E+03 -0.12536264533E+03  0.16745818956E+03  0.00000000000E+00 0.  1.
         11    1    1    2    0    0 -0.11152707979E+02  0.24125157305E+01  0.14847584783E+02  0.18725755026E+02  0.00000000000E+00 0. -1.
</event>
<event>
 7    1  0.2723366E-009  0.9039890E+02  0.7561462E-02  0.1301889E+00
          2   -1    0    0  501    0  0.00000000000E+00  0.00000000000E+00  0.15754065915E+04  0.15754065915E+04  0.00000000000E+00 0. -1.
         -2   -1    0    0    0  501 -0.00000000000E+00 -0.00000000000E+00 -0.11495501908E+02  0.11495501908E+02  0.00000000000E+00 0.  1.
         25    2    1    2    0    0  0.39688785274E+02 -0.86157682493E+01  0.12611923923E+04  0.12680308626E+04  0.12508631804E+03 0.  0.
          5    1    3    3  502    0  0.58030675164E+02  0.35092150707E+01  0.12179131833E+04  0.12193071263E+04  0.41800000000E+01 0. -1.
         -5    1    3    3    0  502 -0.18341889890E+02 -0.12124983320E+02  0.43279209067E+02  0.48723736338E+02  0.41800000000E+01 0. -1.
        -11    1    1    2    0    0  0.25812141446E+02  0.21235118351E+02  0.10678626830E+03  0.11189505795E+03  0.00000000000E+00 0.  1.
         11    1    1    2    0    0 -0.65500926721E+02 -0.12619350102E+02  0.19593242893E+03  0.20697617279E+03  0.00000000000E+00 0. -1.
</event>
<event>
 7    1  0.2723366E-009  0.1083867E+03  0.7561462E-02  0.1263587E+00
          1   -1    0    0  501    0  0.00000000000E+00  0.00000000000E+00  0.54025025582E+02  0.54025025582E+02  0.00000000000E+00 0. -1.
         -1   -1    0    0    0  501 -0.00000000000E+00 -0.00000000000E+00 -0.28614867516E+03  0.28614867516E+03  0.00000000000E+00 0.  1.
         25    2    1    2    0    0  0.33087981715E+02  0.54062329122E+02 -0.16398310189E+03  0.21576618078E+03  0.12508811733E+03 0.  0.
          5    1    3    3  502    0 -0.36609416580E+02  0.50325604591E+02 -0.11355088830E+03  0.12955382083E+03  0.41800000000E+01 0. -1.
         -5    1    3    3    0  502  0.69697398295E+02  0.37367245306E+01 -0.50432213597E+02  0.86212359947E+02  0.41800000000E+01 0. -1.
        -11    1    1    2    0    0  0.70441762909E+01 -0.41979335309E+02  0.20946144132E+01  0.42617747737E+02  0.00000000000E+00 0. -1.
         11    1    1    2    0    0 -0.40132158006E+02 -0.12082993813E+02 -0.70235162102E+02  0.81789772229E+02  0.00000000000E+00 0.  1.
</event>
<event>
 7    1  0.2723366E-009  0.1095460E+03  0.7561462E-02  0.1261413E+00
          1   -1    0    0  501    0  0.00000000000E+00  0.00000000000E+00  0.10734686731E+03  0.10734686731E+03  0.00000000000E+00 0. -1.
         -1   -1    0    0    0  501 -0.00000000000E+00 -0.00000000000E+00 -0.23137236215E+03  0.23137236215E+03  0.00000000000E+00 0.  1.
         25    2    1    2    0    0 -0.17565642803E+02 -0.93682957333E+02 -0.45099849699E+01  0.15733088403E+03  0.12509044249E+03 0.  0.
          5    1    3    3  502    0 -0.13844388018E+02 -0.10719176452E+03  0.36211660156E+02  0.11406357084E+03  0.41800000000E+01 0. -1.
         -5    1    3    3    0  502 -0.37212547850E+01  0.13508807191E+02 -0.40721645126E+02  0.43267313190E+02  0.41800000000E+01 0. -1.
        -11    1    1    2    0    0  0.15750304393E+02  0.46615049113E+02 -0.12464663863E+03  0.13400678868E+03  0.00000000000E+00 0.  1.
         11    1    1    2    0    0  0.18153384099E+01  0.47067908220E+02  0.51311287592E+01  0.47381556750E+02  0.00000000000E+00 0. -1.
</event>
<event>
 7    1  0.2723366E-009  0.1223496E+03  0.7561462E-02  0.1239271E+00
          2   -1    0    0  501    0  0.00000000000E+00  0.00000000000E+00  0.50930474196E+03  0.50930474196E+03  0.00000000000E+00 0. -1.
         -2   -1    0    0    0  501 -0.00000000000E+00 -0.00000000000E+00 -0.61481965078E+02  0.61481965078E+02  0.00000000000E+00 0.  1.
         25    2    1    2    0    0 -0.64339355963E+02 -0.92414987102E+02  0.10725222243E+03  0.19957419132E+03  0.12508691401E+03 0.  0.
          5    1    3    3  502    0 -0.25022466198E+02 -0.57605147919E+02 -0.16504924159E+02  0.65071974020E+02  0.41800000000E+01 0.  1.
         -5    1    3    3    0  502 -0.39316889765E+02 -0.34809839184E+02  0.12375714659E+03  0.13450221730E+03  0.41800000000E+01 0.  1.
        -11    1    1    2    0    0  0.66030979067E+02  0.41192159930E+02  0.10835126511E+03  0.13340495076E+03  0.00000000000E+00 0.  1.
         11    1    1    2    0    0 -0.16916231046E+01  0.51222827173E+02  0.23221928934E+03  0.23780756496E+03  0.00000000000E+00 0. -1.
</event>
<event>
 7    1  0.2723366E-009  0.8320404E+02  0.7561462E-02  0.1320197E+00
          1   -1    0    0  501    0  0.00000000000E+00  0.00000000000E+00  0.18395238080E+03  0.18395238080E+03  0.00000000000E+00 0. -1.
         -1   -1    0    0    0  501 -0.00000000000E+00 -0.00000000000E+00 -0.98419821688E+02  0.98419821688E+02  0.00000000000E+00 0.  1.
         25    2    1    2    0    0  0.44536139701E+02 -0.40097687348E+02 -0.56988553782E+01  0.13881968574E+03  0.12508851237E+03 0.  0.
          5    1    3    3  502    0  0.13826005109E+02 -0.10402140802E+02 -0.63995908697E+02  0.66425233763E+02  0.41800000000E+01 0. -1.
         -5    1    3    3    0  502  0.30710134592E+02 -0.29695546546E+02  0.58297053319E+02  0.72394451976E+02  0.41800000000E+01 0. -1.
        -11    1    1    2    0    0 -0.15960753911E+02 -0.27779390398E+02  0.92449594048E+01  0.33345306576E+02  0.00000000000E+00 0.  1.
         11    1    1    2    0    0 -0.28575385790E+02  0.67877077746E+02  0.81986455084E+02  0.11020721017E+03  0.00000000000E+00 0. -1.
</event>
<event>
 7    1  0.2723366E-009  0.9863019E+02  0.7561462E-02  0.1283203E+00
         -1   -1    0    0    0  501 -0.00000000000E+00  0.00000000000E+00  0.41344897557E+02  0.41344897557E+02  0.00000000000E+00 0.  1.
          1   -1    0    0  501    0  0.00000000000E+00 -0.00000000000E+00 -0.29589169757E+03  0.29589169757E+03  0.00000000000E+00 0. -1.
         25    2    1    2    0    0 -0.19794387446E+02 -0.15659568925E+02 -0.18056374333E+03  0.22110858685E+03  0.12509477167E+03 0.  0.
          5    1    3    3  502    0  0.14996959661E+02  0.46065412410E+02 -0.37500977827E+02  0.61406243636E+02  0.41800000000E+01 0.  1.
         -5    1    3    3    0  502 -0.34791347107E+02 -0.61724981334E+02 -0.14306276551E+03  0.15970234322E+03  0.41800000000E+01 0.  1.
        -11    1    1    2    0    0 -0.21984925134E+02  0.26560743595E+02 -0.51333819169E+01  0.34859168713E+02  0.00000000000E+00 0.  1.
         11    1    1    2    0    0  0.41779312580E+02 -0.10901174670E+02 -0.68849674763E+02  0.81268839562E+02  0.00000000000E+00 0. -1.
</event>
<event>
 7    1  0.2723366E-009  0.1139902E+03  0.7561462E-02  0.1253354E+00
         -1   -1    0    0    0  501 -0.00000000000E+00  0.00000000000E+00  0.59720087531E+02  0.59720087531E+02  0.00000000000E+00 0.  1.
          1   -1    0    0  501    0  0.00000000000E+00 -0.00000000000E+00 -0.40650625952E+03  0.40650625952E+03  0.00000000000E+00 0. -1.
         25    2    1    2    0    0 -0.65754399425E+01  0.43506722943E+02 -0.24299653203E+03  0.27682189697E+03  0.12508787595E+03 0.  0.
          5    1    3    3  502    0  0.52676780294E+02  0.39598508212E+01 -0.15331142366E+03  0.16221093867E+03  0.41800000000E+01 0. -1.
         -5    1    3    3    0  502 -0.59252220237E+02  0.39546872121E+02 -0.89685108372E+02  0.11461095829E+03  0.41800000000E+01 0. -1.
        -11    1    1    2    0    0 -0.31784045568E+02  0.13815483237E+02  0.25391590397E+02  0.42963077085E+02  0.00000000000E+00 0.  1.
         11    1    1    2    0    0  0.38359485510E+02 -0.57322206180E+02 -0.12918123035E+03  0.14644137300E+03  0.00000000000E+00 0. -1.
</event>
<event>
 7    1  0.2723366E-009  0.1473721E+03  0.7561462E-02  0.1203740E+00
          1   -1    0    0  501    0  0.00000000000E+00  0.00000000000E+00  0.18376240171E+04  0.18376240171E+04  0.00000000000E+00 0. -1.
         -1   -1    0    0    0  501 -0.00000000000E+00 -0.00000000000E+00 -0.19405573401E+02  0.19405573401E+02  0.00000000000E+00 0.  1.
         25    2    1    2    0    0 -0.89106010628E+02  0.70820090857E+02  0.14646441834E+04  0.14743752142E+04  0.12507726348E+03 0.  0.
          5    1    3    3  502    0 -0.53454889950E+02 -0.16624890317E+02  0.91032860581E+03  0.91205781352E+03  0.41800000000E+01 0. -1.
         -5    1    3    3    0  502 -0.35651120677E+02  0.87444981175E+02  0.55431557759E+03  0.56231740067E+03  0.41800000000E+01 0. -1.
        -11    1    1    2    0    0 -0.98253775764E+01 -0.38910910561E+02  0.13085745985E+03  0.13687319607E+03  0.00000000000E+00 0.  1.
         11    1    1    2    0    0  0.98931388204E+02 -0.31909180296E+02  0.22271680047E+03  0.24578118026E+03  0.00000000000E+00 0. -1.
</event>
<event>
 7    1  0.2723366E-009  0.6975505E+02  0.7561462E-02  0.1360928E+00
         -1   -1    0    0    0  501 -0.00000000000E+00  0.00000000000E+00  0.26215140326E+03  0.26215140326E+03  0.00000000000E+00 0.  1.
          1   -1    0    0  501    0  0.00000000000E+00 -0.00000000000E+00 -0.84927528882E+02  0.84927528882E+02  0.00000000000E+00 0. -1.
         25    2    1    2    0    0  0.50733081264E+02 -0.19738534625E+02  0.19693362364E+03  0.23956939942E+03  0.12508872744E+03 0.  0.
          5    1    3    3  502    0  0.55872576688E+02  0.13891885112E+00  0.17186970638E+02  0.58605703511E+02  0.41800000000E+01 0.  1.
         -5    1    3    3    0  502 -0.51394954249E+01 -0.19877453476E+02  0.17974665301E+03  0.18096369591E+03  0.41800000000E+01 0.  1.
        -11    1    1    2    0    0 -0.17780509380E+02  0.23383044109E+02 -0.52955962494E+02  0.60557800731E+02  0.00000000000E+00 0. -1.
         11    1    1    2    0    0 -0.32952571883E+02 -0.36445094845E+01  0.33246213226E+02  0.46951731991E+02  0.00000000000E+00 0.  1.
</event>
<event>
 7    1  0.2723366E-009  0.1015930E+03  0.7561462E-02  0.1276981E+00
         -2   -1    0    0    0  501 -0.00000000000E+00  0.00000000000E+00  0.29520758840E+03  0.29520758840E+03  0.00000000000E+00 0.  1.
          2   -1    0    0  501    0  0.00000000000E+00 -0.00000000000E+00 -0.66960284975E+02  0.66960284975E+02  0.00000000000E+00 0. -1.
         25    2    1    2    0    0 -0.37954850110E+02 -0.38516351779E+02  0.32864349268E+02  0.14017943185E+03  0.12508448209E+03 0.  0.
          5    1    3    3  502    0 -0.16919034072E+02 -0.72225485495E+02  0.56873182350E+02  0.93567118901E+02  0.41800000000E+01 0.  1.
         -5    1    3    3    0  502 -0.21035816038E+02  0.33709133716E+02 -0.24008833081E+02  0.46612312946E+02  0.41800000000E+01 0.  1.
        -11    1    1    2    0    0 -0.60320510210E+01  0.44174759593E+02  0.15741369693E+03  0.16360582815E+03  0.00000000000E+00 0.  1.
         11    1    1    2    0    0  0.43986901131E+02 -0.56584078142E+01  0.37969257229E+02  0.58382613376E+02  0.00000000000E+00 0. -1.
</event>
<event>
 7    1  0.2723366E-009  0.1296902E+03  0.7561462E-02  0.1227916E+00
          1   -1    0    0  501    0  0.00000000000E+00  0.00000000000E+00  0.22479834012E+03  0.22479834012E+03  0.00000000000E+00 0. -1.
         -1   -1    0    0    0  501 -0.00000000000E+00 -0.00000000000E+00 -0.98075697926E+02  0.98075697926E+02  0.00000000000E+00 0.  1.
         25    2    1    2    0    0 -0.83234354721E+02  0.19630827582E+02  0.12877737815E+03  0.19885557651E+03  0.12508637012E+03 0.  0.
          5    1    3    3  502    0  0.28261516489E+02  0.28549089935E+01  0.60525049055E+02  0.66989684152E+02  0.41800000000E+01 0. -1.
         -5    1    3    3    0  502 -0.11149587121E+03  0.16775918589E+02  0.68252329093E+02  0.13186589236E+03  0.41800000000E+01 0. -1.
        -11    1    1    2    0    0 -0.85273237256E+01 -0.24508500577E+02 -0.16854889234E+02  0.30942998264E+02  0.00000000000E+00 0. -1.
         11    1    1    2    0    0  0.91761678447E+02  0.48776729944E+01  0.14800153276E+02  0.93075463266E+02  0.00000000000E+00 0.  1.
</event>
<event>
 7    1  0.2723366E-009  0.1420812E+03  0.7561462E-02  0.1210556E+00
          1   -1    0    0  501    0  0.00000000000E+00  0.00000000000E+00  0.77689990134E+02  0.77689990134E+02  0.00000000000E+00 0. -1.
         -1   -1    0    0    0  501 -0.00000000000E+00 -0.00000000000E+00 -0.37588792406E+03  0.37588792406E+03  0.00000000000E+00 0.  1.
         25    2    1    2    0    0  0.58468619619E+02 -0.81288075126E+02 -0.39657457101E+02  0.16506498612E+03  0.12508958830E+03 0.  0.
          5    1    3    3  502    0  0.95748309935E+02 -0.51667610871E+02 -0.43198981900E+02  0.11713626811E+03  0.41800000000E+01 0.  1.
         -5    1    3    3    0  502 -0.37279690316E+02 -0.29620464255E+02  0.35415248000E+01  0.47928718015E+02  0.41800000000E+01 0.  1.
        -11    1    1    2    0    0 -0.43157105753E+02  0.96617835824E+02 -0.22404302736E+03  0.24777574556E+03  0.00000000000E+00 0.  1.
         11    1    1    2    0    0 -0.15311513866E+02 -0.15329760698E+02 -0.34497449463E+02  0.40737182517E+02  0.00000000000E+00 0. -1.
</event>
<event>
 7    1  0.2723366E-009  0.1757811E+03  0.7561462E-02  0.1171950E+00
         -2   -1    0    0    0  501 -0.00000000000E+00  0.00000000000E+00  0.77529531969E+03  0.77529531969E+03  0.00000000000E+00 0.  1.
          2   -1    0    0  501    0  0.00000000000E+00 -0.00000000000E+00 -0.46465109462E+02  0.46465109462E+02  0.00000000000E+00 0. -1.
         25    2    1    2    0    0 -0.13147617926E+03  0.61254622398E+02  0.50896853141E+03  0.54381472671E+03  0.12508947413E+03 0.  0.
          5    1    3    3  502    0 -0.14931553209E+03  0.70001704911E+02  0.39517962945E+03  0.42822865241E+03  0.41800000000E+01 0. -1.
         -5    1    3    3    0  502  0.17839352825E+02 -0.87470825135E+01  0.11378890196E+03  0.11558607430E+03  0.41800000000E+01 0. -1.
        -11    1    1    2    0    0  0.78086939040E+02  0.83956778645E+01  0.13307335141E+03  0.15452046567E+03  0.00000000000E+00 0. -1.
         11    1    1    2    0    0  0.53389240224E+02 -0.69650300262E+02  0.86788327406E+02  0.12342523677E+03  0.00000000000E+00 0.  1.
</event>
<event>
 7    1  0.2723366E-009  0.1170540E+03  0.7561462E-02  0.1248038E+00
         -2   -1    0    0    0  501 -0.00000000000E+00  0.00000000000E+00  0.53247193391E+02  0.53247193391E+02  0.00000000000E+00 0. -1.
          2   -1    0    0  501    0  0.00000000000E+00 -0.00000000000E+00 -0.41015300980E+03  0.41015300980E+03  0.00000000000E+00 0.  1.
         25    2    1    2    0    0  0.28897348741E+02 -0.81541135856E+02 -0.11316282260E+03  0.18957229935E+03  0.12509124133E+03 0.  0.
          5    1    3    3  502    0  0.24857331183E+02  0.27696238236E+01 -0.10106757075E+03  0.10420021107E+03  0.41800000000E+01 0. -1.
         -5    1    3    3    0  502  0.40400175582E+01 -0.84310759680E+02 -0.12095251857E+02  0.85372088279E+02  0.41800000000E+01 0. -1.
        -11    1    1    2    0    0  0.27394927036E+02  0.56168207405E+02 -0.13537951338E+03  0.14910721711E+03  0.00000000000E+00 0. -1.
         11    1    1    2    0    0 -0.56292275778E+02  0.25372928451E+02 -0.10836348042E+03  0.12472068673E+03  0.00000000000E+00 0.  1.
</event>
<event>
 7    1  0.2723366E-009  0.8259736E+02  0.7561462E-02  0.1321838E+00
         -1   -1    0    0    0  501 -0.00000000000E+00  0.00000000000E+00  0.12602506121E+03  0.12602506121E+03  0.00000000000E+00 0.  1.
          1   -1    0    0  501    0  0.00000000000E+00 -0.00000000000E+00 -0.14928007692E+03  0.14928007692E+03  0.00000000000E+00 0. -1.
         25    2    1    2    0    0 -0.35597989454E+02  0.46284048154E+02 -0.74512376504E+02  0.15687677664E+03  0.12509515910E+03 0.  0.
          5    1    3    3  502    0 -0.47804889352E+02 -0.14878588514E+01 -0.92506419310E+02  0.10422298779E+03  0.41800000000E+01 0.  1.
         -5    1    3    3    0  502  0.12206899898E+02  0.47771907005E+02  0.17994042806E+02  0.52653788853E+02  0.41800000000E+01 0.  1.
        -11    1    1    2    0    0  0.23531831982E+02 -0.41779778837E+01  0.67582592357E+02  0.71684094507E+02  0.00000000000E+00 0.  1.
         11    1    1    2    0    0  0.12066157472E+02 -0.42106070270E+02 -0.16325231559E+02  0.46744266977E+02  0.00000000000E+00 0. -1.
</event>
<event>
 7    1  0.2723366E-009  0.5675250E+02  0.7561462E-02  0.1411988E+00
          1   -1    0    0  501    0  0.00000000000E+00  0.00000000000E+00  0.42930381172E+03  0.42930381172E+03  0.00000000000E+00 0. -1.
         -1   -1    0    0    0  501 -0.00000000000E+00 -0.00000000000E+00 -0.29500150272E+02  0.29500150272E+02  0.00000000000E+00 0.  1.
         25    2    1    2    0    0 -0.32843940646E+02  0.97984154057E+01  0.22013786702E+03  0.25550587725E+03  0.12509132436E+03 0.  0.
          5    1    3    3  502    0 -0.33954161343E+02  0.64517191795E+01 -0.48335589760E+00  0.34816889376E+02  0.41800000000E+01 0.  1.
         -5    1    3    3    0  502  0.11102206973E+01  0.33466962262E+01  0.22062122292E+03  0.22068898787E+03  0.41800000000E+01 0.  1.
        -11    1    1    2    0    0 -0.14668529148E+02 -0.19827326144E+02  0.13527939373E+03  0.13750928324E+03  0.00000000000E+00 0. -1.
         11    1    1    2    0    0  0.47512469794E+02  0.10028910738E+02  0.44386400698E+02  0.65788801505E+02  0.00000000000E+00 0.  1.
</event>
<event>
 7    1  0.2723366E-009  0.2522054E+03  0.7561462E-02  0.1111919E+00
         -1   -1    0    0    0  501 -0.00000000000E+00  0.00000000000E+00  0.61072679899E+02  0.61072679899E+02  0.00000000000E+00 0.  1.
          1   -1    0    0  501    0  0.00000000000E+00 -0.00000000000E+00 -0.11551336372E+04  0.11551336372E+04  0.00000000000E+00 0. -1.
         25    2    1    2    0    0  0.12287579562E+02  0.23868559745E+03 -0.64867691115E+03  0.70253265185E+03  0.12509433563E+03 0.  0.
          5    1    3    3  502    0 -0.17763489170E+02  0.19211395086E+03 -0.59401318970E+03  0.62457381758E+03  0.41800000000E+01 0.  1.
         -5    1    3    3    0  502  0.30051068732E+02  0.46571646591E+02 -0.54663721452E+02  0.77958834272E+02  0.41800000000E+01 0.  1.
        -11    1    1    2    0    0  0.29194577264E+02 -0.18846077758E+03 -0.32676757581E+03  0.37834750776E+03  0.00000000000E+00 0.  1.
         11    1    1    2    0    0 -0.41482156826E+02 -0.50224819874E+02 -0.11861647037E+03  0.13532615752E+03  0.00000000000E+00 0. -1.
</event>
<event>
 7    1  0.2723366E-009  0.1646185E+03  0.7561462E-02  0.1183579E+00
          1   -1    0    0  501    0  0.00000000000E+00  0.00000000000E+00  0.23700432431E+03  0.23700432431E+03  0.00000000000E+00 0. -1.
         -1   -1    0    0    0  501 -0.00000000000E+00 -0.00000000000E+00 -0.11817816469E+03  0.11817816469E+03  0.00000000000E+00 0.  1.
         25    2    1    2    0    0  0.12308223496E+03  0.32610699477E+02  0.70307392383E+02  0.19184282865E+03  0.12509135540E+03 0.  0.
          5    1    3    3  502    0  0.30847475715E+02  0.69333420061E+02  0.12903116545E+02  0.77088602996E+02  0.41800000000E+01 0. -1.
         -5    1    3    3    0  502  0.92234759245E+02 -0.36722720583E+02  0.57404275838E+02  0.11475422565E+03  0.41800000000E+01 0. -1.
        -11    1    1    2    0    0 -0.88908080767E+02 -0.62331780943E+02  0.21776620427E+02  0.11074348260E+03  0.00000000000E+00 0. -1.
         11    1    1    2    0    0 -0.34174154193E+02  0.29721081466E+02  0.26742146814E+02  0.52596177756E+02  0.00000000000E+00 0.  1.
</event>
<event>
 7    1  0.5020304E-009  0.1270701E+03  0.7561462E-02  0.1231869E+00
         -1   -1    0    0    0  501 -0.00000000000E+00  0.00000000000E+00  0.19954289113E+02  0.19954289113E+02  0.00000000000E+00 0.  1.
          1   -1    0    0  501    0  0.00000000000E+00 -0.00000000000E+00 -0.14560956155E+04  0.14560956155E+04  0.00000000000E+00 0. -1.
         25    2    1    2    0    0 -0.57350695267E+02  0.82555970977E+02 -0.11254200952E+04  0.11368021443E+04  0.12507651307E+03 0.  0.
          5    1    3    3  502    0 -0.77572973704E+02  0.90784655604E+02 -0.65184650305E+03  0.66270714187E+03  0.41800000000E+01 0. -1.
         -5    1    3    3    0  502  0.20222278438E+02 -0.82286846275E+01 -0.47357359210E+03  0.47409500243E+03  0.41800000000E+01 0. -1.
        -11    1    1    2    0    0  0.22603479752E+02 -0.72954756217E+02 -0.10194293888E+03  0.12738004765E+03  0.00000000000E+00 0.  1.
         11    1    1    2    0    0  0.34747215515E+02 -0.96012147597E+01 -0.20877829238E+03  0.21186771269E+03  0.00000000000E+00 0. -1.
</event>
<event>
 7    1  0.2723366E-009  0.1012069E+03  0.7561462E-02  0.1277778E+00
          3   -1    0    0  501    0  0.00000000000E+00  0.00000000000E+00  0.23016171341E+03  0.23016171341E+03  0.00000000000E+00 0. -1.
         -3   -1    0    0    0  501 -0.00000000000E+00 -0.00000000000E+00 -0.67959816997E+02  0.67959816997E+02  0.00000000000E+00 0.  1.
         25    2    1    2    0    0 -0.28086863154E+01  0.62129359441E+02  0.17923832177E+03  0.22724826639E+03  0.12508977801E+03 0.  0.
          5    1    3    3  502    0 -0.19446611198E+02  0.95883883195E+02  0.10297530262E+03  0.14210304392E+03  0.41800000000E+01 0.  1.
         -5    1    3    3    0  502  0.16637924883E+02 -0.33754523754E+02  0.76263019158E+02  0.85145222469E+02  0.41800000000E+01 0.  1.
        -11    1    1    2    0    0  0.13007553962E+02 -0.43288957185E+02 -0.19656188765E+02  0.49289918148E+02  0.00000000000E+00 0.  1.
         11    1    1    2    0    0 -0.10198867647E+02 -0.18840402256E+02  0.26197634035E+01  0.21583345865E+02  0.00000000000E+00 0. -1.
</event>
<event>
 7    1  0.2723366E-009  0.1917040E+03  0.7561462E-02  0.1156933E+00
          2   -1    0    0  501    0  0.00000000000E+00  0.00000000000E+00  0.22540905350E+04  0.22540905350E+04  0.00000000000E+00 0. -1.
         -2   -1    0    0    0  501 -0.00000000000E+00 -0.00000000000E+00 -0.29578437599E+02  0.29578437599E+02  0.00000000000E+00 0.  1.
         25    2    1    2    0    0  0.13147941603E+03  0.10266875593E+03  0.18637237816E+04  0.18753509583E+04  0.12508865812E+03 0.  0.
          5    1    3    3  502    0  0.67168856594E+02  0.10850604591E+03  0.84696977562E+03  0.85653983592E+03  0.41800000000E+01 0. -1.
         -5    1    3    3    0  502  0.64310559440E+02 -0.58372899767E+01  0.10167540060E+04  0.10188111224E+04  0.41800000000E+01 0. -1.
        -11    1    1    2    0    0 -0.11340177881E+03 -0.31654679982E+02  0.23088700460E+03  0.25917328391E+03  0.00000000000E+00 0. -1.
         11    1    1    2    0    0 -0.18077637223E+02 -0.71014075948E+02  0.12990131118E+03  0.14914473036E+03  0.00000000000E+00 0.  1.
</event>
<event>
 7    1  0.2723366E-009  0.9708539E+02  0.7561462E-02  0.1286547E+00
          3   -1    0    0  501    0  0.00000000000E+00  0.00000000000E+00  0.19835060107E+02  0.19835060107E+02  0.00000000000E+00 0. -1.
         -3   -1    0    0    0  501 -0.00000000000E+00 -0.00000000000E+00 -0.98301798931E+03  0.98301798931E+03  0.00000000000E+00 0.  1.
         25    2    1    2    0    0 -0.37573879319E+02 -0.69127179566E+02 -0.66266220397E+03  0.67893878067E+03  0.12508520279E+03 0.  0.
          5    1    3    3  502    0 -0.22766737258E+02 -0.46582202787E+01 -0.53109636049E+03  0.53162095507E+03  0.41800000000E+01 0. -1.
         -5    1    3    3    0  502 -0.14807142062E+02 -0.64468959287E+02 -0.13156584348E+03  0.14731782560E+03  0.41800000000E+01 0. -1.
        -11    1    1    2    0    0  0.47242299891E+02  0.15398859198E+02 -0.22681130624E+03  0.23219028490E+03  0.00000000000E+00 0.  1.
         11    1    1    2    0    0 -0.96684205720E+01  0.53728320367E+02 -0.73709418992E+02  0.91723983854E+02  0.00000000000E+00 0. -1.
</event>
<event>
 7    1  0.2723366E-009  0.1544599E+03  0.7561462E-02  0.1195097E+00
          1   -1    0    0  501    0  0.00000000000E+00  0.00000000000E+00  0.90412219649E+03  0.90412219649E+03  0.00000000000E+00 0.  1.
         -1   -1    0    0    0  501 -0.00000000000E+00 -0.00000000000E+00 -0.35724985413E+02  0.35724985413E+02  0.00000000000E+00 0. -1.
         25    2    1    2    0    0 -0.83881213434E+02 -0.10204540930E+03  0.60337053623E+03  0.63020036569E+03  0.12508866214E+03 0.  0.
          5    1    3    3  502    0  0.14979059079E+02 -0.64024429377E+02  0.13815895979E+03  0.15306492197E+03  0.41800000000E+01 0.  1.
         -5    1    3    3    0  502 -0.98860272512E+02 -0.38020979919E+02  0.46521157644E+03  0.47713544372E+03  0.41800000000E+01 0.  1.
        -11    1    1    2    0    0  0.70949911312E+02  0.59602135684E+02  0.24308734860E+03  0.26014950229E+03  0.00000000000E+00 0.  1.
         11    1    1    2    0    0  0.12931302122E+02  0.42443273613E+02  0.21939326246E+02  0.49497313924E+02  0.00000000000E+00 0. -1.
</event>
<event>
 7    1  0.2723366E-009  0.2207784E+03  0.7561462E-02  0.1133304E+00
          2   -1    0    0  501    0  0.00000000000E+00  0.00000000000E+00  0.12104481531E+03  0.12104481531E+03  0.00000000000E+00 0. -1.
         -2   -1    0    0    0  501 -0.00000000000E+00 -0.00000000000E+00 -0.66381149500E+03  0.66381149500E+03  0.00000000000E+00 0.  1.
         25    2    1    2    0    0 -0.15869212189E+01  0.19282213493E+03 -0.52241533254E+03  0.57074289788E+03  0.12508709677E+03 0.  0.
          5    1    3    3  502    0 -0.21361646810E+02  0.20471843052E+03 -0.45635314320E+03  0.50064120831E+03  0.41800000000E+01 0. -1.
         -5    1    3    3    0  502  0.19774725592E+02 -0.11896295593E+02 -0.66062189336E+02  0.70101689573E+02  0.41800000000E+01 0. -1.
        -11    1    1    2    0    0  0.40121209894E+02 -0.48965950698E+02 -0.15166855736E+02  0.65095386350E+02  0.00000000000E+00 0.  1.
         11    1    1    2    0    0 -0.38534288675E+02 -0.14385618423E+03 -0.51844914213E+01  0.14901802608E+03  0.00000000000E+00 0. -1.
</event>
<event>
 7    1  0.2723366E-009  0.1040636E+03  0.7561462E-02  0.1271976E+00
          1   -1    0    0  501    0  0.00000000000E+00  0.00000000000E+00  0.39193826435E+02  0.39193826435E+02  0.00000000000E+00 0. -1.
         -1   -1    0    0    0  501 -0.00000000000E+00 -0.00000000000E+00 -0.35293115894E+03  0.35293115894E+03  0.00000000000E+00 0.  1.
         25    2    1    2    0    0  0.11555935407E+02 -0.27317171010E+01 -0.10473860787E+03  0.16358942150E+03  0.12510124271E+03 0.  0.
          5    1    3    3  502    0  0.39069850479E+01 -0.62304894169E+02 -0.70764975173E+02  0.94458024968E+02  0.41800000000E+01 0.  1.
         -5    1    3    3    0  502  0.76489503595E+01  0.59573177069E+02 -0.33973632693E+02  0.69131396529E+02  0.41800000000E+01 0.  1.
        -11    1    1    2    0    0 -0.32740901328E+02 -0.31280846058E+02 -0.15378961579E+03  0.16031750957E+03  0.00000000000E+00 0.  1.
         11    1    1    2    0    0  0.21184965920E+02  0.34012563159E+02 -0.55209108846E+02  0.68218054306E+02  0.00000000000E+00 0. -1.
</event>
<event>
 7    1  0.2723366E-009  0.1223470E+03  0.7561462E-02  0.1239275E+00
          2   -1    0    0  501    0  0.00000000000E+00  0.00000000000E+00  0.10850410778E+04  0.10850410778E+04  0.00000000000E+00 0. -1.
         -2   -1    0    0    0  501 -0.00000000000E+00 -0.00000000000E+00 -0.22486932835E+02  0.22486932835E+02  0.00000000000E+00 0.  1.
         25    2    1    2    0    0 -0.61581363826E+02  0.78452778011E+02  0.74317921507E+03  0.76020575774E+03  0.12510134149E+03 0.  0.
          5    1    3    3  502    0 -0.13719691497E+02 -0.24046349463E+01  0.40217298819E+01  0.15088370198E+02  0.41800000000E+01 0. -1.
         -5    1    3    3    0  502 -0.47861672329E+02  0.80857412958E+02  0.73915748519E+03  0.74511738754E+03  0.41800000000E+01 0. -1.
        -11    1    1    2    0    0  0.16679062371E+02 -0.88522466148E+02  0.19846275740E+03  0.21794926981E+03  0.00000000000E+00 0.  1.
         11    1    1    2    0    0  0.44902301455E+02  0.10069688137E+02  0.12091217248E+03  0.12937298307E+03  0.00000000000E+00 0. -1.
</event>
<event>
 7    1  0.2723366E-009  0.1534680E+03  0.7561462E-02  0.1196275E+00
          1   -1    0    0  501    0  0.00000000000E+00  0.00000000000E+00  0.21526923839E+03  0.21526923839E+03  0.00000000000E+00 0. -1.
         -1   -1    0    0    0  501 -0.00000000000E+00 -0.00000000000E+00 -0.13112280906E+03  0.13112280906E+03  0.00000000000E+00 0.  1.
         25    2    1    2    0    0  0.11165940352E+02  0.12757574553E+03  0.27622762427E+02  0.18113661113E+03  0.12508879173E+03 0.  0.
          5    1    3    3  502    0 -0.87361429530E+01 -0.20602002843E+02  0.21703514542E+02  0.31452784587E+02  0.41800000000E+01 0.  1.
         -5    1    3    3    0  502  0.19902083305E+02  0.14817774838E+03  0.59192478849E+01  0.14968382655E+03  0.41800000000E+01 0.  1.
        -11    1    1    2    0    0  0.11244742271E+02 -0.10439658130E+02 -0.18748718793E+02  0.24226950840E+02  0.00000000000E+00 0.  1.
         11    1    1    2    0    0 -0.22410682623E+02 -0.11713608740E+03  0.75272385698E+02  0.14102848548E+03  0.00000000000E+00 0. -1.
</event>
<event>
 7    1  0.2723366E-009  0.9843699E+02  0.7561462E-02  0.1283617E+00
          1   -1    0    0  501    0  0.00000000000E+00  0.00000000000E+00  0.66846007514E+02  0.66846007514E+02  0.00000000000E+00 0. -1.
         -1   -1    0    0    0  501 -0.00000000000E+00 -0.00000000000E+00 -0.21607027041E+03  0.21607027041E+03  0.00000000000E+00 0.  1.
         25    2    1    2    0    0  0.84937466465E+01  0.51895937846E+02 -0.77302777557E+02  0.15616820993E+03  0.12508980085E+03 0.  0.
          5    1    3    3  502    0  0.61723610102E+02  0.32870162915E+02 -0.69971602161E+02  0.99013883688E+02  0.41800000000E+01 0. -1.
         -5    1    3    3    0  502 -0.53229863456E+02  0.19025774931E+02 -0.73311753960E+01  0.57154326240E+02  0.41800000000E+01 0. -1.
        -11    1    1    2    0    0 -0.26762506282E+02 -0.40698409959E+02  0.30206724842E+01  0.48802835757E+02  0.00000000000E+00 0. -1.
         11    1    1    2    0    0  0.18268759636E+02 -0.11197527887E+02 -0.74942157823E+02  0.77945232237E+02  0.00000000000E+00 0.  1.
</event>
<event>
 7    1  0.2723366E-009  0.6227900E+02  0.7561462E-02  0.1388509E+00
         -1   -1    0    0    0  501 -0.00000000000E+00  0.00000000000E+00  0.47474373002E+03  0.47474373002E+03  0.00000000000E+00 0.  1.
          1   -1    0    0  501    0  0.00000000000E+00 -0.00000000000E+00 -0.30072848770E+02  0.30072848770E+02  0.00000000000E+00 0. -1.
         25    2    1    2    0    0  0.44687310522E+02  0.11822072207E+02  0.29353452534E+03  0.32240737725E+03  0.12508909714E+03 0.  0.
          5    1    3    3  502    0  0.10885682568E+02 -0.80920398617E+01 -0.93290744734E+01  0.16984793924E+02  0.41800000000E+01 0. -1.
         -5    1    3    3    0  502  0.33801627954E+02  0.19914112068E+02  0.30286359982E+03  0.30542258333E+03  0.41800000000E+01 0. -1.
        -11    1    1    2    0    0 -0.33192365148E+02 -0.33005829900E+02  0.23238695369E+02  0.52260452294E+02  0.00000000000E+00 0. -1.
         11    1    1    2    0    0 -0.11494945374E+02  0.21183757693E+02  0.12789766054E+03  0.13014874925E+03  0.00000000000E+00 0.  1.
</event>
<event>
 7    1  0.2723366E-009  0.1145206E+03  0.7561462E-02  0.1252420E+00
          1   -1    0    0  501    0  0.00000000000E+00  0.00000000000E+00  0.56844387006E+03  0.56844387006E+03  0.00000000000E+00 0. -1.
         -1   -1    0    0    0  501 -0.00000000000E+00 -0.00000000000E+00 -0.24648340294E+02  0.24648340294E+02  0.00000000000E+00 0.  1.
         25    2    1    2    0    0 -0.16168217952E+02 -0.40138201477E+02  0.29745918981E+03  0.32557914131E+03  0.12508925280E+03 0.  0.
          5    1    3    3  502    0 -0.54377072761E+02  0.15882895159E+02  0.82693220115E+02  0.10032334451E+03  0.41800000000E+01 0. -1.
         -5    1    3    3    0  502  0.38208854809E+02 -0.56021096636E+02  0.21476596969E+03  0.22525579680E+03  0.41800000000E+01 0. -1.
        -11    1    1    2    0    0 -0.31942065951E+02  0.45819151128E+02  0.13428334975E+03  0.14543626854E+03  0.00000000000E+00 0. -1.
         11    1    1    2    0    0  0.48110283903E+02 -0.56809496505E+01  0.11205299020E+03  0.12207680049E+03  0.00000000000E+00 0.  1.
</event>
<event>
 7    1  0.2723366E-009  0.1312024E+03  0.7561462E-02  0.1225682E+00
         -1   -1    0    0    0  501 -0.00000000000E+00  0.00000000000E+00  0.12993641099E+03  0.12993641099E+03  0.00000000000E+00 0.  1.
          1   -1    0    0  501    0  0.00000000000E+00 -0.00000000000E+00 -0.16448003967E+03  0.16448003967E+03  0.00000000000E+00 0. -1.
         25    2    1    2    0    0 -0.46895033604E+02 -0.81530291549E+02 -0.44606326662E+02  0.16273823086E+03  0.12509066627E+03 0.  0.
          5    1    3    3  502    0  0.32005216587E+02  0.33882173616E+01  0.10785748031E+02  0.34199688102E+02  0.41800000000E+01 0. -1.
         -5    1    3    3    0  502 -0.78900250191E+02 -0.84918508910E+02 -0.55392074693E+02  0.12853854276E+03  0.41800000000E+01 0. -1.
        -11    1    1    2    0    0 -0.12182211628E+02 -0.12657433119E+01  0.25985790359E+02  0.28727507495E+02  0.00000000000E+00 0.  1.
         11    1    1    2    0    0  0.59077245232E+02  0.82796034860E+02 -0.15923092371E+02  0.10295071230E+03  0.00000000000E+00 0. -1.
</event>
<event>
 7    1  0.2723366E-009  0.8336303E+02  0.7561462E-02  0.1319770E+00
          1   -1    0    0  501    0  0.00000000000E+00  0.00000000000E+00  0.11186184479E+04  0.11186184479E+04  0.00000000000E+00 0. -1.
         -1   -1    0    0    0  501 -0.00000000000E+00 -0.00000000000E+00 -0.24510653067E+02  0.24510653067E+02  0.00000000000E+00 0.  1.
         25    2    1    2    0    0 -0.47581537002E+02  0.47935260637E+02  0.97452398290E+03  0.98483784638E+03  0.12508716372E+03 0.  0.
          5    1    3    3  502    0 -0.40654095530E+02  0.28920895499E+02  0.11950077464E+03  0.12956496911E+03  0.41800000000E+01 0.  1.
         -5    1    3    3    0  502 -0.69274414724E+01  0.19014365138E+02  0.85502320826E+03  0.85527287727E+03  0.41800000000E+01 0.  1.
        -11    1    1    2    0    0  0.62001422527E+02 -0.21032213136E+02  0.50238728426E+02  0.82525512532E+02  0.00000000000E+00 0.  1.
         11    1    1    2    0    0 -0.14419885525E+02 -0.26903047501E+02  0.69345083486E+02  0.75765742042E+02  0.00000000000E+00 0. -1.
</event>
<event>
 7    1  0.2723366E-009  0.8701026E+02  0.7561462E-02  0.1310258E+00
         -2   -1    0    0    0  501 -0.00000000000E+00  0.00000000000E+00  0.26999222124E+02  0.26999222124E+02  0.00000000000E+00 0.  1.
          2   -1    0    0  501    0  0.00000000000E+00 -0.00000000000E+00 -0.64145989134E+03  0.64145989134E+03  0.00000000000E+00 0. -1.
         25    2    1    2    0    0 -0.43504814672E+02  0.26674351307E+02 -0.47613565304E+03  0.49493033178E+03  0.12508670314E+03 0.  0.
          5    1    3    3  502    0 -0.14302929629E+02 -0.25471747872E+02 -0.21869801078E+02  0.36730700168E+02  0.41800000000E+01 0. -1.
         -5    1    3    3    0  502 -0.29201885042E+02  0.52146099180E+02 -0.45426585197E+03  0.45819963162E+03  0.41800000000E+01 0. -1.
        -11    1    1    2    0    0  0.39392081228E+02 -0.48446935471E+02 -0.43375402690E+02  0.76028068360E+02  0.00000000000E+00 0.  1.
         11    1    1    2    0    0  0.41127334440E+01  0.21772584164E+02 -0.94949613482E+02  0.97500713320E+02  0.00000000000E+00 0. -1.
</event>
<event>
 7    1  0.2723366E-009  0.8773177E+02  0.7561462E-02  0.1308439E+00
          3   -1    0    0  501    0  0.00000000000E+00  0.00000000000E+00  0.52555147410E+02  0.52555147410E+02  0.00000000000E+00 0. -1.
         -3   -1    0    0    0  501 -0.00000000000E+00 -0.00000000000E+00 -0.31922272381E+03  0.31922272381E+03  0.00000000000E+00 0.  1.
         25    2    1    2    0    0 -0.52773079111E+01 -0.68510746310E+02 -0.16165860584E+03  0.21564277770E+03  0.12508689137E+03 0.  0.
          5    1    3    3  502    0 -0.83593153455E+01 -0.62973478860E+02 -0.10775406395E+02  0.64568715147E+02  0.41800000000E+01 0.  1.
         -5    1    3    3    0  502  0.30820074343E+01 -0.55372674501E+01 -0.15088319945E+03  0.15107406255E+03  0.41800000000E+01 0.  1.
        -11    1    1    2    0    0  0.39794125611E+02  0.53230330408E+02 -0.31602797468E+02  0.73591965025E+02  0.00000000000E+00 0.  1.
         11    1    1    2    0    0 -0.34516817700E+02  0.15280415902E+02 -0.73406173097E+02  0.82543128503E+02  0.00000000000E+00 0. -1.
</event>
<event>
 7    1  0.2723366E-009  0.9088927E+02  0.7561462E-02  0.1300712E+00
         -2   -1    0    0    0  501 -0.00000000000E+00  0.00000000000E+00  0.26387584736E+02  0.26387584736E+02  0.00000000000E+00 0.  1.
          2   -1    0    0  501    0  0.00000000000E+00 -0.00000000000E+00 -0.62733087667E+03  0.62733087667E+03  0.00000000000E+00 0. -1.
         25    2    1    2    0    0 -0.51700383392E+01 -0.65774379070E+02 -0.40579890707E+03  0.42973310483E+03  0.12507913561E+03 0.  0.
          5    1    3    3  502    0  0.31569073229E+02 -0.10249614588E+02 -0.21679474511E+02  0.39863931051E+02  0.41800000000E+01 0.  1.
         -5    1    3    3    0  502 -0.36739111569E+02 -0.55524764483E+02 -0.38411943256E+03  0.38986917378E+03  0.41800000000E+01 0.  1.
        -11    1    1    2    0    0 -0.14701704153E+02  0.58713422345E+02 -0.19359909852E+03  0.20283988024E+03  0.00000000000E+00 0. -1.
         11    1    1    2    0    0  0.19871742492E+02  0.70609567254E+01 -0.15452863385E+01  0.21145476335E+02  0.00000000000E+00 0.  1.
</event>
<event>
 7    1  0.2723366E-009  0.1550639E+03  0.7561462E-02  0.1194385E+00
         -3   -1    0    0    0  501 -0.00000000000E+00  0.00000000000E+00  0.19426772562E+03  0.19426772562E+03  0.00000000000E+00 0.  1.
          3   -1    0    0  501    0  0.00000000000E+00 -0.00000000000E+00 -0.12560737087E+03  0.12560737087E+03  0.00000000000E+00 0. -1.
         25    2    1    2    0    0 -0.82460702077E+02  0.74887320447E+02  0.49520449892E+02  0.17466223217E+03  0.12508693872E+03 0.  0.
          5    1    3    3  502    0 -0.32363389696E+02  0.10345746012E+03  0.42103152031E+02  0.11636572888E+03  0.41800000000E+01 0. -1.
         -5    1    3    3    0  502 -0.50097312380E+02 -0.28570139669E+02  0.74172978602E+01  0.58296503292E+02  0.41800000000E+01 0. -1.
        -11    1    1    2    0    0  0.58028491819E+02  0.69253958182E+01  0.10724457037E+02  0.59416167402E+02  0.00000000000E+00 0.  1.
         11    1    1    2    0    0  0.24432210258E+02 -0.81812716265E+02  0.84154478207E+01  0.85796696923E+02  0.00000000000E+00 0. -1.
</event>
<event>
 7    1  0.2723366E-009  0.9911573E+02  0.7561462E-02  0.1282167E+00
         -2   -1    0    0    0  501 -0.00000000000E+00  0.00000000000E+00  0.21907448704E+02  0.21907448704E+02  0.00000000000E+00 0.  1.
          2   -1    0    0  501    0  0.00000000000E+00 -0.00000000000E+00 -0.68867194962E+03  0.68867194962E+03  0.00000000000E+00 0. -1.
         25    2    1    2    0    0 -0.35002448926E+02 -0.27785652918E+02 -0.45753058399E+03  0.47642263361E+03  0.12508827521E+03 0.  0.
          5    1    3    3  502    0  0.16694114204E+02 -0.54973179610E+02 -0.34285701308E+03  0.34766240484E+03  0.41800000000E+01 0.  1.
         -5    1    3    3    0  502 -0.51696563130E+02  0.27187526692E+02 -0.11467357091E+03  0.12876022877E+03  0.41800000000E+01 0.  1.
        -11    1    1    2    0    0  0.54923610098E+02  0.10991246868E+02 -0.57762505712E+02  0.80460658213E+02  0.00000000000E+00 0.  1.
         11    1    1    2    0    0 -0.19921161172E+02  0.16794406049E+02 -0.15147141121E+03  0.15369610650E+03  0.00000000000E+00 0. -1.
</event>
<event>
 7    1  0.2723366E-009  0.1732460E+03  0.7561462E-02  0.1174504E+00
          2   -1    0    0  501    0  0.00000000000E+00  0.00000000000E+00  0.10578572761E+04  0.10578572761E+04  0.00000000000E+00 0. -1.
         -2   -1    0    0    0  501 -0.00000000000E+00 -0.00000000000E+00 -0.36883931253E+02  0.36883931253E+02  0.00000000000E+00 0.  1.
         25    2    1    2    0    0  0.15941389645E+03  0.33028258126E+02  0.59569192735E+03  0.63008203703E+03  0.12510333674E+03 0.  0.
          5    1    3    3  502    0  0.12255625807E+03  0.44193895605E+02  0.24735844739E+03  0.27960116361E+03  0.41800000000E+01 0.  1.
         -5    1    3    3    0  502  0.36857638374E+02 -0.11165637478E+02  0.34833347996E+03  0.35048087341E+03  0.41800000000E+01 0.  1.
        -11    1    1    2    0    0 -0.12367345332E+03 -0.55107654298E+02  0.37744376103E+03  0.40099347795E+03  0.00000000000E+00 0. -1.
         11    1    1    2    0    0 -0.35740443128E+02  0.22079396172E+02  0.47837656505E+02  0.63665692411E+02  0.00000000000E+00 0.  1.
</event>
<event>
 7    1  0.2723366E-009  0.7658639E+02  0.7561462E-02  0.1339028E+00
          1   -1    0    0  501    0  0.00000000000E+00  0.00000000000E+00  0.40556299010E+02  0.40556299010E+02  0.00000000000E+00 0. -1.
         -1   -1    0    0    0  501 -0.00000000000E+00 -0.00000000000E+00 -0.31893817763E+03  0.31893817763E+03  0.00000000000E+00 0.  1.
         25    2    1    2    0    0  0.20643461674E+02 -0.22220551452E+02 -0.18303124568E+03  0.22376192631E+03  0.12509619242E+03 0.  0.
          5    1    3    3  502    0  0.24764692383E+02 -0.35160941553E+02 -0.31540782227E+01  0.43324385849E+02  0.41800000000E+01 0.  1.
         -5    1    3    3    0  502 -0.41212307089E+01  0.12940390102E+02 -0.17987716745E+03  0.18043754047E+03  0.41800000000E+01 0.  1.
        -11    1    1    2    0    0  0.35956070921E+02  0.13884489723E+02 -0.47338261265E+02  0.61045303427E+02  0.00000000000E+00 0.  1.
         11    1    1    2    0    0 -0.56599532594E+02  0.83360617284E+01 -0.48012371684E+02  0.74687246902E+02  0.00000000000E+00 0. -1.
</event>
<event>
 7    1  0.2723366E-009  0.1529506E+03  0.7561462E-02  0.1196894E+00
         -1   -1    0    0    0  501 -0.00000000000E+00  0.00000000000E+00  0.82624174943E+02  0.82624174943E+02  0.00000000000E+00 0.  1.
          1   -1    0    0  501    0  0.00000000000E+00 -0.00000000000E+00 -0.30248761070E+03  0.30248761070E+03  0.00000000000E+00 0. -1.
         25    2    1    2    0    0  0.26298681636E+02 -0.11293311205E+03 -0.10164209641E+03  0.19855526516E+03  0.12509024385E+03 0.  0.
          5    1    3    3  502    0 -0.38405831795E+02 -0.96070536493E+02 -0.63319251486E+02  0.12137279723E+03  0.41800000000E+01 0.  1.
         -5    1    3    3    0  502  0.64704513432E+02 -0.16862575552E+02 -0.38322844926E+02  0.77182467931E+02  0.41800000000E+01 0.  1.
        -11    1    1    2    0    0  0.16187099085E+02  0.79948793862E+02 -0.38037832917E+02  0.90003936301E+02  0.00000000000E+00 0.  1.
         11    1    1    2    0    0 -0.42485780721E+02  0.32984318184E+02 -0.80183506427E+02  0.96552584183E+02  0.00000000000E+00 0. -1.
</event>
<event>
 7    1  0.2723366E-009  0.1285605E+03  0.7561462E-02  0.1229607E+00
          2   -1    0    0  501    0  0.00000000000E+00  0.00000000000E+00  0.52389564953E+03  0.52389564953E+03  0.00000000000E+00 0. -1.
         -2   -1    0    0    0  501 -0.00000000000E+00 -0.00000000000E+00 -0.43224865077E+02  0.43224865077E+02  0.00000000000E+00 0.  1.
         25    2    1    2    0    0 -0.93825668034E+02  0.23277745682E+01  0.33965280197E+03  0.37392485485E+03  0.12508835545E+03 0.  0.
          5    1    3    3  502    0 -0.75208378665E+02 -0.56188667498E+02  0.22401652687E+03  0.24292867943E+03  0.41800000000E+01 0. -1.
         -5    1    3    3    0  502 -0.18617289369E+02  0.58516442066E+02  0.11563627510E+03  0.13099617542E+03  0.41800000000E+01 0. -1.
        -11    1    1    2    0    0  0.58499678546E+02 -0.20354275991E+02  0.18839139628E+02  0.64741193401E+02  0.00000000000E+00 0. -1.
         11    1    1    2    0    0  0.35325989488E+02  0.18026501423E+02  0.12217884285E+03  0.12845446636E+03  0.00000000000E+00 0.  1.
</event>
<event>
 7    1  0.2723366E-009  0.9998182E+02  0.7561462E-02  0.1280334E+00
          1   -1    0    0  501    0  0.00000000000E+00  0.00000000000E+00  0.75174627853E+02  0.75174627853E+02  0.00000000000E+00 0. -1.
         -1   -1    0    0    0  501 -0.00000000000E+00 -0.00000000000E+00 -0.15601366576E+03  0.15601366576E+03  0.00000000000E+00 0.  1.
         25    2    1    2    0    0  0.32301552327E+01 -0.95323395610E+01 -0.52785871743E+02  0.13614330982E+03  0.12508938066E+03 0.  0.
          5    1    3    3  502    0 -0.42954753189E+02 -0.40313072477E+02 -0.54635029095E+02  0.80453175439E+02  0.41800000000E+01 0. -1.
         -5    1    3    3    0  502  0.46184908422E+02  0.30780732916E+02  0.18491573520E+01  0.55690134384E+02  0.41800000000E+01 0. -1.
        -11    1    1    2    0    0  0.34718274402E+02  0.26501981189E+02 -0.30705732146E+02  0.53390594406E+02  0.00000000000E+00 0.  1.
         11    1    1    2    0    0 -0.37948429635E+02 -0.16969641628E+02  0.26525659813E+01  0.41654389384E+02  0.00000000000E+00 0. -1.
</event>
<event>
 7    1  0.2723366E-009  0.1177185E+03  0.7561462E-02  0.1246909E+00
         -2   -1    0    0    0  501 -0.00000000000E+00  0.00000000000E+00  0.37393012167E+02  0.37393012167E+02  0.00000000000E+00 0.  1.
          2   -1    0    0  501    0  0.00000000000E+00 -0.00000000000E+00 -0.70807491255E+03  0.70807491255E+03  0.00000000000E+00 0. -1.
         25    2    1    2    0    0 -0.99039846747E+02  0.14367675383E+01 -0.19889316485E+03  0.25498344738E+03  0.12508841620E+03 0.  0.
          5    1    3    3  502    0 -0.10088066956E+03  0.18849605781E+02 -0.68740787212E+02  0.12359201170E+03  0.41800000000E+01 0.  1.
         -5    1    3    3    0  502  0.18408228175E+01 -0.17412838243E+02 -0.13015237764E+03  0.13139143568E+03  0.41800000000E+01 0.  1.
        -11    1    1    2    0    0  0.26632716163E+02 -0.27010752114E+02 -0.55831884401E+02  0.67498752698E+02  0.00000000000E+00 0.  1.
         11    1    1    2    0    0  0.72407130584E+02  0.25573984575E+02 -0.41595685112E+03  0.42298572463E+03  0.00000000000E+00 0. -1.
</event>
<event>
 7    1  0.2723366E-009  0.1390629E+03  0.7561462E-02  0.1214595E+00
          1   -1    0    0  501    0  0.00000000000E+00  0.00000000000E+00  0.46014353037E+02  0.46014353037E+02  0.00000000000E+00 0. -1.
         -1   -1    0    0    0  501 -0.00000000000E+00 -0.00000000000E+00 -0.47498556324E+03  0.47498556324E+03  0.00000000000E+00 0.  1.
         25    2    1    2    0    0  0.10969497829E+02 -0.98751996594E+02 -0.25772013196E+03  0.30321547525E+03  0.12509065233E+03 0.  0.
          5    1    3    3  502    0  0.29211397187E+02  0.15168388719E+02 -0.11476513521E+03  0.11946503422E+03  0.41800000000E+01 0.  1.
         -5    1    3    3    0  502 -0.18241899358E+02 -0.11392038531E+03 -0.14295499675E+03  0.18375044103E+03  0.41800000000E+01 0.  1.
        -11    1    1    2    0    0 -0.35811787945E+02  0.97786293915E+01 -0.24839181449E+02  0.44666438000E+02  0.00000000000E+00 0. -1.
         11    1    1    2    0    0  0.24842290115E+02  0.88973367202E+02 -0.14641189679E+03  0.17311800302E+03  0.00000000000E+00 0.  1.
</event>
<event>
 7    1  0.2723366E-009  0.8469962E+02  0.7561462E-02  0.1316220E+00
          3   -1    0    0  501    0  0.00000000000E+00  0.00000000000E+00  0.60995374992E+03  0.60995374992E+03  0.00000000000E+00 0. -1.
         -3   -1    0    0    0  501 -0.00000000000E+00 -0.00000000000E+00 -0.28752458059E+02  0.28752458059E+02  0.00000000000E+00 0.  1.
         25    2    1    2    0    0  0.60702095760E+01  0.61223172771E+02  0.43026897643E+03  0.45229105961E+03  0.12510270261E+03 0.  0.
          5    1    3    3  502    0 -0.70968953124E+01  0.33716227726E+02  0.41754293412E+03  0.41898296405E+03  0.41800000000E+01 0. -1.
         -5    1    3    3    0  502  0.13167104888E+02  0.27506945045E+02  0.12726042310E+02  0.33308095558E+02  0.41800000000E+01 0. -1.
        -11    1    1    2    0    0  0.36523554088E+02 -0.45868641503E+02  0.55260995079E+02  0.80570961603E+02  0.00000000000E+00 0.  1.
         11    1    1    2    0    0 -0.42593763664E+02 -0.15354531268E+02  0.95671320354E+02  0.10584418676E+03  0.00000000000E+00 0. -1.
</event>
<event>
 7    1  0.2723366E-009  0.1730595E+03  0.7561462E-02  0.1174694E+00
         -1   -1    0    0    0  501 -0.00000000000E+00  0.00000000000E+00  0.19793144672E+02  0.19793144672E+02  0.00000000000E+00 0. -1.
          1   -1    0    0  501    0  0.00000000000E+00 -0.00000000000E+00 -0.15473450353E+04  0.15473450353E+04  0.00000000000E+00 0.  1.
         25    2    1    2    0    0  0.11039705684E+03  0.76456612782E+02 -0.76575193942E+03  0.78743777546E+03  0.12509633767E+03 0.  0.
          5    1    3    3  502    0  0.84178256892E+02 -0.17275635239E+02 -0.34805092151E+03  0.35852662784E+03  0.41800000000E+01 0. -1.
         -5    1    3    3    0  502  0.26218799949E+02  0.93732248021E+02 -0.41770101791E+03  0.42891114762E+03  0.41800000000E+01 0. -1.
        -11    1    1    2    0    0 -0.40390914927E+02 -0.83047710508E+02 -0.50869755463E+03  0.51701213750E+03  0.00000000000E+00 0.  1.
         11    1    1    2    0    0 -0.70006141914E+02  0.65910977263E+01 -0.25310239657E+03  0.26268826701E+03  0.00000000000E+00 0. -1.
</event>
<event>
 7    1  0.2723366E-009  0.1803606E+03  0.7561462E-02  0.1167455E+00
         -2   -1    0    0    0  501 -0.00000000000E+00  0.00000000000E+00  0.13445351389E+03  0.13445351389E+03  0.00000000000E+00 0.  1.
          2   -1    0    0  501    0  0.00000000000E+00 -0.00000000000E+00 -0.31876548029E+03  0.31876548029E+03  0.00000000000E+00 0. -1.
         25    2    1    2    0    0  0.11477316699E+03  0.12908575047E+03 -0.59463352842E+02  0.22140269083E+03  0.12508896969E+03 0.  0.
          5    1    3    3  502    0  0.69886425271E+02  0.99909487966E+02 -0.97020646064E+02  0.15587333443E+03  0.41800000000E+01 0.  1.
         -5    1    3    3    0  502  0.44886741720E+02  0.29176262503E+02  0.37557293222E+02  0.65529356399E+02  0.41800000000E+01 0.  1.
        -11    1    1    2    0    0 -0.85284947969E+02 -0.46082224089E+02 -0.28000694359E+02  0.10090159866E+03  0.00000000000E+00 0.  1.
         11    1    1    2    0    0 -0.29488219022E+02 -0.83003526380E+02 -0.96847919195E+02  0.13091470469E+03  0.00000000000E+00 0. -1.
</event>
<event>
 7    1  0.2723366E-009  0.1195275E+03  0.7561462E-02  0.1243879E+00
          1   -1    0    0  501    0  0.00000000000E+00  0.00000000000E+00  0.12778744872E+02  0.12778744872E+02  0.00000000000E+00 0. -1.
         -1   -1    0    0    0  501 -0.00000000000E+00 -0.00000000000E+00 -0.18497152457E+04  0.18497152457E+04  0.00000000000E+00 0.  1.
         25    2    1    2    0    0  0.45484574226E+02 -0.90280190502E+02 -0.12127961748E+04  0.12234140116E+04  0.12509165831E+03 0.  0.
          5    1    3    3  502    0  0.21419018284E+02 -0.51347927558E+02 -0.11026889271E+04  0.11040995092E+04  0.41800000000E+01 0. -1.
         -5    1    3    3    0  502  0.24065555943E+02 -0.38932262945E+02 -0.11010724767E+03  0.11931450235E+03  0.41800000000E+01 0. -1.
        -11    1    1    2    0    0 -0.57464619125E+02  0.10416410606E+03 -0.53339552314E+03  0.54650080288E+03  0.00000000000E+00 0.  1.
         11    1    1    2    0    0  0.11980044899E+02 -0.13883915562E+02 -0.90744802962E+02  0.92579176124E+02  0.00000000000E+00 0. -1.
</event>
<event>
 7    1  0.2723366E-009  0.1165441E+03  0.7561462E-02  0.1248910E+00
         -1   -1    0    0    0  501 -0.00000000000E+00  0.00000000000E+00  0.84511666411E+02  0.84511666411E+02  0.00000000000E+00 0.  1.
          1   -1    0    0  501    0  0.00000000000E+00 -0.00000000000E+00 -0.19515961020E+03  0.19515961020E+03  0.00000000000E+00 0. -1.
         25    2    1    2    0    0 -0.66866779126E+02  0.18611700823E+02 -0.59178785602E+02  0.15481126747E+03  0.12508732274E+03 0.  0.
          5    1    3    3  502    0  0.23883093288E+02 -0.20619316099E+02  0.10802263071E+02  0.33611302100E+02  0.41800000000E+01 0.  1.
         -5    1    3    3    0  502 -0.90749872413E+02  0.39231016922E+02 -0.69981048673E+02  0.12119996537E+03  0.41800000000E+01 0.  1.
        -11    1    1    2    0    0  0.78441259094E+01  0.26742627829E+02 -0.41168852591E+02  0.49714916053E+02  0.00000000000E+00 0. -1.
         11    1    1    2    0    0  0.59022653216E+02 -0.45354328652E+02 -0.10300305597E+02  0.75145093091E+02  0.00000000000E+00 0.  1.
</event>
<event>
 7    1  0.2723366E-009  0.1283962E+03  0.7561462E-02  0.1229855E+00
         -2   -1    0    0    0  501 -0.00000000000E+00  0.00000000000E+00  0.29009626287E+02  0.29009626287E+02  0.00000000000E+00 0.  1.
          2   -1    0    0  501    0  0.00000000000E+00 -0.00000000000E+00 -0.68237831538E+03  0.68237831538E+03  0.00000000000E+00 0. -1.
         25    2    1    2    0    0  0.85929746403E+02 -0.24638566650E+02 -0.33638385620E+03  0.36985589053E+03  0.12509316833E+03 0.  0.
          5    1    3    3  502    0  0.31495712703E+02  0.37389797665E+02 -0.43612153632E+02  0.65646547758E+02  0.41800000000E+01 0.  1.
         -5    1    3    3    0  502  0.54434033700E+02 -0.62028364315E+02 -0.29277170257E+03  0.30420934277E+03  0.41800000000E+01 0.  1.
        -11    1    1    2    0    0 -0.77349170304E+02 -0.19793582376E+02 -0.17155480248E+03  0.18922402148E+03  0.00000000000E+00 0.  1.
         11    1    1    2    0    0 -0.85805760986E+01  0.44432149026E+02 -0.14543003041E+03  0.15230802966E+03  0.00000000000E+00 0. -1.
</event>
<event>
 7    1  0.2723366E-009  0.1701513E+03  0.7561462E-02  0.1177690E+00
          2   -1    0    0  501    0  0.00000000000E+00  0.00000000000E+00  0.14903193320E+03  0.14903193320E+03  0.00000000000E+00 0. -1.
         -2   -1    0    0    0  501 -0.00000000000E+00 -0.00000000000E+00 -0.30717420568E+03  0.30717420568E+03  0.00000000000E+00 0.  1.
         25    2    1    2    0    0 -0.42775473379E+02 -0.14408637673E+03 -0.19544460064E+03  0.27647213461E+03  0.12509046412E+03 0.  0.
          5    1    3    3  502    0 -0.82384849412E+02 -0.98893329806E+02 -0.16399844008E+03  0.20851885968E+03  0.41800000000E+01 0.  1.
         -5    1    3    3    0  502  0.39609376032E+02 -0.45193046921E+02 -0.31446160556E+02  0.67953274927E+02  0.41800000000E+01 0.  1.
        -11    1    1    2    0    0  0.17185743059E+02  0.87593896658E+02 -0.24101618252E+02  0.92460415847E+02  0.00000000000E+00 0.  1.
         11    1    1    2    0    0  0.25589730321E+02  0.56492480069E+02  0.61403946411E+02  0.87273588428E+02  0.00000000000E+00 0. -1.
</event>
<event>
 7    1  0.2723366E-009  0.8835025E+02  0.7561462E-02  0.1306897E+00
          3   -1    0    0  501    0  0.00000000000E+00  0.00000000000E+00  0.19067108368E+03  0.19067108368E+03  0.00000000000E+00 0. -1.
         -3   -1    0    0    0  501 -0.00000000000E+00 -0.00000000000E+00 -0.75059808316E+02  0.75059808316E+02  0.00000000000E+00 0.  1.
         25    2    1    2    0    0  0.13312551905E+02 -0.15710619347E+02  0.11410035791E+03  0.17055682131E+03  0.12508672999E+03 0.  0.
          5    1    3    3  502    0 -0.11488534060E+02 -0.46545974337E+02  0.12095662050E+03  0.13017868714E+03  0.41800000000E+01 0. -1.
         -5    1    3    3    0  502  0.24801085964E+02  0.30835354989E+02 -0.68562625900E+01  0.40378134170E+02  0.41800000000E+01 0. -1.
        -11    1    1    2    0    0  0.29437795051E+02  0.31589802786E+02  0.17860237930E+02  0.46727802393E+02  0.00000000000E+00 0.  1.
         11    1    1    2    0    0 -0.42750346956E+02 -0.15879183438E+02 -0.16349320479E+02  0.48446268294E+02  0.00000000000E+00 0. -1.
</event>
<event>
 7    1  0.2723366E-009  0.1018042E+03  0.7561462E-02  0.1276547E+00
         -2   -1    0    0    0  501 -0.00000000000E+00  0.00000000000E+00  0.37567596032E+03  0.37567596032E+03  0.00000000000E+00 0.  1.
          2   -1    0    0  501    0  0.00000000000E+00 -0.00000000000E+00 -0.39168135297E+02  0.39168135297E+02  0.00000000000E+00 0. -1.
         25    2    1    2    0    0 -0.20572898495E+02  0.48304366235E+02  0.17968281708E+03  0.22514594701E+03  0.12509287251E+03 0.  0.
          5    1    3    3  502    0 -0.54305775497E+02  0.21903093482E+02  0.23657247371E+02  0.63292973619E+02  0.41800000000E+01 0. -1.
         -5    1    3    3    0  502  0.33732877002E+02  0.26401272753E+02  0.15602556970E+03  0.16185297339E+03  0.41800000000E+01 0. -1.
        -11    1    1    2    0    0  0.35408600258E+02  0.13806499930E+02  0.32812936500E+02  0.50210329757E+02  0.00000000000E+00 0. -1.
         11    1    1    2    0    0 -0.14835701763E+02 -0.62110866165E+02  0.12401207145E+03  0.13948781885E+03  0.00000000000E+00 0.  1.
</event>
<event>
 7    1  0.2723366E-009  0.8065794E+02  0.7561462E-02  0.1327195E+00
          1   -1    0    0  501    0  0.00000000000E+00  0.00000000000E+00  0.30981051948E+02  0.30981051948E+02  0.00000000000E+00 0. -1.
         -1   -1    0    0    0  501 -0.00000000000E+00 -0.00000000000E+00 -0.50424890734E+03  0.50424890734E+03  0.00000000000E+00 0.  1.
         25    2    1    2    0    0  0.39577021778E+02  0.25218466481E+02 -0.18406754773E+03  0.22744257808E+03  0.12508777915E+03 0.  0.
          5    1    3    3  502    0  0.28125334185E+02  0.38232539594E+02 -0.54732963941E+01  0.47960305256E+02  0.41800000000E+01 0.  1.
         -5    1    3    3    0  502  0.11451687593E+02 -0.13014073113E+02 -0.17859425133E+03  0.17948227282E+03  0.41800000000E+01 0.  1.
        -11    1    1    2    0    0 -0.62867833515E+02 -0.19256282524E+01 -0.12077766588E+03  0.13617384885E+03  0.00000000000E+00 0. -1.
         11    1    1    2    0    0  0.23290811736E+02 -0.23292838229E+02 -0.16842264178E+03  0.17161353236E+03  0.00000000000E+00 0.  1.
</event>
<event>
 7    1  0.4375336E-009  0.2116820E+03  0.7561462E-02  0.1140241E+00
          1   -1    0    0  501    0  0.00000000000E+00  0.00000000000E+00  0.31284455500E+03  0.31284455500E+03  0.00000000000E+00 0. -1.
         -1   -1    0    0    0  501 -0.00000000000E+00 -0.00000000000E+00 -0.18969961782E+03  0.18969961782E+03  0.00000000000E+00 0.  1.
         25    2    1    2    0    0 -0.88338519666E+02  0.18125339039E+03  0.14847854990E+03  0.27991037843E+03  0.12508978609E+03 0.  0.
          5    1    3    3  502    0 -0.31178275440E+02  0.11715047744E+03  0.16537380880E+02  0.12242253302E+03  0.41800000000E+01 0. -1.
         -5    1    3    3    0  502 -0.57160244226E+02  0.64102912956E+02  0.13194116902E+03  0.15748784541E+03  0.41800000000E+01 0. -1.
        -11    1    1    2    0    0  0.20068204335E+02 -0.12780645511E+03 -0.38401635540E+02  0.13495150390E+03  0.00000000000E+00 0.  1.
         11    1    1    2    0    0  0.68270315331E+02 -0.53446935288E+02  0.13068022813E+02  0.87682290500E+02  0.00000000000E+00 0. -1.
</event>
<event>
 7    1  0.2723366E-009  0.1701147E+03  0.7561462E-02  0.1177728E+00
          3   -1    0    0  501    0  0.00000000000E+00  0.00000000000E+00  0.54145331322E+02  0.54145331322E+02  0.00000000000E+00 0. -1.
         -3   -1    0    0    0  501 -0.00000000000E+00 -0.00000000000E+00 -0.53778584773E+03  0.53778584773E+03  0.00000000000E+00 0.  1.
         25    2    1    2    0    0 -0.13096304804E+03  0.56293312730E+02 -0.24857638613E+03  0.31266016349E+03  0.12508357639E+03 0.  0.
          5    1    3    3  502    0  0.21911944767E+02 -0.79473462529E+01 -0.27952192076E+02  0.36634561248E+02  0.41800000000E+01 0. -1.
         -5    1    3    3    0  502 -0.15287499280E+03  0.64240658983E+02 -0.22062419405E+03  0.27602560224E+03  0.41800000000E+01 0. -1.
        -11    1    1    2    0    0  0.18731412193E+02 -0.30054810294E+02 -0.59999011746E+02  0.69670932498E+02  0.00000000000E+00 0.  1.
         11    1    1    2    0    0  0.11223163584E+03 -0.26238502435E+02 -0.17506511854E+03  0.20960008307E+03  0.00000000000E+00 0. -1.
</event>
<event>
 7    1  0.2723366E-009  0.1325986E+03  0.7561462E-02  0.1223650E+00
          1   -1    0    0  501    0  0.00000000000E+00  0.00000000000E+00  0.14260407432E+03  0.14260407432E+03  0.00000000000E+00 0. -1.
         -1   -1    0    0    0  501 -0.00000000000E+00 -0.00000000000E+00 -0.17215117362E+03  0.17215117362E+03  0.00000000000E+00 0.  1.
         25    2    1    2    0    0  0.10059713960E+03  0.43260411755E+02  0.13488286871E+02  0.16679595520E+03  0.12509080329E+03 0.  0.
          5    1    3    3  502    0 -0.11845614945E+02  0.68758897737E+01 -0.35892035043E+02  0.38643331030E+02  0.41800000000E+01 0. -1.
         -5    1    3    3    0  502  0.11244275454E+03  0.36384521982E+02  0.49380321914E+02  0.12815262417E+03  0.41800000000E+01 0. -1.
        -11    1    1    2    0    0 -0.10570926502E+03 -0.55473204503E+02 -0.19510027196E+02  0.12096431825E+03  0.00000000000E+00 0.  1.
         11    1    1    2    0    0  0.51121254235E+01  0.12212792748E+02 -0.23525358966E+02  0.26994974487E+02  0.00000000000E+00 0. -1.
</event>
<event>
 7    1  0.2723366E-009  0.1794731E+03  0.7561462E-02  0.1168314E+00
         -1   -1    0    0    0  501 -0.00000000000E+00  0.00000000000E+00  0.73008251940E+03  0.73008251940E+03  0.00000000000E+00 0.  1.
          1   -1    0    0  501    0  0.00000000000E+00 -0.00000000000E+00 -0.51384574486E+02  0.51384574486E+02  0.00000000000E+00 0. -1.
         25    2    1    2    0    0  0.11170912267E+03  0.10506129779E+03  0.26063509366E+03  0.32725277476E+03  0.12508765789E+03 0.  0.
          5    1    3    3  502    0  0.73125373105E+02 -0.58852084064E+01  0.60620712762E+02  0.95259115498E+02  0.41800000000E+01 0.  1.
         -5    1    3    3    0  502  0.38583749560E+02  0.11094650620E+03  0.20001438090E+03  0.23199365926E+03  0.41800000000E+01 0.  1.
        -11    1    1    2    0    0 -0.90996477948E+02 -0.11357533379E+03  0.29288904455E+03  0.32705306582E+03  0.00000000000E+00 0. -1.
         11    1    1    2    0    0 -0.20712644717E+02  0.85140359946E+01  0.12517380670E+03  0.12716125331E+03  0.00000000000E+00 0.  1.
</event>
<event>
 7    1  0.2723366E-009  0.1032514E+03  0.7561462E-02  0.1273603E+00
          2   -1    0    0  501    0  0.00000000000E+00  0.00000000000E+00  0.55354936035E+02  0.55354936035E+02  0.00000000000E+00 0. -1.
         -2   -1    0    0    0  501 -0.00000000000E+00 -0.00000000000E+00 -0.31474007344E+03  0.31474007344E+03  0.00000000000E+00 0.  1.
         25    2    1    2    0    0  0.44511159558E+02  0.60442878662E+02 -0.12625040811E+03  0.19292835847E+03  0.12509037153E+03 0.  0.
          5    1    3    3  502    0  0.53061250643E+02  0.95617881246E+01 -0.13023056713E+03  0.14101204603E+03  0.41800000000E+01 0. -1.
         -5    1    3    3    0  502 -0.85500910846E+01  0.50881090537E+02  0.39801590173E+01  0.51916312442E+02  0.41800000000E+01 0. -1.
        -11    1    1    2    0    0 -0.48513398688E+02 -0.93424770104E+01 -0.11068193337E+03  0.12120776420E+03  0.00000000000E+00 0.  1.
         11    1    1    2    0    0  0.40022391293E+01 -0.51100401651E+02 -0.22452795930E+02  0.55958886801E+02  0.00000000000E+00 0. -1.
</event>
<event>
 7    1  0.2723366E-009  0.1657212E+03  0.7561462E-02  0.1182385E+00
         -1   -1    0    0    0  501 -0.00000000000E+00  0.00000000000E+00  0.10792113060E+04  0.10792113060E+04  0.00000000000E+00 0.  1.
          1   -1    0    0  501    0  0.00000000000E+00 -0.00000000000E+00 -0.32188463020E+02  0.32188463020E+02  0.00000000000E+00 0. -1.
         25    2    1    2    0    0 -0.10053762487E+03 -0.11333477103E+03  0.55534880145E+03  0.58907625050E+03  0.12508378509E+03 0.  0.
          5    1    3    3  502    0 -0.54859988024E+02 -0.69256830352E+01  0.66038987994E+02  0.86233425693E+02  0.41800000000E+01 0. -1.
         -5    1    3    3    0  502 -0.45677636846E+02 -0.10640908799E+03  0.48930981345E+03  0.50284282480E+03  0.41800000000E+01 0. -1.
        -11    1    1    2    0    0  0.94373489293E+02  0.72999984843E+02  0.44311810776E+03  0.45889978284E+03  0.00000000000E+00 0.  1.
         11    1    1    2    0    0  0.61641355767E+01  0.40334786184E+02  0.48555933806E+02  0.63423735712E+02  0.00000000000E+00 0. -1.
</event>
<event>
 7    1  0.2723366E-009  0.9961000E+02  0.7561462E-02  0.1281118E+00
          1   -1    0    0  501    0  0.00000000000E+00  0.00000000000E+00  0.29799143817E+03  0.29799143817E+03  0.00000000000E+00 0. -1.
         -1   -1    0    0    0  501 -0.00000000000E+00 -0.00000000000E+00 -0.61739473556E+02  0.61739473556E+02  0.00000000000E+00 0.  1.
         25    2    1    2    0    0  0.16270819968E+02  0.53997461797E+02  0.20722901653E+03  0.24853939348E+03  0.12508996504E+03 0.  0.
          5    1    3    3  502    0  0.34399049453E+02  0.88633085456E+02  0.12240587502E+03  0.15504769937E+03  0.41800000000E+01 0.  1.
         -5    1    3    3    0  502 -0.18128229485E+02 -0.34635623659E+02  0.84823141518E+02  0.93491694109E+02  0.41800000000E+01 0.  1.
        -11    1    1    2    0    0 -0.25528352238E+02 -0.45498093572E+02  0.58957507289E+02  0.78725859490E+02  0.00000000000E+00 0. -1.
         11    1    1    2    0    0  0.92575322701E+01 -0.84993682250E+01 -0.29934559207E+02  0.32465658762E+02  0.00000000000E+00 0.  1.
</event>
<event>
 7    1  0.2723366E-009  0.1559866E+03  0.7561462E-02  0.1193304E+00
         -2   -1    0    0    0  501 -0.00000000000E+00  0.00000000000E+00  0.49004610250E+02  0.49004610250E+02  0.00000000000E+00 0. -1.
          2   -1    0    0  501    0  0.00000000000E+00 -0.00000000000E+00 -0.66358513356E+03  0.66358513356E+03  0.00000000000E+00 0.  1.
         25    2    1    2    0    0 -0.12959792464E+03 -0.20058949113E+01 -0.20178462413E+03  0.27048852403E+03  0.12508941368E+03 0.  0.
          5    1    3    3  502    0 -0.96210153304E+02  0.57210458534E+02 -0.12678541856E+03  0.16917873662E+03  0.41800000000E+01 0.  1.
         -5    1    3    3    0  502 -0.33387771334E+02 -0.59216353445E+02 -0.74999205569E+02  0.10130978741E+03  0.41800000000E+01 0.  1.
        -11    1    1    2    0    0  0.54398751018E+02 -0.11097923033E+02 -0.30502262246E+03  0.31003417266E+03  0.00000000000E+00 0.  1.
         11    1    1    2    0    0  0.75199173620E+02  0.13103817944E+02 -0.10777327672E+03  0.13206704711E+03  0.00000000000E+00 0. -1.
</event>
<event>
 7    1  0.2723366E-009  0.1297086E+03  0.7561462E-02  0.1227889E+00
         -2   -1    0    0    0  501 -0.00000000000E+00  0.00000000000E+00  0.17433921229E+02  0.17433921229E+02  0.00000000000E+00 0.  1.
          2   -1    0    0  501    0  0.00000000000E+00 -0.00000000000E+00 -0.16596686048E+04  0.16596686048E+04  0.00000000000E+00 0. -1.
         25    2    1    2    0    0  0.52848092657E+02 -0.64574508477E+02 -0.13667060268E+04  0.13749542614E+04  0.12510423344E+03 0.  0.
          5    1    3    3  502    0  0.35127653171E+02  0.34632222648E+02 -0.44262775816E+03  0.44538763741E+03  0.41800000000E+01 0. -1.
         -5    1    3    3    0  502  0.17720439486E+02 -0.99206731126E+02 -0.92407826861E+03  0.92956662397E+03  0.41800000000E+01 0. -1.
        -11    1    1    2    0    0 -0.64088387387E+02  0.26503844311E+02 -0.96893982883E+02  0.11915628007E+03  0.00000000000E+00 0.  1.
         11    1    1    2    0    0  0.11240294730E+02  0.38070664166E+02 -0.17863467389E+03  0.18299198455E+03  0.00000000000E+00 0. -1.
</event>
<event>
 7    1  0.2723366E-009  0.1233779E+03  0.7561462E-02  0.1237626E+00
         -2   -1    0    0    0  501 -0.00000000000E+00  0.00000000000E+00  0.63659391997E+02  0.63659391997E+02  0.00000000000E+00 0.  1.
          2   -1    0    0  501    0  0.00000000000E+00 -0.00000000000E+00 -0.49936167699E+03  0.49936167699E+03  0.00000000000E+00 0. -1.
         25    2    1    2    0    0  0.11363852544E+03 -0.15229298700E+01 -0.99887336236E+02  0.19631885439E+03  0.12509028287E+03 0.  0.
          5    1    3    3  502    0 -0.38529793335E+01  0.13433325770E+02 -0.73460662913E+02  0.74894866891E+02  0.41800000000E+01 0. -1.
         -5    1    3    3    0  502  0.11749150477E+03 -0.14956255640E+02 -0.26426673323E+02  0.12142398750E+03  0.41800000000E+01 0. -1.
        -11    1    1    2    0    0 -0.25886947210E+02 -0.18205971596E+00 -0.76370260153E+01  0.26990578874E+02  0.00000000000E+00 0.  1.
         11    1    1    2    0    0 -0.87751578231E+02  0.17049895859E+01 -0.32817792275E+03  0.33971163573E+03  0.00000000000E+00 0. -1.
</event>
<event>
 7    1  0.2723366E-009  0.1202292E+03  0.7561462E-02  0.1242719E+00
         -2   -1    0    0    0  501 -0.00000000000E+00  0.00000000000E+00  0.54268030748E+02  0.54268030748E+02  0.00000000000E+00 0.  1.
          2   -1    0    0  501    0  0.00000000000E+00 -0.00000000000E+00 -0.40994107879E+03  0.40994107879E+03  0.00000000000E+00 0. -1.
         25    2    1    2    0    0 -0.70372103783E+02 -0.21312456717E+02 -0.29996851930E+03  0.33321954115E+03  0.12509075199E+03 0.  0.
          5    1    3    3  502    0  0.36050269076E+02  0.84841899336E+00 -0.77015269482E+02  0.85142033383E+02  0.41800000000E+01 0. -1.
         -5    1    3    3    0  502 -0.10642237286E+03 -0.22160875710E+02 -0.22295324982E+03  0.24807750777E+03  0.41800000000E+01 0. -1.
        -11    1    1    2    0    0  0.68999729362E+02 -0.48526263293E+01  0.28717531477E+00  0.69170753241E+02  0.00000000000E+00 0.  1.
         11    1    1    2    0    0  0.13723744206E+01  0.26165083046E+02 -0.55991704056E+02  0.61818815141E+02  0.00000000000E+00 0. -1.
</event>
<event>
 7    1  0.2723366E-009  0.1649247E+03  0.7561462E-02  0.1183246E+00
          2   -1    0    0  501    0  0.00000000000E+00  0.00000000000E+00  0.92498316600E+03  0.92498316600E+03  0.00000000000E+00 0. -1.
         -2   -1    0    0    0  501 -0.00000000000E+00 -0.00000000000E+00 -0.43415599848E+02  0.43415599848E+02  0.00000000000E+00 0.  1.
         25    2    1    2    0    0  0.13138817075E+02 -0.15929341357E+03  0.34950770549E+03  0.40416579870E+03  0.12508931419E+03 0.  0.
          5    1    3    3  502    0 -0.16282197415E+02 -0.10079849912E+03  0.31261637680E+03  0.32889499665E+03  0.41800000000E+01 0.  1.
         -5    1    3    3    0  502  0.29421014490E+02 -0.58494914443E+02  0.36891328689E+02  0.75270802053E+02  0.41800000000E+01 0.  1.
        -11    1    1    2    0    0 -0.16291109595E+02  0.47602996508E+02  0.56201131003E+02  0.75432172542E+02  0.00000000000E+00 0.  1.
         11    1    1    2    0    0  0.31522925198E+01  0.11169041706E+03  0.47585872967E+03  0.48880079461E+03  0.00000000000E+00 0. -1.
</event>
<event>
 7    1  0.2723366E-009  0.1169987E+03  0.7561462E-02  0.1248132E+00
         -1   -1    0    0    0  501 -0.00000000000E+00  0.00000000000E+00  0.62595585375E+02  0.62595585375E+02  0.00000000000E+00 0.  1.
          1   -1    0    0  501    0  0.00000000000E+00 -0.00000000000E+00 -0.23047428669E+03  0.23047428669E+03  0.00000000000E+00 0. -1.
         25    2    1    2    0    0 -0.42604782132E+02 -0.27069738949E+02 -0.82780949527E+02  0.15826646935E+03  0.12509057314E+03 0.  0.
          5    1    3    3  502    0 -0.56530815374E+02 -0.68984596535E+02 -0.44955913568E+02  0.99965565124E+02  0.41800000000E+01 0.  1.
         -5    1    3    3    0  502  0.13926033242E+02  0.41914857586E+02 -0.37825035959E+02  0.58300904226E+02  0.41800000000E+01 0.  1.
        -11    1    1    2    0    0 -0.15736075078E+02 -0.19954641717E+02 -0.65443248587E+01  0.26241950628E+02  0.00000000000E+00 0.  1.
         11    1    1    2    0    0  0.58340857210E+02  0.47024380666E+02 -0.78553426932E+02  0.10856145209E+03  0.00000000000E+00 0. -1.
</event>
<event>
 7    1  0.2723366E-009  0.1107047E+03  0.7561462E-02  0.1259270E+00
          2   -1    0    0  501    0  0.00000000000E+00  0.00000000000E+00  0.14396462336E+03  0.14396462336E+03  0.00000000000E+00 0. -1.
         -2   -1    0    0    0  501 -0.00000000000E+00 -0.00000000000E+00 -0.93504519986E+02  0.93504519986E+02  0.00000000000E+00 0.  1.
         25    2    1    2    0    0  0.32270958815E+02  0.23203746867E+02  0.41149265103E+02  0.13755872813E+03  0.12509721425E+03 0.  0.
          5    1    3    3  502    0  0.47646426289E+02  0.63816911100E+02  0.48465132968E+02  0.93322674598E+02  0.41800000000E+01 0.  1.
         -5    1    3    3    0  502 -0.15375467474E+02 -0.40613164233E+02 -0.73158678646E+01  0.44236053527E+02  0.41800000000E+01 0.  1.
        -11    1    1    2    0    0 -0.56334966495E+02 -0.39645467071E+02 -0.12869112781E+01  0.68898821833E+02  0.00000000000E+00 0. -1.
         11    1    1    2    0    0  0.24064007680E+02  0.16441720204E+02  0.10597749549E+02  0.31011593387E+02  0.00000000000E+00 0.  1.
</event>
<event>
 7    1  0.2723366E-009  0.2095803E+03  0.7561462E-02  0.1141899E+00
         -2   -1    0    0    0  501 -0.00000000000E+00  0.00000000000E+00  0.39568758430E+02  0.39568758430E+02  0.00000000000E+00 0.  1.
          2   -1    0    0  501    0  0.00000000000E+00 -0.00000000000E+00 -0.14322474001E+04  0.14322474001E+04  0.00000000000E+00 0. -1.
         25    2    1    2    0    0 -0.11872781728E+03 -0.15053314731E+03 -0.10489812270E+04  0.10736683114E+04  0.12508199456E+03 0.  0.
          5    1    3    3  502    0 -0.72695623197E+02 -0.65364090274E+01 -0.44942575437E+03  0.45533323991E+03  0.41800000000E+01 0.  1.
         -5    1    3    3    0  502 -0.46032194081E+02 -0.14399673828E+03 -0.59955547261E+03  0.61833507151E+03  0.41800000000E+01 0.  1.
        -11    1    1    2    0    0  0.49979426380E+02  0.37354917721E+02 -0.67953618450E+02  0.92255228576E+02  0.00000000000E+00 0. -1.
         11    1    1    2    0    0  0.68748390898E+02  0.11317822959E+03 -0.27574379621E+03  0.30589261850E+03  0.00000000000E+00 0.  1.
</event>
<event>
 7    1  0.2723366E-009  0.7701407E+02  0.7561462E-02  0.1337745E+00
          2   -1    0    0  501    0  0.00000000000E+00  0.00000000000E+00  0.69650025672E+02  0.69650025672E+02  0.00000000000E+00 0.  1.
         -2   -1    0    0    0  501 -0.00000000000E+00 -0.00000000000E+00 -0.21638941275E+03  0.21638941275E+03  0.00000000000E+00 0. -1.
         25    2    1    2    0    0  0.13905388399E+02  0.54835583163E+02 -0.81093877763E+02  0.15944872375E+03  0.12508947792E+03 0.  0.
          5    1    3    3  502    0  0.31323394472E+02  0.13360958218E+02  0.26109822317E+02  0.43114562124E+02  0.41800000000E+01 0. -1.
         -5    1    3    3    0  502 -0.17418006073E+02  0.41474624944E+02 -0.10720370008E+03  0.11633416162E+03  0.41800000000E+01 0. -1.
        -11    1    1    2    0    0  0.17744266005E+02 -0.27462838244E+02  0.14817542546E+02  0.35897437618E+02  0.00000000000E+00 0.  1.
         11    1    1    2    0    0 -0.31649654404E+02 -0.27372744919E+02 -0.80463051857E+02  0.90693277052E+02  0.00000000000E+00 0. -1.
</event>
<event>
 7    1  0.2723366E-009  0.2562611E+03  0.7561462E-02  0.1109411E+00
         -1   -1    0    0    0  501 -0.00000000000E+00  0.00000000000E+00  0.96794928824E+02  0.96794928824E+02  0.00000000000E+00 0.  1.
          1   -1    0    0  501    0  0.00000000000E+00 -0.00000000000E+00 -0.10373116674E+04  0.10373116674E+04  0.00000000000E+00 0. -1.
         25    2    1    2    0    0 -0.18943226704E+03  0.14997066951E+03 -0.16819572316E+03  0.31986327408E+03  0.12508767849E+03 0.  0.
          5    1    3    3  502    0 -0.19511454822E+03  0.15244122595E+03 -0.17982212687E+03  0.30604163771E+03  0.41800000000E+01 0. -1.
         -5    1    3    3    0  502  0.56822811860E+01 -0.24705564451E+01  0.11626403715E+02  0.13821636371E+02  0.41800000000E+01 0. -1.
        -11    1    1    2    0    0  0.87967506500E+02 -0.12511261457E+03 -0.48329621097E+03  0.50691880618E+03  0.00000000000E+00 0. -1.
         11    1    1    2    0    0  0.10146476054E+03 -0.24858054943E+02 -0.28902480449E+03  0.30732451600E+03  0.00000000000E+00 0.  1.
</event>
<event>
 7    1  0.2723366E-009  0.1052583E+03  0.7561462E-02  0.1269612E+00
          1   -1    0    0  501    0  0.00000000000E+00  0.00000000000E+00  0.36120810033E+02  0.36120810033E+02  0.00000000000E+00 0. -1.
         -1   -1    0    0    0  501 -0.00000000000E+00 -0.00000000000E+00 -0.33379051364E+03  0.33379051364E+03  0.00000000000E+00 0.  1.
         25    2    1    2    0    0  0.25057012910E+02 -0.87303996398E+01 -0.16659681222E+03  0.21001410628E+03  0.12508938094E+03 0.  0.
          5    1    3    3  502    0 -0.77739048109E+01  0.55070520889E+02 -0.79007462754E+02  0.96710120659E+02  0.41800000000E+01 0. -1.
         -5    1    3    3    0  502  0.32830917721E+02 -0.63800920529E+02 -0.87589349467E+02  0.11330398563E+03  0.41800000000E+01 0. -1.
        -11    1    1    2    0    0 -0.24145683646E+02  0.42610777458E+02 -0.10887132231E+03  0.11938030497E+03  0.00000000000E+00 0.  1.
         11    1    1    2    0    0 -0.91132926375E+00 -0.33880377818E+02 -0.22201569079E+02  0.40516912416E+02  0.00000000000E+00 0. -1.
</event>
<event>
 7    1  0.2723366E-009  0.1792957E+03  0.7561462E-02  0.1168486E+00
          4   -1    0    0  501    0  0.00000000000E+00  0.00000000000E+00  0.11704399972E+03  0.11704399972E+03  0.00000000000E+00 0. -1.
         -4   -1    0    0    0  501 -0.00000000000E+00 -0.00000000000E+00 -0.34242443178E+03  0.34242443178E+03  0.00000000000E+00 0.  1.
         25    2    1    2    0    0 -0.68385165818E+02 -0.15708897632E+03 -0.11172872066E+03  0.23976038130E+03  0.12509298955E+03 0.  0.
          5    1    3    3  502    0 -0.63148363238E+02 -0.13808591817E+03 -0.29035836772E+02  0.15464795115E+03  0.41800000000E+01 0. -1.
         -5    1    3    3    0  502 -0.52368025794E+01 -0.19003058144E+02 -0.82692883891E+02  0.85112430152E+02  0.41800000000E+01 0. -1.
        -11    1    1    2    0    0  0.79492298848E+02  0.96877681219E+02 -0.63087933783E+02  0.14030109794E+03  0.00000000000E+00 0. -1.
         11    1    1    2    0    0 -0.11107133031E+02  0.60211295097E+02 -0.50563777607E+02  0.79406952260E+02  0.00000000000E+00 0.  1.
</event>
<event>
 7    1  0.2723366E-009  0.1656023E+03  0.7561462E-02  0.1182513E+00
         -2   -1    0    0    0  501 -0.00000000000E+00  0.00000000000E+00  0.55159769542E+02  0.55159769542E+02  0.00000000000E+00 0.  1.
          2   -1    0    0  501    0  0.00000000000E+00 -0.00000000000E+00 -0.64844528188E+03  0.64844528188E+03  0.00000000000E+00 0. -1.
         25    2    1    2    0    0 -0.31276273502E+02  0.14010577348E+03 -0.41926947740E+03  0.46048017503E+03  0.12508902378E+03 0.  0.
          5    1    3    3  502    0 -0.46031745189E+02  0.14366707423E+03 -0.41831542644E+03  0.44470711506E+03  0.41800000000E+01 0. -1.
         -5    1    3    3    0  502  0.14755471686E+02 -0.35613007517E+01 -0.95405095880E+00  0.15773059975E+02  0.41800000000E+01 0. -1.
        -11    1    1    2    0    0  0.63918541585E+01 -0.13950314764E+03 -0.16609933605E+03  0.21700454704E+03  0.00000000000E+00 0.  1.
         11    1    1    2    0    0  0.24884419344E+02 -0.60262584176E+00 -0.79166988880E+01  0.26120329348E+02  0.00000000000E+00 0. -1.
</event>
<event>
 7    1  0.2723366E-009  0.1415284E+03  0.7561462E-02  0.1211287E+00
          2   -1    0    0  501    0  0.00000000000E+00  0.00000000000E+00  0.35642314106E+03  0.35642314106E+03  0.00000000000E+00 0. -1.
         -2   -1    0    0    0  501 -0.00000000000E+00 -0.00000000000E+00 -0.61290386137E+02  0.61290386137E+02  0.00000000000E+00 0.  1.
         25    2    1    2    0    0 -0.49371892877E+02  0.87270222900E+02  0.14975964494E+03  0.21938190729E+03  0.12508714715E+03 0.  0.
          5    1    3    3  502    0 -0.90801387289E+02  0.67093393907E+02  0.94349206575E+02  0.14719259703E+03  0.41800000000E+01 0. -1.
         -5    1    3    3    0  502  0.41429494412E+02  0.20176828992E+02  0.55410438363E+02  0.72189310254E+02  0.41800000000E+01 0. -1.
        -11    1    1    2    0    0 -0.88062268412E+01 -0.58032677327E+02  0.10887153475E+03  0.12368650835E+03  0.00000000000E+00 0. -1.
         11    1    1    2    0    0  0.58178119718E+02 -0.29237545573E+02  0.36501575231E+02  0.74645111557E+02  0.00000000000E+00 0.  1.
</event>
<event>
 7    1  0.2723366E-009  0.1016084E+03  0.7561462E-02  0.1276950E+00
         -2   -1    0    0    0  501 -0.00000000000E+00  0.00000000000E+00  0.51835450102E+02  0.51835450102E+02  0.00000000000E+00 0.  1.
          2   -1    0    0  501    0  0.00000000000E+00 -0.00000000000E+00 -0.23492234769E+03  0.23492234769E+03  0.00000000000E+00 0. -1.
         25    2    1    2    0    0  0.34870519765E+02 -0.58123057984E+00 -0.12167238702E+03  0.17795644738E+03  0.12509211175E+03 0.  0.
          5    1    3    3  502    0  0.31207717794E+02  0.56588626809E+02 -0.94131114343E+02  0.11425556188E+03  0.41800000000E+01 0.  1.
         -5    1    3    3    0  502  0.36628019706E+01 -0.57169857389E+02 -0.27541272675E+02  0.63700885494E+02  0.41800000000E+01 0.  1.
        -11    1    1    2    0    0  0.17741389159E+02 -0.17950631426E+02  0.78876335527E+00  0.25250825838E+02  0.00000000000E+00 0.  1.
         11    1    1    2    0    0 -0.52611908923E+02  0.18531862005E+02 -0.62203273928E+02  0.83550524578E+02  0.00000000000E+00 0. -1.
</event>
<event>
 7    1  0.2723366E-009  0.1100309E+03  0.7561462E-02  0.1260513E+00
         -1   -1    0    0    0  501 -0.00000000000E+00  0.00000000000E+00  0.30348879511E+03  0.30348879511E+03  0.00000000000E+00 0.  1.
          1   -1    0    0  501    0  0.00000000000E+00 -0.00000000000E+00 -0.48502581901E+02  0.48502581901E+02  0.00000000000E+00 0. -1.
         25    2    1    2    0    0 -0.15590058116E+02 -0.60543108917E+02  0.16546979547E+03  0.21665108129E+03  0.12509564285E+03 0.  0.
          5    1    3    3  502    0  0.50897043481E+01 -0.91628685475E+02  0.15026570946E+03  0.17612205124E+03  0.41800000000E+01 0. -1.
         -5    1    3    3    0  502 -0.20679762464E+02  0.31085576558E+02  0.15204086014E+02  0.40529030053E+02  0.41800000000E+01 0. -1.
        -11    1    1    2    0    0  0.12293528182E+01 -0.14333579304E+02  0.44574963993E+02  0.46838981832E+02  0.00000000000E+00 0.  1.
         11    1    1    2    0    0  0.14360705298E+02  0.74876688221E+02  0.44941453740E+02  0.88501313888E+02  0.00000000000E+00 0. -1.
</event>
<event>
 7    1  0.2723366E-009  0.1082736E+03  0.7561462E-02  0.1263801E+00
          2   -1    0    0  501    0  0.00000000000E+00  0.00000000000E+00  0.14905520920E+03  0.14905520920E+03  0.00000000000E+00 0. -1.
         -2   -1    0    0    0  501 -0.00000000000E+00 -0.00000000000E+00 -0.11071033227E+03  0.11071033227E+03  0.00000000000E+00 0.  1.
         25    2    1    2    0    0 -0.62300886587E+02 -0.53996452804E+02  0.83260376732E+01  0.15004637002E+03  0.12509025889E+03 0.  0.
          5    1    3    3  502    0 -0.40182470513E+01 -0.53555628127E+02  0.53701403266E+02  0.76063557149E+02  0.41800000000E+01 0. -1.
         -5    1    3    3    0  502 -0.58282639535E+02 -0.44082467772E+00 -0.45375365593E+02  0.73982812871E+02  0.41800000000E+01 0. -1.
        -11    1    1    2    0    0  0.30177363085E+02  0.63867998324E+02  0.12209940573E+02  0.71685961676E+02  0.00000000000E+00 0.  1.
         11    1    1    2    0    0  0.32123523501E+02 -0.98715455196E+01  0.17808898686E+02  0.38033209771E+02  0.00000000000E+00 0. -1.
</event>
<event>
 7    1  0.2723366E-009  0.1851218E+03  0.7561462E-02  0.1162936E+00
         -1   -1    0    0    0  501 -0.00000000000E+00  0.00000000000E+00  0.58540124368E+02  0.58540124368E+02  0.00000000000E+00 0.  1.
          1   -1    0    0  501    0  0.00000000000E+00 -0.00000000000E+00 -0.82461437559E+03  0.82461437559E+03  0.00000000000E+00 0. -1.
         25    2    1    2    0    0  0.16302039006E+03 -0.85044910681E+02 -0.49945847483E+03  0.54673207039E+03  0.12509558067E+03 0.  0.
          5    1    3    3  502    0  0.74885855167E+02 -0.40230596931E+02 -0.83749730958E+02  0.11940637365E+03  0.41800000000E+01 0.  1.
         -5    1    3    3    0  502  0.88134534889E+02 -0.44814313750E+02 -0.41570874387E+03  0.42732569673E+03  0.41800000000E+01 0.  1.
        -11    1    1    2    0    0 -0.12756062922E+03  0.79429749345E+02 -0.25943143208E+03  0.29980905117E+03  0.00000000000E+00 0. -1.
         11    1    1    2    0    0 -0.35459760834E+02  0.56151613357E+01 -0.71843443122E+01  0.36613378408E+02  0.00000000000E+00 0.  1.
</event>
<event>
 7    1  0.2723366E-009  0.1273689E+03  0.7561462E-02  0.1231413E+00
          2   -1    0    0  501    0  0.00000000000E+00  0.00000000000E+00  0.52214132021E+02  0.52214132021E+02  0.00000000000E+00 0.  1.
         -2   -1    0    0    0  501 -0.00000000000E+00 -0.00000000000E+00 -0.32240305198E+03  0.32240305198E+03  0.00000000000E+00 0. -1.
         25    2    1    2    0    0  0.68979788836E+02  0.12142613313E+02 -0.14869546124E+03  0.20655158948E+03  0.12509022583E+03 0.  0.
          5    1    3    3  502    0  0.81256215199E+02  0.52525245273E+02 -0.12446685510E+03  0.15770524505E+03  0.41800000000E+01 0.  1.
         -5    1    3    3    0  502 -0.12276426362E+02 -0.40382631960E+02 -0.24228606147E+02  0.48846344429E+02  0.41800000000E+01 0.  1.
        -11    1    1    2    0    0 -0.85238703295E+02 -0.30890065870E+02 -0.87700307767E+02  0.12613951281E+03  0.00000000000E+00 0. -1.
         11    1    1    2    0    0  0.16258914459E+02  0.18747452557E+02 -0.33793150950E+02  0.41926081714E+02  0.00000000000E+00 0.  1.
</event>
<event>
 7    1  0.2723366E-009  0.1946302E+03  0.7561462E-02  0.1154350E+00
          1   -1    0    0  501    0  0.00000000000E+00  0.00000000000E+00  0.24159831431E+04  0.24159831431E+04  0.00000000000E+00 0. -1.
         -1   -1    0    0    0  501 -0.00000000000E+00 -0.00000000000E+00 -0.27060495471E+02  0.27060495471E+02  0.00000000000E+00 0.  1.
         25    2    1    2    0    0 -0.17182174212E+03 -0.19944675235E+02  0.19697704558E+04  0.19813035243E+04  0.12508999045E+03 0.  0.
          5    1    3    3  502    0 -0.16144401255E+02 -0.50926308532E+02  0.58917305244E+03  0.59160501072E+03  0.41800000000E+01 0.  1.
         -5    1    3    3    0  502 -0.15567734086E+03  0.30981633297E+02  0.13805974034E+04  0.13896985136E+04  0.41800000000E+01 0.  1.
        -11    1    1    2    0    0  0.14249879729E+03  0.30493773373E+02  0.39861941985E+03  0.42442104016E+03  0.00000000000E+00 0. -1.
         11    1    1    2    0    0  0.29322944827E+02 -0.10549098138E+02  0.20532771879E+02  0.37319074022E+02  0.00000000000E+00 0.  1.
</event>
<event>
 7    1  0.2723366E-009  0.1055329E+03  0.7561462E-02  0.1269073E+00
         -1   -1    0    0    0  501 -0.00000000000E+00  0.00000000000E+00  0.69645328001E+03  0.69645328001E+03  0.00000000000E+00 0.  1.
          1   -1    0    0  501    0  0.00000000000E+00 -0.00000000000E+00 -0.21248728744E+02  0.21248728744E+02  0.00000000000E+00 0. -1.
         25    2    1    2    0    0 -0.36328093062E+02 -0.30106658515E+02  0.27735203002E+03  0.30789237511E+03  0.12508966728E+03 0.  0.
          5    1    3    3  502    0  0.40768498976E+01  0.37560152604E+02  0.30513298130E+02  0.48743405005E+02  0.41800000000E+01 0.  1.
         -5    1    3    3    0  502 -0.40404942960E+02 -0.67666811119E+02  0.24683873189E+03  0.25914897010E+03  0.41800000000E+01 0.  1.
        -11    1    1    2    0    0 -0.10364061756E+02  0.44168317535E+02  0.25115514978E+03  0.25521983331E+03  0.00000000000E+00 0.  1.
         11    1    1    2    0    0  0.46692154818E+02 -0.14061659020E+02  0.14669737146E+03  0.15458980034E+03  0.00000000000E+00 0. -1.
</event>
<event>
 7    1  0.2723366E-009  0.7605769E+02  0.7561462E-02  0.1340627E+00
          2   -1    0    0  501    0  0.00000000000E+00  0.00000000000E+00  0.38813706301E+03  0.38813706301E+03  0.00000000000E+00 0. -1.
         -2   -1    0    0    0  501 -0.00000000000E+00 -0.00000000000E+00 -0.46185603569E+02  0.46185603569E+02  0.00000000000E+00 0.  1.
         25    2    1    2    0    0  0.13484911206E+02 -0.42711877291E+02  0.82900972419E+02  0.15660635552E+03  0.12508729780E+03 0.  0.
          5    1    3    3  502    0 -0.35744153149E+02 -0.25739341559E+02 -0.14095974846E+02  0.46436269177E+02  0.41800000000E+01 0. -1.
         -5    1    3    3    0  502  0.49229064355E+02 -0.16972535732E+02  0.96996947265E+02  0.11017008634E+03  0.41800000000E+01 0. -1.
        -11    1    1    2    0    0 -0.17252630777E+01  0.43787348448E+02  0.26192279159E+03  0.26556328280E+03  0.00000000000E+00 0. -1.
         11    1    1    2    0    0 -0.11759648129E+02 -0.10754711576E+01 -0.28723045672E+01  0.12153028258E+02  0.00000000000E+00 0.  1.
</event>
<event>
 7    1  0.2723366E-009  0.7220375E+02  0.7561462E-02  0.1352755E+00
         -1   -1    0    0    0  501 -0.00000000000E+00  0.00000000000E+00  0.25250027320E+02  0.25250027320E+02  0.00000000000E+00 0.  1.
          1   -1    0    0  501    0  0.00000000000E+00 -0.00000000000E+00 -0.60147866794E+03  0.60147866794E+03  0.00000000000E+00 0. -1.
         25    2    1    2    0    0 -0.25226472040E+02  0.30678935770E+02 -0.44835236460E+03  0.46716707451E+03  0.12509060987E+03 0.  0.
          5    1    3    3  502    0  0.19843025535E+02  0.15330201220E+02 -0.11835115149E+02  0.28041096312E+02  0.41800000000E+01 0.  1.
         -5    1    3    3    0  502 -0.45069497574E+02  0.15348734551E+02 -0.43651724945E+03  0.43912597820E+03  0.41800000000E+01 0.  1.
        -11    1    1    2    0    0  0.29368131424E+02  0.94489955753E+01 -0.63271500965E+01  0.31492911727E+02  0.00000000000E+00 0.  1.
         11    1    1    2    0    0 -0.41416593844E+01 -0.40127931346E+02 -0.12154912592E+03  0.12806870902E+03  0.00000000000E+00 0. -1.
</event>
<event>
 7    1  0.2723366E-009  0.2993207E+03  0.7561462E-02  0.1085581E+00
          2   -1    0    0  501    0  0.00000000000E+00  0.00000000000E+00  0.59441288446E+03  0.59441288446E+03  0.00000000000E+00 0. -1.
         -2   -1    0    0    0  501 -0.00000000000E+00 -0.00000000000E+00 -0.17169465590E+03  0.17169465590E+03  0.00000000000E+00 0.  1.
         25    2    1    2    0    0 -0.43458283066E+02  0.28925404971E+03  0.13369271851E+03  0.34507751293E+03  0.12509284276E+03 0.  0.
          5    1    3    3  502    0  0.27539860383E+02  0.92048634529E+02  0.88346811835E+02  0.13059106627E+03  0.41800000000E+01 0.  1.
         -5    1    3    3    0  502 -0.70998143449E+02  0.19720541518E+03  0.45345906672E+02  0.21448644666E+03  0.41800000000E+01 0.  1.
        -11    1    1    2    0    0  0.32616433783E+01 -0.59418149186E+02  0.15471947941E+02  0.61486063000E+02  0.00000000000E+00 0.  1.
         11    1    1    2    0    0  0.40196639687E+02 -0.22983590052E+03  0.27355356212E+03  0.35954396443E+03  0.00000000000E+00 0. -1.
</event>
<event>
 7    1  0.2723366E-009  0.1002220E+03  0.7561462E-02  0.1279830E+00
         -2   -1    0    0    0  501 -0.00000000000E+00  0.00000000000E+00  0.60361772932E+02  0.60361772932E+02  0.00000000000E+00 0.  1.
          2   -1    0    0  501    0  0.00000000000E+00 -0.00000000000E+00 -0.23242070991E+03  0.23242070991E+03  0.00000000000E+00 0. -1.
         25    2    1    2    0    0 -0.20332894296E+02  0.13946682822E+02 -0.43515605151E+02  0.13471448000E+03  0.12508575729E+03 0.  0.
          5    1    3    3  502    0 -0.67501732028E+02  0.33207104528E+02 -0.17476492560E+02  0.77344009530E+02  0.41800000000E+01 0.  1.
         -5    1    3    3    0  502  0.47168837732E+02 -0.19260421706E+02 -0.26039112592E+02  0.57370470469E+02  0.41800000000E+01 0.  1.
        -11    1    1    2    0    0 -0.24671671397E+02  0.49590779203E+01 -0.96377558906E+02  0.99608823324E+02  0.00000000000E+00 0. -1.
         11    1    1    2    0    0  0.45004565693E+02 -0.18905760742E+02 -0.32165772923E+02  0.58459179521E+02  0.00000000000E+00 0.  1.
</event>
<event>
 7    1  0.2723366E-009  0.9746446E+02  0.7561462E-02  0.1285720E+00
          3   -1    0    0  501    0  0.00000000000E+00  0.00000000000E+00  0.14301177864E+03  0.14301177864E+03  0.00000000000E+00 0. -1.
         -3   -1    0    0    0  501 -0.00000000000E+00 -0.00000000000E+00 -0.86943405432E+02  0.86943405432E+02  0.00000000000E+00 0.  1.
         25    2    1    2    0    0 -0.44147261134E+01  0.20497131831E+02  0.23231853731E+02  0.12894980397E+03  0.12509480683E+03 0.  0.
          5    1    3    3  502    0 -0.59091265968E+02  0.36587540797E+02  0.10705738356E+02  0.70445092725E+02  0.41800000000E+01 0.  1.
         -5    1    3    3    0  502  0.54676539854E+02 -0.16090408967E+02  0.12526115375E+02  0.58504711242E+02  0.41800000000E+01 0.  1.
        -11    1    1    2    0    0  0.34396469947E+02 -0.62512853007E+01  0.52013031819E+02  0.62670177850E+02  0.00000000000E+00 0. -1.
         11    1    1    2    0    0 -0.29981743833E+02 -0.14245846530E+02 -0.19176512340E+02  0.38335202258E+02  0.00000000000E+00 0.  1.
</event>
<event>
 7    1  0.2723366E-009  0.7772352E+02  0.7561462E-02  0.1335639E+00
          1   -1    0    0  501    0  0.00000000000E+00  0.00000000000E+00  0.47615541311E+03  0.47615541311E+03  0.00000000000E+00 0. -1.
         -1   -1    0    0    0  501 -0.00000000000E+00 -0.00000000000E+00 -0.39426064305E+02  0.39426064305E+02  0.00000000000E+00 0.  1.
         25    2    1    2    0    0 -0.17705811211E+02 -0.42046509437E+02  0.37186645182E+03  0.39498966411E+03  0.12510304576E+03 0.  0.
          5    1    3    3  502    0  0.57190184957E+01 -0.85147806096E+00 -0.88187002873E+01  0.11343459005E+02  0.41800000000E+01 0. -1.
         -5    1    3    3    0  502 -0.23424829706E+02 -0.41195031376E+02  0.38068515211E+03  0.38364620510E+03  0.41800000000E+01 0. -1.
        -11    1    1    2    0    0  0.46991526791E+02 -0.29138692279E+01  0.38443385160E+02  0.60783123370E+02  0.00000000000E+00 0.  1.
         11    1    1    2    0    0 -0.29285715581E+02  0.44960378665E+02  0.26419511828E+02  0.59808689937E+02  0.00000000000E+00 0. -1.
</event>
<event>
 7    1  0.2723366E-009  0.1608925E+03  0.7561462E-02  0.1187693E+00
         -4   -1    0    0    0  501 -0.00000000000E+00  0.00000000000E+00  0.79644553883E+03  0.79644553883E+03  0.00000000000E+00 0.  1.
          4   -1    0    0  501    0  0.00000000000E+00 -0.00000000000E+00 -0.45201021172E+02  0.45201021172E+02  0.00000000000E+00 0. -1.
         25    2    1    2    0    0 -0.14516978382E+03  0.19466215557E+02  0.27760100649E+03  0.33788014201E+03  0.12508985520E+03 0.  0.
          5    1    3    3  502    0 -0.14122622306E+03 -0.11970045972E+02  0.15030062610E+03  0.20662981074E+03  0.41800000000E+01 0.  1.
         -5    1    3    3    0  502 -0.39435607638E+01  0.31436261529E+02  0.12730038039E+03  0.13125033127E+03  0.41800000000E+01 0.  1.
        -11    1    1    2    0    0  0.86706128820E+02 -0.22210073958E+02  0.39898416919E+03  0.40890048596E+03  0.00000000000E+00 0.  1.
         11    1    1    2    0    0  0.58463655002E+02  0.27438584001E+01  0.74659341975E+02  0.94865932026E+02  0.00000000000E+00 0. -1.
</event>
<event>
 7    1  0.2723366E-009  0.1096892E+03  0.7561462E-02  0.1261147E+00
          2   -1    0    0  501    0  0.00000000000E+00  0.00000000000E+00  0.35409985497E+03  0.35409985497E+03  0.00000000000E+00 0. -1.
         -2   -1    0    0    0  501 -0.00000000000E+00 -0.00000000000E+00 -0.47145010894E+02  0.47145010894E+02  0.00000000000E+00 0.  1.
         25    2    1    2    0    0 -0.52857890069E+02 -0.12252933675E+02  0.95968023380E+02  0.16673294548E+03  0.12508366269E+03 0.  0.
          5    1    3    3  502    0 -0.83975691420E+02  0.50702594435E+01  0.26071998329E+02  0.88175085921E+02  0.41800000000E+01 0. -1.
         -5    1    3    3    0  502  0.31117801351E+02 -0.17323193119E+02  0.69896025050E+02  0.78557859560E+02  0.41800000000E+01 0. -1.
        -11    1    1    2    0    0  0.66324214114E+00 -0.31300477171E+02  0.95525092890E+02  0.10052463943E+03  0.00000000000E+00 0.  1.
         11    1    1    2    0    0  0.52194647928E+02  0.43553410846E+02  0.11546172781E+03  0.13398728095E+03  0.00000000000E+00 0. -1.
</event>
<event>
 7    1  0.2723366E-009  0.1385909E+03  0.7561462E-02  0.1215238E+00
          1   -1    0    0  501    0  0.00000000000E+00  0.00000000000E+00  0.22550524664E+03  0.22550524664E+03  0.00000000000E+00 0. -1.
         -1   -1    0    0    0  501 -0.00000000000E+00 -0.00000000000E+00 -0.11162972781E+03  0.11162972781E+03  0.00000000000E+00 0.  1.
         25    2    1    2    0    0  0.47694898051E+02 -0.10442035028E+03  0.67659785840E+02  0.18276774197E+03  0.12509111892E+03 0.  0.
          5    1    3    3  502    0  0.56277152539E+02 -0.46015131603E+02 -0.21349609745E+02  0.75880092716E+02  0.41800000000E+01 0.  1.
         -5    1    3    3    0  502 -0.85822544880E+01 -0.58405218675E+02  0.89009395585E+02  0.10688764925E+03  0.41800000000E+01 0.  1.
        -11    1    1    2    0    0  0.21324714712E+02  0.16466856812E+01 -0.20635275773E+01  0.21487512125E+02  0.00000000000E+00 0. -1.
         11    1    1    2    0    0 -0.69019612763E+02  0.10277366460E+03  0.48279260565E+02  0.13287972035E+03  0.00000000000E+00 0.  1.
</event>
<event>
 7    1  0.2723366E-009  0.1203703E+03  0.7561462E-02  0.1242488E+00
         -3   -1    0    0    0  501 -0.00000000000E+00  0.00000000000E+00  0.11502269663E+03  0.11502269663E+03  0.00000000000E+00 0.  1.
          3   -1    0    0  501    0  0.00000000000E+00 -0.00000000000E+00 -0.20423465179E+03  0.20423465179E+03  0.00000000000E+00 0. -1.
         25    2    1    2    0    0  0.47507421504E+02 -0.96394471207E+02 -0.36145088732E+02  0.16883051199E+03  0.12509366555E+03 0.  0.
          5    1    3    3  502    0  0.44899051374E+02 -0.10472692813E+03  0.16582248859E+02  0.11522194959E+03  0.41800000000E+01 0.  1.
         -5    1    3    3    0  502  0.26083701297E+01  0.83324569200E+01 -0.52727337591E+02  0.53608562399E+02  0.41800000000E+01 0.  1.
        -11    1    1    2    0    0 -0.33472152594E+02  0.97375994501E+02 -0.72862637178E+02  0.12614052957E+03  0.00000000000E+00 0. -1.
         11    1    1    2    0    0 -0.14035268909E+02 -0.98152329412E+00  0.19795770748E+02  0.24286306859E+02  0.00000000000E+00 0.  1.
</event>
<event>
 7    1  0.2723366E-009  0.1048109E+03  0.7561462E-02  0.1270493E+00
          2   -1    0    0  501    0  0.00000000000E+00  0.00000000000E+00  0.50034213397E+03  0.50034213397E+03  0.00000000000E+00 0. -1.
         -2   -1    0    0    0  501 -0.00000000000E+00 -0.00000000000E+00 -0.23678267864E+02  0.23678267864E+02  0.00000000000E+00 0.  1.
         25    2    1    2    0    0  0.39069195472E+00 -0.13064887919E+02  0.27000259902E+03  0.29786049115E+03  0.12509446340E+03 0.  0.
          5    1    3    3  502    0 -0.28379812796E+02  0.48881612564E+02  0.13772644883E+03  0.14893244417E+03  0.41800000000E+01 0.  1.
         -5    1    3    3    0  502  0.28770504751E+02 -0.61946500483E+02  0.13227615019E+03  0.14892804697E+03  0.41800000000E+01 0.  1.
        -11    1    1    2    0    0  0.27424069381E+02  0.38200956964E+02  0.69114079894E+02  0.83595147789E+02  0.00000000000E+00 0.  1.
         11    1    1    2    0    0 -0.27814761335E+02 -0.25136069045E+02  0.13754718719E+03  0.14256476289E+03  0.00000000000E+00 0. -1.
</event>
<event>
 7    1  0.2723366E-009  0.1238262E+03  0.7561462E-02  0.1236915E+00
          1   -1    0    0  501    0  0.00000000000E+00  0.00000000000E+00  0.10775199206E+03  0.10775199206E+03  0.00000000000E+00 0. -1.
         -1   -1    0    0    0  501 -0.00000000000E+00 -0.00000000000E+00 -0.24284877425E+03  0.24284877425E+03  0.00000000000E+00 0.  1.
         25    2    1    2    0    0 -0.48370272274E+02  0.47991142918E+02 -0.17619422327E+03  0.22657099385E+03  0.12508868014E+03 0.  0.
          5    1    3    3  502    0 -0.32245384143E+02  0.84497568021E+02 -0.74509596751E+02  0.11725509033E+03  0.41800000000E+01 0. -1.
         -5    1    3    3    0  502 -0.16124888131E+02 -0.36506425104E+02 -0.10168462652E+03  0.10931590352E+03  0.41800000000E+01 0. -1.
        -11    1    1    2    0    0  0.55851823810E+01 -0.69067320869E+02  0.22834908313E+02  0.72958358753E+02  0.00000000000E+00 0. -1.
         11    1    1    2    0    0  0.42785089893E+02  0.21076177951E+02  0.18262532777E+02  0.51071413703E+02  0.00000000000E+00 0.  1.
</event>
<event>
 7    1  0.2723366E-009  0.1227531E+03  0.7561462E-02  0.1238623E+00
         -1   -1    0    0    0  501 -0.00000000000E+00  0.00000000000E+00  0.66743655202E+02  0.66743655202E+02  0.00000000000E+00 0.  1.
          1   -1    0    0  501    0  0.00000000000E+00 -0.00000000000E+00 -0.38875498937E+03  0.38875498937E+03  0.00000000000E+00 0. -1.
         25    2    1    2    0    0  0.36175977547E+02  0.10995456244E+03 -0.13038132930E+03  0.21458330735E+03  0.12509195661E+03 0.  0.
          5    1    3    3  502    0  0.41142464030E+02  0.64326549225E+02 -0.14690970256E+03  0.16562167849E+03  0.41800000000E+01 0.  1.
         -5    1    3    3    0  502 -0.49664864827E+01  0.45628013217E+02  0.16528373252E+02  0.48961628859E+02  0.41800000000E+01 0.  1.
        -11    1    1    2    0    0 -0.30202286126E+02 -0.29328968925E+02 -0.11759590449E+02  0.43711033767E+02  0.00000000000E+00 0.  1.
         11    1    1    2    0    0 -0.59736914213E+01 -0.80625593517E+02 -0.17987041442E+03  0.19720430346E+03  0.00000000000E+00 0. -1.
</event>
<event>
 7    1  0.2723366E-009  0.1336588E+03  0.7561462E-02  0.1222125E+00
          1   -1    0    0  501    0  0.00000000000E+00  0.00000000000E+00  0.12273598907E+04  0.12273598907E+04  0.00000000000E+00 0. -1.
         -1   -1    0    0    0  501 -0.00000000000E+00 -0.00000000000E+00 -0.44524076254E+02  0.44524076254E+02  0.00000000000E+00 0.  1.
         25    2    1    2    0    0  0.27856142862E+02 -0.97852696472E+02  0.11170485653E+04  0.11286260159E+04  0.12509225186E+03 0.  0.
          5    1    3    3  502    0 -0.33809950769E+02 -0.56975977891E+02  0.81188141343E+03  0.81459086461E+03  0.41800000000E+01 0.  1.
         -5    1    3    3    0  502  0.61666093631E+02 -0.40876718582E+02  0.30516715190E+03  0.31403515126E+03  0.41800000000E+01 0.  1.
        -11    1    1    2    0    0  0.23923761601E+02  0.53681205334E+02  0.36350075577E+02  0.69103879556E+02  0.00000000000E+00 0.  1.
         11    1    1    2    0    0 -0.51779904463E+02  0.44171491138E+02  0.29437173499E+02  0.74154071494E+02  0.00000000000E+00 0. -1.
</event>
<event>
 7    1  0.2723366E-009  0.7704027E+02  0.7561462E-02  0.1337667E+00
         -2   -1    0    0    0  501 -0.00000000000E+00  0.00000000000E+00  0.12267195662E+02  0.12267195662E+02  0.00000000000E+00 0.  1.
          2   -1    0    0  501    0  0.00000000000E+00 -0.00000000000E+00 -0.10877176055E+04  0.10877176055E+04  0.00000000000E+00 0. -1.
         25    2    1    2    0    0 -0.11339935318E+02  0.38957076096E+02 -0.76286400980E+03  0.77411584970E+03  0.12509038090E+03 0.  0.
          5    1    3    3  502    0 -0.40222781539E+02  0.35394302381E+01 -0.66266517203E+03  0.66390737482E+03  0.41800000000E+01 0. -1.
         -5    1    3    3    0  502  0.28882846222E+02  0.35417645858E+02 -0.10019883777E+03  0.11020847488E+03  0.41800000000E+01 0. -1.
        -11    1    1    2    0    0 -0.86922971255E+01  0.10854227282E+02 -0.69369008258E+01  0.15539976585E+02  0.00000000000E+00 0.  1.
         11    1    1    2    0    0  0.20032232443E+02 -0.49811303378E+02 -0.30564949917E+03  0.31032897484E+03  0.00000000000E+00 0. -1.
</event>
<event>
 7    1  0.2723366E-009  0.2982519E+03  0.7561462E-02  0.1086118E+00
         -1   -1    0    0    0  501 -0.00000000000E+00  0.00000000000E+00  0.90035872280E+03  0.90035872280E+03  0.00000000000E+00 0.  1.
          1   -1    0    0  501    0  0.00000000000E+00 -0.00000000000E+00 -0.11943913338E+03  0.11943913338E+03  0.00000000000E+00 0. -1.
         25    2    1    2    0    0 -0.41304476737E+02 -0.27464337992E+03  0.18589511897E+03  0.35684742244E+03  0.12509213290E+03 0.  0.
          5    1    3    3  502    0  0.71000848380E+01  0.11440489260E+02  0.12272192371E+02  0.18691578446E+02  0.41800000000E+01 0. -1.
         -5    1    3    3    0  502 -0.48404561575E+02 -0.28608386918E+03  0.17362292660E+03  0.33815584400E+03  0.41800000000E+01 0. -1.
        -11    1    1    2    0    0  0.62464358797E+02  0.25757058360E+03  0.54433672820E+03  0.60543114829E+03  0.00000000000E+00 0.  1.
         11    1    1    2    0    0 -0.21159882060E+02  0.17072796318E+02  0.50687742249E+02  0.57519285437E+02  0.00000000000E+00 0. -1.
</event>
<event>
 7    1  0.2723366E-009  0.1127007E+03  0.7561462E-02  0.1255649E+00
         -3   -1    0    0    0  501 -0.00000000000E+00  0.00000000000E+00  0.89661700452E+02  0.89661700452E+02  0.00000000000E+00 0.  1.
          3   -1    0    0  501    0  0.00000000000E+00 -0.00000000000E+00 -0.27484857790E+03  0.27484857790E+03  0.00000000000E+00 0. -1.
         25    2    1    2    0    0  0.94152384057E+02 -0.16582448727E+01 -0.17331522884E+03  0.23356663005E+03  0.12509109051E+03 0.  0.
          5    1    3    3  502    0  0.81781642574E+02  0.31068708880E+02 -0.41120942870E+02  0.96756943297E+02  0.41800000000E+01 0. -1.
         -5    1    3    3    0  502  0.12370741483E+02 -0.32726953753E+02 -0.13219428597E+03  0.13680968675E+03  0.41800000000E+01 0. -1.
        -11    1    1    2    0    0 -0.59151787121E+02 -0.18766364052E+02 -0.46574935504E+02  0.77590817476E+02  0.00000000000E+00 0. -1.
         11    1    1    2    0    0 -0.35000596936E+02  0.20424608925E+02  0.34703286895E+02  0.53352830824E+02  0.00000000000E+00 0.  1.
</event>
<event>
 7    1  0.2723366E-009  0.9650779E+02  0.7561462E-02  0.1287816E+00
          1   -1    0    0  501    0  0.00000000000E+00  0.00000000000E+00  0.12838854929E+03  0.12838854929E+03  0.00000000000E+00 0. -1.
         -1   -1    0    0    0  501 -0.00000000000E+00 -0.00000000000E+00 -0.13474584632E+03  0.13474584632E+03  0.00000000000E+00 0.  1.
         25    2    1    2    0    0 -0.45992377386E+02  0.58853689376E+02 -0.42170952281E+01  0.14575032757E+03  0.12508524519E+03 0.  0.
          5    1    3    3  502    0 -0.34888948419E+02  0.56326445018E+02  0.54438145091E+02  0.85853894327E+02  0.41800000000E+01 0.  1.
         -5    1    3    3    0  502 -0.11103428967E+02  0.25272443586E+01 -0.58655240319E+02  0.59896433247E+02  0.41800000000E+01 0.  1.
        -11    1    1    2    0    0  0.42517756234E+02  0.11509638595E+02  0.11728721546E+02  0.45582828838E+02  0.00000000000E+00 0. -1.
         11    1    1    2    0    0  0.34746211519E+01 -0.70363327971E+02 -0.13868923344E+02  0.71801239196E+02  0.00000000000E+00 0.  1.
</event>
<event>
 7    1  0.2723366E-009  0.8348950E+02  0.7561462E-02  0.1319431E+00
         -3   -1    0    0    0  501 -0.00000000000E+00  0.00000000000E+00  0.75936080322E+02  0.75936080322E+02  0.00000000000E+00 0.  1.
          3   -1    0    0  501    0  0.00000000000E+00 -0.00000000000E+00 -0.16104518617E+03  0.16104518617E+03  0.00000000000E+00 0. -1.
         25    2    1    2    0    0  0.19089252705E+01 -0.61987041465E+01 -0.28619516887E+02  0.12849743427E+03  0.12510174234E+03 0.  0.
          5    1    3    3  502    0 -0.52609146177E+02 -0.30534475118E+02  0.25362773280E+01  0.61024433917E+02  0.41800000000E+01 0. -1.
         -5    1    3    3    0  502  0.54518071447E+02  0.24335770972E+02 -0.31155794215E+02  0.67473000351E+02  0.41800000000E+01 0. -1.
        -11    1    1    2    0    0 -0.21265298256E+02 -0.73848602999E+01  0.18949717828E+02  0.29425174210E+02  0.00000000000E+00 0.  1.
         11    1    1    2    0    0  0.19356372985E+02  0.13583564446E+02 -0.75439306789E+02  0.79058658014E+02  0.00000000000E+00 0. -1.
</event>
<event>
 7    1  0.2723366E-009  0.1129740E+03  0.7561462E-02  0.1255159E+00
         -3   -1    0    0    0  501 -0.00000000000E+00  0.00000000000E+00  0.17484373453E+03  0.17484373453E+03  0.00000000000E+00 0.  1.
          3   -1    0    0  501    0  0.00000000000E+00 -0.00000000000E+00 -0.85928863342E+02  0.85928863342E+02  0.00000000000E+00 0. -1.
         25    2    1    2    0    0  0.20618295874E+02 -0.40317801444E+02  0.12705350249E+02  0.13363937040E+03  0.12508963250E+03 0.  0.
          5    1    3    3  502    0 -0.36571536624E+02 -0.55271784808E+02  0.28570187406E+02  0.72292292088E+02  0.41800000000E+01 0.  1.
         -5    1    3    3    0  502  0.57189832497E+02  0.14953983364E+02 -0.15864837157E+02  0.61347078313E+02  0.41800000000E+01 0.  1.
        -11    1    1    2    0    0  0.33978946962E+02  0.28661930671E+02  0.44637000754E+02  0.62996324835E+02  0.00000000000E+00 0.  1.
         11    1    1    2    0    0 -0.54597242836E+02  0.11655870773E+02  0.31572520183E+02  0.64136902634E+02  0.00000000000E+00 0. -1.
</event>
<event>
 7    1  0.2723366E-009  0.1001352E+03  0.7561462E-02  0.1280012E+00
         -2   -1    0    0    0  501 -0.00000000000E+00  0.00000000000E+00  0.66448382604E+02  0.66448382604E+02  0.00000000000E+00 0.  1.
          2   -1    0    0  501    0  0.00000000000E+00 -0.00000000000E+00 -0.19027883072E+03  0.19027883072E+03  0.00000000000E+00 0. -1.
         25    2    1    2    0    0  0.24724302839E+02 -0.30085376894E+00 -0.60081368086E+02  0.14096137625E+03  0.12509579185E+03 0.  0.
          5    1    3    3  502    0  0.30345363965E+02  0.59677235434E+02 -0.33599171027E+02  0.75023931095E+02  0.41800000000E+01 0. -1.
         -5    1    3    3    0  502 -0.56210611260E+01 -0.59978089202E+02 -0.26482197059E+02  0.65937445156E+02  0.41800000000E+01 0. -1.
        -11    1    1    2    0    0  0.98766995026E+01  0.27225996549E+02  0.94297328850E+01  0.30458561086E+02  0.00000000000E+00 0.  1.
         11    1    1    2    0    0 -0.34601002342E+02 -0.26925142780E+02 -0.73178812917E+02  0.85307275990E+02  0.00000000000E+00 0. -1.
</event>
<event>
 7    1  0.2723366E-009  0.1167094E+03  0.7561462E-02  0.1248626E+00
          2   -1    0    0  501    0  0.00000000000E+00  0.00000000000E+00  0.18586157989E+03  0.18586157989E+03  0.00000000000E+00 0. -1.
         -2   -1    0    0    0  501 -0.00000000000E+00 -0.00000000000E+00 -0.11269271496E+03  0.11269271496E+03  0.00000000000E+00 0.  1.
         25    2    1    2    0    0 -0.93572753848E+02  0.36894194422E+01  0.57008860935E+02  0.16633342549E+03  0.12508927265E+03 0.  0.
          5    1    3    3  502    0  0.20162318883E+02  0.12739597944E+02 -0.17610514204E+02  0.29940258334E+02  0.41800000000E+01 0.  1.
         -5    1    3    3    0  502 -0.11373507273E+03 -0.90501785019E+01  0.74619375139E+02  0.13639316715E+03  0.41800000000E+01 0.  1.
        -11    1    1    2    0    0  0.72211752460E+02  0.40226325709E+01  0.52498756821E+02  0.89369112303E+02  0.00000000000E+00 0. -1.
         11    1    1    2    0    0  0.21361001389E+02 -0.77120520131E+01 -0.36338752820E+02  0.42851757059E+02  0.00000000000E+00 0.  1.
</event>
<event>
 7    1  0.2723366E-009  0.1132330E+03  0.7561462E-02  0.1254697E+00
          1   -1    0    0  501    0  0.00000000000E+00  0.00000000000E+00  0.15170984437E+03  0.15170984437E+03  0.00000000000E+00 0. -1.
         -1   -1    0    0    0  501 -0.00000000000E+00 -0.00000000000E+00 -0.94768530049E+02  0.94768530049E+02  0.00000000000E+00 0.  1.
         25    2    1    2    0    0 -0.40537850861E+02  0.27927992154E+02  0.33520758817E+02  0.13854332757E+03  0.12508925711E+03 0.  0.
          5    1    3    3  502    0 -0.38041309970E+01 -0.43751809301E+02 -0.12281088043E+02  0.45792900686E+02  0.41800000000E+01 0.  1.
         -5    1    3    3    0  502 -0.36733719864E+02  0.71679801455E+02  0.45801846860E+02  0.92750426886E+02  0.41800000000E+01 0.  1.
        -11    1    1    2    0    0  0.35040803063E+02 -0.59824505266E+02  0.28889611695E+02  0.75109513203E+02  0.00000000000E+00 0. -1.
         11    1    1    2    0    0  0.54970477984E+01  0.31896513112E+02 -0.54690561936E+01  0.32825533642E+02  0.00000000000E+00 0.  1.
</event>
<event>
 7    1  0.2723366E-009  0.6437286E+02  0.7561462E-02  0.1380346E+00
         -1   -1    0    0    0  501 -0.00000000000E+00  0.00000000000E+00  0.52461368715E+02  0.52461368715E+02  0.00000000000E+00 0.  1.
          1   -1    0    0  501    0  0.00000000000E+00 -0.00000000000E+00 -0.23940926819E+03  0.23940926819E+03  0.00000000000E+00 0. -1.
         25    2    1    2    0    0  0.18222562061E+02 -0.65408998044E+01 -0.11996214923E+03  0.17439109032E+03  0.12508593046E+03 0.  0.
          5    1    3    3  502    0 -0.15080145132E+02  0.11103719646E+02 -0.13293605062E+03  0.13431369745E+03  0.41800000000E+01 0. -1.
         -5    1    3    3    0  502  0.33302707193E+02 -0.17644619450E+02  0.12973901397E+02  0.40077392872E+02  0.41800000000E+01 0. -1.
        -11    1    1    2    0    0  0.40041677278E+00  0.36424688460E+02  0.55516177165E+01  0.36847506324E+02  0.00000000000E+00 0.  1.
         11    1    1    2    0    0 -0.18622978834E+02 -0.29883788656E+02 -0.72537367961E+02  0.80632040256E+02  0.00000000000E+00 0. -1.
</event>
<event>
 7    1  0.2723366E-009  0.2529849E+03  0.7561462E-02  0.1111433E+00
          3   -1    0    0  501    0  0.00000000000E+00  0.00000000000E+00  0.33584895362E+02  0.33584895362E+02  0.00000000000E+00 0. -1.
         -3   -1    0    0    0  501 -0.00000000000E+00 -0.00000000000E+00 -0.20820425260E+04  0.20820425260E+04  0.00000000000E+00 0.  1.
         25    2    1    2    0    0 -0.23266050828E+03  0.64131769500E+02 -0.10200060568E+04  0.10556054187E+04  0.12508656232E+03 0.  0.
          5    1    3    3  502    0 -0.10994196909E+03 -0.23833286106E+02 -0.56742393931E+03  0.57848306924E+03  0.41800000000E+01 0. -1.
         -5    1    3    3    0  502 -0.12271853919E+03  0.87965055606E+02 -0.45258211752E+03  0.47712234947E+03  0.41800000000E+01 0. -1.
        -11    1    1    2    0    0  0.12386476015E+03 -0.22676046508E+02 -0.70720866026E+03  0.71833193653E+03  0.00000000000E+00 0.  1.
         11    1    1    2    0    0  0.10879574813E+03 -0.41455722993E+02 -0.32124291353E+03  0.34169006610E+03  0.00000000000E+00 0. -1.
</event>
<event>
 7    1  0.2723366E-009  0.1141003E+03  0.7561462E-02  0.1253160E+00
         -2   -1    0    0    0  501 -0.00000000000E+00  0.00000000000E+00  0.38641181386E+02  0.38641181386E+02  0.00000000000E+00 0.  1.
          2   -1    0    0  501    0  0.00000000000E+00 -0.00000000000E+00 -0.41467097447E+03  0.41467097447E+03  0.00000000000E+00 0. -1.
         25    2    1    2    0    0  0.63471553313E+02 -0.45552633652E+01 -0.26202114299E+03  0.29724127191E+03  0.12509158983E+03 0.  0.
          5    1    3    3  502    0  0.89712848619E+02  0.19776583386E+02 -0.12270188827E+03  0.15333862606E+03  0.41800000000E+01 0. -1.
         -5    1    3    3    0  502 -0.26241295306E+02 -0.24331846751E+02 -0.13931925472E+03  0.14390264584E+03  0.41800000000E+01 0. -1.
        -11    1    1    2    0    0 -0.56519845559E+02  0.36655115629E+02 -0.99512781738E+02  0.12017022998E+03  0.00000000000E+00 0.  1.
         11    1    1    2    0    0 -0.69517077531E+01 -0.32099852264E+02 -0.14495868354E+02  0.35900653969E+02  0.00000000000E+00 0. -1.
</event>
<event>
 7    1  0.2723366E-009  0.7101972E+02  0.7561462E-02  0.1356659E+00
          2   -1    0    0  501    0  0.00000000000E+00  0.00000000000E+00  0.38534542297E+02  0.38534542297E+02  0.00000000000E+00 0. -1.
         -2   -1    0    0    0  501 -0.00000000000E+00 -0.00000000000E+00 -0.38308813381E+03  0.38308813381E+03  0.00000000000E+00 0.  1.
         25    2    1    2    0    0 -0.37181166789E+02  0.42107442311E+01 -0.26394048616E+03  0.29446842801E+03  0.12508759063E+03 0.  0.
          5    1    3    3  502    0  0.12449133394E+02 -0.18900492375E+02 -0.22729190440E+03  0.22845413487E+03  0.41800000000E+01 0. -1.
         -5    1    3    3    0  502 -0.49630300183E+02  0.23111236606E+02 -0.36648581760E+02  0.66014293140E+02  0.41800000000E+01 0. -1.
        -11    1    1    2    0    0  0.13781328718E+02  0.23871584669E+02  0.10097657750E+02  0.29355412923E+02  0.00000000000E+00 0. -1.
         11    1    1    2    0    0  0.23399838071E+02 -0.28082328900E+02 -0.90710763099E+02  0.97798835167E+02  0.00000000000E+00 0.  1.
</event>
<event>
 7    1  0.2723366E-009  0.8322450E+02  0.7561462E-02  0.1320142E+00
          1   -1    0    0  501    0  0.00000000000E+00  0.00000000000E+00  0.69434657772E+03  0.69434657772E+03  0.00000000000E+00 0. -1.
         -1   -1    0    0    0  501 -0.00000000000E+00 -0.00000000000E+00 -0.33625766778E+02  0.33625766778E+02  0.00000000000E+00 0.  1.
         25    2    1    2    0    0  0.69025502377E+02  0.29270523647E+02  0.55246650801E+03  0.57139166617E+03  0.12509160707E+03 0.  0.
          5    1    3    3  502    0  0.64879849096E+02  0.41769166498E+02  0.15042651706E+03  0.16911436227E+03  0.41800000000E+01 0.  1.
         -5    1    3    3    0  502  0.41456532812E+01 -0.12498642851E+02  0.40203999095E+03  0.40227730391E+03  0.41800000000E+01 0.  1.
        -11    1    1    2    0    0 -0.43194419486E+02 -0.14289729432E+02  0.12777397080E+01  0.45514688407E+02  0.00000000000E+00 0.  1.
         11    1    1    2    0    0 -0.25831082891E+02 -0.14980794215E+02  0.10697656322E+03  0.11106598992E+03  0.00000000000E+00 0. -1.
</event>
<event>
 7    1  0.2723366E-009  0.1729113E+03  0.7561462E-02  0.1174845E+00
          1   -1    0    0  501    0  0.00000000000E+00  0.00000000000E+00  0.33468272341E+03  0.33468272341E+03  0.00000000000E+00 0. -1.
         -1   -1    0    0    0  501 -0.00000000000E+00 -0.00000000000E+00 -0.11994196523E+03  0.11994196523E+03  0.00000000000E+00 0.  1.
         25    2    1    2    0    0 -0.14727835094E+03  0.48575597687E+02  0.18620640938E+03  0.27271047327E+03  0.12509066307E+03 0.  0.
          5    1    3    3  502    0 -0.33184892040E+02  0.67045917244E+02  0.35966847811E+02  0.83111242442E+02  0.41800000000E+01 0.  1.
         -5    1    3    3    0  502 -0.11409345890E+03 -0.18470319557E+02  0.15023956157E+03  0.18959923083E+03  0.41800000000E+01 0.  1.
        -11    1    1    2    0    0  0.10682517362E+03 -0.31894411812E+02 -0.23491796605E+02  0.11393303178E+03  0.00000000000E+00 0.  1.
         11    1    1    2    0    0  0.40453177322E+02 -0.16681185876E+02  0.52026145400E+02  0.67981183594E+02  0.00000000000E+00 0. -1.
</event>
<event>
 7    1  0.2723366E-009  0.2760844E+03  0.7561462E-02  0.1097847E+00
         -1   -1    0    0    0  501 -0.00000000000E+00  0.00000000000E+00  0.51929309732E+02  0.51929309732E+02  0.00000000000E+00 0.  1.
          1   -1    0    0  501    0  0.00000000000E+00 -0.00000000000E+00 -0.15800327704E+04  0.15800327704E+04  0.00000000000E+00 0. -1.
         25    2    1    2    0    0 -0.11267210221E+03  0.23779515503E+03 -0.69443402219E+03  0.75307909921E+03  0.12509188670E+03 0.  0.
          5    1    3    3  502    0 -0.12297773232E+03  0.16070456373E+03 -0.58289823893E+03  0.61703914689E+03  0.41800000000E+01 0. -1.
         -5    1    3    3    0  502  0.10305630102E+02  0.77090591307E+02 -0.11153578326E+03  0.13603995232E+03  0.41800000000E+01 0. -1.
        -11    1    1    2    0    0  0.41322740106E+02 -0.27067949048E+02 -0.23680886032E+03  0.24190634353E+03  0.00000000000E+00 0. -1.
         11    1    1    2    0    0  0.71349362108E+02 -0.21072720599E+03 -0.59686057815E+03  0.63697663737E+03  0.00000000000E+00 0.  1.
</event>
<event>
 7    1  0.2723366E-009  0.7458304E+02  0.7561462E-02  0.1345167E+00
         -2   -1    0    0    0  501 -0.00000000000E+00  0.00000000000E+00  0.75333802520E+02  0.75333802520E+02  0.00000000000E+00 0.  1.
          2   -1    0    0  501    0  0.00000000000E+00 -0.00000000000E+00 -0.21848279360E+03  0.21848279360E+03  0.00000000000E+00 0. -1.
         25    2    1    2    0    0 -0.34520077927E+02  0.23887680973E+02 -0.14038148579E+03  0.19265766125E+03  0.12509099010E+03 0.  0.
          5    1    3    3  502    0 -0.52362163374E+02  0.38204171113E+02 -0.17050097282E+02  0.67153056974E+02  0.41800000000E+01 0. -1.
         -5    1    3    3    0  502  0.17842085447E+02 -0.14316490140E+02 -0.12333138851E+03  0.12550460428E+03  0.41800000000E+01 0. -1.
        -11    1    1    2    0    0  0.27997840258E+01 -0.28734492162E+02  0.38978099108E+02  0.48505690805E+02  0.00000000000E+00 0.  1.
         11    1    1    2    0    0  0.31720293901E+02  0.48468111886E+01 -0.41745604393E+02  0.52653244060E+02  0.00000000000E+00 0. -1.
</event>
<event>
 7    1  0.2723366E-009  0.1337393E+03  0.7561462E-02  0.1222010E+00
         -1   -1    0    0    0  501 -0.00000000000E+00  0.00000000000E+00  0.10900438758E+03  0.10900438758E+03  0.00000000000E+00 0.  1.
          1   -1    0    0  501    0  0.00000000000E+00 -0.00000000000E+00 -0.23490756964E+03  0.23490756964E+03  0.00000000000E+00 0. -1.
         25    2    1    2    0    0 -0.10424982366E+03  0.11783439286E+02 -0.11072832477E+02  0.16363673767E+03  0.12508996411E+03 0.  0.
          5    1    3    3  502    0 -0.21631722275E+02 -0.49128911358E+02  0.18168715738E+02  0.56825662965E+02  0.41800000000E+01 0. -1.
         -5    1    3    3    0  502 -0.82618101387E+02  0.60912350644E+02 -0.29241548215E+02  0.10681107471E+03  0.41800000000E+01 0. -1.
        -11    1    1    2    0    0  0.64159482650E+02  0.10538937215E+02 -0.99236881162E+01  0.65772243365E+02  0.00000000000E+00 0.  1.
         11    1    1    2    0    0  0.40090341012E+02 -0.22322376501E+02 -0.10490666147E+03  0.11450297618E+03  0.00000000000E+00 0. -1.
</event>
<event>
 7    1  0.2723366E-009  0.1977338E+03  0.7561462E-02  0.1151665E+00
          1   -1    0    0  501    0  0.00000000000E+00  0.00000000000E+00  0.19552691202E+03  0.19552691202E+03  0.00000000000E+00 0. -1.
         -1   -1    0    0    0  501 -0.00000000000E+00 -0.00000000000E+00 -0.22384674478E+03  0.22384674478E+03  0.00000000000E+00 0.  1.
         25    2    1    2    0    0 -0.10700305657E+03 -0.13284119508E+03 -0.66499419111E+02  0.22173738250E+03  0.12509539093E+03 0.  0.
          5    1    3    3  502    0 -0.86576174909E+02 -0.11955961225E+02 -0.40147175414E+02  0.96268619832E+02  0.41800000000E+01 0. -1.
         -5    1    3    3    0  502 -0.20426881657E+02 -0.12088523386E+03 -0.26352243697E+02  0.12546876267E+03  0.41800000000E+01 0. -1.
        -11    1    1    2    0    0  0.17481543249E+02  0.78833699500E+02  0.45755389411E+02  0.92811164153E+02  0.00000000000E+00 0. -1.
         11    1    1    2    0    0  0.89521513317E+02  0.54007495579E+02 -0.75758030655E+01  0.10482511015E+03  0.00000000000E+00 0.  1.
</event>
<event>
 7    1  0.2723366E-009  0.5141891E+02  0.7561462E-02  0.1437835E+00
         -2   -1    0    0    0  501 -0.00000000000E+00  0.00000000000E+00  0.28829491387E+02  0.28829491387E+02  0.00000000000E+00 0.  1.
          2   -1    0    0  501    0  0.00000000000E+00 -0.00000000000E+00 -0.44183033275E+03  0.44183033275E+03  0.00000000000E+00 0. -1.
         25    2    1    2    0    0 -0.55657420845E+01  0.18262227578E+02 -0.28713094398E+03  0.31377866897E+03  0.12509351570E+03 0.  0.
          5    1    3    3  502    0 -0.24111046748E+00  0.27583471626E+02 -0.15256274620E+01  0.27941116305E+02  0.41800000000E+01 0. -1.
         -5    1    3    3    0  502 -0.53246316170E+01 -0.93212440480E+01 -0.28560531652E+03  0.28583755267E+03  0.41800000000E+01 0. -1.
        -11    1    1    2    0    0 -0.11493403248E+02  0.19130826941E+02  0.21540288776E+01  0.22421567699E+02  0.00000000000E+00 0.  1.
         11    1    1    2    0    0  0.17059145332E+02 -0.37393054519E+02 -0.12802392627E+03  0.13445958747E+03  0.00000000000E+00 0. -1.
</event>
<event>
 7    1  0.2723366E-009  0.1682808E+03  0.7561462E-02  0.1179653E+00
          2   -1    0    0  501    0  0.00000000000E+00  0.00000000000E+00  0.38738906154E+03  0.38738906154E+03  0.00000000000E+00 0. -1.
         -2   -1    0    0    0  501 -0.00000000000E+00 -0.00000000000E+00 -0.99693149843E+02  0.99693149843E+02  0.00000000000E+00 0.  1.
         25    2    1    2    0    0  0.13841436629E+03  0.82194945698E+02  0.18293618226E+03  0.27391006482E+03  0.12508609409E+03 0.  0.
          5    1    3    3  502    0  0.92081643734E+02  0.85752844624E+02  0.54362180252E+02  0.13713241235E+03  0.41800000000E+01 0. -1.
         -5    1    3    3    0  502  0.46332722556E+02 -0.35578989261E+01  0.12857400201E+03  0.13677765247E+03  0.41800000000E+01 0. -1.
        -11    1    1    2    0    0 -0.52006287159E+02 -0.13797592144E+02  0.85911370054E+02  0.10136957609E+03  0.00000000000E+00 0.  1.
         11    1    1    2    0    0 -0.86408079132E+02 -0.68397353553E+02  0.18848359386E+02  0.11180257047E+03  0.00000000000E+00 0. -1.
</event>
<event>
 7    1  0.2723366E-009  0.1241982E+03  0.7561462E-02  0.1236328E+00
          1   -1    0    0  501    0  0.00000000000E+00  0.00000000000E+00  0.67862744990E+02  0.67862744990E+02  0.00000000000E+00 0. -1.
         -1   -1    0    0    0  501 -0.00000000000E+00 -0.00000000000E+00 -0.36381439965E+03  0.36381439965E+03  0.00000000000E+00 0.  1.
         25    2    1    2    0    0  0.26932771185E+02 -0.10299410342E+03 -0.21448888781E+03  0.27015931236E+03  0.12508961411E+03 0.  0.
          5    1    3    3  502    0 -0.40831983540E+01  0.24288659553E+01  0.14671693932E+02  0.15978200821E+02  0.41800000000E+01 0. -1.
         -5    1    3    3    0  502  0.31015969539E+02 -0.10542296938E+03 -0.22916058175E+03  0.25418111154E+03  0.41800000000E+01 0. -1.
        -11    1    1    2    0    0 -0.51742088785E+02  0.90673244323E+02 -0.83585443884E+02  0.13373633544E+03  0.00000000000E+00 0.  1.
         11    1    1    2    0    0  0.24809317600E+02  0.12320859097E+02  0.21226770366E+01  0.27781496836E+02  0.00000000000E+00 0. -1.
</event>
<event>
 7    1  0.2723366E-009  0.1138445E+03  0.7561462E-02  0.1253612E+00
         -2   -1    0    0    0  501 -0.00000000000E+00  0.00000000000E+00  0.76833606177E+02  0.76833606177E+02  0.00000000000E+00 0.  1.
          2   -1    0    0  501    0  0.00000000000E+00 -0.00000000000E+00 -0.33505484735E+03  0.33505484735E+03  0.00000000000E+00 0. -1.
         25    2    1    2    0    0  0.75461772546E+02  0.39553187585E+02 -0.24263234454E+03  0.28596675168E+03  0.12509034608E+03 0.  0.
          5    1    3    3  502    0  0.66801012757E+02  0.43450299962E+01 -0.35975169527E+02  0.76111364549E+02  0.41800000000E+01 0. -1.
         -5    1    3    3    0  502  0.86607597895E+01  0.35208157588E+02 -0.20665717502E+03  0.20985538713E+03  0.41800000000E+01 0. -1.
        -11    1    1    2    0    0 -0.10588196549E+02 -0.56163092945E+02  0.55146058703E-01  0.57152479880E+02  0.00000000000E+00 0.  1.
         11    1    1    2    0    0 -0.64873575997E+02  0.16609905360E+02 -0.15644042688E+02  0.68769221970E+02  0.00000000000E+00 0. -1.
</event>
<event>
 7    1  0.2723366E-009  0.1341326E+03  0.7561462E-02  0.1221449E+00
          3   -1    0    0  501    0  0.00000000000E+00  0.00000000000E+00  0.19223416375E+03  0.19223416375E+03  0.00000000000E+00 0. -1.
         -3   -1    0    0    0  501 -0.00000000000E+00 -0.00000000000E+00 -0.11290088115E+03  0.11290088115E+03  0.00000000000E+00 0.  1.
         25    2    1    2    0    0 -0.17145815227E+02 -0.85020289140E+02  0.92247264959E+02  0.17798719950E+03  0.12508979474E+03 0.  0.
          5    1    3    3  502    0  0.53741543427E+02 -0.33161731375E+02  0.48746670501E+02  0.79884693169E+02  0.41800000000E+01 0.  1.
         -5    1    3    3    0  502 -0.70887358654E+02 -0.51858557765E+02  0.43500594458E+02  0.98102506332E+02  0.41800000000E+01 0.  1.
        -11    1    1    2    0    0  0.26920350881E+02  0.97526712729E+02  0.73111647633E+01  0.10143775489E+03  0.00000000000E+00 0. -1.
         11    1    1    2    0    0 -0.97745356545E+01 -0.12506423589E+02 -0.20225147115E+02  0.25710090511E+02  0.00000000000E+00 0.  1.
</event>
<event>
 7    1  0.2723366E-009  0.6217446E+02  0.7561462E-02  0.1388927E+00
          1   -1    0    0  501    0  0.00000000000E+00  0.00000000000E+00  0.10474590733E+03  0.10474590733E+03  0.00000000000E+00 0. -1.
         -1   -1    0    0    0  501 -0.00000000000E+00 -0.00000000000E+00 -0.14036184868E+03  0.14036184868E+03  0.00000000000E+00 0.  1.
         25    2    1    2    0    0 -0.29512492565E+02  0.18232770094E+02  0.22799655929E+02  0.13179761202E+03  0.12508942842E+03 0.  0.
          5    1    3    3  502    0  0.22905725974E+01  0.22595881144E+02  0.70479727103E+02  0.74166602323E+02  0.41800000000E+01 0.  1.
         -5    1    3    3    0  502 -0.31803065163E+02 -0.43631110498E+01 -0.47680071175E+02  0.57631009700E+02  0.41800000000E+01 0.  1.
        -11    1    1    2    0    0  0.17543902311E+02  0.21290812923E+02 -0.65808892109E+02  0.71357532916E+02  0.00000000000E+00 0.  1.
         11    1    1    2    0    0  0.11968590255E+02 -0.39523583018E+02  0.73932948240E+01  0.41952611070E+02  0.00000000000E+00 0. -1.
</event>
<event>
 7    1  0.2723366E-009  0.9548069E+02  0.7561462E-02  0.1290097E+00
          1   -1    0    0  501    0  0.00000000000E+00  0.00000000000E+00  0.75736015753E+02  0.75736015753E+02  0.00000000000E+00 0. -1.
         -1   -1    0    0    0  501 -0.00000000000E+00 -0.00000000000E+00 -0.24908980614E+03  0.24908980614E+03  0.00000000000E+00 0.  1.
         25    2    1    2    0    0 -0.81464834533E+02  0.19008534135E+02 -0.83421047822E+02  0.17205966437E+03  0.12509042028E+03 0.  0.
          5    1    3    3  502    0 -0.28630086344E+02 -0.48322753199E+01  0.31645412419E+02  0.43150170984E+02  0.41800000000E+01 0. -1.
         -5    1    3    3    0  502 -0.52834748189E+02  0.23840809455E+02 -0.11506646024E+03  0.12890949338E+03  0.41800000000E+01 0. -1.
        -11    1    1    2    0    0  0.14094614922E+02  0.20899928721E+02  0.88463603132E+01  0.26715599959E+02  0.00000000000E+00 0. -1.
         11    1    1    2    0    0  0.67370219611E+02 -0.39908462857E+02 -0.98779102880E+02  0.12605055757E+03  0.00000000000E+00 0.  1.
</event>
<event>
 7    1  0.2723366E-009  0.1527409E+03  0.7561462E-02  0.1197145E+00
         -3   -1    0    0    0  501 -0.00000000000E+00  0.00000000000E+00  0.27090850209E+03  0.27090850209E+03  0.00000000000E+00 0.  1.
          3   -1    0    0  501    0  0.00000000000E+00 -0.00000000000E+00 -0.12292634114E+03  0.12292634114E+03  0.00000000000E+00 0. -1.
         25    2    1    2    0    0 -0.10909964338E+03  0.88969129058E+02  0.34161023307E+02  0.19139718941E+03  0.12509064909E+03 0.  0.
          5    1    3    3  502    0 -0.59653267239E+02  0.84216936326E+02  0.74432206234E+02  0.12731311944E+03  0.41800000000E+01 0.  1.
         -5    1    3    3    0  502 -0.49446376144E+02  0.47521927316E+01 -0.40271182927E+02  0.64084069970E+02  0.41800000000E+01 0.  1.
        -11    1    1    2    0    0  0.60171732270E+02 -0.12336305108E+02  0.89092868827E+02  0.10821442170E+03  0.00000000000E+00 0.  1.
         11    1    1    2    0    0  0.48927911114E+02 -0.76632823950E+02  0.24728268819E+02  0.94223232121E+02  0.00000000000E+00 0. -1.
</event>
<event>
 7    1  0.2723366E-009  0.9109744E+02  0.7561462E-02  0.1300216E+00
         -2   -1    0    0    0  501 -0.00000000000E+00  0.00000000000E+00  0.39429549666E+02  0.39429549666E+02  0.00000000000E+00 0.  1.
          2   -1    0    0  501    0  0.00000000000E+00 -0.00000000000E+00 -0.32277459656E+03  0.32277459656E+03  0.00000000000E+00 0. -1.
         25    2    1    2    0    0 -0.24229247891E-02  0.10922764591E+02 -0.17910618119E+03  0.21873675712E+03  0.12508971974E+03 0.  0.
          5    1    3    3  502    0 -0.46780528000E+02 -0.92448439963E+01 -0.15500470786E+03  0.16222766965E+03  0.41800000000E+01 0. -1.
         -5    1    3    3    0  502  0.46778105075E+02  0.20167608588E+02 -0.24101473329E+02  0.56509087475E+02  0.41800000000E+01 0. -1.
        -11    1    1    2    0    0  0.41188512915E+02 -0.32127855569E+01 -0.13403696597E+02  0.43433566163E+02  0.00000000000E+00 0.  1.
         11    1    1    2    0    0 -0.41186089990E+02 -0.77099790345E+01 -0.90835169103E+02  0.10003382294E+03  0.00000000000E+00 0. -1.
</event>
<event>
 7    1  0.2723366E-009  0.1131950E+03  0.7561462E-02  0.1254765E+00
          2   -1    0    0  501    0  0.00000000000E+00  0.00000000000E+00  0.12222823057E+03  0.12222823057E+03  0.00000000000E+00 0. -1.
         -2   -1    0    0    0  501 -0.00000000000E+00 -0.00000000000E+00 -0.12132650767E+03  0.12132650767E+03  0.00000000000E+00 0.  1.
         25    2    1    2    0    0  0.54472639670E+02 -0.14225856896E+02  0.40165294704E+00  0.13717283292E+03  0.12508629537E+03 0.  0.
          5    1    3    3  502    0  0.38031461553E+02  0.45092244531E+02  0.32655766913E+02  0.67554230788E+02  0.41800000000E+01 0. -1.
         -5    1    3    3    0  502  0.16441178117E+02 -0.59318101426E+02 -0.32254113966E+02  0.69618602129E+02  0.41800000000E+01 0. -1.
        -11    1    1    2    0    0  0.19439796962E+02  0.24127159888E+02  0.61750058577E+01  0.31593610865E+02  0.00000000000E+00 0. -1.
         11    1    1    2    0    0 -0.73912436632E+02 -0.99013029920E+01 -0.56749359100E+01  0.74788294454E+02  0.00000000000E+00 0.  1.
</event>
<event>
 7    1  0.2723366E-009  0.1761992E+03  0.7561462E-02  0.1171533E+00
         -2   -1    0    0    0  501 -0.00000000000E+00  0.00000000000E+00  0.45255833939E+02  0.45255833939E+02  0.00000000000E+00 0.  1.
          2   -1    0    0  501    0  0.00000000000E+00 -0.00000000000E+00 -0.82885123797E+03  0.82885123797E+03  0.00000000000E+00 0. -1.
         25    2    1    2    0    0 -0.15615158357E+03  0.25037202624E+02 -0.35999783305E+03  0.41262110995E+03  0.12509021548E+03 0.  0.
          5    1    3    3  502    0 -0.93605204054E+02  0.65811703851E+02 -0.28300137108E+03  0.30528734501E+03  0.41800000000E+01 0. -1.
         -5    1    3    3    0  502 -0.62546379518E+02 -0.40774501227E+02 -0.76996461977E+02  0.10733376495E+03  0.41800000000E+01 0. -1.
        -11    1    1    2    0    0  0.61319042956E+02  0.97813181573E+01 -0.69217504006E+02  0.92987967365E+02  0.00000000000E+00 0.  1.
         11    1    1    2    0    0  0.94832540615E+02 -0.34818520781E+02 -0.35438006698E+03  0.36849799459E+03  0.00000000000E+00 0. -1.
</event>
<event>
 7    1  0.2723366E-009  0.1013585E+03  0.7561462E-02  0.1277465E+00
         -1   -1    0    0    0  501 -0.00000000000E+00  0.00000000000E+00  0.11758625451E+02  0.11758625451E+02  0.00000000000E+00 0.  1.
          1   -1    0    0  501    0  0.00000000000E+00 -0.00000000000E+00 -0.15845603270E+04  0.15845603270E+04  0.00000000000E+00 0. -1.
         25    2    1    2    0    0  0.12467178896E+02  0.33293112670E+02 -0.13377791641E+04  0.13440850502E+04  0.12509064123E+03 0.  0.
          5    1    3    3  502    0  0.97761899837E+01  0.76603520746E+02 -0.10689519741E+04  0.10717459907E+04  0.41800000000E+01 0.  1.
         -5    1    3    3    0  502  0.26909889125E+01 -0.43310408076E+02 -0.26882719000E+03  0.27233905955E+03  0.41800000000E+01 0.  1.
        -11    1    1    2    0    0  0.28881661258E+02 -0.29604423998E+00 -0.14474399164E+03  0.14759763249E+03  0.00000000000E+00 0. -1.
         11    1    1    2    0    0 -0.41348840154E+02 -0.32997068430E+02 -0.90278545876E+02  0.10463626978E+03  0.00000000000E+00 0.  1.
</event>
<event>
 7    1  0.2723366E-009  0.1241883E+03  0.7561462E-02  0.1236343E+00
          2   -1    0    0  501    0  0.00000000000E+00  0.00000000000E+00  0.14915745769E+03  0.14915745769E+03  0.00000000000E+00 0.  1.
         -2   -1    0    0    0  501 -0.00000000000E+00 -0.00000000000E+00 -0.11602723872E+03  0.11602723872E+03  0.00000000000E+00 0. -1.
         25    2    1    2    0    0 -0.72831766584E+02 -0.58222655211E+01  0.38476095103E+02  0.14988768628E+03  0.12509014192E+03 0.  0.
          5    1    3    3  502    0 -0.85303219730E+02  0.33554126903E+02 -0.21720458652E+01  0.91786213081E+02  0.41800000000E+01 0.  1.
         -5    1    3    3    0  502  0.12471453146E+02 -0.39376392424E+02  0.40648140968E+02  0.58101473201E+02  0.41800000000E+01 0.  1.
        -11    1    1    2    0    0  0.64483022075E+02 -0.35044202732E+02 -0.14478806074E+01  0.73404718100E+02  0.00000000000E+00 0.  1.
         11    1    1    2    0    0  0.83487445088E+01  0.40866468253E+02 -0.38979955181E+01  0.41892292029E+02  0.00000000000E+00 0. -1.
</event>
<event>
 7    1  0.2723366E-009  0.8668824E+02  0.7561462E-02  0.1311076E+00
          2   -1    0    0  501    0  0.00000000000E+00  0.00000000000E+00  0.34935931335E+03  0.34935931335E+03  0.00000000000E+00 0.  1.
         -2   -1    0    0    0  501 -0.00000000000E+00 -0.00000000000E+00 -0.41300344596E+02  0.41300344596E+02  0.00000000000E+00 0. -1.
         25    2    1    2    0    0 -0.45478437695E+02  0.23602443334E+02  0.18228375392E+03  0.22693916019E+03  0.12509457166E+03 0.  0.
          5    1    3    3  502    0 -0.61535413180E+01  0.28279293421E+02 -0.97468468987E+01  0.30823009776E+02  0.41800000000E+01 0.  1.
         -5    1    3    3    0  502 -0.39324896377E+02 -0.46768500874E+01  0.19203060082E+03  0.19611615042E+03  0.41800000000E+01 0.  1.
        -11    1    1    2    0    0 -0.22857056168E+01 -0.49789092451E+02  0.68071124430E+02  0.84367388003E+02  0.00000000000E+00 0. -1.
         11    1    1    2    0    0  0.47764143312E+02  0.26186649117E+02  0.57704090404E+02  0.79353109755E+02  0.00000000000E+00 0.  1.
</event>
<event>
 7    1  0.2723366E-009  0.1091929E+03  0.7561462E-02  0.1262072E+00
         -1   -1    0    0    0  501 -0.00000000000E+00  0.00000000000E+00  0.12094885638E+03  0.12094885638E+03  0.00000000000E+00 0. -1.
          1   -1    0    0  501    0  0.00000000000E+00 -0.00000000000E+00 -0.15808014877E+03  0.15808014877E+03  0.00000000000E+00 0.  1.
         25    2    1    2    0    0  0.49010112358E+02  0.42980006757E+02 -0.74908004439E+02  0.15971315181E+03  0.12509120527E+03 0.  0.
          5    1    3    3  502    0  0.64822423859E+02  0.55832236781E+02 -0.96975956680E+02  0.12938699267E+03  0.41800000000E+01 0.  1.
         -5    1    3    3    0  502 -0.15812311502E+02 -0.12852230024E+02  0.22067952241E+02  0.30326159133E+02  0.41800000000E+01 0.  1.
        -11    1    1    2    0    0 -0.55096390525E+02  0.12187513464E+02  0.10209189898E+02  0.57344357104E+02  0.00000000000E+00 0.  1.
         11    1    1    2    0    0  0.60862781672E+01 -0.55167520221E+02  0.27567522142E+02  0.61971496241E+02  0.00000000000E+00 0. -1.
</event>
<event>
 7    1  0.2723366E-009  0.8111406E+02  0.7561462E-02  0.1325919E+00
         -2   -1    0    0    0  501 -0.00000000000E+00  0.00000000000E+00  0.16729663767E+02  0.16729663767E+02  0.00000000000E+00 0.  1.
          2   -1    0    0  501    0  0.00000000000E+00 -0.00000000000E+00 -0.83933843471E+03  0.83933843471E+03  0.00000000000E+00 0. -1.
         25    2    1    2    0    0 -0.35066466710E+02  0.70312284012E+01 -0.52107928690E+03  0.53707617016E+03  0.12509234213E+03 0.  0.
          5    1    3    3  502    0  0.33857614663E+01 -0.18631167152E+02 -0.45976275888E+03  0.46017154478E+03  0.41800000000E+01 0.  1.
         -5    1    3    3    0  502 -0.38452228177E+02  0.25662395553E+02 -0.61316528024E+02  0.76904625389E+02  0.41800000000E+01 0.  1.
        -11    1    1    2    0    0 -0.20222963635E+02  0.25284758936E+02 -0.16555425300E+03  0.16869053909E+03  0.00000000000E+00 0. -1.
         11    1    1    2    0    0  0.55289430345E+02 -0.32315987338E+02 -0.13597523105E+03  0.15030138923E+03  0.00000000000E+00 0.  1.
</event>
<event>
 7    1  0.2723366E-009  0.1074486E+03  0.7561462E-02  0.1265369E+00
         -1   -1    0    0    0  501 -0.00000000000E+00  0.00000000000E+00  0.36114890995E+03  0.36114890995E+03  0.00000000000E+00 0.  1.
          1   -1    0    0  501    0  0.00000000000E+00 -0.00000000000E+00 -0.53040178203E+02  0.53040178203E+02  0.00000000000E+00 0. -1.
         25    2    1    2    0    0 -0.41272574840E+02 -0.50309008403E+02  0.25416571290E+03  0.29065498210E+03  0.12508272162E+03 0.  0.
          5    1    3    3  502    0 -0.21084920065E+02  0.30793083658E+02  0.21218516649E+02  0.43133347935E+02  0.41800000000E+01 0.  1.
         -5    1    3    3    0  502 -0.20187654775E+02 -0.81102092060E+02  0.23294719625E+03  0.24752163417E+03  0.41800000000E+01 0.  1.
        -11    1    1    2    0    0  0.35793656546E+02 -0.66791883198E+01  0.55365295188E+02  0.66265476055E+02  0.00000000000E+00 0.  1.
         11    1    1    2    0    0  0.54789182939E+01  0.56988196722E+02 -0.14222763395E+01  0.57268629993E+02  0.00000000000E+00 0. -1.
</event>
<event>
 7    1  0.2723366E-009  0.2490433E+03  0.7561462E-02  0.1113911E+00
          2   -1    0    0  501    0  0.00000000000E+00  0.00000000000E+00  0.95379677179E+03  0.95379677179E+03  0.00000000000E+00 0. -1.
         -2   -1    0    0    0  501 -0.00000000000E+00 -0.00000000000E+00 -0.76692257335E+02  0.76692257335E+02  0.00000000000E+00 0.  1.
         25    2    1    2    0    0 -0.20334287126E+03  0.10049136938E+03  0.63905246534E+03  0.68955232780E+03  0.12509005039E+03 0.  0.
          5    1    3    3  502    0  0.13870227382E+02 -0.41056989938E+01  0.18838288791E+02  0.24116249635E+02  0.41800000000E+01 0.  1.
         -5    1    3    3    0  502 -0.21721309864E+03  0.10459706837E+03  0.62021417655E+03  0.66543607817E+03  0.41800000000E+01 0.  1.
        -11    1    1    2    0    0  0.33450677660E+02  0.14812170096E+02  0.21115314966E+02  0.42239847833E+02  0.00000000000E+00 0.  1.
         11    1    1    2    0    0  0.16989219360E+03 -0.11530353947E+03  0.21693673415E+03  0.29869685349E+03  0.00000000000E+00 0. -1.
</event>
<event>
 7    1  0.2723366E-009  0.1763663E+03  0.7561462E-02  0.1171367E+00
          2   -1    0    0  501    0  0.00000000000E+00  0.00000000000E+00  0.91292109201E+03  0.91292109201E+03  0.00000000000E+00 0. -1.
         -2   -1    0    0    0  501 -0.00000000000E+00 -0.00000000000E+00 -0.39251561338E+02  0.39251561338E+02  0.00000000000E+00 0.  1.
         25    2    1    2    0    0  0.70991682447E+02 -0.13702962670E+03  0.42225043173E+03  0.46664721101E+03  0.12508898783E+03 0.  0.
          5    1    3    3  502    0  0.21079260033E+02 -0.13594564757E+03  0.36753628325E+03  0.39246139453E+03  0.41800000000E+01 0.  1.
         -5    1    3    3    0  502  0.49912422414E+02 -0.10839791308E+01  0.54714148480E+02  0.74185816473E+02  0.41800000000E+01 0.  1.
        -11    1    1    2    0    0  0.38813791874E+01  0.50187856195E+02  0.63595342836E+02  0.81106434050E+02  0.00000000000E+00 0. -1.
         11    1    1    2    0    0 -0.74873061634E+02  0.86841770506E+02  0.38782375611E+03  0.40441900829E+03  0.00000000000E+00 0.  1.
</event>
<event>
 7    1  0.2723366E-009  0.1360171E+03  0.7561462E-02  0.1218791E+00
          1   -1    0    0  501    0  0.00000000000E+00  0.00000000000E+00  0.65316957424E+03  0.65316957424E+03  0.00000000000E+00 0. -1.
         -1   -1    0    0    0  501 -0.00000000000E+00 -0.00000000000E+00 -0.40574187686E+02  0.40574187686E+02  0.00000000000E+00 0.  1.
         25    2    1    2    0    0 -0.13645741295E+02 -0.10638565203E+03  0.44853850036E+03  0.47784748408E+03  0.12508924223E+03 0.  0.
          5    1    3    3  502    0  0.20837111956E+02 -0.10153052893E+03  0.42003133197E+03  0.43265046605E+03  0.41800000000E+01 0.  1.
         -5    1    3    3    0  502 -0.34482853251E+02 -0.48551230988E+01  0.28507168389E+02  0.45197018023E+02  0.41800000000E+01 0.  1.
        -11    1    1    2    0    0  0.11346788329E+02 -0.11010965608E+02  0.49058158331E+02  0.51543126291E+02  0.00000000000E+00 0. -1.
         11    1    1    2    0    0  0.22989529660E+01  0.11739661764E+03  0.11499872786E+03  0.16435315156E+03  0.00000000000E+00 0.  1.
</event>
<event>
 7    1  0.2723366E-009  0.1151393E+03  0.7561462E-02  0.1251338E+00
          2   -1    0    0  501    0  0.00000000000E+00  0.00000000000E+00  0.78729061118E+03  0.78729061118E+03  0.00000000000E+00 0. -1.
         -2   -1    0    0    0  501 -0.00000000000E+00 -0.00000000000E+00 -0.22243547786E+02  0.22243547786E+02  0.00000000000E+00 0.  1.
         25    2    1    2    0    0  0.32315451367E+02 -0.62996854632E+02  0.55108258501E+03  0.56951929407E+03  0.12508924307E+03 0.  0.
          5    1    3    3  502    0  0.24599594869E+02  0.28482175918E+02  0.68546562010E+02  0.78310139676E+02  0.41800000000E+01 0. -1.
         -5    1    3    3    0  502  0.77158564979E+01 -0.91479030551E+02  0.48253602300E+03  0.49120915440E+03  0.41800000000E+01 0. -1.
        -11    1    1    2    0    0 -0.53137541161E+02  0.58835912335E+02  0.19850059354E+03  0.21374692628E+03  0.00000000000E+00 0. -1.
         11    1    1    2    0    0  0.20822089794E+02  0.41609422974E+01  0.15463884848E+02  0.26267938609E+02  0.00000000000E+00 0.  1.
</event>
<event>
 7    1  0.2723366E-009  0.1071812E+03  0.7561462E-02  0.1265881E+00
         -1   -1    0    0    0  501 -0.00000000000E+00  0.00000000000E+00  0.19320624363E+02  0.19320624363E+02  0.00000000000E+00 0.  1.
          1   -1    0    0  501    0  0.00000000000E+00 -0.00000000000E+00 -0.80263580051E+03  0.80263580051E+03  0.00000000000E+00 0. -1.
         25    2    1    2    0    0 -0.53499409247E+02  0.94567945553E+01 -0.52325792990E+03  0.54073750915E+03  0.12508626960E+03 0.  0.
          5    1    3    3  502    0  0.31055522403E+02 -0.51746109061E+01 -0.29740420243E+03  0.29909522579E+03  0.41800000000E+01 0.  1.
         -5    1    3    3    0  502 -0.84554931650E+02  0.14631405461E+02 -0.22585372748E+03  0.24164228336E+03  0.41800000000E+01 0.  1.
        -11    1    1    2    0    0  0.27205792781E+02  0.35428759165E+02 -0.18210304548E+03  0.18750165682E+03  0.00000000000E+00 0.  1.
         11    1    1    2    0    0  0.26293616466E+02 -0.44885553720E+02 -0.77954200768E+02  0.93717258907E+02  0.00000000000E+00 0. -1.
</event>
<event>
 7    1  0.2723366E-009  0.9423228E+02  0.7561462E-02  0.1292915E+00
         -2   -1    0    0    0  501 -0.00000000000E+00  0.00000000000E+00  0.17986772260E+03  0.17986772260E+03  0.00000000000E+00 0.  1.
          2   -1    0    0  501    0  0.00000000000E+00 -0.00000000000E+00 -0.71240239097E+02  0.71240239097E+02  0.00000000000E+00 0. -1.
         25    2    1    2    0    0  0.20268923251E+02  0.21961098045E+02  0.40480155572E+02  0.13483050157E+03  0.12508997594E+03 0.  0.
          5    1    3    3  502    0 -0.20621219988E+02  0.46108766818E+02 -0.22823439503E+02  0.55584484185E+02  0.41800000000E+01 0. -1.
         -5    1    3    3    0  502  0.40890143239E+02 -0.24147668774E+02  0.63303595075E+02  0.79246017381E+02  0.41800000000E+01 0. -1.
        -11    1    1    2    0    0 -0.19229083504E+02 -0.54377477365E+02  0.26453447276E+02  0.63454334523E+02  0.00000000000E+00 0. -1.
         11    1    1    2    0    0 -0.10398397471E+01  0.32416379320E+02  0.41693880654E+02  0.52823125607E+02  0.00000000000E+00 0.  1.
</event>
<event>
 7    1  0.2723366E-009  0.5356254E+02  0.7561462E-02  0.1427022E+00
         -3   -1    0    0    0  501 -0.00000000000E+00  0.00000000000E+00  0.58416071937E+03  0.58416071937E+03  0.00000000000E+00 0.  1.
          3   -1    0    0  501    0  0.00000000000E+00 -0.00000000000E+00 -0.23428554626E+02  0.23428554626E+02  0.00000000000E+00 0. -1.
         25    2    1    2    0    0 -0.17051590293E+02  0.19578132980E+02  0.48431377994E+03  0.50088035906E+03  0.12508891487E+03 0.  0.
          5    1    3    3  502    0 -0.24141152344E+02 -0.64558211571E+01  0.12455343654E+02  0.28232620297E+02  0.41800000000E+01 0.  1.
         -5    1    3    3    0  502  0.70895620503E+01  0.26033954137E+02  0.47185843629E+03  0.47264773876E+03  0.41800000000E+01 0.  1.
        -11    1    1    2    0    0 -0.16370401968E+02 -0.13778266510E+01  0.64901061223E+02  0.66948011283E+02  0.00000000000E+00 0.  1.
         11    1    1    2    0    0  0.33421992262E+02 -0.18200306329E+02  0.11517323579E+02  0.39760903657E+02  0.00000000000E+00 0. -1.
</event>
<event>
 7    1  0.2723366E-009  0.1150903E+03  0.7561462E-02  0.1251423E+00
         -2   -1    0    0    0  501 -0.00000000000E+00  0.00000000000E+00  0.16201005567E+02  0.16201005567E+02  0.00000000000E+00 0. -1.
          2   -1    0    0  501    0  0.00000000000E+00 -0.00000000000E+00 -0.10591364472E+04  0.10591364472E+04  0.00000000000E+00 0.  1.
         25    2    1    2    0    0 -0.23400179801E+02  0.53071523040E+02 -0.80452567993E+03  0.81625574558E+03  0.12509083720E+03 0.  0.
          5    1    3    3  502    0 -0.37246411618E+02 -0.32003130135E+02 -0.22452578598E+03  0.22987126068E+03  0.41800000000E+01 0.  1.
         -5    1    3    3    0  502  0.13846231817E+02  0.85074653176E+02 -0.57999989395E+03  0.58638448490E+03  0.41800000000E+01 0.  1.
        -11    1    1    2    0    0  0.49580574878E+02 -0.22779821783E+02 -0.88944712108E+02  0.10434709147E+03  0.00000000000E+00 0.  1.
         11    1    1    2    0    0 -0.26180395077E+02 -0.30291701257E+02 -0.14946504961E+03  0.15473461573E+03  0.00000000000E+00 0. -1.
</event>
<event>
 7    1  0.2723366E-009  0.9790008E+02  0.7561462E-02  0.1284775E+00
          2   -1    0    0  501    0  0.00000000000E+00  0.00000000000E+00  0.23835408098E+03  0.23835408098E+03  0.00000000000E+00 0. -1.
         -2   -1    0    0    0  501 -0.00000000000E+00 -0.00000000000E+00 -0.92038345022E+02  0.92038345022E+02  0.00000000000E+00 0.  1.
         25    2    1    2    0    0 -0.82630963487E+02 -0.39158787892E+02  0.29019822680E+02  0.15763888622E+03  0.12508629639E+03 0.  0.
          5    1    3    3  502    0 -0.71302315944E+02 -0.10994523217E+02  0.73856837086E+02  0.10333055978E+03  0.41800000000E+01 0. -1.
         -5    1    3    3    0  502 -0.11328647543E+02 -0.28164264675E+02 -0.44837014406E+02  0.54308326440E+02  0.41800000000E+01 0. -1.
        -11    1    1    2    0    0  0.31678577069E+02  0.64080264074E+01 -0.82531063452E+01  0.33357290237E+02  0.00000000000E+00 0.  1.
         11    1    1    2    0    0  0.50952386417E+02  0.32750761485E+02  0.12554901962E+03  0.13939624955E+03  0.00000000000E+00 0. -1.
</event>
<event>
 7    1  0.2723366E-009  0.1065627E+03  0.7561462E-02  0.1267071E+00
         -2   -1    0    0    0  501 -0.00000000000E+00  0.00000000000E+00  0.10530950787E+03  0.10530950787E+03  0.00000000000E+00 0.  1.
          2   -1    0    0  501    0  0.00000000000E+00 -0.00000000000E+00 -0.16419966627E+03  0.16419966627E+03  0.00000000000E+00 0. -1.
         25    2    1    2    0    0  0.71934460021E+02  0.60685169371E+00 -0.28241937778E+02  0.14703903981E+03  0.12509171583E+03 0.  0.
          5    1    3    3  502    0 -0.25501291947E+02  0.35463014295E+01 -0.41046140284E+02  0.48632809677E+02  0.41800000000E+01 0.  1.
         -5    1    3    3    0  502  0.97435751968E+02 -0.29394497358E+01  0.12804202506E+02  0.98406230129E+02  0.41800000000E+01 0.  1.
        -11    1    1    2    0    0 -0.71822154153E+02 -0.16406290617E+02 -0.56040084807E+02  0.92563920099E+02  0.00000000000E+00 0. -1.
         11    1    1    2    0    0 -0.11230586794E+00  0.15799438923E+02  0.25391864190E+02  0.29906214237E+02  0.00000000000E+00 0.  1.
</event>
<event>
 7    1  0.2723366E-009  0.9483054E+02  0.7561462E-02  0.1291558E+00
          3   -1    0    0  501    0  0.00000000000E+00  0.00000000000E+00  0.72232728735E+02  0.72232728735E+02  0.00000000000E+00 0. -1.
         -3   -1    0    0    0  501 -0.00000000000E+00 -0.00000000000E+00 -0.19598718028E+03  0.19598718028E+03  0.00000000000E+00 0.  1.
         25    2    1    2    0    0  0.23358668651E+02 -0.92594162553E+01 -0.11501286868E+03  0.17177348445E+03  0.12508719282E+03 0.  0.
          5    1    3    3  502    0  0.26937483142E+02  0.54953475471E+02 -0.41776562108E+02  0.74217693348E+02  0.41800000000E+01 0. -1.
         -5    1    3    3    0  502 -0.35788144907E+01 -0.64212891726E+02 -0.73236306570E+02  0.97555791099E+02  0.41800000000E+01 0. -1.
        -11    1    1    2    0    0 -0.25765234348E+02  0.31954137809E+02  0.30439966501E+02  0.51102894094E+02  0.00000000000E+00 0. -1.
         11    1    1    2    0    0  0.24065656970E+01 -0.22694721554E+02 -0.39181549373E+02  0.45343530477E+02  0.00000000000E+00 0.  1.
</event>
<event>
 7    1  0.2723366E-009  0.1477566E+03  0.7561462E-02  0.1203257E+00
         -1   -1    0    0    0  501 -0.00000000000E+00  0.00000000000E+00  0.11951768679E+03  0.11951768679E+03  0.00000000000E+00 0.  1.
          1   -1    0    0  501    0  0.00000000000E+00 -0.00000000000E+00 -0.23406785631E+03  0.23406785631E+03  0.00000000000E+00 0. -1.
         25    2    1    2    0    0  0.90323275969E+02  0.87349920285E+02 -0.45777214097E+02  0.18311571479E+03  0.12509000327E+03 0.  0.
          5    1    3    3  502    0  0.10192268386E+03  0.45420056322E+02  0.10165150249E+02  0.11212500917E+03  0.41800000000E+01 0. -1.
         -5    1    3    3    0  502 -0.11599407895E+02  0.41929863963E+02 -0.55942364346E+02  0.70990705618E+02  0.41800000000E+01 0. -1.
        -11    1    1    2    0    0  0.64208939361E+00 -0.35369595969E+02 -0.54155240576E+02  0.64685475029E+02  0.00000000000E+00 0. -1.
         11    1    1    2    0    0 -0.90965365362E+02 -0.51980324316E+02 -0.14617714855E+02  0.10578435328E+03  0.00000000000E+00 0.  1.
</event>
<event>
 7    1  0.2723366E-009  0.1123392E+03  0.7561462E-02  0.1256298E+00
          2   -1    0    0  501    0  0.00000000000E+00  0.00000000000E+00  0.29202195320E+02  0.29202195320E+02  0.00000000000E+00 0.  1.
         -2   -1    0    0    0  501 -0.00000000000E+00 -0.00000000000E+00 -0.46074346258E+03  0.46074346258E+03  0.00000000000E+00 0. -1.
         25    2    1    2    0    0 -0.14691740582E+02 -0.40894200416E+02 -0.28019318220E+03  0.30990961580E+03  0.12509023842E+03 0.  0.
          5    1    3    3  502    0  0.38612778560E+02 -0.63256774451E+02 -0.16649764032E+03  0.18229454960E+03  0.41800000000E+01 0.  1.
         -5    1    3    3    0  502 -0.53304519142E+02  0.22362574035E+02 -0.11369554188E+03  0.12761506620E+03  0.41800000000E+01 0.  1.
        -11    1    1    2    0    0 -0.24352337231E+02  0.47039278405E+02 -0.11378093794E+03  0.12550630215E+03  0.00000000000E+00 0. -1.
         11    1    1    2    0    0  0.39044077813E+02 -0.61450779882E+01 -0.37567147121E+02  0.54529739946E+02  0.00000000000E+00 0.  1.
</event>
<event>
 7    1  0.2723366E-009  0.3209450E+03  0.7561462E-02  0.1075215E+00
          2   -1    0    0  501    0  0.00000000000E+00  0.00000000000E+00  0.12616621797E+04  0.12616621797E+04  0.00000000000E+00 0.  1.
         -2   -1    0    0    0  501 -0.00000000000E+00 -0.00000000000E+00 -0.92486055726E+02  0.92486055726E+02  0.00000000000E+00 0. -1.
         25    2    1    2    0    0  0.22760179204E+03 -0.21487186090E+03  0.74719806780E+03  0.81970981731E+03  0.12508692866E+03 0.  0.
          5    1    3    3  502    0  0.16927925343E+03 -0.13646149999E+03  0.36212888009E+03  0.42241212674E+03  0.41800000000E+01 0.  1.
         -5    1    3    3    0  502  0.58322538610E+02 -0.78410360911E+02  0.38506918771E+03  0.39729769057E+03  0.41800000000E+01 0.  1.
        -11    1    1    2    0    0 -0.12300071878E+03  0.53126987241E+02  0.14952813242E+03  0.20077429113E+03  0.00000000000E+00 0. -1.
         11    1    1    2    0    0 -0.10460107325E+03  0.16174487365E+03  0.27244992371E+03  0.33366412694E+03  0.00000000000E+00 0.  1.
</event>
<event>
 7    1  0.2723366E-009  0.1538086E+03  0.7561462E-02  0.1195870E+00
          1   -1    0    0  501    0  0.00000000000E+00  0.00000000000E+00  0.40596509295E+03  0.40596509295E+03  0.00000000000E+00 0. -1.
         -1   -1    0    0    0  501 -0.00000000000E+00 -0.00000000000E+00 -0.80048539578E+02  0.80048539578E+02  0.00000000000E+00 0.  1.
         25    2    1    2    0    0  0.30298033129E+02  0.12954734085E+03  0.23853762763E+03  0.30041178549E+03  0.12508619720E+03 0.  0.
          5    1    3    3  502    0  0.15704978257E+02  0.14828450050E+03  0.16224724681E+03  0.22040095492E+03  0.41800000000E+01 0. -1.
         -5    1    3    3    0  502  0.14593054872E+02 -0.18737159650E+02  0.76290380817E+02  0.80010830564E+02  0.41800000000E+01 0. -1.
        -11    1    1    2    0    0 -0.20689657005E+02 -0.11532606004E+03  0.10760050093E+03  0.15907869069E+03  0.00000000000E+00 0. -1.
         11    1    1    2    0    0 -0.96083761240E+01 -0.14221280814E+02 -0.20221575190E+02  0.26523156353E+02  0.00000000000E+00 0.  1.
</event>
<event>
 7    1  0.2723366E-009  0.9935914E+02  0.7561462E-02  0.1281649E+00
          2   -1    0    0  501    0  0.00000000000E+00  0.00000000000E+00  0.24848939612E+03  0.24848939612E+03  0.00000000000E+00 0. -1.
         -2   -1    0    0    0  501 -0.00000000000E+00 -0.00000000000E+00 -0.57317340894E+02  0.57317340894E+02  0.00000000000E+00 0.  1.
         25    2    1    2    0    0  0.11286150485E+02 -0.49887931657E+00  0.15350696739E+03  0.19834127425E+03  0.12508895219E+03 0.  0.
          5    1    3    3  502    0 -0.18997366020E+02 -0.45153854120E+02  0.13065147477E+03  0.13959602687E+03  0.41800000000E+01 0.  1.
         -5    1    3    3    0  502  0.30283516505E+02  0.44654974803E+02  0.22855492618E+02  0.58745247377E+02  0.41800000000E+01 0.  1.
        -11    1    1    2    0    0  0.91995301166E+01 -0.44792327691E+02  0.10714078650E+01  0.45739828259E+02  0.00000000000E+00 0.  1.
         11    1    1    2    0    0 -0.20485680602E+02  0.45291207008E+02  0.36593679976E+02  0.61725634514E+02  0.00000000000E+00 0. -1.
</event>
<event>
 7    1  0.2723366E-009  0.1110718E+03  0.7561462E-02  0.1258598E+00
         -1   -1    0    0    0  501 -0.00000000000E+00  0.00000000000E+00  0.36131613124E+02  0.36131613124E+02  0.00000000000E+00 0.  1.
          1   -1    0    0  501    0  0.00000000000E+00 -0.00000000000E+00 -0.45573546161E+03  0.45573546161E+03  0.00000000000E+00 0. -1.
         25    2    1    2    0    0 -0.41621970824E+02  0.31697259610E+02 -0.31995147773E+03  0.34749368682E+03  0.12508321055E+03 0.  0.
          5    1    3    3  502    0  0.32296736626E+02 -0.17012456897E+02 -0.42238022395E+02  0.55982370638E+02  0.41800000000E+01 0. -1.
         -5    1    3    3    0  502 -0.73918707450E+02  0.48709716507E+02 -0.27771345533E+03  0.29151131619E+03  0.41800000000E+01 0. -1.
        -11    1    1    2    0    0  0.51313834939E+02 -0.52756484797E+02 -0.48297301781E+02  0.88028323304E+02  0.00000000000E+00 0.  1.
         11    1    1    2    0    0 -0.96918641152E+01  0.21059225188E+02 -0.51355068984E+02  0.56345064609E+02  0.00000000000E+00 0. -1.
</event>
<event>
 7    1  0.2723366E-009  0.9800262E+02  0.7561462E-02  0.1284553E+00
         -1   -1    0    0    0  501 -0.00000000000E+00  0.00000000000E+00  0.23715620181E+02  0.23715620181E+02  0.00000000000E+00 0.  1.
          1   -1    0    0  501    0  0.00000000000E+00 -0.00000000000E+00 -0.58079255325E+03  0.58079255325E+03  0.00000000000E+00 0. -1.
         25    2    1    2    0    0 -0.44248473780E+02 -0.24089462897E+01 -0.33994235977E+03  0.36492746173E+03  0.12509002319E+03 0.  0.
          5    1    3    3  502    0 -0.41693401733E+02  0.50431137831E+02 -0.10287539892E+03  0.12199368637E+03  0.41800000000E+01 0.  1.
         -5    1    3    3    0  502 -0.25550720473E+01 -0.52840084121E+02 -0.23706696085E+03  0.24293377536E+03  0.41800000000E+01 0.  1.
        -11    1    1    2    0    0  0.28747262374E+02  0.32580724287E+02 -0.39450373926E+02  0.58687653658E+02  0.00000000000E+00 0.  1.
         11    1    1    2    0    0  0.15501211406E+02 -0.30171777997E+02 -0.17768419937E+03  0.18089305804E+03  0.00000000000E+00 0. -1.
</event>
<event>
 7    1  0.2723366E-009  0.9981104E+02  0.7561462E-02  0.1280694E+00
         -1   -1    0    0    0  501 -0.00000000000E+00  0.00000000000E+00  0.31567864133E+02  0.31567864133E+02  0.00000000000E+00 0.  1.
          1   -1    0    0  501    0  0.00000000000E+00 -0.00000000000E+00 -0.37724789659E+03  0.37724789659E+03  0.00000000000E+00 0. -1.
         25    2    1    2    0    0 -0.75944083522E+01 -0.22057480614E+01 -0.17528072778E+03  0.21548678964E+03  0.12509469459E+03 0.  0.
          5    1    3    3  502    0 -0.83169897701E+01  0.57306813629E+02 -0.12358366970E+03  0.13654171166E+03  0.41800000000E+01 0. -1.
         -5    1    3    3    0  502  0.72258141791E+00 -0.59512561691E+02 -0.51697058087E+02  0.78945077983E+02  0.41800000000E+01 0. -1.
        -11    1    1    2    0    0 -0.34010043616E+02  0.16641136158E+02 -0.37365398184E+02  0.53195709046E+02  0.00000000000E+00 0.  1.
         11    1    1    2    0    0  0.41604451968E+02 -0.14435388096E+02 -0.13303390648E+03  0.14013326203E+03  0.00000000000E+00 0. -1.
</event>
<event>
 7    1  0.2723366E-009  0.7296687E+02  0.7561462E-02  0.1350285E+00
         -2   -1    0    0    0  501 -0.00000000000E+00  0.00000000000E+00  0.38024942786E+03  0.38024942786E+03  0.00000000000E+00 0.  1.
          2   -1    0    0  501    0  0.00000000000E+00 -0.00000000000E+00 -0.46535915697E+02  0.46535915697E+02  0.00000000000E+00 0. -1.
         25    2    1    2    0    0 -0.14171122999E+02  0.18756838971E+02  0.67819147543E+02  0.14421852674E+03  0.12508759709E+03 0.  0.
          5    1    3    3  502    0  0.43904772994E+01  0.28862072345E+02 -0.31170819599E+02  0.42911395985E+02  0.41800000000E+01 0.  1.
         -5    1    3    3    0  502 -0.18561600298E+02 -0.10105233373E+02  0.98989967142E+02  0.10130713076E+03  0.41800000000E+01 0.  1.
        -11    1    1    2    0    0  0.43283796258E+02  0.18958734625E+02  0.11502156959E+03  0.12434983759E+03  0.00000000000E+00 0. -1.
         11    1    1    2    0    0 -0.29112673259E+02 -0.37715573596E+02  0.15087279503E+03  0.15821697923E+03  0.00000000000E+00 0.  1.
</event>
<event>
 7    1  0.2723366E-009  0.2528078E+03  0.7561462E-02  0.1111543E+00
          2   -1    0    0  501    0  0.00000000000E+00  0.00000000000E+00  0.10384970420E+04  0.10384970420E+04  0.00000000000E+00 0. -1.
         -2   -1    0    0    0  501 -0.00000000000E+00 -0.00000000000E+00 -0.83880211376E+02  0.83880211376E+02  0.00000000000E+00 0.  1.
         25    2    1    2    0    0 -0.19630172578E+03  0.11714147484E+03  0.74426941211E+03  0.78856913492E+03  0.12509128697E+03 0.  0.
          5    1    3    3  502    0 -0.21241431888E+03  0.11371234197E+03  0.71726509883E+03  0.75666176987E+03  0.41800000000E+01 0.  1.
         -5    1    3    3    0  502  0.16112593105E+02  0.34291328626E+01  0.27004313281E+02  0.31907365052E+02  0.41800000000E+01 0.  1.
        -11    1    1    2    0    0  0.44296301090E+02  0.14451696626E+02  0.84850661025E+02  0.96802110008E+02  0.00000000000E+00 0. -1.
         11    1    1    2    0    0  0.15200542469E+03 -0.13159317146E+03  0.12549675754E+03  0.23700600850E+03  0.00000000000E+00 0.  1.
</event>
<event>
 7    1  0.2723366E-009  0.1524523E+03  0.7561462E-02  0.1197492E+00
         -1   -1    0    0    0  501 -0.00000000000E+00  0.00000000000E+00  0.21856530156E+03  0.21856530156E+03  0.00000000000E+00 0.  1.
          1   -1    0    0  501    0  0.00000000000E+00 -0.00000000000E+00 -0.18865684732E+03  0.18865684732E+03  0.00000000000E+00 0. -1.
         25    2    1    2    0    0  0.75215123785E+02 -0.11864814820E+03 -0.82223245849E+02  0.20529003615E+03  0.12509451973E+03 0.  0.
          5    1    3    3  502    0  0.51021541796E+02 -0.49933157392E+02 -0.10659261809E+03  0.12835878063E+03  0.41800000000E+01 0. -1.
         -5    1    3    3    0  502  0.24193581989E+02 -0.68714990812E+02  0.24369372241E+02  0.76931255515E+02  0.41800000000E+01 0. -1.
        -11    1    1    2    0    0 -0.65101934433E+02  0.30845180905E+02  0.21130588915E+02  0.75074555209E+02  0.00000000000E+00 0. -1.
         11    1    1    2    0    0 -0.10113189352E+02  0.87802967299E+02  0.91001111177E+02  0.12685755752E+03  0.00000000000E+00 0.  1.
</event>
<event>
 7    1  0.2723366E-009  0.1473231E+03  0.7561462E-02  0.1203801E+00
         -2   -1    0    0    0  501 -0.00000000000E+00  0.00000000000E+00  0.31406980822E+02  0.31406980822E+02  0.00000000000E+00 0.  1.
          2   -1    0    0  501    0  0.00000000000E+00 -0.00000000000E+00 -0.72879140656E+03  0.72879140656E+03  0.00000000000E+00 0. -1.
         25    2    1    2    0    0 -0.81037734538E+02  0.57253595069E+02 -0.46097084546E+03  0.48783959804E+03  0.12509302332E+03 0.  0.
          5    1    3    3  502    0  0.33338187266E+02  0.56797380147E+01 -0.10374675246E+03  0.10919961172E+03  0.41800000000E+01 0.  1.
         -5    1    3    3    0  502 -0.11437592180E+03  0.51573857055E+02 -0.35722409300E+03  0.37863998632E+03  0.41800000000E+01 0.  1.
        -11    1    1    2    0    0 -0.20150774236E+02 -0.34924554286E+01 -0.30754925993E+02  0.36933946717E+02  0.00000000000E+00 0. -1.
         11    1    1    2    0    0  0.10118850877E+03 -0.53761139641E+02 -0.20565865429E+03  0.23542484263E+03  0.00000000000E+00 0.  1.
</event>
<event>
 7    1  0.2723366E-009  0.1177737E+03  0.7561462E-02  0.1246816E+00
         -1   -1    0    0    0  501 -0.00000000000E+00  0.00000000000E+00  0.28973286018E+03  0.28973286018E+03  0.00000000000E+00 0.  1.
          1   -1    0    0  501    0  0.00000000000E+00 -0.00000000000E+00 -0.76197305905E+02  0.76197305905E+02  0.00000000000E+00 0. -1.
         25    2    1    2    0    0  0.49812158025E+02  0.69624741292E+02  0.17959080433E+03  0.23500864380E+03  0.12508936794E+03 0.  0.
          5    1    3    3  502    0  0.66453881597E+02 -0.11007039394E+02  0.63815260181E+02  0.92882361768E+02  0.41800000000E+01 0.  1.
         -5    1    3    3    0  502 -0.16641723572E+02  0.80631780686E+02  0.11577554415E+03  0.14212628203E+03  0.41800000000E+01 0.  1.
        -11    1    1    2    0    0 -0.12367209573E+02 -0.16213987535E+02  0.57936240788E+02  0.61420267511E+02  0.00000000000E+00 0.  1.
         11    1    1    2    0    0 -0.37444948452E+02 -0.53410753757E+02 -0.23991490852E+02  0.69501254771E+02  0.00000000000E+00 0. -1.
</event>
<event>
 7    1  0.4823676E-009  0.1502283E+03  0.7561462E-02  0.1200193E+00
          2   -1    0    0  501    0  0.00000000000E+00  0.00000000000E+00  0.79684511115E+03  0.79684511115E+03  0.00000000000E+00 0.  1.
         -2   -1    0    0    0  501 -0.00000000000E+00 -0.00000000000E+00 -0.32663386592E+02  0.32663386592E+02  0.00000000000E+00 0. -1.
         25    2    1    2    0    0  0.68365707829E+02 -0.94876013994E+02  0.46959339458E+03  0.49983919686E+03  0.12508372574E+03 0.  0.
          5    1    3    3  502    0  0.77461937783E+02 -0.11517455234E+03  0.44611756148E+03  0.46723000799E+03  0.41800000000E+01 0. -1.
         -5    1    3    3    0  502 -0.90962299543E+01  0.20298538350E+02  0.23475833104E+02  0.32609188865E+02  0.41800000000E+01 0. -1.
        -11    1    1    2    0    0 -0.79845101841E+02  0.53722151619E+02  0.14446121278E+03  0.17358096629E+03  0.00000000000E+00 0. -1.
         11    1    1    2    0    0  0.11479394012E+02  0.41153862375E+02  0.15012711720E+03  0.15608833459E+03  0.00000000000E+00 0.  1.
</event>
<event>
 7    1  0.2723366E-009  0.1791239E+03  0.7561462E-02  0.1168654E+00
          2   -1    0    0  501    0  0.00000000000E+00  0.00000000000E+00  0.17931144105E+03  0.17931144105E+03  0.00000000000E+00 0. -1.
         -2   -1    0    0    0  501 -0.00000000000E+00 -0.00000000000E+00 -0.22609267765E+03  0.22609267765E+03  0.00000000000E+00 0.  1.
         25    2    1    2    0    0  0.14583105752E+03  0.85091201375E+02 -0.35461934143E+02  0.21310283933E+03  0.12509221186E+03 0.  0.
          5    1    3    3  502    0  0.75179684558E+02  0.65693257462E+02 -0.79346852738E+02  0.12759696111E+03  0.41800000000E+01 0. -1.
         -5    1    3    3    0  502  0.70651372959E+02  0.19397943913E+02  0.43884918595E+02  0.85505878214E+02  0.41800000000E+01 0. -1.
        -11    1    1    2    0    0 -0.59907826823E+02 -0.78518956306E+02 -0.31744510422E+02  0.10373952070E+03  0.00000000000E+00 0.  1.
         11    1    1    2    0    0 -0.85923230694E+02 -0.65722450692E+01  0.20425207971E+02  0.88561758671E+02  0.00000000000E+00 0. -1.
</event>
<event>
 7    1  0.2723366E-009  0.1134711E+03  0.7561462E-02  0.1254274E+00
         -2   -1    0    0    0  501 -0.00000000000E+00  0.00000000000E+00  0.12336142103E+02  0.12336142103E+02  0.00000000000E+00 0. -1.
          2   -1    0    0  501    0  0.00000000000E+00 -0.00000000000E+00 -0.17330347079E+04  0.17330347079E+04  0.00000000000E+00 0.  1.
         25    2    1    2    0    0 -0.32780280296E+02  0.23145699741E+02 -0.14592718593E+04  0.14651730748E+04  0.12509000584E+03 0.  0.
          5    1    3    3  502    0 -0.59549410710E+02 -0.32619339609E+02 -0.86718220925E+03  0.86984631405E+03  0.41800000000E+01 0.  1.
         -5    1    3    3    0  502  0.26769130415E+02  0.55765039350E+02 -0.59208965006E+03  0.59532676075E+03  0.41800000000E+01 0.  1.
        -11    1    1    2    0    0  0.23101218012E+02  0.32812005627E+02 -0.71831199446E+02  0.82280102095E+02  0.00000000000E+00 0. -1.
         11    1    1    2    0    0  0.96790622833E+01 -0.55957705369E+02 -0.18959550704E+03  0.19791767310E+03  0.00000000000E+00 0.  1.
</event>
<event>
 7    1  0.2723366E-009  0.1071758E+03  0.7561462E-02  0.1265891E+00
         -2   -1    0    0    0  501 -0.00000000000E+00  0.00000000000E+00  0.45067486671E+03  0.45067486671E+03  0.00000000000E+00 0.  1.
          2   -1    0    0  501    0  0.00000000000E+00 -0.00000000000E+00 -0.47392579200E+02  0.47392579200E+02  0.00000000000E+00 0. -1.
         25    2    1    2    0    0  0.10259895683E+02 -0.28362819663E+02  0.60880822700E+02  0.14235195371E+03  0.12509152311E+03 0.  0.
          5    1    3    3  502    0 -0.36482867178E+02 -0.61217173238E+02  0.33271170710E+02  0.78759031845E+02  0.41800000000E+01 0.  1.
         -5    1    3    3    0  502  0.46742762861E+02  0.32854353575E+02  0.27609651991E+02  0.63592921869E+02  0.41800000000E+01 0.  1.
        -11    1    1    2    0    0 -0.19270899475E+02 -0.24997142636E+02  0.56325455217E+02  0.64566102654E+02  0.00000000000E+00 0. -1.
         11    1    1    2    0    0  0.90110037918E+01  0.53359962299E+02  0.28607600960E+03  0.29114938954E+03  0.00000000000E+00 0.  1.
</event>
<event>
 7    1  0.2723366E-009  0.9285337E+02  0.7561462E-02  0.1296085E+00
          2   -1    0    0  501    0  0.00000000000E+00  0.00000000000E+00  0.59944883834E+02  0.59944883834E+02  0.00000000000E+00 0. -1.
         -2   -1    0    0    0  501 -0.00000000000E+00 -0.00000000000E+00 -0.22643627648E+03  0.22643627648E+03  0.00000000000E+00 0.  1.
         25    2    1    2    0    0  0.40068945445E+02  0.14026026101E+02 -0.98039079269E+02  0.16450412904E+03  0.12509075750E+03 0.  0.
          5    1    3    3  502    0 -0.21980484848E+02  0.84620690058E+01 -0.99211553569E+02  0.10205465735E+03  0.41800000000E+01 0.  1.
         -5    1    3    3    0  502  0.62049430293E+02  0.55639570949E+01  0.11724743000E+01  0.62449471689E+02  0.41800000000E+01 0.  1.
        -11    1    1    2    0    0  0.17870981187E+01  0.34908204973E+02 -0.14396645352E+02  0.37802643976E+02  0.00000000000E+00 0. -1.
         11    1    1    2    0    0 -0.41856043564E+02 -0.48934231074E+02 -0.54055668028E+02  0.84074387298E+02  0.00000000000E+00 0.  1.
</event>
<event>
 7    1  0.2723366E-009  0.8018613E+02  0.7561462E-02  0.1328524E+00
         -2   -1    0    0    0  501 -0.00000000000E+00  0.00000000000E+00  0.19383435059E+03  0.19383435059E+03  0.00000000000E+00 0.  1.
          2   -1    0    0  501    0  0.00000000000E+00 -0.00000000000E+00 -0.77365132292E+02  0.77365132292E+02  0.00000000000E+00 0. -1.
         25    2    1    2    0    0  0.36122942353E+02 -0.11077023549E+01  0.17693920613E+02  0.13139894562E+03  0.12508602685E+03 0.  0.
          5    1    3    3  502    0  0.33847980616E+02 -0.51521857251E+02  0.42518353974E+02  0.75003135874E+02  0.41800000000E+01 0.  1.
         -5    1    3    3    0  502  0.22749617376E+01  0.50414154896E+02 -0.24824433361E+02  0.56395809742E+02  0.41800000000E+01 0.  1.
        -11    1    1    2    0    0 -0.22962933501E+02 -0.14786295823E+02  0.11200624570E+03  0.11528803032E+03  0.00000000000E+00 0.  1.
         11    1    1    2    0    0 -0.13160008852E+02  0.15893998178E+02 -0.13230948020E+02  0.24512506942E+02  0.00000000000E+00 0. -1.
</event>
<event>
 7    1  0.2723366E-009  0.1213902E+03  0.7561462E-02  0.1240821E+00
          2   -1    0    0  501    0  0.00000000000E+00  0.00000000000E+00  0.12288794999E+04  0.12288794999E+04  0.00000000000E+00 0. -1.
         -2   -1    0    0    0  501 -0.00000000000E+00 -0.00000000000E+00 -0.13800598915E+02  0.13800598915E+02  0.00000000000E+00 0.  1.
         25    2    1    2    0    0 -0.52178041413E+02 -0.47561854182E+02  0.60697398996E+03  0.62373813055E+03  0.12508858075E+03 0.  0.
          5    1    3    3  502    0 -0.85156449807E+02 -0.38155660691E+02  0.28501298212E+03  0.29992890451E+03  0.41800000000E+01 0. -1.
         -5    1    3    3    0  502  0.32978408394E+02 -0.94061934916E+01  0.32196100784E+03  0.32380922603E+03  0.41800000000E+01 0. -1.
        -11    1    1    2    0    0  0.43005243041E+02 -0.19442667015E+02  0.22236820486E+03  0.22732154926E+03  0.00000000000E+00 0.  1.
         11    1    1    2    0    0  0.91727983715E+01  0.67004521198E+02  0.38573670615E+03  0.39162041898E+03  0.00000000000E+00 0. -1.
</event>
<event>
 7    1  0.2723366E-009  0.2471477E+03  0.7561462E-02  0.1115121E+00
         -1   -1    0    0    0  501 -0.00000000000E+00  0.00000000000E+00  0.11109418371E+03  0.11109418371E+03  0.00000000000E+00 0.  1.
          1   -1    0    0  501    0  0.00000000000E+00 -0.00000000000E+00 -0.67584545987E+03  0.67584545987E+03  0.00000000000E+00 0. -1.
         25    2    1    2    0    0  0.12814355922E+03 -0.20449849371E+03 -0.18876581087E+03  0.33093670482E+03  0.12508463352E+03 0.  0.
          5    1    3    3  502    0  0.91082486843E+02 -0.74676144188E+02 -0.28332164828E+02  0.12121357137E+03  0.41800000000E+01 0.  1.
         -5    1    3    3    0  502  0.37061072381E+02 -0.12982234953E+03 -0.16043364604E+03  0.20972313345E+03  0.41800000000E+01 0.  1.
        -11    1    1    2    0    0 -0.10462683450E+03  0.16991918004E+03 -0.35927053560E+03  0.41096790628E+03  0.00000000000E+00 0. -1.
         11    1    1    2    0    0 -0.23516724720E+02  0.34579313671E+02 -0.16714929689E+02  0.45035032475E+02  0.00000000000E+00 0.  1.
</event>
<event>
 7    1  0.2723366E-009  0.1332007E+03  0.7561462E-02  0.1222782E+00
         -1   -1    0    0    0  501 -0.00000000000E+00  0.00000000000E+00  0.76308088078E+03  0.76308088078E+03  0.00000000000E+00 0.  1.
          1   -1    0    0  501    0  0.00000000000E+00 -0.00000000000E+00 -0.34407609559E+02  0.34407609559E+02  0.00000000000E+00 0. -1.
         25    2    1    2    0    0 -0.45839286666E+02 -0.79693072962E+02  0.58281239646E+03  0.60313624767E+03  0.12510322818E+03 0.  0.
          5    1    3    3  502    0 -0.18271969198E+02  0.33431475392E+02  0.16406246598E+03  0.16847994999E+03  0.41800000000E+01 0.  1.
         -5    1    3    3    0  502 -0.27567317469E+02 -0.11312454835E+03  0.41874993048E+03  0.43465629768E+03  0.41800000000E+01 0.  1.
        -11    1    1    2    0    0 -0.11306824790E+02  0.41049440692E+02  0.12781580053E+02  0.44455254545E+02  0.00000000000E+00 0.  1.
         11    1    1    2    0    0  0.57146111457E+02  0.38643632269E+02  0.13307929470E+03  0.14989698812E+03  0.00000000000E+00 0. -1.
</event>
<event>
 7    1  0.2723366E-009  0.8633394E+02  0.7561462E-02  0.1311981E+00
         -2   -1    0    0    0  501 -0.00000000000E+00  0.00000000000E+00  0.64635504622E+02  0.64635504622E+02  0.00000000000E+00 0.  1.
          2   -1    0    0  501    0  0.00000000000E+00 -0.00000000000E+00 -0.35708198471E+03  0.35708198471E+03  0.00000000000E+00 0. -1.
         25    2    1    2    0    0 -0.60273655824E+01 -0.26128121303E+02 -0.30274189436E+03  0.32865912101E+03  0.12508059546E+03 0.  0.
          5    1    3    3  502    0 -0.60466751283E+02  0.37082416604E+01 -0.19506347588E+03  0.20429686999E+03  0.41800000000E+01 0. -1.
         -5    1    3    3    0  502  0.54439385701E+02 -0.29836362963E+02 -0.10767841849E+03  0.12436225102E+03  0.41800000000E+01 0. -1.
        -11    1    1    2    0    0 -0.89619684869E+01  0.32294788560E+02  0.44205197474E+02  0.55474045562E+02  0.00000000000E+00 0.  1.
         11    1    1    2    0    0  0.14989334069E+02 -0.61666672567E+01 -0.33909783196E+02  0.37584322759E+02  0.00000000000E+00 0. -1.
</event>
<event>
 7    1  0.2723366E-009  0.7364115E+02  0.7561462E-02  0.1348131E+00
         -2   -1    0    0    0  501 -0.00000000000E+00  0.00000000000E+00  0.73050601648E+02  0.73050601648E+02  0.00000000000E+00 0. -1.
          2   -1    0    0  501    0  0.00000000000E+00 -0.00000000000E+00 -0.23265338446E+03  0.23265338446E+03  0.00000000000E+00 0.  1.
         25    2    1    2    0    0  0.19503380708E+02  0.66154053722E+02 -0.68717842140E+02  0.15851217564E+03  0.12508887766E+03 0.  0.
          5    1    3    3  502    0  0.27039443845E+01 -0.18335253595E+01 -0.86076296891E+02  0.86239633678E+02  0.41800000000E+01 0. -1.
         -5    1    3    3    0  502  0.16799436323E+02  0.67987579081E+02  0.17358454751E+02  0.72272541961E+02  0.41800000000E+01 0. -1.
        -11    1    1    2    0    0  0.13702413876E+01 -0.30311093151E+02 -0.10018929801E+03  0.10468302329E+03  0.00000000000E+00 0.  1.
         11    1    1    2    0    0 -0.20873622095E+02 -0.35842960571E+02  0.93043573383E+01  0.42508787178E+02  0.00000000000E+00 0. -1.
</event>
<event>
 7    1  0.2723366E-009  0.3234085E+03  0.7561462E-02  0.1074091E+00
          2   -1    0    0  501    0  0.00000000000E+00  0.00000000000E+00  0.31697553876E+03  0.31697553876E+03  0.00000000000E+00 0. -1.
         -2   -1    0    0    0  501 -0.00000000000E+00 -0.00000000000E+00 -0.35004011031E+03  0.35004011031E+03  0.00000000000E+00 0.  1.
         25    2    1    2    0    0  0.84146746528E+02  0.30237345008E+03  0.63414870781E+01  0.33793323663E+03  0.12509308413E+03 0.  0.
          5    1    3    3  502    0 -0.16993726654E+02  0.71615238662E+02 -0.36613442725E+02  0.82313703248E+02  0.41800000000E+01 0. -1.
         -5    1    3    3    0  502  0.10114047318E+03  0.23075821142E+03  0.42954929803E+02  0.25561953338E+03  0.41800000000E+01 0. -1.
        -11    1    1    2    0    0 -0.89880760599E+02 -0.20833051709E+03  0.16459772442E+00  0.22689244714E+03  0.00000000000E+00 0. -1.
         11    1    1    2    0    0  0.57340140711E+01 -0.94042932989E+02 -0.39570656353E+02  0.10218996529E+03  0.00000000000E+00 0.  1.
</event>
<event>
 7    1  0.2723366E-009  0.8905279E+02  0.7561462E-02  0.1305162E+00
         -2   -1    0    0    0  501 -0.00000000000E+00  0.00000000000E+00  0.62554728872E+02  0.62554728872E+02  0.00000000000E+00 0.  1.
          2   -1    0    0  501    0  0.00000000000E+00 -0.00000000000E+00 -0.20973472523E+03  0.20973472523E+03  0.00000000000E+00 0. -1.
         25    2    1    2    0    0 -0.14747831319E+02 -0.31225418660E+02 -0.94899323294E+02  0.16076618176E+03  0.12508940138E+03 0.  0.
          5    1    3    3  502    0  0.44012292228E+02 -0.36602345360E+02 -0.11529235108E+02  0.58542371110E+02  0.41800000000E+01 0.  1.
         -5    1    3    3    0  502 -0.58760123547E+02  0.53769266997E+01 -0.83370088186E+02  0.10222381065E+03  0.41800000000E+01 0.  1.
        -11    1    1    2    0    0 -0.72407483204E+01 -0.11450966471E+02 -0.61210380539E+02  0.62691815695E+02  0.00000000000E+00 0. -1.
         11    1    1    2    0    0  0.21988579639E+02  0.42676385131E+02  0.89297074774E+01  0.48831456644E+02  0.00000000000E+00 0.  1.
</event>
<event>
 7    1  0.2723366E-009  0.6418974E+02  0.7561462E-02  0.1381046E+00
          3   -1    0    0  501    0  0.00000000000E+00  0.00000000000E+00  0.42687588502E+02  0.42687588502E+02  0.00000000000E+00 0. -1.
         -3   -1    0    0    0  501 -0.00000000000E+00 -0.00000000000E+00 -0.32992628899E+03  0.32992628899E+03  0.00000000000E+00 0.  1.
         25    2    1    2    0    0  0.30948128266E+02  0.37407482680E+02 -0.17810562332E+03  0.22299334165E+03  0.12508921200E+03 0.  0.
          5    1    3    3  502    0  0.26841220818E+02  0.51265013814E+02 -0.15989404852E+02  0.60180447355E+02  0.41800000000E+01 0. -1.
         -5    1    3    3    0  502  0.41069074483E+01 -0.13857531135E+02 -0.16211621847E+03  0.16281289429E+03  0.41800000000E+01 0. -1.
        -11    1    1    2    0    0 -0.12317809839E+01 -0.21641898704E+02  0.11392612466E+02  0.24488378524E+02  0.00000000000E+00 0. -1.
         11    1    1    2    0    0 -0.29716347282E+02 -0.15765583975E+02 -0.12052568963E+03  0.12513215732E+03  0.00000000000E+00 0.  1.
</event>
<event>
 7    1  0.2723366E-009  0.1176113E+03  0.7561462E-02  0.1247090E+00
          1   -1    0    0  501    0  0.00000000000E+00  0.00000000000E+00  0.61003980269E+03  0.61003980269E+03  0.00000000000E+00 0. -1.
         -1   -1    0    0    0  501 -0.00000000000E+00 -0.00000000000E+00 -0.24692081101E+02  0.24692081101E+02  0.00000000000E+00 0.  1.
         25    2    1    2    0    0 -0.58037336257E+01  0.49343137373E+02  0.24912091760E+03  0.28315626420E+03  0.12509120608E+03 0.  0.
          5    1    3    3  502    0  0.58318136360E+02  0.32314712425E+02  0.10510343666E+03  0.12453694418E+03  0.41800000000E+01 0. -1.
         -5    1    3    3    0  502 -0.64121869986E+02  0.17028424948E+02  0.14401748094E+03  0.15861932002E+03  0.41800000000E+01 0. -1.
        -11    1    1    2    0    0  0.20329199853E+02  0.21521605234E+02  0.78782213914E+02  0.84161113869E+02  0.00000000000E+00 0.  1.
         11    1    1    2    0    0 -0.14525466228E+02 -0.70864742607E+02  0.25744459007E+03  0.26741450573E+03  0.00000000000E+00 0. -1.
</event>
<event>
 7    1  0.2723366E-009  0.1044871E+03  0.7561462E-02  0.1271133E+00
          1   -1    0    0  501    0  0.00000000000E+00  0.00000000000E+00  0.91353352006E+02  0.91353352006E+02  0.00000000000E+00 0. -1.
         -1   -1    0    0    0  501 -0.00000000000E+00 -0.00000000000E+00 -0.20509042865E+03  0.20509042865E+03  0.00000000000E+00 0.  1.
         25    2    1    2    0    0 -0.13470660235E+02 -0.64642741799E+02 -0.82026960831E+01  0.14169549144E+03  0.12510070071E+03 0.  0.
          5    1    3    3  502    0  0.49513219181E+02  0.18987789492E+01 -0.19279883502E+01  0.49762975939E+02  0.41800000000E+01 0.  1.
         -5    1    3    3    0  502 -0.62983879417E+02 -0.66541520748E+02 -0.62747077329E+01  0.91932515504E+02  0.41800000000E+01 0.  1.
        -11    1    1    2    0    0 -0.76310188262E-01  0.34309807106E+02 -0.11515913700E+03  0.12016153927E+03  0.00000000000E+00 0.  1.
         11    1    1    2    0    0  0.13546970424E+02  0.30332934693E+02  0.96247564364E+01  0.34586749937E+02  0.00000000000E+00 0. -1.
</event>
<event>
 7    1  0.2723366E-009  0.1513718E+03  0.7561462E-02  0.1198797E+00
          1   -1    0    0  501    0  0.00000000000E+00  0.00000000000E+00  0.41669144097E+02  0.41669144097E+02  0.00000000000E+00 0. -1.
         -1   -1    0    0    0  501 -0.00000000000E+00 -0.00000000000E+00 -0.81365684388E+03  0.81365684388E+03  0.00000000000E+00 0.  1.
         25    2    1    2    0    0 -0.13875721319E+03 -0.17250662208E+02 -0.61179272112E+03  0.63991319430E+03  0.12508962013E+03 0.  0.
          5    1    3    3  502    0 -0.81132623992E+02  0.27376952970E+02 -0.15328297186E+03  0.17562785113E+03  0.41800000000E+01 0.  1.
         -5    1    3    3    0  502 -0.57624589195E+02 -0.44627615179E+02 -0.45850974926E+03  0.46428534317E+03  0.41800000000E+01 0.  1.
        -11    1    1    2    0    0  0.15523227413E+02  0.13732556614E+02 -0.23679576649E+02  0.31468651874E+02  0.00000000000E+00 0. -1.
         11    1    1    2    0    0  0.12323398577E+03  0.35181055947E+01 -0.13651540201E+03  0.18394414180E+03  0.00000000000E+00 0.  1.
</event>
<event>
 7    1  0.2723366E-009  0.1263989E+03  0.7561462E-02  0.1232899E+00
          4   -1    0    0  501    0  0.00000000000E+00  0.00000000000E+00  0.66535826722E+02  0.66535826722E+02  0.00000000000E+00 0. -1.
         -4   -1    0    0    0  501 -0.00000000000E+00 -0.00000000000E+00 -0.57829759050E+03  0.57829759050E+03  0.00000000000E+00 0.  1.
         25    2    1    2    0    0  0.21915539473E+02 -0.99075135515E+02 -0.58171698996E+02  0.17126414680E+03  0.12510510808E+03 0.  0.
          5    1    3    3  502    0 -0.34977294215E+02 -0.78966497752E+02 -0.67976373361E+02  0.10998808396E+03  0.41800000000E+01 0. -1.
         -5    1    3    3    0  502  0.56892833688E+02 -0.20108637763E+02  0.98046743649E+01  0.61276062840E+02  0.41800000000E+01 0. -1.
        -11    1    1    2    0    0 -0.29439526440E+02  0.83703696715E+02 -0.44618469077E+03  0.45492172166E+03  0.00000000000E+00 0.  1.
         11    1    1    2    0    0  0.75239869669E+01  0.15371438800E+02 -0.74053740168E+01  0.18647548766E+02  0.00000000000E+00 0. -1.
</event>
<event>
 7    1  0.2723366E-009  0.7141103E+02  0.7561462E-02  0.1355359E+00
         -2   -1    0    0    0  501 -0.00000000000E+00  0.00000000000E+00  0.96993833451E+02  0.96993833451E+02  0.00000000000E+00 0.  1.
          2   -1    0    0  501    0  0.00000000000E+00 -0.00000000000E+00 -0.13131802132E+03  0.13131802132E+03  0.00000000000E+00 0. -1.
         25    2    1    2    0    0  0.32919287220E+01 -0.18980582657E+02 -0.40773155868E+02  0.13297220736E+03  0.12509219951E+03 0.  0.
          5    1    3    3  502    0 -0.32493311985E+02  0.19865920321E+02 -0.64420035878E+02  0.74952541895E+02  0.41800000000E+01 0.  1.
         -5    1    3    3    0  502  0.35785240707E+02 -0.38846502978E+02  0.23646880010E+02  0.58019665462E+02  0.41800000000E+01 0.  1.
        -11    1    1    2    0    0 -0.25054396889E+02  0.46858366269E+01  0.43283984935E+02  0.50231297218E+02  0.00000000000E+00 0.  1.
         11    1    1    2    0    0  0.21762468167E+02  0.14294746030E+02 -0.36835016932E+02  0.45108350194E+02  0.00000000000E+00 0. -1.
</event>
<event>
 7    1  0.2723366E-009  0.7730830E+02  0.7561462E-02  0.1336868E+00
         -3   -1    0    0    0  501 -0.00000000000E+00  0.00000000000E+00  0.66197305393E+02  0.66197305393E+02  0.00000000000E+00 0.  1.
          3   -1    0    0  501    0  0.00000000000E+00 -0.00000000000E+00 -0.18606081820E+03  0.18606081820E+03  0.00000000000E+00 0. -1.
         25    2    1    2    0    0  0.10674345794E+02  0.15740638956E+02 -0.88836850947E+02  0.15460348336E+03  0.12509413099E+03 0.  0.
          5    1    3    3  502    0  0.26063518343E+02  0.31657462658E+02 -0.11376510905E+03  0.12100196018E+03  0.41800000000E+01 0. -1.
         -5    1    3    3    0  502 -0.15389172549E+02 -0.15916823702E+02  0.24928258101E+02  0.33601523186E+02  0.41800000000E+01 0. -1.
        -11    1    1    2    0    0 -0.27392168434E+02  0.30916198929E+02 -0.48051674287E+01  0.41584033976E+02  0.00000000000E+00 0.  1.
         11    1    1    2    0    0  0.16717822640E+02 -0.46656837885E+02 -0.26221494431E+02  0.56070606252E+02  0.00000000000E+00 0. -1.
</event>
<event>
 7    1  0.2723366E-009  0.2836007E+03  0.7561462E-02  0.1093738E+00
         -1   -1    0    0    0  501 -0.00000000000E+00  0.00000000000E+00  0.15883368238E+03  0.15883368238E+03  0.00000000000E+00 0.  1.
          1   -1    0    0  501    0  0.00000000000E+00 -0.00000000000E+00 -0.59076490320E+03  0.59076490320E+03  0.00000000000E+00 0. -1.
         25    2    1    2    0    0  0.25871682628E+03  0.61815276352E+02 -0.89751263666E+02  0.30734147846E+03  0.12509184811E+03 0.  0.
          5    1    3    3  502    0  0.11337209878E+03 -0.32412333286E+02 -0.16143680804E+02  0.11908771121E+03  0.41800000000E+01 0. -1.
         -5    1    3    3    0  502  0.14534472750E+03  0.94227609638E+02 -0.73607582863E+02  0.18825376725E+03  0.41800000000E+01 0. -1.
        -11    1    1    2    0    0 -0.12730960124E+03  0.72092714594E+01 -0.12029310691E+03  0.17530014185E+03  0.00000000000E+00 0. -1.
         11    1    1    2    0    0 -0.13140722504E+03 -0.69024547811E+02 -0.22188685025E+03  0.26695696528E+03  0.00000000000E+00 0.  1.
</event>
<event>
 7    1  0.2723366E-009  0.1041108E+03  0.7561462E-02  0.1271882E+00
          2   -1    0    0  501    0  0.00000000000E+00  0.00000000000E+00  0.20714369994E+03  0.20714369994E+03  0.00000000000E+00 0. -1.
         -2   -1    0    0    0  501 -0.00000000000E+00 -0.00000000000E+00 -0.61152893794E+02  0.61152893794E+02  0.00000000000E+00 0.  1.
         25    2    1    2    0    0 -0.23464513049E+02 -0.72842060819E+01  0.59048480789E+02  0.14049204794E+03  0.12509056487E+03 0.  0.
          5    1    3    3  502    0  0.45933394548E+02  0.36397370883E+01 -0.34162547551E+01  0.46392538380E+02  0.41800000000E+01 0. -1.
         -5    1    3    3    0  502 -0.69397907597E+02 -0.10923943170E+02  0.62464735544E+02  0.94099509562E+02  0.41800000000E+01 0. -1.
        -11    1    1    2    0    0  0.51830507667E+02 -0.16676068752E+02  0.64540124275E+02  0.84438856194E+02  0.00000000000E+00 0.  1.
         11    1    1    2    0    0 -0.28365994618E+02  0.23960274834E+02  0.22402201080E+02  0.43365689595E+02  0.00000000000E+00 0. -1.
</event>
<event>
 7    1  0.2723366E-009  0.2157923E+03  0.7561462E-02  0.1137060E+00
          2   -1    0    0  501    0  0.00000000000E+00  0.00000000000E+00  0.52598397642E+03  0.52598397642E+03  0.00000000000E+00 0. -1.
         -2   -1    0    0    0  501 -0.00000000000E+00 -0.00000000000E+00 -0.15663942530E+03  0.15663942530E+03  0.00000000000E+00 0.  1.
         25    2    1    2    0    0 -0.16380636041E+03  0.13543025475E+03  0.15331050118E+00  0.24661837642E+03  0.12508685971E+03 0.  0.
          5    1    3    3  502    0 -0.95821347310E+02  0.97681125142E+02 -0.58754994698E+02  0.14897299961E+03  0.41800000000E+01 0.  1.
         -5    1    3    3    0  502 -0.67985013102E+02  0.37749129607E+02  0.58908305200E+02  0.97645376818E+02  0.41800000000E+01 0.  1.
        -11    1    1    2    0    0  0.55697711328E+02 -0.21362090914E+02  0.18233148001E+03  0.19184197293E+03  0.00000000000E+00 0.  1.
         11    1    1    2    0    0  0.10810864908E+03 -0.11406816383E+03  0.18685976061E+03  0.24416305237E+03  0.00000000000E+00 0. -1.
</event>
<event>
 7    1  0.2723366E-009  0.1027238E+03  0.7561462E-02  0.1274670E+00
         -2   -1    0    0    0  501 -0.00000000000E+00  0.00000000000E+00  0.44991107018E+02  0.44991107018E+02  0.00000000000E+00 0.  1.
          2   -1    0    0  501    0  0.00000000000E+00 -0.00000000000E+00 -0.31268912756E+03  0.31268912756E+03  0.00000000000E+00 0. -1.
         25    2    1    2    0    0  0.51461349266E+02  0.44414877860E+01 -0.13590770589E+03  0.19179813580E+03  0.12509045965E+03 0.  0.
          5    1    3    3  502    0 -0.14933547571E+02  0.35236301196E+02 -0.10573156849E+03  0.11252219666E+03  0.41800000000E+01 0. -1.
         -5    1    3    3    0  502  0.66394896837E+02 -0.30794813410E+02 -0.30176137396E+02  0.79275939143E+02  0.41800000000E+01 0. -1.
        -11    1    1    2    0    0 -0.66534903547E+02 -0.22391895941E+02 -0.12141327294E+03  0.14024789923E+03  0.00000000000E+00 0. -1.
         11    1    1    2    0    0  0.15073554282E+02  0.17950408155E+02 -0.10377041721E+02  0.25634199549E+02  0.00000000000E+00 0.  1.
</event>
<event>
 7    1  0.2723366E-009  0.7259313E+02  0.7561462E-02  0.1351491E+00
          1   -1    0    0  501    0  0.00000000000E+00  0.00000000000E+00  0.12072596147E+03  0.12072596147E+03  0.00000000000E+00 0. -1.
         -1   -1    0    0    0  501 -0.00000000000E+00 -0.00000000000E+00 -0.11006838709E+03  0.11006838709E+03  0.00000000000E+00 0.  1.
         25    2    1    2    0    0 -0.11031127600E+02  0.55326127379E+01  0.39853273244E+02  0.13186765985E+03  0.12509396767E+03 0.  0.
          5    1    3    3  502    0  0.15612048608E+02 -0.25279298858E+02 -0.35272230015E+02  0.46307468325E+02  0.41800000000E+01 0. -1.
         -5    1    3    3    0  502 -0.26643176208E+02  0.30811911596E+02  0.75125503259E+02  0.85560191529E+02  0.41800000000E+01 0. -1.
        -11    1    1    2    0    0 -0.53143248072E+01 -0.37742359036E+02 -0.45451442930E+02  0.59317462675E+02  0.00000000000E+00 0.  1.
         11    1    1    2    0    0  0.16345452408E+02  0.32209746298E+02  0.16255744068E+02  0.39609226024E+02  0.00000000000E+00 0. -1.
</event>
<event>
 7    1  0.2723366E-009  0.1063416E+03  0.7561462E-02  0.1267499E+00
         -1   -1    0    0    0  501 -0.00000000000E+00  0.00000000000E+00  0.31884390676E+02  0.31884390676E+02  0.00000000000E+00 0. -1.
          1   -1    0    0  501    0  0.00000000000E+00 -0.00000000000E+00 -0.46454151432E+03  0.46454151432E+03  0.00000000000E+00 0.  1.
         25    2    1    2    0    0 -0.17985239248E+02  0.50570073660E+02 -0.22336866131E+03  0.26157595637E+03  0.12509045094E+03 0.  0.
          5    1    3    3  502    0 -0.42802624154E+02  0.80789908020E+02 -0.18613410634E+03  0.20741854260E+03  0.41800000000E+01 0.  1.
         -5    1    3    3    0  502  0.24817384906E+02 -0.30219834360E+02 -0.37234554966E+02  0.54157413766E+02  0.41800000000E+01 0.  1.
        -11    1    1    2    0    0  0.22383199446E+02  0.74924030848E+01 -0.74070577674E+01  0.24738800015E+02  0.00000000000E+00 0. -1.
         11    1    1    2    0    0 -0.43979601973E+01 -0.58062476745E+02 -0.20188140457E+03  0.21011114861E+03  0.00000000000E+00 0.  1.
</event>
<event>
 7    1  0.2723366E-009  0.9952369E+02  0.7561462E-02  0.1281301E+00
          2   -1    0    0  501    0  0.00000000000E+00  0.00000000000E+00  0.21992952398E+03  0.21992952398E+03  0.00000000000E+00 0. -1.
         -2   -1    0    0    0  501 -0.00000000000E+00 -0.00000000000E+00 -0.62896816623E+02  0.62896816623E+02  0.00000000000E+00 0.  1.
         25    2    1    2    0    0  0.17785581554E+02 -0.25840953626E+02  0.13110240494E+03  0.18390387507E+03  0.12509481559E+03 0.  0.
          5    1    3    3  502    0  0.32764829073E+02  0.45304890799E+02  0.60151807268E+02  0.82230039961E+02  0.41800000000E+01 0. -1.
         -5    1    3    3    0  502 -0.14979247518E+02 -0.71145844424E+02  0.70950597671E+02  0.10167383510E+03  0.41800000000E+01 0. -1.
        -11    1    1    2    0    0 -0.60503187701E+01 -0.21006000766E+02 -0.21905827064E+02  0.30947111089E+02  0.00000000000E+00 0.  1.
         11    1    1    2    0    0 -0.11735262784E+02  0.46846954391E+02  0.47836129482E+02  0.67975354447E+02  0.00000000000E+00 0. -1.
</event>
<event>
 7    1  0.2723366E-009  0.1168393E+03  0.7561462E-02  0.1248404E+00
          2   -1    0    0  501    0  0.00000000000E+00  0.00000000000E+00  0.24161374049E+03  0.24161374049E+03  0.00000000000E+00 0. -1.
         -2   -1    0    0    0  501 -0.00000000000E+00 -0.00000000000E+00 -0.78082499804E+02  0.78082499804E+02  0.00000000000E+00 0.  1.
         25    2    1    2    0    0  0.45933743400E+02  0.26339318202E+02  0.14545511231E+03  0.19901672471E+03  0.12508716381E+03 0.  0.
          5    1    3    3  502    0 -0.41036763474E+02 -0.56027922752E+01  0.59131513726E+02  0.72314698044E+02  0.41800000000E+01 0.  1.
         -5    1    3    3    0  502  0.86970506874E+02  0.31942110477E+02  0.86323598586E+02  0.12670202666E+03  0.41800000000E+01 0.  1.
        -11    1    1    2    0    0 -0.43103970963E+02 -0.55351952696E+02 -0.19789379488E+02  0.72893144537E+02  0.00000000000E+00 0.  1.
         11    1    1    2    0    0 -0.28297724365E+01  0.29012634494E+02  0.37865507861E+02  0.47786371047E+02  0.00000000000E+00 0. -1.
</event>
<event>
 7    1  0.2723366E-009  0.1685723E+03  0.7561462E-02  0.1179345E+00
         -2   -1    0    0    0  501 -0.00000000000E+00  0.00000000000E+00  0.52424417838E+02  0.52424417838E+02  0.00000000000E+00 0.  1.
          2   -1    0    0  501    0  0.00000000000E+00 -0.00000000000E+00 -0.63119231985E+03  0.63119231985E+03  0.00000000000E+00 0. -1.
         25    2    1    2    0    0 -0.10392245796E+03 -0.96567050407E+02 -0.24092539087E+03  0.30629669156E+03  0.12509015470E+03 0.  0.
          5    1    3    3  502    0 -0.50192203197E+02  0.18934006544E+02 -0.35231441638E+02  0.64315478273E+02  0.41800000000E+01 0.  1.
         -5    1    3    3    0  502 -0.53730254764E+02 -0.11550105695E+03 -0.20569394923E+03  0.24198121329E+03  0.41800000000E+01 0.  1.
        -11    1    1    2    0    0  0.75545701218E+02  0.10206040124E+03 -0.20321138657E+03  0.23962125553E+03  0.00000000000E+00 0.  1.
         11    1    1    2    0    0  0.28376756743E+02 -0.54933508309E+01 -0.13463112457E+03  0.13769879059E+03  0.00000000000E+00 0. -1.
</event>
<event>
 7    1  0.2723366E-009  0.2166058E+03  0.7561462E-02  0.1136439E+00
         -1   -1    0    0    0  501 -0.00000000000E+00  0.00000000000E+00  0.24304090966E+03  0.24304090966E+03  0.00000000000E+00 0.  1.
          1   -1    0    0  501    0  0.00000000000E+00 -0.00000000000E+00 -0.34800456146E+03  0.34800456146E+03  0.00000000000E+00 0. -1.
         25    2    1    2    0    0 -0.19783931495E+03 -0.56311458197E+02 -0.23086017980E+03  0.33354888078E+03  0.12508820244E+03 0.  0.
          5    1    3    3  502    0 -0.59417526116E+02 -0.45223397824E+02 -0.16213404995E+03  0.17855117102E+03  0.41800000000E+01 0. -1.
         -5    1    3    3    0  502 -0.13842178883E+03 -0.11088060374E+02 -0.68726129853E+02  0.15499770976E+03  0.41800000000E+01 0. -1.
        -11    1    1    2    0    0  0.20162591145E+03  0.43670969266E+02  0.10186270268E+03  0.23007862117E+03  0.00000000000E+00 0. -1.
         11    1    1    2    0    0 -0.37865965002E+01  0.12640488932E+02  0.24033825325E+02  0.27417969167E+02  0.00000000000E+00 0.  1.
</event>
<event>
 7    1  0.2723366E-009  0.1192512E+03  0.7561462E-02  0.1244337E+00
         -1   -1    0    0    0  501 -0.00000000000E+00  0.00000000000E+00  0.81732589352E+02  0.81732589352E+02  0.00000000000E+00 0.  1.
          1   -1    0    0  501    0  0.00000000000E+00 -0.00000000000E+00 -0.19100130901E+03  0.19100130901E+03  0.00000000000E+00 0. -1.
         25    2    1    2    0    0 -0.57929915849E+02 -0.10980623935E+02 -0.78793238027E+02  0.15916029488E+03  0.12508867197E+03 0.  0.
          5    1    3    3  502    0  0.30792034852E+02  0.24623742903E+02 -0.88253783711E+01  0.40618195778E+02  0.41800000000E+01 0.  1.
         -5    1    3    3    0  502 -0.88721950701E+02 -0.35604366838E+02 -0.69967859656E+02  0.11854209910E+03  0.41800000000E+01 0.  1.
        -11    1    1    2    0    0  0.41298925360E+02 -0.35083750993E+02  0.29664073003E+01  0.54270345419E+02  0.00000000000E+00 0.  1.
         11    1    1    2    0    0  0.16630990489E+02  0.46064374927E+02 -0.33441888935E+02  0.59303258069E+02  0.00000000000E+00 0. -1.
</event>
<event>
 7    1  0.2723366E-009  0.1903743E+03  0.7561462E-02  0.1158124E+00
         -1   -1    0    0    0  501 -0.00000000000E+00  0.00000000000E+00  0.39271240577E+03  0.39271240577E+03  0.00000000000E+00 0.  1.
          1   -1    0    0  501    0  0.00000000000E+00 -0.00000000000E+00 -0.10221323191E+03  0.10221323191E+03  0.00000000000E+00 0. -1.
         25    2    1    2    0    0  0.13729610227E+03  0.10178981807E+03  0.10113041646E+03  0.23470576668E+03  0.12509216211E+03 0.  0.
          5    1    3    3  502    0 -0.22870474342E+02  0.13086024389E+02  0.27602363219E+01  0.26821520007E+02  0.41800000000E+01 0.  1.
         -5    1    3    3    0  502  0.16016657661E+03  0.88703793677E+02  0.98370180140E+02  0.20788424667E+03  0.41800000000E+01 0.  1.
        -11    1    1    2    0    0 -0.10114494100E+03 -0.73577115106E+02  0.16847362078E+03  0.20982671864E+03  0.00000000000E+00 0.  1.
         11    1    1    2    0    0 -0.36151161264E+02 -0.28212702960E+02  0.20895136616E+02  0.50393152345E+02  0.00000000000E+00 0. -1.
</event>
<event>
 7    1  0.2723366E-009  0.9200733E+02  0.7561462E-02  0.1298062E+00
          1   -1    0    0  501    0  0.00000000000E+00  0.00000000000E+00  0.20710096800E+03  0.20710096800E+03  0.00000000000E+00 0. -1.
         -1   -1    0    0    0  501 -0.00000000000E+00 -0.00000000000E+00 -0.60529712896E+02  0.60529712896E+02  0.00000000000E+00 0.  1.
         25    2    1    2    0    0  0.11927612321E+02  0.98100699273E+00  0.10897565901E+03  0.16633340287E+03  0.12509147190E+03 0.  0.
          5    1    3    3  502    0  0.21570638226E+00  0.59999762082E+02  0.78099831195E+02  0.98575220070E+02  0.41800000000E+01 0. -1.
         -5    1    3    3    0  502  0.11711905939E+02 -0.59018755089E+02  0.30875827816E+02  0.67758182800E+02  0.41800000000E+01 0. -1.
        -11    1    1    2    0    0 -0.35697070972E+02  0.10427556980E+02  0.57349919951E+02  0.68352235801E+02  0.00000000000E+00 0. -1.
         11    1    1    2    0    0  0.23769458651E+02 -0.11408563973E+02 -0.19754323854E+02  0.32945042229E+02  0.00000000000E+00 0.  1.
</event>
<event>
 7    1  0.2723366E-009  0.4114361E+03  0.7561462E-02  0.1039890E+00
          2   -1    0    0  501    0  0.00000000000E+00  0.00000000000E+00  0.12912976931E+04  0.12912976931E+04  0.00000000000E+00 0. -1.
         -2   -1    0    0    0  501 -0.00000000000E+00 -0.00000000000E+00 -0.14464368095E+03  0.14464368095E+03  0.00000000000E+00 0.  1.
         25    2    1    2    0    0  0.16180512904E+03  0.37194151559E+03  0.41034694300E+03  0.59038474450E+03  0.12509253419E+03 0.  0.
          5    1    3    3  502    0  0.10116827810E+03  0.30185619552E+03  0.37292991475E+03  0.49035331852E+03  0.41800000000E+01 0. -1.
         -5    1    3    3    0  502  0.60636850943E+02  0.70085320063E+02  0.37417028247E+02  0.10003142598E+03  0.41800000000E+01 0. -1.
        -11    1    1    2    0    0 -0.41518303208E+02 -0.36221728980E+02  0.63431444332E+02  0.84019826717E+02  0.00000000000E+00 0.  1.
         11    1    1    2    0    0 -0.12028682583E+03 -0.33571978661E+03  0.67287562484E+03  0.76153680285E+03  0.00000000000E+00 0. -1.
</event>
<event>
 7    1  0.2723366E-009  0.1098443E+03  0.7561462E-02  0.1260858E+00
         -1   -1    0    0    0  501 -0.00000000000E+00  0.00000000000E+00  0.32046881882E+03  0.32046881882E+03  0.00000000000E+00 0.  1.
          1   -1    0    0  501    0  0.00000000000E+00 -0.00000000000E+00 -0.55362681342E+02  0.55362681342E+02  0.00000000000E+00 0. -1.
         25    2    1    2    0    0 -0.34644114372E+02  0.30203909150E+02  0.23650732627E+03  0.27147279165E+03  0.12509704409E+03 0.  0.
          5    1    3    3  502    0 -0.74397587026E+02 -0.63054231093E+01  0.10197026781E+03  0.12645223301E+03  0.41800000000E+01 0.  1.
         -5    1    3    3    0  502  0.39753472654E+02  0.36509332259E+02  0.13453705846E+03  0.14502055864E+03  0.41800000000E+01 0.  1.
        -11    1    1    2    0    0  0.81720944716E+01 -0.54337933873E+02  0.38617785544E+02  0.67161950135E+02  0.00000000000E+00 0.  1.
         11    1    1    2    0    0  0.26472019901E+02  0.24134024723E+02 -0.10018974334E+02  0.37196758375E+02  0.00000000000E+00 0. -1.
</event>
<event>
 7    1  0.2723366E-009  0.1235088E+03  0.7561462E-02  0.1237418E+00
         -3   -1    0    0    0  501 -0.00000000000E+00  0.00000000000E+00  0.30769309028E+03  0.30769309028E+03  0.00000000000E+00 0.  1.
          3   -1    0    0  501    0  0.00000000000E+00 -0.00000000000E+00 -0.60861882208E+02  0.60861882208E+02  0.00000000000E+00 0. -1.
         25    2    1    2    0    0 -0.36752006955E+02 -0.60767566257E+02  0.78263524099E+02  0.16375593319E+03  0.12508964516E+03 0.  0.
          5    1    3    3  502    0  0.33892223128E+02 -0.53686502826E+02  0.86084673732E+01  0.64206709032E+02  0.41800000000E+01 0. -1.
         -5    1    3    3    0  502 -0.70644230083E+02 -0.70810634312E+01  0.69655056726E+02  0.99549224160E+02  0.41800000000E+01 0. -1.
        -11    1    1    2    0    0 -0.65527474670E+01  0.68043018085E+02  0.75231427281E+02  0.10164919311E+03  0.00000000000E+00 0.  1.
         11    1    1    2    0    0  0.43304754422E+02 -0.72754518275E+01  0.93336256686E+02  0.10314984618E+03  0.00000000000E+00 0. -1.
</event>
<event>
 7    1  0.2723366E-009  0.1476484E+03  0.7561462E-02  0.1203393E+00
          1   -1    0    0  501    0  0.00000000000E+00  0.00000000000E+00  0.25284133000E+02  0.25284133000E+02  0.00000000000E+00 0. -1.
         -1   -1    0    0    0  501 -0.00000000000E+00 -0.00000000000E+00 -0.10076902481E+04  0.10076902481E+04  0.00000000000E+00 0.  1.
         25    2    1    2    0    0 -0.85907141553E+02  0.75367609885E+02 -0.45448803192E+03  0.48504311294E+03  0.12508851529E+03 0.  0.
          5    1    3    3  502    0 -0.26321467251E+02 -0.27960115782E+02 -0.20336810223E+03  0.20700397367E+03  0.41800000000E+01 0. -1.
         -5    1    3    3    0  502 -0.59585674302E+02  0.10332772567E+03 -0.25111992970E+03  0.27803913927E+03  0.41800000000E+01 0. -1.
        -11    1    1    2    0    0  0.33409613044E+02 -0.77898481013E+02 -0.22396478618E+03  0.23946732770E+03  0.00000000000E+00 0.  1.
         11    1    1    2    0    0  0.52497528509E+02  0.25308711289E+01 -0.30395329699E+03  0.30846394046E+03  0.00000000000E+00 0. -1.
</event>
<event>
 7    1  0.2723366E-009  0.5173820E+02  0.7561462E-02  0.1436185E+00
          1   -1    0    0  501    0  0.00000000000E+00  0.00000000000E+00  0.26383108182E+03  0.26383108182E+03  0.00000000000E+00 0. -1.
         -1   -1    0    0    0  501 -0.00000000000E+00 -0.00000000000E+00 -0.46131101527E+02  0.46131101527E+02  0.00000000000E+00 0.  1.
         25    2    1    2    0    0  0.85780301502E+01  0.25356401552E+01  0.15617636869E+03  0.20029372673E+03  0.12508599745E+03 0.  0.
          5    1    3    3  502    0  0.37755158953E+02 -0.74726706413E+00 -0.32503499150E+01  0.38131976217E+02  0.41800000000E+01 0. -1.
         -5    1    3    3    0  502 -0.29177128803E+02  0.32829072194E+01  0.15942671860E+03  0.16216175051E+03  0.41800000000E+01 0. -1.
        -11    1    1    2    0    0  0.10497731200E+02 -0.10778087077E+02 -0.20288478130E+02  0.25258500871E+02  0.00000000000E+00 0.  1.
         11    1    1    2    0    0 -0.19075761351E+02  0.82424469214E+01  0.81812089741E+02  0.84409955752E+02  0.00000000000E+00 0. -1.
</event>
<event>
 7    1  0.2723366E-009  0.8367638E+02  0.7561462E-02  0.1318931E+00
          1   -1    0    0  501    0  0.00000000000E+00  0.00000000000E+00  0.10192248995E+03  0.10192248995E+03  0.00000000000E+00 0. -1.
         -1   -1    0    0    0  501 -0.00000000000E+00 -0.00000000000E+00 -0.15932604091E+03  0.15932604091E+03  0.00000000000E+00 0.  1.
         25    2    1    2    0    0  0.70122181768E+01 -0.33702359187E+02  0.26416381355E+02  0.13240501153E+03  0.12509293208E+03 0.  0.
          5    1    3    3  502    0 -0.18551408261E+02 -0.39950936871E+02  0.69120731883E+02  0.82069361405E+02  0.41800000000E+01 0.  1.
         -5    1    3    3    0  502  0.25563626438E+02  0.62485776834E+01 -0.42704350528E+02  0.50335650128E+02  0.41800000000E+01 0.  1.
        -11    1    1    2    0    0  0.28080821076E+02 -0.18450699421E+02 -0.39882684331E+02  0.52149681982E+02  0.00000000000E+00 0.  1.
         11    1    1    2    0    0 -0.35093039253E+02  0.52153058608E+02 -0.43937247987E+02  0.76693837346E+02  0.00000000000E+00 0. -1.
</event>
<event>
 7    1  0.2723366E-009  0.6058972E+02  0.7561462E-02  0.1395373E+00
         -2   -1    0    0    0  501 -0.00000000000E+00  0.00000000000E+00  0.63097922523E+02  0.63097922523E+02  0.00000000000E+00 0.  1.
          2   -1    0    0  501    0  0.00000000000E+00 -0.00000000000E+00 -0.23987193358E+03  0.23987193358E+03  0.00000000000E+00 0. -1.
         25    2    1    2    0    0  0.48852866457E+00  0.14384145727E+02 -0.32197868397E+02  0.12996728321E+03  0.12509056586E+03 0.  0.
          5    1    3    3  502    0  0.79238236165E+01 -0.12053309871E+01 -0.79201986638E+02  0.79716164552E+02  0.41800000000E+01 0.  1.
         -5    1    3    3    0  502 -0.74352949519E+01  0.15589476714E+02  0.47004118241E+02  0.50251118663E+02  0.41800000000E+01 0.  1.
        -11    1    1    2    0    0  0.31253248960E+02 -0.41961436572E+02 -0.90048683962E+02  0.10414553861E+03  0.00000000000E+00 0.  1.
         11    1    1    2    0    0 -0.31741777624E+02  0.27577290845E+02 -0.54527458700E+02  0.68857034277E+02  0.00000000000E+00 0. -1.
</event>
<event>
 7    1  0.2723366E-009  0.9401117E+02  0.7561462E-02  0.1293419E+00
         -2   -1    0    0    0  501 -0.00000000000E+00  0.00000000000E+00  0.15303779823E+03  0.15303779823E+03  0.00000000000E+00 0.  1.
          2   -1    0    0  501    0  0.00000000000E+00 -0.00000000000E+00 -0.11667427339E+03  0.11667427339E+03  0.00000000000E+00 0. -1.
         25    2    1    2    0    0  0.70394058305E+02 -0.11758344886E+02 -0.84776174000E+01  0.14426604828E+03  0.12508893064E+03 0.  0.
          5    1    3    3  502    0  0.82525245422E+01 -0.23589641571E+02  0.51246387530E+02  0.57168522682E+02  0.41800000000E+01 0. -1.
         -5    1    3    3    0  502  0.62141533763E+02  0.11831296685E+02 -0.59724004930E+02  0.87097525593E+02  0.41800000000E+01 0. -1.
        -11    1    1    2    0    0 -0.42729328660E+02  0.40869750641E+02  0.58353579016E+02  0.83073896196E+02  0.00000000000E+00 0.  1.
         11    1    1    2    0    0 -0.27664729645E+02 -0.29111405755E+02 -0.13512436784E+02  0.42372127150E+02  0.00000000000E+00 0. -1.
</event>
<event>
 7    1  0.2723366E-009  0.1047784E+03  0.7561462E-02  0.1270557E+00
         -1   -1    0    0    0  501 -0.00000000000E+00  0.00000000000E+00  0.14619707411E+03  0.14619707411E+03  0.00000000000E+00 0.  1.
          1   -1    0    0  501    0  0.00000000000E+00 -0.00000000000E+00 -0.84594813089E+02  0.84594813089E+02  0.00000000000E+00 0. -1.
         25    2    1    2    0    0  0.43867169308E+01  0.81777077805E+01  0.55568108732E+02  0.13718931395E+03  0.12508786897E+03 0.  0.
          5    1    3    3  502    0  0.56211351938E+02 -0.22372211296E+02  0.46032730905E+02  0.76136171689E+02  0.41800000000E+01 0. -1.
         -5    1    3    3    0  502 -0.51824635007E+02  0.30549919076E+02  0.95353778267E+01  0.61053142257E+02  0.41800000000E+01 0. -1.
        -11    1    1    2    0    0  0.40292824942E+02  0.80209908961E+01  0.17592875655E+02  0.44691803617E+02  0.00000000000E+00 0.  1.
         11    1    1    2    0    0 -0.44679541873E+02 -0.16198698677E+02 -0.11558723363E+02  0.48910769638E+02  0.00000000000E+00 0. -1.
</event>
<event>
 7    1  0.2723366E-009  0.3651007E+03  0.7561462E-02  0.1056582E+00
          1   -1    0    0  501    0  0.00000000000E+00  0.00000000000E+00  0.38332949941E+03  0.38332949941E+03  0.00000000000E+00 0. -1.
         -1   -1    0    0    0  501 -0.00000000000E+00 -0.00000000000E+00 -0.49794865630E+03  0.49794865630E+03  0.00000000000E+00 0.  1.
         25    2    1    2    0    0  0.21429306297E+03  0.29002694103E+03  0.16446420510E+03  0.41561266428E+03  0.12509303975E+03 0.  0.
          5    1    3    3  502    0  0.78221732804E+02  0.17333574063E+03  0.13654326248E+03  0.23414835765E+03  0.41800000000E+01 0. -1.
         -5    1    3    3    0  502  0.13607133016E+03  0.11669120040E+03  0.27920942616E+02  0.18146430663E+03  0.41800000000E+01 0. -1.
        -11    1    1    2    0    0 -0.98174961569E+02 -0.13914564549E+03 -0.73542642265E+02  0.18549488933E+03  0.00000000000E+00 0.  1.
         11    1    1    2    0    0 -0.11611810140E+03 -0.15088129554E+03 -0.20554071972E+03  0.28017060210E+03  0.00000000000E+00 0. -1.
</event>
<event>
 7    1  0.3685761E-009  0.1824882E+03  0.7561462E-02  0.1165416E+00
          2   -1    0    0  501    0  0.00000000000E+00  0.00000000000E+00  0.34434625521E+03  0.34434625521E+03  0.00000000000E+00 0. -1.
         -2   -1    0    0    0  501 -0.00000000000E+00 -0.00000000000E+00 -0.11295865238E+03  0.11295865238E+03  0.00000000000E+00 0.  1.
         25    2    1    2    0    0  0.93362460908E+02 -0.11568141784E+03  0.20138054597E+03  0.27982297604E+03  0.12509210240E+03 0.  0.
          5    1    3    3  502    0 -0.93020533895E+01  0.20913594106E+02  0.21405914035E+02  0.31616327607E+02  0.41800000000E+01 0.  1.
         -5    1    3    3    0  502  0.10266451430E+03 -0.13659501195E+03  0.17997463193E+03  0.24820664843E+03  0.41800000000E+01 0.  1.
        -11    1    1    2    0    0 -0.82332855579E+02  0.35187636857E+02 -0.34819836606E+01  0.89604648906E+02  0.00000000000E+00 0. -1.
         11    1    1    2    0    0 -0.11029605329E+02  0.80493780985E+02  0.33489040520E+02  0.87877282650E+02  0.00000000000E+00 0.  1.
</event>
<event>
 7    1  0.2723366E-009  0.9463363E+02  0.7561462E-02  0.1292003E+00
         -2   -1    0    0    0  501 -0.00000000000E+00  0.00000000000E+00  0.17033116090E+02  0.17033116090E+02  0.00000000000E+00 0. -1.
          2   -1    0    0  501    0  0.00000000000E+00 -0.00000000000E+00 -0.85142884272E+03  0.85142884272E+03  0.00000000000E+00 0.  1.
         25    2    1    2    0    0  0.25673487589E+02  0.30832417584E+02 -0.59253434597E+03  0.60692226497E+03  0.12509164090E+03 0.  0.
          5    1    3    3  502    0  0.64679872655E+02 -0.18159701857E+02 -0.34889715956E+03  0.35533077695E+03  0.41800000000E+01 0.  1.
         -5    1    3    3    0  502 -0.39006385066E+02  0.48992119441E+02 -0.24363718641E+03  0.25159148802E+03  0.41800000000E+01 0.  1.
        -11    1    1    2    0    0 -0.84095656749E+01 -0.39141054300E+02 -0.23880584133E+03  0.24213833397E+03  0.00000000000E+00 0.  1.
         11    1    1    2    0    0 -0.17263921915E+02  0.83086367153E+01 -0.30555393270E+01  0.19401359863E+02  0.00000000000E+00 0. -1.
</event>
<event>
 7    1  0.2723366E-009  0.2187948E+03  0.7561462E-02  0.1134785E+00
         -1   -1    0    0    0  501 -0.00000000000E+00  0.00000000000E+00  0.10917350847E+03  0.10917350847E+03  0.00000000000E+00 0.  1.
          1   -1    0    0  501    0  0.00000000000E+00 -0.00000000000E+00 -0.56046192147E+03  0.56046192147E+03  0.00000000000E+00 0. -1.
         25    2    1    2    0    0 -0.92617468855E+02 -0.18011075144E+03 -0.36038292362E+03  0.43190431481E+03  0.12509039609E+03 0.  0.
          5    1    3    3  502    0 -0.17743355058E+02 -0.14558736488E+03 -0.17106400256E+03  0.22536830485E+03  0.41800000000E+01 0.  1.
         -5    1    3    3    0  502 -0.74874113797E+02 -0.34523386556E+02 -0.18931892106E+03  0.20653600996E+03  0.41800000000E+01 0.  1.
        -11    1    1    2    0    0  0.77704362009E+01  0.64170986528E+02 -0.65140549550E+02  0.91769201731E+02  0.00000000000E+00 0. -1.
         11    1    1    2    0    0  0.84847032654E+02  0.11593976491E+03 -0.25764939835E+02  0.14596191340E+03  0.00000000000E+00 0.  1.
</event>
<event>
 7    1  0.2723366E-009  0.3334800E+03  0.7561462E-02  0.1069607E+00
          2   -1    0    0  501    0  0.00000000000E+00  0.00000000000E+00  0.64164749819E+03  0.64164749819E+03  0.00000000000E+00 0.  1.
         -2   -1    0    0    0  501 -0.00000000000E+00 -0.00000000000E+00 -0.49109516179E+03  0.49109516179E+03  0.00000000000E+00 0. -1.
         25    2    1    2    0    0  0.11041866590E+03 -0.29551920813E+03  0.53098589624E+03  0.63017226437E+03  0.12508867504E+03 0.  0.
          5    1    3    3  502    0  0.84849381427E+01 -0.19798000251E+03  0.30693117434E+03  0.36536597235E+03  0.41800000000E+01 0. -1.
         -5    1    3    3    0  502  0.10193372776E+03 -0.97539205615E+02  0.22405472190E+03  0.26480629202E+03  0.41800000000E+01 0. -1.
        -11    1    1    2    0    0 -0.95154129174E+02  0.29737931778E+03 -0.36920445560E+03  0.48352941687E+03  0.00000000000E+00 0.  1.
         11    1    1    2    0    0 -0.15264536727E+02 -0.18601096490E+01 -0.11229104246E+02  0.19040978745E+02  0.00000000000E+00 0. -1.
</event>
<event>
 7    1  0.2723366E-009  0.1749828E+03  0.7561462E-02  0.1172749E+00
         -2   -1    0    0    0  501 -0.00000000000E+00  0.00000000000E+00  0.63250748625E+03  0.63250748625E+03  0.00000000000E+00 0.  1.
          2   -1    0    0  501    0  0.00000000000E+00 -0.00000000000E+00 -0.58626434857E+02  0.58626434857E+02  0.00000000000E+00 0. -1.
         25    2    1    2    0    0 -0.63360327668E+02 -0.13731717691E+03  0.38909010701E+03  0.43578831558E+03  0.12509918634E+03 0.  0.
          5    1    3    3  502    0 -0.91019551265E+02 -0.52931681056E+02  0.24155151006E+03  0.26353543592E+03  0.41800000000E+01 0. -1.
         -5    1    3    3    0  502  0.27659223597E+02 -0.84385495856E+02  0.14753859696E+03  0.17225287966E+03  0.41800000000E+01 0. -1.
        -11    1    1    2    0    0  0.59609062539E+02  0.88344630298E+02  0.17555047922E+03  0.20536792543E+03  0.00000000000E+00 0.  1.
         11    1    1    2    0    0  0.37512651295E+01  0.48972546614E+02  0.92404651576E+01  0.49977680101E+02  0.00000000000E+00 0. -1.
</event>
<event>
 7    1  0.2723366E-009  0.8854674E+02  0.7561462E-02  0.1306410E+00
         -1   -1    0    0    0  501 -0.00000000000E+00  0.00000000000E+00  0.31553327509E+02  0.31553327509E+02  0.00000000000E+00 0.  1.
          1   -1    0    0  501    0  0.00000000000E+00 -0.00000000000E+00 -0.46767198866E+03  0.46767198866E+03  0.00000000000E+00 0. -1.
         25    2    1    2    0    0  0.13463717391E+01  0.52966584173E+02 -0.20595551479E+03  0.24672374516E+03  0.12509060955E+03 0.  0.
          5    1    3    3  502    0 -0.56622325460E+01 -0.95394578496E+01 -0.17692839358E+03  0.17732509972E+03  0.41800000000E+01 0.  1.
         -5    1    3    3    0  502  0.70086042852E+01  0.62506042023E+02 -0.29027121203E+02  0.69398645439E+02  0.41800000000E+01 0.  1.
        -11    1    1    2    0    0  0.33606920268E+02  0.55295789699E+01 -0.56826977070E+02  0.66251842664E+02  0.00000000000E+00 0.  1.
         11    1    1    2    0    0 -0.34953292007E+02 -0.58496163143E+02 -0.17333616929E+03  0.18624972835E+03  0.00000000000E+00 0. -1.
</event>
<event>
 7    1  0.2723366E-009  0.8213382E+02  0.7561462E-02  0.1323103E+00
          1   -1    0    0  501    0  0.00000000000E+00  0.00000000000E+00  0.29305102580E+03  0.29305102580E+03  0.00000000000E+00 0. -1.
         -1   -1    0    0    0  501 -0.00000000000E+00 -0.00000000000E+00 -0.46168931753E+02  0.46168931753E+02  0.00000000000E+00 0.  1.
         25    2    1    2    0    0 -0.14191169242E+02  0.39997325467E+02  0.15855497853E+03  0.20636786675E+03  0.12508732901E+03 0.  0.
          5    1    3    3  502    0  0.18220310814E+02  0.11526752457E+02 -0.15575579150E+02  0.26924279270E+02  0.41800000000E+01 0.  1.
         -5    1    3    3    0  502 -0.32411480056E+02  0.28470573010E+02  0.17413055768E+03  0.17944358748E+03  0.41800000000E+01 0.  1.
        -11    1    1    2    0    0 -0.32166027571E+02 -0.41592081511E+02  0.41994605326E+02  0.67291169188E+02  0.00000000000E+00 0. -1.
         11    1    1    2    0    0  0.46357196813E+02  0.15947560443E+01  0.46332510185E+02  0.65560921617E+02  0.00000000000E+00 0.  1.
</event>
<event>
 7    1  0.2723366E-009  0.2154034E+03  0.7561462E-02  0.1137357E+00
         -2   -1    0    0    0  501 -0.00000000000E+00  0.00000000000E+00  0.67652715218E+02  0.67652715218E+02  0.00000000000E+00 0.  1.
          2   -1    0    0  501    0  0.00000000000E+00 -0.00000000000E+00 -0.80569437765E+03  0.80569437765E+03  0.00000000000E+00 0. -1.
         25    2    1    2    0    0  0.17336091441E+03  0.11047896515E+03 -0.43377563990E+03  0.49605305603E+03  0.12509084791E+03 0.  0.
          5    1    3    3  502    0  0.16625552652E+03  0.64851896386E+02 -0.25437982330E+03  0.31076234564E+03  0.41800000000E+01 0.  1.
         -5    1    3    3    0  502  0.71053878902E+01  0.45627068766E+02 -0.17939581660E+03  0.18529071039E+03  0.41800000000E+01 0.  1.
        -11    1    1    2    0    0 -0.22482195016E+02 -0.96414748551E+01 -0.17544205328E+01  0.24525193608E+02  0.00000000000E+00 0.  1.
         11    1    1    2    0    0 -0.15087871939E+03 -0.10083749030E+03 -0.30251160200E+03  0.35276884324E+03  0.00000000000E+00 0. -1.
</event>
<event>
 7    1  0.2723366E-009  0.1319537E+03  0.7561462E-02  0.1224585E+00
         -1   -1    0    0    0  501 -0.00000000000E+00  0.00000000000E+00  0.13142798878E+03  0.13142798878E+03  0.00000000000E+00 0.  1.
          1   -1    0    0  501    0  0.00000000000E+00 -0.00000000000E+00 -0.18761289915E+03  0.18761289915E+03  0.00000000000E+00 0. -1.
         25    2    1    2    0    0 -0.40676791618E+02 -0.95815137526E+02 -0.76343623599E+02  0.17975374306E+03  0.12509163570E+03 0.  0.
          5    1    3    3  502    0 -0.49466553797E+02 -0.22791235038E+02 -0.89563830635E+02  0.10490725665E+03  0.41800000000E+01 0. -1.
         -5    1    3    3    0  502  0.87897621785E+01 -0.73023902488E+02  0.13220207036E+02  0.74846486410E+02  0.41800000000E+01 0. -1.
        -11    1    1    2    0    0  0.47608130836E+02  0.89133800112E+01 -0.46231282908E+01  0.48655480473E+02  0.00000000000E+00 0.  1.
         11    1    1    2    0    0 -0.69313392174E+01  0.86901757515E+02  0.24781841527E+02  0.90631664400E+02  0.00000000000E+00 0. -1.
</event>
<event>
 7    1  0.2723366E-009  0.8376457E+02  0.7561462E-02  0.1318695E+00
          2   -1    0    0  501    0  0.00000000000E+00  0.00000000000E+00  0.19722829961E+03  0.19722829961E+03  0.00000000000E+00 0. -1.
         -2   -1    0    0    0  501 -0.00000000000E+00 -0.00000000000E+00 -0.71008170082E+02  0.71008170082E+02  0.00000000000E+00 0.  1.
         25    2    1    2    0    0 -0.13406504697E+02  0.46120760048E+02  0.74989083242E+02  0.15354815346E+03  0.12508722537E+03 0.  0.
          5    1    3    3  502    0 -0.25315043921E+02  0.54212827612E+01 -0.30235098907E+02  0.40023435153E+02  0.41800000000E+01 0.  1.
         -5    1    3    3    0  502  0.11908539224E+02  0.40699477287E+02  0.10522418215E+03  0.11352471831E+03  0.41800000000E+01 0.  1.
        -11    1    1    2    0    0 -0.33277021705E+02 -0.29741990467E+00  0.29967725285E+01  0.33413010606E+02  0.00000000000E+00 0.  1.
         11    1    1    2    0    0  0.46683526402E+02 -0.45823340143E+02  0.48234273754E+02  0.81275305621E+02  0.00000000000E+00 0. -1.
</event>
<event>
 7    1  0.2723366E-009  0.8903719E+02  0.7561462E-02  0.1305200E+00
          1   -1    0    0  501    0  0.00000000000E+00  0.00000000000E+00  0.17401229799E+03  0.17401229799E+03  0.00000000000E+00 0. -1.
         -1   -1    0    0    0  501 -0.00000000000E+00 -0.00000000000E+00 -0.93320204858E+02  0.93320204858E+02  0.00000000000E+00 0.  1.
         25    2    1    2    0    0  0.26658357256E+02  0.61247977661E+02  0.31466061278E+02  0.14525573521E+03  0.12508849995E+03 0.  0.
          5    1    3    3  502    0  0.23484444872E+02  0.58371776190E+02  0.76889518476E+02  0.99439699607E+02  0.41800000000E+01 0. -1.
         -5    1    3    3    0  502  0.31739123837E+01  0.28762014706E+01 -0.45423457198E+02  0.45816035605E+02  0.41800000000E+01 0. -1.
        -11    1    1    2    0    0 -0.57194717418E+02 -0.27316598955E+02  0.41547523744E+02  0.75786733722E+02  0.00000000000E+00 0.  1.
         11    1    1    2    0    0  0.30536360162E+02 -0.33931378705E+02  0.76785081080E+01  0.46290033912E+02  0.00000000000E+00 0. -1.
</event>
<event>
 7    1  0.2723366E-009  0.6222196E+02  0.7561462E-02  0.1388737E+00
         -3   -1    0    0    0  501 -0.00000000000E+00  0.00000000000E+00  0.48185899108E+03  0.48185899108E+03  0.00000000000E+00 0.  1.
          3   -1    0    0  501    0  0.00000000000E+00 -0.00000000000E+00 -0.27071708470E+02  0.27071708470E+02  0.00000000000E+00 0. -1.
         25    2    1    2    0    0 -0.17311678818E+02 -0.29561836491E+02  0.26341940639E+03  0.29361649854E+03  0.12508904090E+03 0.  0.
          5    1    3    3  502    0 -0.18901146073E+02 -0.21011234447E+01 -0.77985818152E+01  0.20975183454E+02  0.41800000000E+01 0.  1.
         -5    1    3    3    0  502  0.15894672552E+01 -0.27460713046E+02  0.27121798820E+03  0.27264131508E+03  0.41800000000E+01 0.  1.
        -11    1    1    2    0    0 -0.26155389465E+02  0.32932983157E+01  0.12128217338E+02  0.29017992137E+02  0.00000000000E+00 0. -1.
         11    1    1    2    0    0  0.43467068283E+02  0.26268538175E+02  0.17923965889E+03  0.18629620888E+03  0.00000000000E+00 0.  1.
</event>
<event>
 7    1  0.2723366E-009  0.9999185E+02  0.7561462E-02  0.1280313E+00
         -1   -1    0    0    0  501 -0.00000000000E+00  0.00000000000E+00  0.57888275447E+03  0.57888275447E+03  0.00000000000E+00 0.  1.
          1   -1    0    0  501    0  0.00000000000E+00 -0.00000000000E+00 -0.33584316622E+02  0.33584316622E+02  0.00000000000E+00 0. -1.
         25    2    1    2    0    0 -0.15750523162E+02 -0.57774710558E+02  0.43920879830E+03  0.46058652354E+03  0.12509828539E+03 0.  0.
          5    1    3    3  502    0  0.22014877508E+02  0.75458812650E+01  0.31001347461E+03  0.31091384980E+03  0.41800000000E+01 0.  1.
         -5    1    3    3    0  502 -0.37765400670E+02 -0.65320591823E+02  0.12919532369E+03  0.14967267375E+03  0.41800000000E+01 0.  1.
        -11    1    1    2    0    0  0.37550545158E+02  0.67232519620E+02  0.52337606877E+02  0.93110043657E+02  0.00000000000E+00 0. -1.
         11    1    1    2    0    0 -0.21800021996E+02 -0.94578090624E+01  0.53752032676E+02  0.58770503895E+02  0.00000000000E+00 0.  1.
</event>
<event>
 7    1  0.2723366E-009  0.1050436E+03  0.7561462E-02  0.1270034E+00
         -1   -1    0    0    0  501 -0.00000000000E+00  0.00000000000E+00  0.63603600410E+02  0.63603600410E+02  0.00000000000E+00 0.  1.
          1   -1    0    0  501    0  0.00000000000E+00 -0.00000000000E+00 -0.39887269412E+03  0.39887269412E+03  0.00000000000E+00 0. -1.
         25    2    1    2    0    0  0.53973149388E+02  0.74791117699E+01 -0.30976258661E+02  0.13990717604E+03  0.12508177861E+03 0.  0.
          5    1    3    3  502    0  0.26794846860E+02  0.51585094548E+02  0.25094213559E+02  0.63452169009E+02  0.41800000000E+01 0. -1.
         -5    1    3    3    0  502  0.27178302528E+02 -0.44105982778E+02 -0.56070472221E+02  0.76455007031E+02  0.41800000000E+01 0. -1.
        -11    1    1    2    0    0 -0.90182378182E+01  0.36107428975E+02 -0.17497955228E+03  0.17889359618E+03  0.00000000000E+00 0. -1.
         11    1    1    2    0    0 -0.44954911570E+02 -0.43586540745E+02 -0.12931328277E+03  0.14367552231E+03  0.00000000000E+00 0.  1.
</event>
<event>
 7    1  0.2723366E-009  0.1180054E+03  0.7561462E-02  0.1246424E+00
         -1   -1    0    0    0  501 -0.00000000000E+00  0.00000000000E+00  0.28005538921E+02  0.28005538921E+02  0.00000000000E+00 0.  1.
          1   -1    0    0  501    0  0.00000000000E+00 -0.00000000000E+00 -0.63350493826E+03  0.63350493826E+03  0.00000000000E+00 0. -1.
         25    2    1    2    0    0  0.67886692876E+02 -0.52836582711E+00 -0.26039954449E+03  0.29675671232E+03  0.12509093210E+03 0.  0.
          5    1    3    3  502    0 -0.25957017049E+02  0.85229673299E+01 -0.10386762066E+02  0.29525665655E+02  0.41800000000E+01 0. -1.
         -5    1    3    3    0  502  0.93843709925E+02 -0.90513331570E+01 -0.25001278242E+03  0.26723104666E+03  0.41800000000E+01 0. -1.
        -11    1    1    2    0    0 -0.51817254709E+02  0.43795316096E+02 -0.15622219869E+03  0.17031862188E+03  0.00000000000E+00 0.  1.
         11    1    1    2    0    0 -0.16069438167E+02 -0.43266950269E+02 -0.18887765617E+03  0.19443514298E+03  0.00000000000E+00 0. -1.
</event>
<event>
 7    1  0.2723366E-009  0.1761708E+03  0.7561462E-02  0.1171561E+00
         -2   -1    0    0    0  501 -0.00000000000E+00  0.00000000000E+00  0.70080856803E+02  0.70080856803E+02  0.00000000000E+00 0.  1.
          2   -1    0    0  501    0  0.00000000000E+00 -0.00000000000E+00 -0.61251790907E+03  0.61251790907E+03  0.00000000000E+00 0. -1.
         25    2    1    2    0    0 -0.12851477647E+03 -0.80619672396E+02 -0.43203383713E+03  0.47467283897E+03  0.12508192628E+03 0.  0.
          5    1    3    3  502    0 -0.17039640860E+02 -0.67982921695E+02 -0.25948749149E+03  0.26881826136E+03  0.41800000000E+01 0. -1.
         -5    1    3    3    0  502 -0.11147513561E+03 -0.12636750700E+02 -0.17254634564E+03  0.20585457760E+03  0.41800000000E+01 0. -1.
        -11    1    1    2    0    0  0.29932689536E+02  0.62959523426E+02 -0.18807193231E+02  0.72205110692E+02  0.00000000000E+00 0.  1.
         11    1    1    2    0    0  0.98582086931E+02  0.17660148970E+02 -0.91596021912E+02  0.13572081622E+03  0.00000000000E+00 0. -1.
</event>
<event>
 7    1  0.3077314E-009  0.1581320E+03  0.7561462E-02  0.1190822E+00
          1   -1    0    0  501    0  0.00000000000E+00  0.00000000000E+00  0.77743768641E+03  0.77743768641E+03  0.00000000000E+00 0. -1.
         -1   -1    0    0    0  501 -0.00000000000E+00 -0.00000000000E+00 -0.47017748248E+02  0.47017748248E+02  0.00000000000E+00 0.  1.
         25    2    1    2    0    0  0.11473997353E+03  0.66268733987E+02  0.20139331702E+03  0.27159166039E+03  0.12508379281E+03 0.  0.
          5    1    3    3  502    0 -0.14191429034E+02  0.15993537691E+02  0.93669666794E+02  0.96169999393E+02  0.41800000000E+01 0. -1.
         -5    1    3    3    0  502  0.12893140256E+03  0.50275196296E+02  0.10772365022E+03  0.17542166100E+03  0.41800000000E+01 0. -1.
        -11    1    1    2    0    0 -0.88087510079E+02 -0.38672749943E+01  0.23212736674E+03  0.24830924195E+03  0.00000000000E+00 0.  1.
         11    1    1    2    0    0 -0.26652463447E+02 -0.62401458993E+02  0.29689925440E+03  0.30455453232E+03  0.00000000000E+00 0. -1.
</event>
<event>
 7    1  0.2723366E-009  0.1145963E+03  0.7561462E-02  0.1252287E+00
          2   -1    0    0  501    0  0.00000000000E+00  0.00000000000E+00  0.14850478119E+04  0.14850478119E+04  0.00000000000E+00 0.  1.
         -2   -1    0    0    0  501 -0.00000000000E+00 -0.00000000000E+00 -0.13358755606E+02  0.13358755606E+02  0.00000000000E+00 0. -1.
         25    2    1    2    0    0 -0.15430125172E+02 -0.42740049810E+02  0.12166505057E+04  0.12239078711E+04  0.12508886154E+03 0.  0.
          5    1    3    3  502    0 -0.13222423711E+02  0.44024838553E+02  0.40867780372E+03  0.41127610987E+03  0.41800000000E+01 0.  1.
         -5    1    3    3    0  502 -0.22077014613E+01 -0.86764888363E+02  0.80797270196E+03  0.81263176120E+03  0.41800000000E+01 0.  1.
        -11    1    1    2    0    0  0.44348948478E+02 -0.22665107856E+00  0.74730010482E+02  0.86899108559E+02  0.00000000000E+00 0. -1.
         11    1    1    2    0    0 -0.28918823306E+02  0.42966700888E+02  0.18030854017E+03  0.18759958791E+03  0.00000000000E+00 0.  1.
</event>
<event>
 7    1  0.2804859E-009  0.1268832E+03  0.7561462E-02  0.1232155E+00
         -2   -1    0    0    0  501 -0.00000000000E+00  0.00000000000E+00  0.11745277239E+03  0.11745277239E+03  0.00000000000E+00 0.  1.
          2   -1    0    0  501    0  0.00000000000E+00 -0.00000000000E+00 -0.16630742961E+03  0.16630742961E+03  0.00000000000E+00 0. -1.
         25    2    1    2    0    0 -0.31450426062E+02  0.75435960855E+02  0.45053754074E+01  0.14948989078E+03  0.12508883063E+03 0.  0.
          5    1    3    3  502    0 -0.68181389484E+02  0.84421173693E+01  0.19456333173E+02  0.71526166668E+02  0.41800000000E+01 0.  1.
         -5    1    3    3    0  502  0.36730963422E+02  0.66993843486E+02 -0.14950957765E+02  0.77963724109E+02  0.41800000000E+01 0.  1.
        -11    1    1    2    0    0  0.47232577046E+02 -0.20905460899E+02  0.61608126933E+01  0.52018364477E+02  0.00000000000E+00 0.  1.
         11    1    1    2    0    0 -0.15782150983E+02 -0.54530499956E+02 -0.59520845322E+02  0.82251946743E+02  0.00000000000E+00 0. -1.
</event>
<event>
 7    1  0.2723366E-009  0.9485500E+02  0.7561462E-02  0.1291503E+00
         -2   -1    0    0    0  501 -0.00000000000E+00  0.00000000000E+00  0.43184229590E+02  0.43184229590E+02  0.00000000000E+00 0.  1.
          2   -1    0    0  501    0  0.00000000000E+00 -0.00000000000E+00 -0.34852105444E+03  0.34852105444E+03  0.00000000000E+00 0. -1.
         25    2    1    2    0    0 -0.25425578152E+02 -0.32229855974E+02 -0.10769944665E+03  0.17010316888E+03  0.12510273224E+03 0.  0.
          5    1    3    3  502    0 -0.49356308778E+02 -0.52456497530E+02 -0.17098014040E+02  0.74145423551E+02  0.41800000000E+01 0. -1.
         -5    1    3    3    0  502  0.23930730626E+02  0.20226641556E+02 -0.90601432615E+02  0.95957745330E+02  0.41800000000E+01 0. -1.
        -11    1    1    2    0    0 -0.27127264891E+02  0.11025222953E+02 -0.13050074538E+03  0.13374561147E+03  0.00000000000E+00 0.  1.
         11    1    1    2    0    0  0.52552843043E+02  0.21204633020E+02 -0.67136632808E+02  0.87856503676E+02  0.00000000000E+00 0. -1.
</event>
<event>
 7    1  0.2723366E-009  0.1415592E+03  0.7561462E-02  0.1211246E+00
          1   -1    0    0  501    0  0.00000000000E+00  0.00000000000E+00  0.13093492643E+03  0.13093492643E+03  0.00000000000E+00 0. -1.
         -1   -1    0    0    0  501 -0.00000000000E+00 -0.00000000000E+00 -0.17070669992E+03  0.17070669992E+03  0.00000000000E+00 0.  1.
         25    2    1    2    0    0 -0.33209154697E+01 -0.10145146085E+03 -0.22674493422E+02  0.16268474745E+03  0.12509503193E+03 0.  0.
          5    1    3    3  502    0 -0.61727237515E+02 -0.66523939034E+02 -0.47688359468E-01  0.90846909633E+02  0.41800000000E+01 0. -1.
         -5    1    3    3    0  502  0.58406322045E+02 -0.34927521816E+02 -0.22626805062E+02  0.71837837818E+02  0.41800000000E+01 0. -1.
        -11    1    1    2    0    0  0.37271579652E+02  0.58084113084E+02  0.20825286613E+02  0.72087636978E+02  0.00000000000E+00 0. -1.
         11    1    1    2    0    0 -0.33950664182E+02  0.43367347766E+02 -0.37922566690E+02  0.66869241921E+02  0.00000000000E+00 0.  1.
</event>
<event>
 7    1  0.2723366E-009  0.1317567E+03  0.7561462E-02  0.1224872E+00
          1   -1    0    0  501    0  0.00000000000E+00  0.00000000000E+00  0.25576250127E+03  0.25576250127E+03  0.00000000000E+00 0. -1.
         -1   -1    0    0    0  501 -0.00000000000E+00 -0.00000000000E+00 -0.95140750294E+02  0.95140750294E+02  0.00000000000E+00 0.  1.
         25    2    1    2    0    0  0.82112842865E+01 -0.10191283418E+03  0.13150921068E+03  0.20831717166E+03  0.12509084920E+03 0.  0.
          5    1    3    3  502    0 -0.46120542492E+02 -0.29810846584E+01  0.23406681273E+02  0.51974382476E+02  0.41800000000E+01 0.  1.
         -5    1    3    3    0  502  0.54331826778E+02 -0.98931749523E+02  0.10810252941E+03  0.15634278918E+03  0.41800000000E+01 0.  1.
        -11    1    1    2    0    0 -0.78092645496E+01  0.12441340267E+02 -0.31335750852E+02  0.34607814752E+02  0.00000000000E+00 0.  1.
         11    1    1    2    0    0 -0.40201973684E+00  0.89471493914E+02  0.60448291148E+02  0.10797826515E+03  0.00000000000E+00 0. -1.
</event>
<event>
 7    1  0.2723366E-009  0.9547630E+02  0.7561462E-02  0.1290107E+00
         -1   -1    0    0    0  501 -0.00000000000E+00  0.00000000000E+00  0.81325781140E+02  0.81325781140E+02  0.00000000000E+00 0.  1.
          1   -1    0    0  501    0  0.00000000000E+00 -0.00000000000E+00 -0.19572977578E+03  0.19572977578E+03  0.00000000000E+00 0. -1.
         25    2    1    2    0    0 -0.42402716157E+02  0.43353200786E+02 -0.38145901841E+02  0.14415532913E+03  0.12509260063E+03 0.  0.
          5    1    3    3  502    0 -0.66406829378E+02  0.18660352554E+02 -0.69053940840E+02  0.97693371786E+02  0.41800000000E+01 0.  1.
         -5    1    3    3    0  502  0.24004113220E+02  0.24692848232E+02  0.30908038999E+02  0.46461957342E+02  0.41800000000E+01 0.  1.
        -11    1    1    2    0    0  0.57614366947E+02 -0.43085895019E+02 -0.88012064917E+02  0.11367468143E+03  0.00000000000E+00 0. -1.
         11    1    1    2    0    0 -0.15211650789E+02 -0.26730576783E+00  0.11753972120E+02  0.19225546356E+02  0.00000000000E+00 0.  1.
</event>
<event>
 7    1  0.2723366E-009  0.9295540E+02  0.7561462E-02  0.1295849E+00
         -2   -1    0    0    0  501 -0.00000000000E+00  0.00000000000E+00  0.22029333126E+02  0.22029333126E+02  0.00000000000E+00 0. -1.
          2   -1    0    0  501    0  0.00000000000E+00 -0.00000000000E+00 -0.56290991176E+03  0.56290991176E+03  0.00000000000E+00 0.  1.
         25    2    1    2    0    0 -0.63947055347E+01  0.10613190208E+02 -0.25166056061E+03  0.28130936451E+03  0.12509351992E+03 0.  0.
          5    1    3    3  502    0  0.30517769119E+02  0.41754725873E+02 -0.21322064077E+03  0.21944317126E+03  0.41800000000E+01 0. -1.
         -5    1    3    3    0  502 -0.36912474654E+02 -0.31141535665E+02 -0.38439919843E+02  0.61866193242E+02  0.41800000000E+01 0. -1.
        -11    1    1    2    0    0 -0.53951639953E+01 -0.46995477097E+02 -0.21492303664E+03  0.22006724959E+03  0.00000000000E+00 0.  1.
         11    1    1    2    0    0  0.11789869530E+02  0.36382286889E+02 -0.74296981387E+02  0.83562630799E+02  0.00000000000E+00 0. -1.
</event>
<event>
 7    1  0.2723366E-009  0.1273886E+03  0.7561462E-02  0.1231383E+00
         -2   -1    0    0    0  501 -0.00000000000E+00  0.00000000000E+00  0.40650647485E+02  0.40650647485E+02  0.00000000000E+00 0.  1.
          2   -1    0    0  501    0  0.00000000000E+00 -0.00000000000E+00 -0.73713745831E+03  0.73713745831E+03  0.00000000000E+00 0. -1.
         25    2    1    2    0    0  0.65124368444E+02  0.83796654432E+02 -0.18718179778E+03  0.24888871876E+03  0.12508199808E+03 0.  0.
          5    1    3    3  502    0  0.67623225293E+01  0.35225825813E+02  0.10067279165E+02  0.37488802595E+02  0.41800000000E+01 0. -1.
         -5    1    3    3    0  502  0.58362045915E+02  0.48570828619E+02 -0.19724907695E+03  0.21139991616E+03  0.41800000000E+01 0. -1.
        -11    1    1    2    0    0  0.41084881818E+01 -0.72328369408E+02 -0.26141917494E+03  0.27127155716E+03  0.00000000000E+00 0. -1.
         11    1    1    2    0    0 -0.69232856626E+02 -0.11468285024E+02 -0.24788583810E+03  0.25762782988E+03  0.00000000000E+00 0.  1.
</event>
<event>
 7    1  0.2723366E-009  0.1189298E+03  0.7561462E-02  0.1244873E+00
          1   -1    0    0  501    0  0.00000000000E+00  0.00000000000E+00  0.96759161247E+02  0.96759161247E+02  0.00000000000E+00 0. -1.
         -1   -1    0    0    0  501 -0.00000000000E+00 -0.00000000000E+00 -0.21033433550E+03  0.21033433550E+03  0.00000000000E+00 0.  1.
         25    2    1    2    0    0  0.80041811881E+02  0.77712860198E+01 -0.11227042807E+03  0.18633001844E+03  0.12508853752E+03 0.  0.
          5    1    3    3  502    0  0.11665178358E+02 -0.35977594388E+02 -0.96229986741E+02  0.10348017410E+03  0.41800000000E+01 0.  1.
         -5    1    3    3    0  502  0.68376633522E+02  0.43748880407E+02 -0.16040441324E+02  0.82849844337E+02  0.41800000000E+01 0.  1.
        -11    1    1    2    0    0 -0.34914377443E+02  0.39807465834E+02 -0.12074866912E+02  0.54308843657E+02  0.00000000000E+00 0. -1.
         11    1    1    2    0    0 -0.45127434437E+02 -0.47578751854E+02  0.10770120720E+02  0.66454634656E+02  0.00000000000E+00 0.  1.
</event>
<event>
 7    1  0.2723366E-009  0.1271088E+03  0.7561462E-02  0.1231810E+00
          2   -1    0    0  501    0  0.00000000000E+00  0.00000000000E+00  0.30375954988E+03  0.30375954988E+03  0.00000000000E+00 0. -1.
         -2   -1    0    0    0  501 -0.00000000000E+00 -0.00000000000E+00 -0.84174779614E+02  0.84174779614E+02  0.00000000000E+00 0.  1.
         25    2    1    2    0    0  0.84224796666E+02  0.20684826195E+02  0.22137877503E+02  0.15381884858E+03  0.12509386136E+03 0.  0.
          5    1    3    3  502    0  0.10521267253E+03  0.10648247602E+02 -0.17888969641E+02  0.10733396141E+03  0.41800000000E+01 0. -1.
         -5    1    3    3    0  502 -0.20987875860E+02  0.10036578593E+02  0.40026847144E+02  0.46484887171E+02  0.41800000000E+01 0. -1.
        -11    1    1    2    0    0 -0.82699107343E+02 -0.49176404885E+02  0.13868478868E+03  0.16879257023E+03  0.00000000000E+00 0. -1.
         11    1    1    2    0    0 -0.15256893229E+01  0.28491578690E+02  0.58762104080E+02  0.65322910683E+02  0.00000000000E+00 0.  1.
</event>
<event>
 7    1  0.2723366E-009  0.9524558E+02  0.7561462E-02  0.1290624E+00
         -1   -1    0    0    0  501 -0.00000000000E+00  0.00000000000E+00  0.16947860484E+02  0.16947860484E+02  0.00000000000E+00 0.  1.
          1   -1    0    0  501    0  0.00000000000E+00 -0.00000000000E+00 -0.83672786723E+03  0.83672786723E+03  0.00000000000E+00 0. -1.
         25    2    1    2    0    0  0.42585129116E+02 -0.17210845785E+02 -0.44668667192E+03  0.46613972354E+03  0.12509017770E+03 0.  0.
          5    1    3    3  502    0  0.40698804706E+02  0.27625271724E+02 -0.39279834832E+03  0.39588832160E+03  0.41800000000E+01 0.  1.
         -5    1    3    3    0  502  0.18863244102E+01 -0.44836117509E+02 -0.53888323602E+02  0.70251401934E+02  0.41800000000E+01 0.  1.
        -11    1    1    2    0    0 -0.46779643296E+02  0.46799497811E+02 -0.31847429743E+03  0.32527589235E+03  0.00000000000E+00 0. -1.
         11    1    1    2    0    0  0.41945141802E+01 -0.29588652027E+02 -0.54619037401E+02  0.62260111826E+02  0.00000000000E+00 0.  1.
</event>
<event>
 7    1  0.2723366E-009  0.1475071E+03  0.7561462E-02  0.1203570E+00
          1   -1    0    0  501    0  0.00000000000E+00  0.00000000000E+00  0.74637703946E+02  0.74637703946E+02  0.00000000000E+00 0. -1.
         -1   -1    0    0    0  501 -0.00000000000E+00 -0.00000000000E+00 -0.39397486472E+03  0.39397486472E+03  0.00000000000E+00 0.  1.
         25    2    1    2    0    0 -0.29717062780E+02  0.98045184342E+02 -0.28506691685E+03  0.32773084520E+03  0.12509355627E+03 0.  0.
          5    1    3    3  502    0  0.41698907245E+02  0.73274817952E+02 -0.12735555363E+03  0.15279040301E+03  0.41800000000E+01 0.  1.
         -5    1    3    3    0  502 -0.71415970025E+02  0.24770366390E+02 -0.15771136322E+03  0.17494044219E+03  0.41800000000E+01 0.  1.
        -11    1    1    2    0    0 -0.21683605686E+02 -0.75885150938E+02 -0.88869620208E+01  0.79421111692E+02  0.00000000000E+00 0. -1.
         11    1    1    2    0    0  0.51400668466E+02 -0.22160033403E+02 -0.25383281901E+02  0.61460611771E+02  0.00000000000E+00 0.  1.
</event>
<event>
 7    1  0.2723366E-009  0.1187199E+03  0.7561462E-02  0.1245224E+00
          2   -1    0    0  501    0  0.00000000000E+00  0.00000000000E+00  0.73301760712E+03  0.73301760712E+03  0.00000000000E+00 0. -1.
         -2   -1    0    0    0  501 -0.00000000000E+00 -0.00000000000E+00 -0.22159623584E+02  0.22159623584E+02  0.00000000000E+00 0.  1.
         25    2    1    2    0    0  0.10861751575E+02 -0.50620216974E+02  0.26861937366E+03  0.30080347708E+03  0.12508389146E+03 0.  0.
          5    1    3    3  502    0 -0.53028957027E+02 -0.46168101367E+02  0.12459780282E+03  0.14312808507E+03  0.41800000000E+01 0.  1.
         -5    1    3    3    0  502  0.63890708602E+02 -0.44521156063E+01  0.14402157084E+03  0.15767539201E+03  0.41800000000E+01 0.  1.
        -11    1    1    2    0    0  0.36410067750E+02  0.40537006298E+02  0.19582518046E+03  0.20326446619E+03  0.00000000000E+00 0.  1.
         11    1    1    2    0    0 -0.47271819325E+02  0.10083210675E+02  0.24641342941E+03  0.25110928743E+03  0.00000000000E+00 0. -1.
</event>
<event>
 7    1  0.2723366E-009  0.1082774E+03  0.7561462E-02  0.1263793E+00
          1   -1    0    0  501    0  0.00000000000E+00  0.00000000000E+00  0.32506732901E+03  0.32506732901E+03  0.00000000000E+00 0. -1.
         -1   -1    0    0    0  501 -0.00000000000E+00 -0.00000000000E+00 -0.42149054844E+02  0.42149054844E+02  0.00000000000E+00 0.  1.
         25    2    1    2    0    0 -0.26827171817E+02 -0.10974833926E+02  0.21415242126E+03  0.24969959943E+03  0.12509390990E+03 0.  0.
          5    1    3    3  502    0 -0.74950533219E+02 -0.21256636361E+02  0.11558464164E+03  0.13945145680E+03  0.41800000000E+01 0. -1.
         -5    1    3    3    0  502  0.48123361402E+02  0.10281802435E+02  0.98567779621E+02  0.11024814263E+03  0.41800000000E+01 0. -1.
        -11    1    1    2    0    0 -0.29699022305E+02 -0.56449531217E+01  0.49014067655E+01  0.30625499341E+02  0.00000000000E+00 0.  1.
         11    1    1    2    0    0  0.56526194122E+02  0.16619787048E+02  0.63864446139E+02  0.86891285087E+02  0.00000000000E+00 0. -1.
</event>
<event>
 7    1  0.2723366E-009  0.1002244E+03  0.7561462E-02  0.1279825E+00
          2   -1    0    0  501    0  0.00000000000E+00  0.00000000000E+00  0.44349126334E+03  0.44349126334E+03  0.00000000000E+00 0.  1.
         -2   -1    0    0    0  501 -0.00000000000E+00 -0.00000000000E+00 -0.28331042732E+02  0.28331042732E+02  0.00000000000E+00 0. -1.
         25    2    1    2    0    0  0.27946456924E+02  0.60595991233E+01  0.23489519020E+03  0.26765627235E+03  0.12508559690E+03 0.  0.
          5    1    3    3  502    0 -0.24593267624E+02 -0.47190643018E+02  0.96001365669E+02  0.10984316188E+03  0.41800000000E+01 0.  1.
         -5    1    3    3    0  502  0.52539724549E+02  0.53250242141E+02  0.13889382453E+03  0.15781311047E+03  0.41800000000E+01 0.  1.
        -11    1    1    2    0    0 -0.54214173329E+01  0.29532609324E+02  0.14897977031E+02  0.33518897640E+02  0.00000000000E+00 0. -1.
         11    1    1    2    0    0 -0.22525039591E+02 -0.35592208447E+02  0.16536705338E+03  0.17064713609E+03  0.00000000000E+00 0.  1.
</event>
<event>
 7    1  0.2723366E-009  0.1387891E+03  0.7561462E-02  0.1214968E+00
          1   -1    0    0  501    0  0.00000000000E+00  0.00000000000E+00  0.19647730338E+04  0.19647730338E+04  0.00000000000E+00 0. -1.
         -1   -1    0    0    0  501 -0.00000000000E+00 -0.00000000000E+00 -0.11782921364E+02  0.11782921364E+02  0.00000000000E+00 0.  1.
         25    2    1    2    0    0 -0.95666990237E+02 -0.25675294352E+02  0.13167876224E+04  0.13264192771E+04  0.12508821866E+03 0.  0.
          5    1    3    3  502    0 -0.46560878603E+01  0.43801074092E+02  0.31240075673E+03  0.31551849146E+03  0.41800000000E+01 0.  1.
         -5    1    3    3    0  502 -0.91010902377E+02 -0.69476368444E+02  0.10043868657E+04  0.10109007856E+04  0.41800000000E+01 0.  1.
        -11    1    1    2    0    0  0.10304908131E+03  0.12699462685E+02  0.61768598818E+03  0.62635163407E+03  0.00000000000E+00 0. -1.
         11    1    1    2    0    0 -0.73820910765E+01  0.12975831668E+02  0.18516501898E+02  0.23785044012E+02  0.00000000000E+00 0.  1.
</event>
<event>
 7    1  0.2723366E-009  0.8979791E+02  0.7561462E-02  0.1303342E+00
         -2   -1    0    0    0  501 -0.00000000000E+00  0.00000000000E+00  0.10426120485E+03  0.10426120485E+03  0.00000000000E+00 0.  1.
          2   -1    0    0  501    0  0.00000000000E+00 -0.00000000000E+00 -0.17260837691E+03  0.17260837691E+03  0.00000000000E+00 0. -1.
         25    2    1    2    0    0 -0.16727096528E+02 -0.15102726493E+02 -0.10591365486E+03  0.16544994558E+03  0.12509234230E+03 0.  0.
          5    1    3    3  502    0 -0.48851975758E+02 -0.51476527923E+01  0.49253419415E+01  0.49545385839E+02  0.41800000000E+01 0. -1.
         -5    1    3    3    0  502  0.32124879230E+02 -0.99550737010E+01 -0.11083899680E+03  0.11590455974E+03  0.41800000000E+01 0. -1.
        -11    1    1    2    0    0  0.11115657322E+02 -0.39745486055E+02  0.38265579142E+02  0.56280689819E+02  0.00000000000E+00 0.  1.
         11    1    1    2    0    0  0.56114392064E+01  0.54848212548E+02 -0.69909635199E+00  0.55138946358E+02  0.00000000000E+00 0. -1.
</event>
<event>
 7    1  0.2723366E-009  0.1316729E+03  0.7561462E-02  0.1224994E+00
         -2   -1    0    0    0  501 -0.00000000000E+00  0.00000000000E+00  0.77373298295E+02  0.77373298295E+02  0.00000000000E+00 0.  1.
          2   -1    0    0  501    0  0.00000000000E+00 -0.00000000000E+00 -0.42020632070E+03  0.42020632070E+03  0.00000000000E+00 0. -1.
         25    2    1    2    0    0  0.12948159551E+01 -0.11056169256E+03 -0.30789579509E+03  0.35024787104E+03  0.12509271011E+03 0.  0.
          5    1    3    3  502    0 -0.50224886720E+01  0.18229474464E+02 -0.12462906067E+03  0.12612459830E+03  0.41800000000E+01 0. -1.
         -5    1    3    3    0  502  0.63173046271E+01 -0.12879116702E+03 -0.18326673442E+03  0.22412327274E+03  0.41800000000E+01 0. -1.
        -11    1    1    2    0    0  0.13334679178E+02  0.26765880152E+02  0.28429209719E+02  0.41260707390E+02  0.00000000000E+00 0.  1.
         11    1    1    2    0    0 -0.14629495134E+02  0.83795812404E+02 -0.63366437034E+02  0.10607104057E+03  0.00000000000E+00 0. -1.
</event>
<event>
 7    1  0.2723366E-009  0.2193326E+03  0.7561462E-02  0.1134382E+00
         -1   -1    0    0    0  501 -0.00000000000E+00  0.00000000000E+00  0.37843086073E+02  0.37843086073E+02  0.00000000000E+00 0.  1.
          1   -1    0    0  501    0  0.00000000000E+00 -0.00000000000E+00 -0.18335089774E+04  0.18335089774E+04  0.00000000000E+00 0. -1.
         25    2    1    2    0    0  0.20584797483E+03  0.35792264280E+02 -0.13425942288E+04  0.13645002808E+04  0.12508908122E+03 0.  0.
          5    1    3    3  502    0  0.18105704204E+03  0.55372984631E+02 -0.84841623386E+03  0.86929592095E+03  0.41800000000E+01 0.  1.
         -5    1    3    3    0  502  0.24790932784E+02 -0.19580720351E+02 -0.49417799491E+03  0.49520435984E+03  0.41800000000E+01 0.  1.
        -11    1    1    2    0    0 -0.64626704531E+02 -0.40231937366E+02 -0.23487523091E+03  0.24690401742E+03  0.00000000000E+00 0. -1.
         11    1    1    2    0    0 -0.14122127030E+03  0.44396730856E+01 -0.21819643167E+03  0.25994776528E+03  0.00000000000E+00 0.  1.
</event>
<event>
 7    1  0.2723366E-009  0.1266019E+03  0.7561462E-02  0.1232587E+00
          1   -1    0    0  501    0  0.00000000000E+00  0.00000000000E+00  0.24501708194E+03  0.24501708194E+03  0.00000000000E+00 0.  1.
         -1   -1    0    0    0  501 -0.00000000000E+00 -0.00000000000E+00 -0.11762270663E+03  0.11762270663E+03  0.00000000000E+00 0. -1.
         25    2    1    2    0    0 -0.12428286411E+02  0.94061754862E+02  0.16236942033E+03  0.22586152863E+03  0.12509006926E+03 0.  0.
          5    1    3    3  502    0  0.40949243136E+02  0.27626393721E+02  0.12156021380E+03  0.13127991515E+03  0.41800000000E+01 0.  1.
         -5    1    3    3    0  502 -0.53377529547E+02  0.66435361141E+02  0.40809206530E+02  0.94581613478E+02  0.41800000000E+01 0.  1.
        -11    1    1    2    0    0 -0.23992164423E+02 -0.87378629309E+01  0.16772768699E+02  0.30549958627E+02  0.00000000000E+00 0.  1.
         11    1    1    2    0    0  0.36420450834E+02 -0.85323891931E+02 -0.51747813721E+02  0.10622830130E+03  0.00000000000E+00 0. -1.
</event>
<event>
 7    1  0.2723366E-009  0.8368861E+02  0.7561462E-02  0.1318898E+00
          2   -1    0    0  501    0  0.00000000000E+00  0.00000000000E+00  0.43380062941E+02  0.43380062941E+02  0.00000000000E+00 0. -1.
         -2   -1    0    0    0  501 -0.00000000000E+00 -0.00000000000E+00 -0.28665505155E+03  0.28665505155E+03  0.00000000000E+00 0.  1.
         25    2    1    2    0    0  0.14018512296E+02  0.76310504818E+01 -0.10508769352E+03  0.16415204220E+03  0.12509083904E+03 0.  0.
          5    1    3    3  502    0 -0.11759458477E+02  0.42402391154E+02 -0.11173593656E+03  0.12016089031E+03  0.41800000000E+01 0. -1.
         -5    1    3    3    0  502  0.25777970773E+02 -0.34771340672E+02  0.66482430476E+01  0.43991151893E+02  0.41800000000E+01 0. -1.
        -11    1    1    2    0    0 -0.45485968389E+02  0.50468048935E+01 -0.11762084954E+03  0.12621056931E+03  0.00000000000E+00 0.  1.
         11    1    1    2    0    0  0.31467456094E+02 -0.12677855375E+02 -0.20566445551E+02  0.39672502978E+02  0.00000000000E+00 0. -1.
</event>
<event>
 7    1  0.2723366E-009  0.1218198E+03  0.7561462E-02  0.1240125E+00
          1   -1    0    0  501    0  0.00000000000E+00  0.00000000000E+00  0.57891962653E+03  0.57891962653E+03  0.00000000000E+00 0. -1.
         -1   -1    0    0    0  501 -0.00000000000E+00 -0.00000000000E+00 -0.31147369507E+02  0.31147369507E+02  0.00000000000E+00 0.  1.
         25    2    1    2    0    0  0.64340539135E+02  0.46164347797E+02  0.36825923891E+03  0.39690312096E+03  0.12508544439E+03 0.  0.
          5    1    3    3  502    0 -0.29453330652E+02 -0.16483044151E+02  0.65785662211E+02  0.74056837521E+02  0.41800000000E+01 0. -1.
         -5    1    3    3    0  502  0.93793869787E+02  0.62647391948E+02  0.30247357670E+03  0.32284628343E+03  0.41800000000E+01 0. -1.
        -11    1    1    2    0    0 -0.31137592792E+02  0.89671004638E+01  0.13482056466E+02  0.35095931704E+02  0.00000000000E+00 0.  1.
         11    1    1    2    0    0 -0.33202946343E+02 -0.55131448261E+02  0.16603096165E+03  0.17806794338E+03  0.00000000000E+00 0. -1.
</event>
<event>
 7    1  0.2723366E-009  0.1062476E+03  0.7561462E-02  0.1267681E+00
         -1   -1    0    0    0  501 -0.00000000000E+00  0.00000000000E+00  0.32536092561E+02  0.32536092561E+02  0.00000000000E+00 0.  1.
          1   -1    0    0  501    0  0.00000000000E+00 -0.00000000000E+00 -0.63732880959E+03  0.63732880959E+03  0.00000000000E+00 0. -1.
         25    2    1    2    0    0  0.72460429245E+02  0.55205687295E+02 -0.38394674304E+03  0.41395700563E+03  0.12508844594E+03 0.  0.
          5    1    3    3  502    0  0.34361036312E+02  0.54614817476E+02 -0.61489786831E+02  0.89229621701E+02  0.41800000000E+01 0.  1.
         -5    1    3    3    0  502  0.38099392932E+02  0.59086981864E+00 -0.32245695621E+03  0.32472738393E+03  0.41800000000E+01 0.  1.
        -11    1    1    2    0    0 -0.81967982402E+01 -0.43395180139E+02 -0.27993769734E+02  0.52287477512E+02  0.00000000000E+00 0.  1.
         11    1    1    2    0    0 -0.64263631004E+02 -0.11810507155E+02 -0.19285220426E+03  0.20362041901E+03  0.00000000000E+00 0. -1.
</event>
<event>
 7    1  0.2723366E-009  0.2659986E+03  0.7561462E-02  0.1103592E+00
         -2   -1    0    0    0  501 -0.00000000000E+00  0.00000000000E+00  0.53821137956E+03  0.53821137956E+03  0.00000000000E+00 0.  1.
          2   -1    0    0  501    0  0.00000000000E+00 -0.00000000000E+00 -0.14801085586E+03  0.14801085586E+03  0.00000000000E+00 0. -1.
         25    2    1    2    0    0 -0.69160572056E+02 -0.25057106859E+03  0.18799370868E+03  0.34432431382E+03  0.12509417830E+03 0.  0.
          5    1    3    3  502    0  0.10970629868E+02 -0.70743096003E+02  0.11254043450E+03  0.13344572735E+03  0.41800000000E+01 0.  1.
         -5    1    3    3    0  502 -0.80131201924E+02 -0.17982797259E+03  0.75453274187E+02  0.21087858647E+03  0.41800000000E+01 0.  1.
        -11    1    1    2    0    0  0.37898455808E+02  0.20257315702E+03  0.11068916327E+03  0.23393218625E+03  0.00000000000E+00 0.  1.
         11    1    1    2    0    0  0.31262116248E+02  0.47997911572E+02  0.91517651746E+02  0.10796573535E+03  0.00000000000E+00 0. -1.
</event>
<event>
 7    1  0.2723366E-009  0.1999416E+03  0.7561462E-02  0.1149788E+00
          2   -1    0    0  501    0  0.00000000000E+00  0.00000000000E+00  0.33462010690E+03  0.33462010690E+03  0.00000000000E+00 0. -1.
         -2   -1    0    0    0  501 -0.00000000000E+00 -0.00000000000E+00 -0.16178267159E+03  0.16178267159E+03  0.00000000000E+00 0.  1.
         25    2    1    2    0    0  0.50955705392E+02  0.18980507766E+03  0.14926716090E+03  0.27667937854E+03  0.12509333224E+03 0.  0.
          5    1    3    3  502    0 -0.41660214223E+01  0.55482327039E+02  0.11442841638E+03  0.12730663464E+03  0.41800000000E+01 0. -1.
         -5    1    3    3    0  502  0.55121726814E+02  0.13432275062E+03  0.34838744516E+02  0.14937274390E+03  0.41800000000E+01 0. -1.
        -11    1    1    2    0    0 -0.37534198789E+02 -0.81816343644E+02 -0.34474431911E+02  0.96390957157E+02  0.00000000000E+00 0.  1.
         11    1    1    2    0    0 -0.13421506603E+02 -0.10798873401E+03  0.58044706327E+02  0.12333244280E+03  0.00000000000E+00 0. -1.
</event>
<event>
 7    1  0.2723366E-009  0.1082916E+03  0.7561462E-02  0.1263767E+00
          1   -1    0    0  501    0  0.00000000000E+00  0.00000000000E+00  0.69808775461E+02  0.69808775461E+02  0.00000000000E+00 0. -1.
         -1   -1    0    0    0  501 -0.00000000000E+00 -0.00000000000E+00 -0.23945056293E+03  0.23945056293E+03  0.00000000000E+00 0.  1.
         25    2    1    2    0    0  0.80795276799E+01  0.67313106008E+02 -0.90651063637E+02  0.16870027828E+03  0.12508331442E+03 0.  0.
          5    1    3    3  502    0  0.14487726590E+02  0.84368812499E+02 -0.10439298045E+02  0.86339110998E+02  0.41800000000E+01 0. -1.
         -5    1    3    3    0  502 -0.64081989104E+01 -0.17055706490E+02 -0.80211765591E+02  0.82361167284E+02  0.41800000000E+01 0. -1.
        -11    1    1    2    0    0 -0.92465988412E+01  0.21478881948E+02 -0.33309303161E+02  0.40698300172E+02  0.00000000000E+00 0.  1.
         11    1    1    2    0    0  0.11670711613E+01 -0.88791987956E+02 -0.45681420670E+02  0.99860759935E+02  0.00000000000E+00 0. -1.
</event>
<event>
 7    1  0.2723366E-009  0.9986753E+02  0.7561462E-02  0.1280575E+00
          2   -1    0    0  501    0  0.00000000000E+00  0.00000000000E+00  0.12423963398E+03  0.12423963398E+03  0.00000000000E+00 0. -1.
         -2   -1    0    0    0  501 -0.00000000000E+00 -0.00000000000E+00 -0.19232357832E+03  0.19232357832E+03  0.00000000000E+00 0.  1.
         25    2    1    2    0    0 -0.74707094519E+02  0.14193894491E+02  0.42806883585E+02  0.15252150046E+03  0.12509101570E+03 0.  0.
          5    1    3    3  502    0 -0.60355025380E+02 -0.24437873495E+01 -0.36108152531E+02  0.70498030217E+02  0.41800000000E+01 0. -1.
         -5    1    3    3    0  502 -0.14352069139E+02  0.16637681841E+02  0.78915036116E+02  0.82023470244E+02  0.41800000000E+01 0. -1.
        -11    1    1    2    0    0 -0.66203147399E+01  0.25483551743E+02 -0.44880474901E+02  0.52033614175E+02  0.00000000000E+00 0.  1.
         11    1    1    2    0    0  0.81327409259E+02 -0.39677446234E+02 -0.66010353020E+02  0.11200809766E+03  0.00000000000E+00 0. -1.
</event>
<event>
 7    1  0.2723366E-009  0.9612461E+02  0.7561462E-02  0.1288663E+00
         -3   -1    0    0    0  501 -0.00000000000E+00  0.00000000000E+00  0.10167295423E+03  0.10167295423E+03  0.00000000000E+00 0.  1.
          3   -1    0    0  501    0  0.00000000000E+00 -0.00000000000E+00 -0.14960554762E+03  0.14960554762E+03  0.00000000000E+00 0. -1.
         25    2    1    2    0    0 -0.35898868620E+02 -0.27051293045E+02 -0.65502361919E+02  0.14818368739E+03  0.12508934634E+03 0.  0.
          5    1    3    3  502    0 -0.68422103190E+02  0.22144136101E+02 -0.23928606163E+02  0.75907822795E+02  0.41800000000E+01 0. -1.
         -5    1    3    3    0  502  0.32523234570E+02 -0.49195429146E+02 -0.41573755756E+02  0.72275864598E+02  0.41800000000E+01 0. -1.
        -11    1    1    2    0    0  0.15818650988E+02  0.35835795404E+02  0.50269251728E+02  0.63729362311E+02  0.00000000000E+00 0.  1.
         11    1    1    2    0    0  0.20080217631E+02 -0.87845023584E+01 -0.32699483191E+02  0.39365452147E+02  0.00000000000E+00 0. -1.
</event>
<event>
 7    1  0.2723366E-009  0.1005708E+03  0.7561462E-02  0.1279100E+00
         -2   -1    0    0    0  501 -0.00000000000E+00  0.00000000000E+00  0.13082746596E+02  0.13082746596E+02  0.00000000000E+00 0.  1.
          2   -1    0    0  501    0  0.00000000000E+00 -0.00000000000E+00 -0.88805134374E+03  0.88805134374E+03  0.00000000000E+00 0. -1.
         25    2    1    2    0    0  0.15582261792E+02  0.53246812298E+01 -0.50163367586E+03  0.51725823055E+03  0.12509425726E+03 0.  0.
          5    1    3    3  502    0  0.61630885669E+02  0.17316578979E+02 -0.16131720844E+03  0.17360571453E+03  0.41800000000E+01 0.  1.
         -5    1    3    3    0  502 -0.46048623877E+02 -0.11991897749E+02 -0.34031646742E+03  0.34365251602E+03  0.41800000000E+01 0.  1.
        -11    1    1    2    0    0  0.44463248086E+01 -0.44765278786E+02 -0.19818772572E+03  0.20322911852E+03  0.00000000000E+00 0.  1.
         11    1    1    2    0    0 -0.20028586601E+02  0.39440597556E+02 -0.17514719557E+03  0.18064674127E+03  0.00000000000E+00 0. -1.
</event>
<event>
 7    1  0.2723366E-009  0.1552163E+03  0.7561462E-02  0.1194206E+00
          3   -1    0    0  501    0  0.00000000000E+00  0.00000000000E+00  0.34238782957E+03  0.34238782957E+03  0.00000000000E+00 0. -1.
         -3   -1    0    0    0  501 -0.00000000000E+00 -0.00000000000E+00 -0.75640768994E+02  0.75640768994E+02  0.00000000000E+00 0.  1.
         25    2    1    2    0    0  0.66412083767E+02  0.10059696960E+03  0.19065261585E+03  0.25792636842E+03  0.12508907399E+03 0.  0.
          5    1    3    3  502    0  0.70743962569E+02  0.12571606733E+03  0.17803400001E+03  0.22917856659E+03  0.41800000000E+01 0.  1.
         -5    1    3    3    0  502 -0.43318788028E+01 -0.25119097723E+02  0.12618615838E+02  0.28747801830E+02  0.41800000000E+01 0.  1.
        -11    1    1    2    0    0  0.10906175891E+01 -0.63022502701E+02  0.27031151663E+02  0.68583587349E+02  0.00000000000E+00 0. -1.
         11    1    1    2    0    0 -0.67502701356E+02 -0.37574466901E+02  0.49063293068E+02  0.91518642799E+02  0.00000000000E+00 0.  1.
</event>
<event>
 7    1  0.2723366E-009  0.1640881E+03  0.7561462E-02  0.1184157E+00
         -2   -1    0    0    0  501 -0.00000000000E+00  0.00000000000E+00  0.38947720106E+02  0.38947720106E+02  0.00000000000E+00 0.  1.
          2   -1    0    0  501    0  0.00000000000E+00 -0.00000000000E+00 -0.10017537164E+04  0.10017537164E+04  0.00000000000E+00 0. -1.
         25    2    1    2    0    0  0.82173282643E+02  0.14146530534E+03 -0.43215391585E+03  0.47871670524E+03  0.12509115035E+03 0.  0.
          5    1    3    3  502    0  0.59171671547E+02  0.10919525482E+03 -0.15476725968E+03  0.19848241095E+03  0.41800000000E+01 0. -1.
         -5    1    3    3    0  502  0.23001611096E+02  0.32270050521E+02 -0.27738665617E+03  0.28023429429E+03  0.41800000000E+01 0. -1.
        -11    1    1    2    0    0 -0.28129236105E+02 -0.37390085606E+02 -0.55580073311E+02  0.72652714847E+02  0.00000000000E+00 0.  1.
         11    1    1    2    0    0 -0.54044046538E+02 -0.10407521974E+03 -0.47507200715E+03  0.48933201644E+03  0.00000000000E+00 0. -1.
</event>
<event>
 7    1  0.2723366E-009  0.1092330E+03  0.7561462E-02  0.1261997E+00
         -4   -1    0    0    0  501 -0.00000000000E+00  0.00000000000E+00  0.88326145001E+02  0.88326145001E+02  0.00000000000E+00 0.  1.
          4   -1    0    0  501    0  0.00000000000E+00 -0.00000000000E+00 -0.33851802408E+03  0.33851802408E+03  0.00000000000E+00 0. -1.
         25    2    1    2    0    0 -0.43363035714E+02 -0.48728934007E+02 -0.27806233407E+03  0.31180252043E+03  0.12508912119E+03 0.  0.
          5    1    3    3  502    0 -0.76797665868E+02 -0.67170248924E+02 -0.21383716715E+03  0.23696736121E+03  0.41800000000E+01 0.  1.
         -5    1    3    3    0  502  0.33434630154E+02  0.18441314918E+02 -0.64225166923E+02  0.74835159221E+02  0.41800000000E+01 0.  1.
        -11    1    1    2    0    0  0.48061771619E+02  0.25826022118E+02 -0.22880348635E+02  0.59164412134E+02  0.00000000000E+00 0. -1.
         11    1    1    2    0    0 -0.46987359048E+01  0.22902911889E+02  0.50750803627E+02  0.55877236518E+02  0.00000000000E+00 0.  1.
</event>
<event>
 7    1  0.2723366E-009  0.1211687E+03  0.7561462E-02  0.1241181E+00
         -2   -1    0    0    0  501 -0.00000000000E+00  0.00000000000E+00  0.17124347158E+03  0.17124347158E+03  0.00000000000E+00 0.  1.
          2   -1    0    0  501    0  0.00000000000E+00 -0.00000000000E+00 -0.10184782162E+03  0.10184782162E+03  0.00000000000E+00 0. -1.
         25    2    1    2    0    0  0.60926352638E+02  0.41899557351E+02  0.27226072696E+02  0.14783802219E+03  0.12508888208E+03 0.  0.
          5    1    3    3  502    0  0.45811705720E+02  0.75258969678E+02 -0.17453745420E+02  0.89915129578E+02  0.41800000000E+01 0. -1.
         -5    1    3    3    0  502  0.15114646918E+02 -0.33359412327E+02  0.44679818116E+02  0.57922892617E+02  0.41800000000E+01 0. -1.
        -11    1    1    2    0    0 -0.83586494160E+02 -0.20411930511E+02  0.36731702809E+02  0.93555154344E+02  0.00000000000E+00 0. -1.
         11    1    1    2    0    0  0.22660141522E+02 -0.21487626840E+02  0.54378744523E+01  0.31698116656E+02  0.00000000000E+00 0.  1.
</event>
<event>
 7    1  0.2723366E-009  0.1052680E+03  0.7561462E-02  0.1269593E+00
          2   -1    0    0  501    0  0.00000000000E+00  0.00000000000E+00  0.36126103146E+03  0.36126103146E+03  0.00000000000E+00 0. -1.
         -2   -1    0    0    0  501 -0.00000000000E+00 -0.00000000000E+00 -0.55213170393E+02  0.55213170393E+02  0.00000000000E+00 0.  1.
         25    2    1    2    0    0  0.72575758324E+02 -0.52446031087E+02  0.16886135695E+03  0.22843216464E+03  0.12509703874E+03 0.  0.
          5    1    3    3  502    0  0.85936508292E+02 -0.27889743549E+02  0.44315028699E+02  0.10071849592E+03  0.41800000000E+01 0.  1.
         -5    1    3    3    0  502 -0.13360749968E+02 -0.24556287538E+02  0.12454632825E+03  0.12771366872E+03  0.41800000000E+01 0.  1.
        -11    1    1    2    0    0 -0.46660414489E+02  0.45085257951E+02  0.14594150201E+03  0.15971473562E+03  0.00000000000E+00 0. -1.
         11    1    1    2    0    0 -0.25915343836E+02  0.73607731357E+01 -0.87549978920E+01  0.28327301590E+02  0.00000000000E+00 0.  1.
</event>
<event>
 7    1  0.2723366E-009  0.5841522E+02  0.7561462E-02  0.1404605E+00
         -1   -1    0    0    0  501 -0.00000000000E+00  0.00000000000E+00  0.34871262399E+02  0.34871262399E+02  0.00000000000E+00 0.  1.
          1   -1    0    0  501    0  0.00000000000E+00 -0.00000000000E+00 -0.35004631972E+03  0.35004631972E+03  0.00000000000E+00 0. -1.
         25    2    1    2    0    0  0.15201250808E+02 -0.28837306700E+01 -0.15333510325E+03  0.19849391458E+03  0.12509510905E+03 0.  0.
          5    1    3    3  502    0 -0.16083158083E+02 -0.13726724339E+02 -0.16246986633E+03  0.16389332140E+03  0.41800000000E+01 0.  1.
         -5    1    3    3    0  502  0.31284408892E+02  0.10842993669E+02  0.91347630821E+01  0.34600593174E+02  0.41800000000E+01 0.  1.
        -11    1    1    2    0    0  0.41489469343E+01 -0.26444062891E+02 -0.70283947604E+01  0.27674908414E+02  0.00000000000E+00 0.  1.
         11    1    1    2    0    0 -0.19350197742E+02  0.29327793561E+02 -0.15481155931E+03  0.15874875913E+03  0.00000000000E+00 0. -1.
</event>
<event>
 7    1  0.2723366E-009  0.1045128E+03  0.7561462E-02  0.1271083E+00
          1   -1    0    0  501    0  0.00000000000E+00  0.00000000000E+00  0.80083450795E+03  0.80083450795E+03  0.00000000000E+00 0. -1.
         -1   -1    0    0    0  501 -0.00000000000E+00 -0.00000000000E+00 -0.15770562511E+02  0.15770562511E+02  0.00000000000E+00 0.  1.
         25    2    1    2    0    0 -0.12968368051E+02  0.10058944848E+02  0.54038733520E+03  0.55492299309E+03  0.12510673555E+03 0.  0.
          5    1    3    3  502    0  0.32103205216E+02  0.51876672881E+02  0.33321634863E+03  0.33878077331E+03  0.41800000000E+01 0. -1.
         -5    1    3    3    0  502 -0.45071573267E+02 -0.41817728034E+02  0.20717098657E+03  0.21614221978E+03  0.41800000000E+01 0. -1.
        -11    1    1    2    0    0 -0.35958804944E+02 -0.10000981436E+02  0.60234420631E+02  0.70860713455E+02  0.00000000000E+00 0.  1.
         11    1    1    2    0    0  0.48927172995E+02 -0.57963412318E-01  0.18444218962E+03  0.19082136392E+03  0.00000000000E+00 0. -1.
</event>
<event>
 7    1  0.2723366E-009  0.1126134E+03  0.7561462E-02  0.1255805E+00
         -2   -1    0    0    0  501 -0.00000000000E+00  0.00000000000E+00  0.34702138179E+02  0.34702138179E+02  0.00000000000E+00 0.  1.
          2   -1    0    0  501    0  0.00000000000E+00 -0.00000000000E+00 -0.73971323848E+03  0.73971323848E+03  0.00000000000E+00 0. -1.
         25    2    1    2    0    0  0.68940162355E+02 -0.42046814159E+02 -0.58614491900E+03  0.60475957277E+03  0.12509034420E+03 0.  0.
          5    1    3    3  502    0  0.58347670933E+02  0.22202034095E+01 -0.95665650065E+02  0.11215511138E+03  0.41800000000E+01 0. -1.
         -5    1    3    3    0  502  0.10592491422E+02 -0.44267017568E+02 -0.49047926894E+03  0.49260446139E+03  0.41800000000E+01 0. -1.
        -11    1    1    2    0    0  0.10316836440E+02 -0.18540132331E+02 -0.18635420898E+02  0.28239202060E+02  0.00000000000E+00 0.  1.
         11    1    1    2    0    0 -0.79256998795E+02  0.60586946490E+02 -0.10023076039E+03  0.14141660183E+03  0.00000000000E+00 0. -1.
</event>
<event>
 7    1  0.2723366E-009  0.1128378E+03  0.7561462E-02  0.1255403E+00
         -2   -1    0    0    0  501 -0.00000000000E+00  0.00000000000E+00  0.21464592940E+02  0.21464592940E+02  0.00000000000E+00 0. -1.
          2   -1    0    0  501    0  0.00000000000E+00 -0.00000000000E+00 -0.98497820602E+03  0.98497820602E+03  0.00000000000E+00 0.  1.
         25    2    1    2    0    0 -0.68601824323E+02  0.65178557063E+02 -0.44166228154E+03  0.46868731394E+03  0.12509105769E+03 0.  0.
          5    1    3    3  502    0 -0.39291028746E+02  0.57153516826E+02 -0.43045775018E+03  0.43602942161E+03  0.41800000000E+01 0.  1.
         -5    1    3    3    0  502 -0.29310795577E+02  0.80250402369E+01 -0.11204531359E+02  0.32657892325E+02  0.41800000000E+01 0.  1.
        -11    1    1    2    0    0  0.65997741853E+01  0.19488637723E+02 -0.44817316486E+02  0.49314864662E+02  0.00000000000E+00 0. -1.
         11    1    1    2    0    0  0.62002050138E+02 -0.84667194786E+02 -0.47703401506E+03  0.48844062036E+03  0.00000000000E+00 0.  1.
</event>
<event>
 7    1  0.2723366E-009  0.1389724E+03  0.7561462E-02  0.1214718E+00
          1   -1    0    0  501    0  0.00000000000E+00  0.00000000000E+00  0.10261834563E+03  0.10261834563E+03  0.00000000000E+00 0.  1.
         -1   -1    0    0    0  501 -0.00000000000E+00 -0.00000000000E+00 -0.34962353588E+03  0.34962353588E+03  0.00000000000E+00 0. -1.
         25    2    1    2    0    0  0.19580537203E+02 -0.11045899357E+03 -0.30758309601E+01  0.16805233828E+03  0.12509013138E+03 0.  0.
          5    1    3    3  502    0 -0.33187389061E+02 -0.10630263747E+03  0.13908864774E+02  0.11230575428E+03  0.41800000000E+01 0.  1.
         -5    1    3    3    0  502  0.52767926265E+02 -0.41563560984E+01 -0.16984695734E+02  0.55746583998E+02  0.41800000000E+01 0.  1.
        -11    1    1    2    0    0 -0.10500616348E+02  0.20902473544E+02  0.82571870961E+00  0.23406369973E+02  0.00000000000E+00 0.  1.
         11    1    1    2    0    0 -0.90799208555E+01  0.89556520027E+02 -0.24475507801E+03  0.26078317325E+03  0.00000000000E+00 0. -1.
</event>
<event>
 7    1  0.2723366E-009  0.1932019E+03  0.7561462E-02  0.1155605E+00
         -2   -1    0    0    0  501 -0.00000000000E+00  0.00000000000E+00  0.20457771775E+04  0.20457771775E+04  0.00000000000E+00 0. -1.
          2   -1    0    0  501    0  0.00000000000E+00 -0.00000000000E+00 -0.21592553533E+02  0.21592553533E+02  0.00000000000E+00 0.  1.
         25    2    1    2    0    0 -0.52216279384E+02  0.16858108178E+03  0.89535991025E+03  0.92112021876E+03  0.12508783938E+03 0.  0.
          5    1    3    3  502    0  0.29528483197E+01  0.95578470116E+02  0.68537201564E+03  0.69202329114E+03  0.41800000000E+01 0. -1.
         -5    1    3    3    0  502 -0.55169127704E+02  0.73002611663E+02  0.20998789461E+03  0.22909692762E+03  0.41800000000E+01 0. -1.
        -11    1    1    2    0    0 -0.19919168959E+02 -0.90994517006E+02  0.53540051679E+03  0.54344317900E+03  0.00000000000E+00 0.  1.
         11    1    1    2    0    0  0.72135448344E+02 -0.77586564772E+02  0.59342419696E+03  0.60280633331E+03  0.00000000000E+00 0. -1.
</event>
<event>
 7    1  0.2723366E-009  0.8936522E+02  0.7561462E-02  0.1304396E+00
          2   -1    0    0  501    0  0.00000000000E+00  0.00000000000E+00  0.18925304894E+03  0.18925304894E+03  0.00000000000E+00 0. -1.
         -2   -1    0    0    0  501 -0.00000000000E+00 -0.00000000000E+00 -0.12212097987E+03  0.12212097987E+03  0.00000000000E+00 0.  1.
         25    2    1    2    0    0  0.15512267305E+02  0.19859747816E+02 -0.68634248266E+02  0.14489183528E+03  0.12509174184E+03 0.  0.
          5    1    3    3  502    0  0.39412709890E+02  0.45420326241E+02 -0.86457973999E+02  0.10539839375E+03  0.41800000000E+01 0. -1.
         -5    1    3    3    0  502 -0.23900442585E+02 -0.25560578425E+02  0.17823725732E+02  0.39493441533E+02  0.41800000000E+01 0. -1.
        -11    1    1    2    0    0  0.27722925455E+02  0.11274338909E+02  0.12953874546E+02  0.32610951831E+02  0.00000000000E+00 0.  1.
         11    1    1    2    0    0 -0.43235192759E+02 -0.31134086725E+02  0.12281244280E+03  0.13387124170E+03  0.00000000000E+00 0. -1.
</event>
<event>
 7    1  0.2723366E-009  0.1628792E+03  0.7561462E-02  0.1185484E+00
          2   -1    0    0  501    0  0.00000000000E+00  0.00000000000E+00  0.69711155501E+02  0.69711155501E+02  0.00000000000E+00 0. -1.
         -2   -1    0    0    0  501 -0.00000000000E+00 -0.00000000000E+00 -0.53904791837E+03  0.53904791837E+03  0.00000000000E+00 0.  1.
         25    2    1    2    0    0 -0.10327053818E+02 -0.16022159101E+03 -0.25381501910E+03  0.32534294769E+03  0.12509341879E+03 0.  0.
          5    1    3    3  502    0 -0.22071207637E+02 -0.12047223156E+03 -0.79400873167E+02  0.14602283329E+03  0.41800000000E+01 0. -1.
         -5    1    3    3    0  502  0.11744153820E+02 -0.39749359456E+02 -0.17441414593E+03  0.17932011440E+03  0.41800000000E+01 0. -1.
        -11    1    1    2    0    0  0.15506210685E+02  0.11922715685E+03 -0.20965252558E+03  0.24168106873E+03  0.00000000000E+00 0.  1.
         11    1    1    2    0    0 -0.51791568676E+01  0.40994434161E+02 -0.58692181844E+01  0.41735057447E+02  0.00000000000E+00 0. -1.
</event>
<event>
 7    1  0.2723366E-009  0.1394471E+03  0.7561462E-02  0.1214075E+00
          2   -1    0    0  501    0  0.00000000000E+00  0.00000000000E+00  0.14174150623E+04  0.14174150623E+04  0.00000000000E+00 0. -1.
         -2   -1    0    0    0  501 -0.00000000000E+00 -0.00000000000E+00 -0.15282376631E+02  0.15282376631E+02  0.00000000000E+00 0.  1.
         25    2    1    2    0    0  0.95643385528E+02  0.15118808777E+01  0.70161463596E+03  0.71906923073E+03  0.12509004039E+03 0.  0.
          5    1    3    3  502    0  0.49056565116E+02 -0.52564599290E+02  0.49982413850E+03  0.50498636171E+03  0.41800000000E+01 0. -1.
         -5    1    3    3    0  502  0.46586820412E+02  0.54076480168E+02  0.20179049746E+03  0.21408286902E+03  0.41800000000E+01 0. -1.
        -11    1    1    2    0    0 -0.21523606034E+02  0.43587379963E+02  0.28944499423E+03  0.29349877341E+03  0.00000000000E+00 0.  1.
         11    1    1    2    0    0 -0.74119779494E+02 -0.45099260841E+02  0.41107305548E+03  0.42012943480E+03  0.00000000000E+00 0. -1.
</event>
<event>
 7    1  0.2723366E-009  0.1514851E+03  0.7561462E-02  0.1198660E+00
         -2   -1    0    0    0  501 -0.00000000000E+00  0.00000000000E+00  0.26331757354E+03  0.26331757354E+03  0.00000000000E+00 0.  1.
          2   -1    0    0  501    0  0.00000000000E+00 -0.00000000000E+00 -0.13653825238E+03  0.13653825238E+03  0.00000000000E+00 0. -1.
         25    2    1    2    0    0 -0.37477809112E+02  0.10034907449E+03 -0.50856467513E+02  0.17236078130E+03  0.12508931096E+03 0.  0.
          5    1    3    3  502    0 -0.18635197215E+00 -0.27441487684E+02  0.45141065608E+01  0.28123291618E+02  0.41800000000E+01 0. -1.
         -5    1    3    3    0  502 -0.37291457140E+02  0.12779056218E+03 -0.55370574074E+02  0.14423748969E+03  0.41800000000E+01 0. -1.
        -11    1    1    2    0    0  0.45781821844E+02 -0.47065500623E+01  0.61591543258E+02  0.76887222773E+02  0.00000000000E+00 0.  1.
         11    1    1    2    0    0 -0.83040127323E+01 -0.95642524431E+02  0.11604424542E+03  0.15060782185E+03  0.00000000000E+00 0. -1.
</event>
<event>
 7    1  0.2723366E-009  0.1048893E+03  0.7561462E-02  0.1270338E+00
          2   -1    0    0  501    0  0.00000000000E+00  0.00000000000E+00  0.42166445148E+03  0.42166445148E+03  0.00000000000E+00 0. -1.
         -2   -1    0    0    0  501 -0.00000000000E+00 -0.00000000000E+00 -0.55849836287E+02  0.55849836287E+02  0.00000000000E+00 0.  1.
         25    2    1    2    0    0  0.33065077433E+02 -0.48649678861E+01  0.35906674873E+03  0.38169629144E+03  0.12508461773E+03 0.  0.
          5    1    3    3  502    0 -0.24671842884E+02 -0.47069078157E+02  0.20451610897E+03  0.21134925875E+03  0.41800000000E+01 0. -1.
         -5    1    3    3    0  502  0.57736920317E+02  0.42204110271E+02  0.15455063977E+03  0.17034703268E+03  0.41800000000E+01 0. -1.
        -11    1    1    2    0    0  0.25810896643E+02  0.10413846101E+01  0.23035584371E+02  0.34611053361E+02  0.00000000000E+00 0. -1.
         11    1    1    2    0    0 -0.58875974076E+02  0.38235832760E+01 -0.16287717913E+02  0.61206942966E+02  0.00000000000E+00 0.  1.
</event>
<event>
 7    1  0.2723366E-009  0.9456486E+02  0.7561462E-02  0.1292159E+00
         -2   -1    0    0    0  501 -0.00000000000E+00  0.00000000000E+00  0.30047368388E+02  0.30047368388E+02  0.00000000000E+00 0.  1.
          2   -1    0    0  501    0  0.00000000000E+00 -0.00000000000E+00 -0.45790349506E+03  0.45790349506E+03  0.00000000000E+00 0. -1.
         25    2    1    2    0    0 -0.40794552397E+02  0.22610999672E+01 -0.20216219084E+03  0.24122140392E+03  0.12509558837E+03 0.  0.
          5    1    3    3  502    0 -0.18484484618E+02 -0.56985910170E+02 -0.14027841677E+03  0.15259284629E+03  0.41800000000E+01 0.  1.
         -5    1    3    3    0  502 -0.22310067778E+02  0.59247010137E+02 -0.61883774069E+02  0.88628557629E+02  0.41800000000E+01 0.  1.
        -11    1    1    2    0    0  0.50842973726E+01 -0.23524446496E+02 -0.83920791725E+01  0.25488755473E+02  0.00000000000E+00 0.  1.
         11    1    1    2    0    0  0.35710255024E+02  0.21263346529E+02 -0.21730185667E+03  0.22124070405E+03  0.00000000000E+00 0. -1.
</event>
<event>
 7    1  0.2723366E-009  0.1221514E+03  0.7561462E-02  0.1239589E+00
         -2   -1    0    0    0  501 -0.00000000000E+00  0.00000000000E+00  0.82132801027E+02  0.82132801027E+02  0.00000000000E+00 0.  1.
          2   -1    0    0  501    0  0.00000000000E+00 -0.00000000000E+00 -0.24685260883E+03  0.24685260883E+03  0.00000000000E+00 0. -1.
         25    2    1    2    0    0  0.56002451193E+02  0.27487672580E+02 -0.11624684544E+02  0.14026510325E+03  0.12508924500E+03 0.  0.
          5    1    3    3  502    0 -0.34040356946E+02  0.27704423672E+02 -0.22454468043E+02  0.49476828183E+02  0.41800000000E+01 0.  1.
         -5    1    3    3    0  502  0.90042808140E+02 -0.21675109195E+00  0.10829783498E+02  0.90788275065E+02  0.41800000000E+01 0.  1.
        -11    1    1    2    0    0  0.60120195382E+01 -0.45186073254E+02 -0.70033209868E+02  0.83561809935E+02  0.00000000000E+00 0.  1.
         11    1    1    2    0    0 -0.62014470731E+02  0.17698400675E+02 -0.83061913390E+02  0.10515849667E+03  0.00000000000E+00 0. -1.
</event>
<event>
 7    1  0.2723366E-009  0.1153841E+03  0.7561462E-02  0.1250912E+00
         -1   -1    0    0    0  501 -0.00000000000E+00  0.00000000000E+00  0.21768851610E+02  0.21768851610E+02  0.00000000000E+00 0.  1.
          1   -1    0    0  501    0  0.00000000000E+00 -0.00000000000E+00 -0.87179965119E+03  0.87179965119E+03  0.00000000000E+00 0. -1.
         25    2    1    2    0    0 -0.50703762049E+02 -0.66109960995E+02 -0.53851923547E+03  0.55910142480E+03  0.12510011117E+03 0.  0.
          5    1    3    3  502    0 -0.47940793496E+02 -0.99478140991E+02 -0.33370298171E+03  0.35152435566E+03  0.41800000000E+01 0. -1.
         -5    1    3    3    0  502 -0.27629685528E+01  0.33368179996E+02 -0.20481625376E+03  0.20757706915E+03  0.41800000000E+01 0. -1.
        -11    1    1    2    0    0  0.20777736661E+02  0.10296043056E+02 -0.81714644372E+01  0.24586493740E+02  0.00000000000E+00 0.  1.
         11    1    1    2    0    0  0.29926025388E+02  0.55813917939E+02 -0.30334009967E+03  0.30988058425E+03  0.00000000000E+00 0. -1.
</event>
<event>
 7    1  0.2723366E-009  0.2017231E+03  0.7561462E-02  0.1148293E+00
         -2   -1    0    0    0  501 -0.00000000000E+00  0.00000000000E+00  0.68960145412E+02  0.68960145412E+02  0.00000000000E+00 0.  1.
          2   -1    0    0  501    0  0.00000000000E+00 -0.00000000000E+00 -0.67901543653E+03  0.67901543653E+03  0.00000000000E+00 0. -1.
         25    2    1    2    0    0  0.84651319885E+02  0.16343184018E+03 -0.36724945809E+03  0.42941312158E+03  0.12509057588E+03 0.  0.
          5    1    3    3  502    0  0.84788920637E+02  0.87299961107E+02 -0.31295488483E+03  0.33581047722E+03  0.41800000000E+01 0. -1.
         -5    1    3    3    0  502 -0.13760075182E+00  0.76131879076E+02 -0.54294573262E+02  0.93602644361E+02  0.41800000000E+01 0. -1.
        -11    1    1    2    0    0 -0.61206135052E+02 -0.26826769902E+02 -0.92386341846E+02  0.11402237812E+03  0.00000000000E+00 0. -1.
         11    1    1    2    0    0 -0.23445184833E+02 -0.13660507028E+03 -0.15041949118E+03  0.20454008225E+03  0.00000000000E+00 0.  1.
</event>
<event>
 7    1  0.2723366E-009  0.1133959E+03  0.7561462E-02  0.1254407E+00
          1   -1    0    0  501    0  0.00000000000E+00  0.00000000000E+00  0.12977964489E+03  0.12977964489E+03  0.00000000000E+00 0. -1.
         -1   -1    0    0    0  501 -0.00000000000E+00 -0.00000000000E+00 -0.14019306585E+03  0.14019306585E+03  0.00000000000E+00 0.  1.
         25    2    1    2    0    0 -0.32628853026E+02  0.28821084852E+02 -0.76498315076E+02  0.15294563411E+03  0.12508028543E+03 0.  0.
          5    1    3    3  502    0 -0.76484785110E+02 -0.36301440553E+01 -0.53970202523E+02  0.93772892989E+02  0.41800000000E+01 0.  1.
         -5    1    3    3    0  502  0.43855932084E+02  0.32451228907E+02 -0.22528112554E+02  0.59172741121E+02  0.41800000000E+01 0.  1.
        -11    1    1    2    0    0  0.45348024649E+02  0.16547289243E+02  0.42596397725E+02  0.64379416121E+02  0.00000000000E+00 0.  1.
         11    1    1    2    0    0 -0.12719171623E+02 -0.45368374095E+02  0.23488496386E+02  0.52647660511E+02  0.00000000000E+00 0. -1.
</event>
<event>
 7    1  0.2723366E-009  0.1195415E+03  0.7561462E-02  0.1243855E+00
          4   -1    0    0  501    0  0.00000000000E+00  0.00000000000E+00  0.52326492983E+03  0.52326492983E+03  0.00000000000E+00 0. -1.
         -4   -1    0    0    0  501 -0.00000000000E+00 -0.00000000000E+00 -0.38024515353E+02  0.38024515353E+02  0.00000000000E+00 0.  1.
         25    2    1    2    0    0 -0.11243502082E+02 -0.89021950283E+02  0.26102429214E+03  0.30303974471E+03  0.12509229321E+03 0.  0.
          5    1    3    3  502    0 -0.57878537134E+02 -0.66717073471E+02  0.21936938569E+03  0.23651953985E+03  0.41800000000E+01 0. -1.
         -5    1    3    3    0  502  0.46635035052E+02 -0.22304876812E+02  0.41654906443E+02  0.66520204860E+02  0.41800000000E+01 0. -1.
        -11    1    1    2    0    0  0.25743282372E+02  0.39114751082E+02  0.26473320720E+02  0.53791421708E+02  0.00000000000E+00 0.  1.
         11    1    1    2    0    0 -0.14499780290E+02  0.49907199201E+02  0.19774280162E+03  0.20445827876E+03  0.00000000000E+00 0. -1.
</event>
<event>
 7    1  0.2723366E-009  0.7736587E+02  0.7561462E-02  0.1336697E+00
          1   -1    0    0  501    0  0.00000000000E+00  0.00000000000E+00  0.78958084012E+02  0.78958084012E+02  0.00000000000E+00 0. -1.
         -1   -1    0    0    0  501 -0.00000000000E+00 -0.00000000000E+00 -0.18503158165E+03  0.18503158165E+03  0.00000000000E+00 0.  1.
         25    2    1    2    0    0  0.25144444628E+02 -0.18664443497E+00 -0.11040593566E+03  0.16872811145E+03  0.12508967596E+03 0.  0.
          5    1    3    3  502    0 -0.17654646521E+02  0.55730237668E+00 -0.12266915259E+03  0.12400480042E+03  0.41800000000E+01 0. -1.
         -5    1    3    3    0  502  0.42799091149E+02 -0.74394681165E+00  0.12263216926E+02  0.44723311029E+02  0.41800000000E+01 0. -1.
        -11    1    1    2    0    0 -0.71663421647E+01 -0.44672526435E+02  0.10767744417E+02  0.46507369286E+02  0.00000000000E+00 0. -1.
         11    1    1    2    0    0 -0.17978102463E+02  0.44859170870E+02 -0.64353063873E+01  0.48754184924E+02  0.00000000000E+00 0.  1.
</event>
<event>
 7    1  0.2723366E-009  0.1010532E+03  0.7561462E-02  0.1278097E+00
          2   -1    0    0  501    0  0.00000000000E+00  0.00000000000E+00  0.71033640969E+03  0.71033640969E+03  0.00000000000E+00 0. -1.
         -2   -1    0    0    0  501 -0.00000000000E+00 -0.00000000000E+00 -0.17053043917E+02  0.17053043917E+02  0.00000000000E+00 0.  1.
         25    2    1    2    0    0  0.11151887167E+02 -0.14801974120E+02  0.34571376069E+03  0.36811548494E+03  0.12509013907E+03 0.  0.
          5    1    3    3  502    0  0.58652763663E+02  0.96028441689E+01  0.26230990094E+03  0.26899129694E+03  0.41800000000E+01 0. -1.
         -5    1    3    3    0  502 -0.47500876496E+02 -0.24404818289E+02  0.83403859758E+02  0.99124187997E+02  0.41800000000E+01 0. -1.
        -11    1    1    2    0    0  0.23517292170E+02  0.39792114795E+02  0.14288174992E+03  0.15017213420E+03  0.00000000000E+00 0.  1.
         11    1    1    2    0    0 -0.34669179337E+02 -0.24990140675E+02  0.20468785516E+03  0.20910183446E+03  0.00000000000E+00 0. -1.
</event>
<event>
 7    1  0.2723366E-009  0.2800348E+03  0.7561462E-02  0.1095670E+00
         -2   -1    0    0    0  501 -0.00000000000E+00  0.00000000000E+00  0.16349466206E+03  0.16349466206E+03  0.00000000000E+00 0. -1.
          2   -1    0    0  501    0  0.00000000000E+00 -0.00000000000E+00 -0.50777296055E+03  0.50777296055E+03  0.00000000000E+00 0.  1.
         25    2    1    2    0    0 -0.26303826698E+03  0.41699971569E+02 -0.19032671347E+03  0.35042787564E+03  0.12508965040E+03 0.  0.
          5    1    3    3  502    0 -0.66527159628E+02  0.66639366837E+02 -0.80132242287E+02  0.12371465893E+03  0.41800000000E+01 0.  1.
         -5    1    3    3    0  502 -0.19651110735E+03 -0.24939395268E+02 -0.11019447119E+03  0.22671321670E+03  0.41800000000E+01 0.  1.
        -11    1    1    2    0    0  0.83517828184E+02 -0.61200236931E+00 -0.97151066377E+02  0.12811686801E+03  0.00000000000E+00 0.  1.
         11    1    1    2    0    0  0.17952043879E+03 -0.41087969200E+02 -0.56800518639E+02  0.19272287896E+03  0.00000000000E+00 0. -1.
</event>
<event>
 7    1  0.2723366E-009  0.1072650E+03  0.7561462E-02  0.1265720E+00
         -1   -1    0    0    0  501 -0.00000000000E+00  0.00000000000E+00  0.49452531439E+02  0.49452531439E+02  0.00000000000E+00 0.  1.
          1   -1    0    0  501    0  0.00000000000E+00 -0.00000000000E+00 -0.44274805514E+03  0.44274805514E+03  0.00000000000E+00 0. -1.
         25    2    1    2    0    0 -0.59200991210E+02  0.61640767704E+02 -0.12336880696E+03  0.19537546267E+03  0.12508943713E+03 0.  0.
          5    1    3    3  502    0 -0.23224367243E+02  0.47193740480E+02  0.12329386546E+02  0.54185851907E+02  0.41800000000E+01 0. -1.
         -5    1    3    3    0  502 -0.35976623967E+02  0.14447027224E+02 -0.13569819350E+03  0.14118961076E+03  0.41800000000E+01 0. -1.
        -11    1    1    2    0    0  0.71994323381E+02 -0.13870600669E+02 -0.14544521042E+03  0.16287997236E+03  0.00000000000E+00 0. -1.
         11    1    1    2    0    0 -0.12793332171E+02 -0.47770167034E+02 -0.12448150632E+03  0.13394515155E+03  0.00000000000E+00 0.  1.
</event>
<event>
 7    1  0.2723366E-009  0.9852660E+02  0.7561462E-02  0.1283425E+00
         -3   -1    0    0    0  501 -0.00000000000E+00  0.00000000000E+00  0.41272441027E+03  0.41272441027E+03  0.00000000000E+00 0.  1.
          3   -1    0    0  501    0  0.00000000000E+00 -0.00000000000E+00 -0.48286255020E+02  0.48286255020E+02  0.00000000000E+00 0. -1.
         25    2    1    2    0    0 -0.36476036053E+02 -0.70920182808E+02  0.26546160395E+03  0.30410123060E+03  0.12509005456E+03 0.  0.
          5    1    3    3  502    0 -0.24758656009E+02 -0.71428881018E+02  0.55760348074E+02  0.94030659405E+02  0.41800000000E+01 0.  1.
         -5    1    3    3    0  502 -0.11717380043E+02  0.50869820908E+00  0.20970125587E+03  0.21007057120E+03  0.41800000000E+01 0.  1.
        -11    1    1    2    0    0 -0.22952752518E+02  0.23606940274E+02  0.66679839055E+02  0.74366103930E+02  0.00000000000E+00 0.  1.
         11    1    1    2    0    0  0.59428788570E+02  0.47313242534E+02  0.32296712245E+02  0.82543330753E+02  0.00000000000E+00 0. -1.
</event>
<event>
 7    1  0.2723366E-009  0.1082796E+03  0.7561462E-02  0.1263789E+00
         -3   -1    0    0    0  501 -0.00000000000E+00  0.00000000000E+00  0.67739927157E+02  0.67739927157E+02  0.00000000000E+00 0.  1.
          3   -1    0    0  501    0  0.00000000000E+00 -0.00000000000E+00 -0.22191108726E+03  0.22191108726E+03  0.00000000000E+00 0. -1.
         25    2    1    2    0    0 -0.29877691707E+02  0.18753441141E+02 -0.11710976616E+03  0.17494967682E+03  0.12509326149E+03 0.  0.
          5    1    3    3  502    0  0.37159730126E+02  0.16351847642E+02 -0.96299598036E+02  0.10459117289E+03  0.41800000000E+01 0.  1.
         -5    1    3    3    0  502 -0.67037421833E+02  0.24015934980E+01 -0.20810168127E+02  0.70358503927E+02  0.41800000000E+01 0.  1.
        -11    1    1    2    0    0  0.37791744207E+02 -0.57600042847E+02 -0.22661479468E+02  0.72522572471E+02  0.00000000000E+00 0.  1.
         11    1    1    2    0    0 -0.79140524999E+01  0.38846601706E+02 -0.14399914472E+02  0.42178765130E+02  0.00000000000E+00 0. -1.
</event>
<event>
 7    1  0.2723366E-009  0.1040460E+03  0.7561462E-02  0.1272011E+00
         -2   -1    0    0    0  501 -0.00000000000E+00  0.00000000000E+00  0.71141779921E+02  0.71141779921E+02  0.00000000000E+00 0.  1.
          2   -1    0    0  501    0  0.00000000000E+00 -0.00000000000E+00 -0.23283873230E+03  0.23283873230E+03  0.00000000000E+00 0. -1.
         25    2    1    2    0    0 -0.49896222238E+02 -0.41607125283E+02 -0.81802122690E+02  0.16296672337E+03  0.12508309151E+03 0.  0.
          5    1    3    3  502    0  0.40865215748E+01 -0.47847577428E+02 -0.95317797858E+02  0.10681313268E+03  0.41800000000E+01 0.  1.
         -5    1    3    3    0  502 -0.53982743813E+02  0.62404521451E+01  0.13515675168E+02  0.56153590694E+02  0.41800000000E+01 0.  1.
        -11    1    1    2    0    0  0.64709077921E+02  0.38460581327E+01 -0.76556261040E+02  0.10031409688E+03  0.00000000000E+00 0. -1.
         11    1    1    2    0    0 -0.14812855682E+02  0.37761067150E+02 -0.33385686513E+01  0.40699691969E+02  0.00000000000E+00 0.  1.
</event>
<event>
 7    1  0.2723366E-009  0.1169823E+03  0.7561462E-02  0.1248160E+00
          3   -1    0    0  501    0  0.00000000000E+00  0.00000000000E+00  0.56268089555E+03  0.56268089555E+03  0.00000000000E+00 0. -1.
         -3   -1    0    0    0  501 -0.00000000000E+00 -0.00000000000E+00 -0.41848738250E+02  0.41848738250E+02  0.00000000000E+00 0.  1.
         25    2    1    2    0    0  0.93612487764E+02 -0.25933498256E+02  0.37977965692E+03  0.41147662545E+03  0.12507830060E+03 0.  0.
          5    1    3    3  502    0  0.10165874511E+03 -0.76662240699E+01  0.37739405113E+03  0.39094374746E+03  0.41800000000E+01 0. -1.
         -5    1    3    3    0  502 -0.80462573504E+01 -0.18267274186E+02  0.23856057927E+01  0.20532877990E+02  0.41800000000E+01 0. -1.
        -11    1    1    2    0    0 -0.36972301371E+02 -0.16775293796E+02  0.67363356414E+01  0.41155069779E+02  0.00000000000E+00 0.  1.
         11    1    1    2    0    0 -0.56640186393E+02  0.42708792053E+02  0.13431616474E+03  0.15189793858E+03  0.00000000000E+00 0. -1.
</event>
<event>
 7    1  0.2723366E-009  0.1112874E+03  0.7561462E-02  0.1258204E+00
          3   -1    0    0  501    0  0.00000000000E+00  0.00000000000E+00  0.19287391066E+02  0.19287391066E+02  0.00000000000E+00 0. -1.
         -3   -1    0    0    0  501 -0.00000000000E+00 -0.00000000000E+00 -0.66310076656E+03  0.66310076656E+03  0.00000000000E+00 0.  1.
         25    2    1    2    0    0 -0.22562845245E+02  0.72073831001E+01 -0.31184898132E+03  0.33683662598E+03  0.12509235427E+03 0.  0.
          5    1    3    3  502    0  0.16236610763E+01  0.64314744842E+02 -0.17619066343E+03  0.18761568421E+03  0.41800000000E+01 0. -1.
         -5    1    3    3    0  502 -0.24186506321E+02 -0.57107361742E+02 -0.13565831788E+03  0.14922094177E+03  0.41800000000E+01 0. -1.
        -11    1    1    2    0    0 -0.35339640738E+01 -0.47667832049E+02 -0.16513831697E+03  0.17191676720E+03  0.00000000000E+00 0.  1.
         11    1    1    2    0    0  0.26096809319E+02  0.40460448949E+02 -0.16682607721E+03  0.17363476444E+03  0.00000000000E+00 0. -1.
</event>
<event>
 7    1  0.2723366E-009  0.1412159E+03  0.7561462E-02  0.1211702E+00
          1   -1    0    0  501    0  0.00000000000E+00  0.00000000000E+00  0.33284793599E+02  0.33284793599E+02  0.00000000000E+00 0. -1.
         -1   -1    0    0    0  501 -0.00000000000E+00 -0.00000000000E+00 -0.75382323626E+03  0.75382323626E+03  0.00000000000E+00 0.  1.
         25    2    1    2    0    0  0.91463423549E+02  0.68518643623E+02 -0.34528325052E+03  0.38461381097E+03  0.12508756186E+03 0.  0.
          5    1    3    3  502    0  0.60810951701E+02  0.95666936212E+02 -0.31101725029E+03  0.33105790568E+03  0.41800000000E+01 0. -1.
         -5    1    3    3    0  502  0.30652471847E+02 -0.27148292589E+02 -0.34266000226E+02  0.53555905298E+02  0.41800000000E+01 0. -1.
        -11    1    1    2    0    0 -0.97691428270E+02 -0.53059784802E+02 -0.36780448710E+03  0.38423833313E+03  0.00000000000E+00 0.  1.
         11    1    1    2    0    0  0.62280047212E+01 -0.15458858821E+02 -0.74507050440E+01  0.18255885750E+02  0.00000000000E+00 0. -1.
</event>
<event>
 7    1  0.2723366E-009  0.1596002E+03  0.7561462E-02  0.1189149E+00
         -1   -1    0    0    0  501 -0.00000000000E+00  0.00000000000E+00  0.85822979098E+02  0.85822979098E+02  0.00000000000E+00 0.  1.
          1   -1    0    0  501    0  0.00000000000E+00 -0.00000000000E+00 -0.45075647547E+03  0.45075647547E+03  0.00000000000E+00 0. -1.
         25    2    1    2    0    0  0.28444534011E+02  0.13146645253E+03 -0.32026573418E+03  0.36920287718E+03  0.12509238333E+03 0.  0.
          5    1    3    3  502    0  0.31645168331E+02 -0.15675383880E+02 -0.77650690646E+02  0.85406302439E+02  0.41800000000E+01 0. -1.
         -5    1    3    3    0  502 -0.32006343205E+01  0.14714183641E+03 -0.24261504354E+03  0.28379657474E+03  0.41800000000E+01 0. -1.
        -11    1    1    2    0    0 -0.32064410746E+02 -0.10800543181E+03 -0.70016061080E+02  0.13264821351E+03  0.00000000000E+00 0. -1.
         11    1    1    2    0    0  0.36198767351E+01 -0.23461020721E+02  0.25348298894E+02  0.34728363878E+02  0.00000000000E+00 0.  1.
</event>
<event>
 7    1  0.2723366E-009  0.8945656E+02  0.7561462E-02  0.1304173E+00
          1   -1    0    0  501    0  0.00000000000E+00  0.00000000000E+00  0.12284130690E+03  0.12284130690E+03  0.00000000000E+00 0. -1.
         -1   -1    0    0    0  501 -0.00000000000E+00 -0.00000000000E+00 -0.19706900162E+03  0.19706900162E+03  0.00000000000E+00 0.  1.
         25    2    1    2    0    0  0.56971831419E+02  0.19347302708E+02 -0.13653097497E+03  0.19470095272E+03  0.12509055187E+03 0.  0.
          5    1    3    3  502    0  0.22761044822E+01  0.48767032779E+02 -0.12100249046E+03  0.13054684690E+03  0.41800000000E+01 0.  1.
         -5    1    3    3    0  502  0.54695726937E+02 -0.29419730072E+02 -0.15528484513E+02  0.64154105823E+02  0.41800000000E+01 0.  1.
        -11    1    1    2    0    0 -0.51943277087E+02 -0.46695593737E+01 -0.83989952625E+01  0.52824728496E+02  0.00000000000E+00 0.  1.
         11    1    1    2    0    0 -0.50285543324E+01 -0.14677743334E+02  0.70702275509E+02  0.72384627306E+02  0.00000000000E+00 0. -1.
</event>
<event>
 7    1  0.2723366E-009  0.8130736E+02  0.7561462E-02  0.1325382E+00
          3   -1    0    0  501    0  0.00000000000E+00  0.00000000000E+00  0.99892625398E+02  0.99892625398E+02  0.00000000000E+00 0. -1.
         -3   -1    0    0    0  501 -0.00000000000E+00 -0.00000000000E+00 -0.15661521023E+03  0.15661521023E+03  0.00000000000E+00 0.  1.
         25    2    1    2    0    0 -0.24831978029E+02 -0.49425475790E+02 -0.40312085863E+01  0.13682929386E+03  0.12508597133E+03 0.  0.
          5    1    3    3  502    0 -0.53522168930E+02 -0.39835115411E+02 -0.48708059376E+02  0.82712794869E+02  0.41800000000E+01 0.  1.
         -5    1    3    3    0  502  0.28690190901E+02 -0.95903603790E+01  0.44676850790E+02  0.54116498987E+02  0.41800000000E+01 0.  1.
        -11    1    1    2    0    0  0.54179898907E+01  0.44986465797E+02 -0.76331911198E+02  0.88767659576E+02  0.00000000000E+00 0.  1.
         11    1    1    2    0    0  0.19413988139E+02  0.44390099927E+01  0.23640534954E+02  0.30910882195E+02  0.00000000000E+00 0. -1.
</event>
<event>
 7    1  0.2723366E-009  0.1325389E+03  0.7561462E-02  0.1223736E+00
         -1   -1    0    0    0  501 -0.00000000000E+00  0.00000000000E+00  0.31855564794E+02  0.31855564794E+02  0.00000000000E+00 0.  1.
          1   -1    0    0  501    0  0.00000000000E+00 -0.00000000000E+00 -0.62515420629E+03  0.62515420629E+03  0.00000000000E+00 0. -1.
         25    2    1    2    0    0  0.77229314123E+01 -0.92183125913E+02 -0.30922236408E+03  0.34615472429E+03  0.12508896966E+03 0.  0.
          5    1    3    3  502    0 -0.54478368923E+02 -0.32105556291E+02 -0.17799607846E+03  0.18894109074E+03  0.41800000000E+01 0. -1.
         -5    1    3    3    0  502  0.62201300335E+02 -0.60077569623E+02 -0.13122628563E+03  0.15721363355E+03  0.41800000000E+01 0. -1.
        -11    1    1    2    0    0 -0.34161142092E+02  0.23317442656E+02 -0.47195328254E+02  0.62754169344E+02  0.00000000000E+00 0.  1.
         11    1    1    2    0    0  0.26438210680E+02  0.68865683257E+02 -0.23688094916E+03  0.24810087744E+03  0.00000000000E+00 0. -1.
</event>
<event>
 7    1  0.2723366E-009  0.9971324E+02  0.7561462E-02  0.1280900E+00
          2   -1    0    0  501    0  0.00000000000E+00  0.00000000000E+00  0.22542407967E+04  0.22542407967E+04  0.00000000000E+00 0. -1.
         -2   -1    0    0    0  501 -0.00000000000E+00 -0.00000000000E+00 -0.12346859025E+02  0.12346859025E+02  0.00000000000E+00 0.  1.
         25    2    1    2    0    0  0.32598534957E+02 -0.70016406036E+02  0.18946704879E+04  0.19003650581E+04  0.12508451044E+03 0.  0.
          5    1    3    3  502    0 -0.39105999310E+01 -0.59502773872E+02  0.17405338273E+04  0.17415600332E+04  0.41800000000E+01 0.  1.
         -5    1    3    3    0  502  0.36509134888E+02 -0.10513632164E+02  0.15413666056E+03  0.15880502486E+03  0.41800000000E+01 0.  1.
        -11    1    1    2    0    0 -0.35384300704E+02  0.42921318583E+01  0.47620128654E+02  0.59482331707E+02  0.00000000000E+00 0.  1.
         11    1    1    2    0    0  0.27857657470E+01  0.65724274178E+02  0.29960332119E+03  0.30674026598E+03  0.00000000000E+00 0. -1.
</event>
<event>
 7    1  0.2723366E-009  0.1025994E+03  0.7561462E-02  0.1274923E+00
          1   -1    0    0  501    0  0.00000000000E+00  0.00000000000E+00  0.14062919299E+04  0.14062919299E+04  0.00000000000E+00 0. -1.
         -1   -1    0    0    0  501 -0.00000000000E+00 -0.00000000000E+00 -0.11372339259E+02  0.11372339259E+02  0.00000000000E+00 0.  1.
         25    2    1    2    0    0 -0.27022347532E+02  0.25860533534E+02  0.10049827375E+04  0.10134286492E+04  0.12509336489E+03 0.  0.
          5    1    3    3  502    0 -0.37276095656E+00  0.60059285953E+02  0.85846478752E+03  0.86057336735E+03  0.41800000000E+01 0. -1.
         -5    1    3    3    0  502 -0.26649586576E+02 -0.34198752419E+02  0.14651795000E+03  0.15285528190E+03  0.41800000000E+01 0. -1.
        -11    1    1    2    0    0  0.62252416003E+02 -0.21862279255E+02  0.18878352180E+03  0.19998135077E+03  0.00000000000E+00 0.  1.
         11    1    1    2    0    0 -0.35230068471E+02 -0.39982542787E+01  0.20115333131E+03  0.20425426913E+03  0.00000000000E+00 0. -1.
</event>
<event>
 7    1  0.2723366E-009  0.2521969E+03  0.7561462E-02  0.1111924E+00
         -1   -1    0    0    0  501 -0.00000000000E+00  0.00000000000E+00  0.52705069833E+02  0.52705069833E+02  0.00000000000E+00 0.  1.
          1   -1    0    0  501    0  0.00000000000E+00 -0.00000000000E+00 -0.13027914293E+04  0.13027914293E+04  0.00000000000E+00 0. -1.
         25    2    1    2    0    0 -0.19142957800E+03  0.13089577975E+03 -0.78178739117E+03  0.82499554001E+03  0.12508847892E+03 0.  0.
          5    1    3    3  502    0 -0.29384828041E+02 -0.18346062148E+02 -0.51617325353E+02  0.62304628977E+02  0.41800000000E+01 0.  1.
         -5    1    3    3    0  502 -0.16204474996E+03  0.14924184190E+03 -0.73017006581E+03  0.76269091103E+03  0.41800000000E+01 0.  1.
        -11    1    1    2    0    0  0.29268655672E+01 -0.39612157729E+02 -0.69510952693E+02  0.80059116447E+02  0.00000000000E+00 0.  1.
         11    1    1    2    0    0  0.18850271243E+03 -0.91283622020E+02 -0.39878801561E+03  0.45044184268E+03  0.00000000000E+00 0. -1.
</event>
<event>
 7    1  0.2723366E-009  0.9622217E+02  0.7561462E-02  0.1288447E+00
         -4   -1    0    0    0  501 -0.00000000000E+00  0.00000000000E+00  0.27338973371E+03  0.27338973371E+03  0.00000000000E+00 0.  1.
          4   -1    0    0  501    0  0.00000000000E+00 -0.00000000000E+00 -0.47990171321E+02  0.47990171321E+02  0.00000000000E+00 0. -1.
         25    2    1    2    0    0 -0.84130618578E+01  0.32926645367E+02  0.15475373715E+03  0.20186916127E+03  0.12508994973E+03 0.  0.
          5    1    3    3  502    0  0.20522440575E+02 -0.24273644830E+02 -0.23432315422E+01  0.32145661209E+02  0.41800000000E+01 0.  1.
         -5    1    3    3    0  502 -0.28935502433E+02  0.57200290197E+02  0.15709696869E+03  0.16972350006E+03  0.41800000000E+01 0.  1.
        -11    1    1    2    0    0  0.40578218523E+02  0.10679271095E+02  0.26593283434E+02  0.49677372852E+02  0.00000000000E+00 0. -1.
         11    1    1    2    0    0 -0.32165156666E+02 -0.43605916462E+02  0.44052541810E+02  0.69833370918E+02  0.00000000000E+00 0.  1.
</event>
<event>
 7    1  0.2723366E-009  0.1714925E+03  0.7561462E-02  0.1176300E+00
         -1   -1    0    0    0  501 -0.00000000000E+00  0.00000000000E+00  0.69905069309E+02  0.69905069309E+02  0.00000000000E+00 0.  1.
          1   -1    0    0  501    0  0.00000000000E+00 -0.00000000000E+00 -0.64037645855E+03  0.64037645855E+03  0.00000000000E+00 0. -1.
         25    2    1    2    0    0  0.15351797157E+03 -0.42880512519E+02 -0.36310662092E+03  0.41581187107E+03  0.12508632225E+03 0.  0.
          5    1    3    3  502    0  0.50586388385E+02 -0.17504551903E+02 -0.21036545063E+02  0.57666286991E+02  0.41800000000E+01 0. -1.
         -5    1    3    3    0  502  0.10293158319E+03 -0.25375960616E+02 -0.34207007586E+03  0.35814558408E+03  0.41800000000E+01 0. -1.
        -11    1    1    2    0    0 -0.15663804010E+03  0.58547486903E+02 -0.12041761268E+03  0.20606718631E+03  0.00000000000E+00 0.  1.
         11    1    1    2    0    0  0.31200685274E+01 -0.15666974384E+02 -0.86947155639E+02  0.88402470484E+02  0.00000000000E+00 0. -1.
</event>
<event>
 7    1  0.2723366E-009  0.6876940E+02  0.7561462E-02  0.1364328E+00
          2   -1    0    0  501    0  0.00000000000E+00  0.00000000000E+00  0.24148286004E+03  0.24148286004E+03  0.00000000000E+00 0. -1.
         -2   -1    0    0    0  501 -0.00000000000E+00 -0.00000000000E+00 -0.52525442260E+02  0.52525442260E+02  0.00000000000E+00 0.  1.
         25    2    1    2    0    0 -0.21414003186E+02 -0.22872068608E+02  0.11723492598E+03  0.17427831928E+03  0.12508882303E+03 0.  0.
          5    1    3    3  502    0  0.16973902953E+02 -0.18408422827E+02 -0.19572732304E+02  0.32055384295E+02  0.41800000000E+01 0.  1.
         -5    1    3    3    0  502 -0.38387906139E+02 -0.44636457804E+01  0.13680765828E+03  0.14222293499E+03  0.41800000000E+01 0.  1.
        -11    1    1    2    0    0  0.45513828120E+02  0.14485875882E+02  0.46759736279E+01  0.47991810547E+02  0.00000000000E+00 0.  1.
         11    1    1    2    0    0 -0.24099824934E+02  0.83861927255E+01  0.67046518177E+02  0.71738172474E+02  0.00000000000E+00 0. -1.
</event>
<event>
 7    1  0.2723366E-009  0.9211826E+02  0.7561462E-02  0.1297802E+00
          1   -1    0    0  501    0  0.00000000000E+00  0.00000000000E+00  0.30201989452E+03  0.30201989452E+03  0.00000000000E+00 0. -1.
         -1   -1    0    0    0  501 -0.00000000000E+00 -0.00000000000E+00 -0.39566756921E+02  0.39566756921E+02  0.00000000000E+00 0.  1.
         25    2    1    2    0    0  0.13916247369E+02 -0.58548581440E+01  0.15052183700E+03  0.19629906402E+03  0.12509419577E+03 0.  0.
          5    1    3    3  502    0  0.12508321166E+02 -0.65032915865E+02  0.72647603646E+02  0.98391488249E+02  0.41800000000E+01 0.  1.
         -5    1    3    3    0  502  0.14079262029E+01  0.59178057721E+02  0.77874233356E+02  0.97907575767E+02  0.41800000000E+01 0.  1.
        -11    1    1    2    0    0 -0.35565681050E+02  0.89332425174E+01  0.11719300405E+03  0.12279625682E+03  0.00000000000E+00 0. -1.
         11    1    1    2    0    0  0.21649433681E+02 -0.30783843733E+01 -0.52617034559E+01  0.22491330603E+02  0.00000000000E+00 0.  1.
</event>
<event>
 7    1  0.2723366E-009  0.1230403E+03  0.7561462E-02  0.1238164E+00
          1   -1    0    0  501    0  0.00000000000E+00  0.00000000000E+00  0.66523011126E+02  0.66523011126E+02  0.00000000000E+00 0. -1.
         -1   -1    0    0    0  501 -0.00000000000E+00 -0.00000000000E+00 -0.34665208650E+03  0.34665208650E+03  0.00000000000E+00 0.  1.
         25    2    1    2    0    0 -0.62830957233E+02  0.74830447863E+02 -0.20667780414E+03  0.26059502623E+03  0.12508688122E+03 0.  0.
          5    1    3    3  502    0 -0.94963362912E+02  0.49108340639E+02 -0.10110407496E+03  0.14720453726E+03  0.41800000000E+01 0. -1.
         -5    1    3    3    0  502  0.32132405678E+02  0.25722107224E+02 -0.10557372919E+03  0.11339048897E+03  0.41800000000E+01 0. -1.
        -11    1    1    2    0    0  0.25297716291E+02 -0.31053776036E+02 -0.84824008234E+02  0.93805244142E+02  0.00000000000E+00 0.  1.
         11    1    1    2    0    0  0.37533240942E+02 -0.43776671827E+02  0.11372737006E+02  0.58774827255E+02  0.00000000000E+00 0. -1.
</event>
<event>
 7    1  0.2723366E-009  0.1351078E+03  0.7561462E-02  0.1220068E+00
          3   -1    0    0  501    0  0.00000000000E+00  0.00000000000E+00  0.11916551058E+03  0.11916551058E+03  0.00000000000E+00 0. -1.
         -3   -1    0    0    0  501 -0.00000000000E+00 -0.00000000000E+00 -0.21912590800E+03  0.21912590800E+03  0.00000000000E+00 0.  1.
         25    2    1    2    0    0  0.10240264469E+03  0.50471096827E+02 -0.86773558768E+02  0.19028492452E+03  0.12508024922E+03 0.  0.
          5    1    3    3  502    0  0.10519135834E+03  0.73647921208E+02 -0.10029103162E+03  0.16298773448E+03  0.41800000000E+01 0.  1.
         -5    1    3    3    0  502 -0.27887136450E+01 -0.23176824381E+02  0.13517472849E+02  0.27297190046E+02  0.41800000000E+01 0.  1.
        -11    1    1    2    0    0 -0.43287614713E+02 -0.38011661833E+02 -0.50828134554E+02  0.76825798304E+02  0.00000000000E+00 0.  1.
         11    1    1    2    0    0 -0.59115029980E+02 -0.12459434994E+02  0.37641295903E+02  0.71180695748E+02  0.00000000000E+00 0. -1.
</event>
<event>
 7    1  0.2723366E-009  0.1278914E+03  0.7561462E-02  0.1230619E+00
         -2   -1    0    0    0  501 -0.00000000000E+00  0.00000000000E+00  0.46869795144E+02  0.46869795144E+02  0.00000000000E+00 0.  1.
          2   -1    0    0  501    0  0.00000000000E+00 -0.00000000000E+00 -0.46079523854E+03  0.46079523854E+03  0.00000000000E+00 0. -1.
         25    2    1    2    0    0  0.67461031834E+02 -0.67722162341E+02 -0.26656100081E+03  0.30957816887E+03  0.12508634379E+03 0.  0.
          5    1    3    3  502    0 -0.29772167877E+02 -0.42801705653E+02 -0.12931034625E+03  0.13948837240E+03  0.41800000000E+01 0. -1.
         -5    1    3    3    0  502  0.97233199711E+02 -0.24920456688E+02 -0.13725065455E+03  0.17008979647E+03  0.41800000000E+01 0. -1.
        -11    1    1    2    0    0 -0.88852520759E+01  0.34600016033E+02  0.39624614371E+00  0.35724862840E+02  0.00000000000E+00 0.  1.
         11    1    1    2    0    0 -0.58575779758E+02  0.33122146308E+02 -0.14776068873E+03  0.16236200197E+03  0.00000000000E+00 0. -1.
</event>
<event>
 7    1  0.2723366E-009  0.1108366E+03  0.7561462E-02  0.1259029E+00
         -1   -1    0    0    0  501 -0.00000000000E+00  0.00000000000E+00  0.25180663077E+03  0.25180663077E+03  0.00000000000E+00 0.  1.
          1   -1    0    0  501    0  0.00000000000E+00 -0.00000000000E+00 -0.96223686041E+02  0.96223686041E+02  0.00000000000E+00 0. -1.
         25    2    1    2    0    0  0.85862254712E+02 -0.34901530488E+02  0.17926753385E+02  0.15671532315E+03  0.12509148815E+03 0.  0.
          5    1    3    3  502    0  0.58757484546E+01 -0.15118253506E+02  0.61271354873E+02  0.63519582311E+02  0.41800000000E+01 0. -1.
         -5    1    3    3    0  502  0.79986506258E+02 -0.19783276982E+02 -0.43344601488E+02  0.93195740834E+02  0.41800000000E+01 0. -1.
        -11    1    1    2    0    0 -0.43839596326E+02  0.59363498367E+02  0.11734129181E+03  0.13861787009E+03  0.00000000000E+00 0.  1.
         11    1    1    2    0    0 -0.42022658386E+02 -0.24461967879E+02  0.20314899538E+02  0.52697123580E+02  0.00000000000E+00 0. -1.
</event>
<event>
 7    1  0.2723366E-009  0.1092192E+03  0.7561462E-02  0.1262023E+00
         -1   -1    0    0    0  501 -0.00000000000E+00  0.00000000000E+00  0.36861342682E+02  0.36861342682E+02  0.00000000000E+00 0.  1.
          1   -1    0    0  501    0  0.00000000000E+00 -0.00000000000E+00 -0.58803771065E+03  0.58803771065E+03  0.00000000000E+00 0. -1.
         25    2    1    2    0    0 -0.20783316792E+02  0.84012584691E+02 -0.39237668993E+03  0.42083373435E+03  0.12510597315E+03 0.  0.
          5    1    3    3  502    0 -0.34960055216E+02 -0.90808247524E+00 -0.26315257465E+03  0.26549911491E+03  0.41800000000E+01 0. -1.
         -5    1    3    3    0  502  0.14176738424E+02  0.84920667166E+02 -0.12922411528E+03  0.15533461944E+03  0.41800000000E+01 0. -1.
        -11    1    1    2    0    0  0.32652031417E+02 -0.75952247143E+02 -0.16784766873E+03  0.18710355127E+03  0.00000000000E+00 0. -1.
         11    1    1    2    0    0 -0.11868714625E+02 -0.80603375476E+01  0.90479906942E+01  0.16961767710E+02  0.00000000000E+00 0.  1.
</event>
<event>
 7    1  0.2723366E-009  0.8484683E+02  0.7561462E-02  0.1315834E+00
         -2   -1    0    0    0  501 -0.00000000000E+00  0.00000000000E+00  0.10355904080E+03  0.10355904080E+03  0.00000000000E+00 0.  1.
          2   -1    0    0  501    0  0.00000000000E+00 -0.00000000000E+00 -0.21058056589E+03  0.21058056589E+03  0.00000000000E+00 0. -1.
         25    2    1    2    0    0 -0.43757811017E+02  0.28903652618E+02 -0.15004817165E+03  0.20226868610E+03  0.12509196777E+03 0.  0.
          5    1    3    3  502    0 -0.92788043674E+01 -0.13282546197E+02 -0.14656160580E+03  0.14751372458E+03  0.41800000000E+01 0.  1.
         -5    1    3    3    0  502 -0.34479006650E+02  0.42186198815E+02 -0.34865658501E+01  0.54754961523E+02  0.41800000000E+01 0.  1.
        -11    1    1    2    0    0 -0.79228995191E+01  0.23449741063E+02  0.26908089592E+02  0.36561017193E+02  0.00000000000E+00 0.  1.
         11    1    1    2    0    0  0.51680710536E+02 -0.52353393681E+02  0.16118556969E+02  0.75309903400E+02  0.00000000000E+00 0. -1.
</event>
<event>
 7    1  0.2723366E-009  0.8137354E+02  0.7561462E-02  0.1325198E+00
          2   -1    0    0  501    0  0.00000000000E+00  0.00000000000E+00  0.31842778395E+03  0.31842778395E+03  0.00000000000E+00 0. -1.
         -2   -1    0    0    0  501 -0.00000000000E+00 -0.00000000000E+00 -0.42442758231E+02  0.42442758231E+02  0.00000000000E+00 0.  1.
         25    2    1    2    0    0  0.27667166127E+02 -0.30587842006E+02  0.14363606981E+03  0.19488171936E+03  0.12508587382E+03 0.  0.
          5    1    3    3  502    0 -0.55838702580E+01  0.86581467029E+01 -0.20228466668E+02  0.23082598968E+02  0.41800000000E+01 0.  1.
         -5    1    3    3    0  502  0.33251036385E+02 -0.39245988709E+02  0.16386453648E+03  0.17179912039E+03  0.41800000000E+01 0.  1.
        -11    1    1    2    0    0 -0.59987717273E+02  0.78397655754E+01  0.84576353206E+02  0.10398628597E+03  0.00000000000E+00 0. -1.
         11    1    1    2    0    0  0.32320551146E+02  0.22748076431E+02  0.47772602701E+02  0.62002536855E+02  0.00000000000E+00 0.  1.
</event>
<event>
 7    1  0.2723366E-009  0.1286400E+03  0.7561462E-02  0.1229488E+00
         -1   -1    0    0    0  501 -0.00000000000E+00  0.00000000000E+00  0.35371410631E+02  0.35371410631E+02  0.00000000000E+00 0.  1.
          1   -1    0    0  501    0  0.00000000000E+00 -0.00000000000E+00 -0.86871900431E+03  0.86871900431E+03  0.00000000000E+00 0. -1.
         25    2    1    2    0    0  0.32003548337E+02 -0.84078283395E+02 -0.70102292253E+03  0.71775589115E+03  0.12508795516E+03 0.  0.
          5    1    3    3  502    0 -0.48164710823E+01 -0.89486942580E+02 -0.25800119454E+03  0.27315416905E+03  0.41800000000E+01 0. -1.
         -5    1    3    3    0  502  0.36820019419E+02  0.54086591846E+01 -0.44302172799E+03  0.44460172210E+03  0.41800000000E+01 0. -1.
        -11    1    1    2    0    0  0.29083924702E+02  0.55535160299E+02 -0.51909998330E+02  0.81392116523E+02  0.00000000000E+00 0. -1.
         11    1    1    2    0    0 -0.61087473039E+02  0.28543123097E+02 -0.80414672826E+02  0.10494240727E+03  0.00000000000E+00 0.  1.
</event>
<event>
 7    1  0.2723366E-009  0.8838796E+02  0.7561462E-02  0.1306803E+00
          2   -1    0    0  501    0  0.00000000000E+00  0.00000000000E+00  0.13963883039E+03  0.13963883039E+03  0.00000000000E+00 0.  1.
         -2   -1    0    0    0  501 -0.00000000000E+00 -0.00000000000E+00 -0.12271832669E+03  0.12271832669E+03  0.00000000000E+00 0. -1.
         25    2    1    2    0    0 -0.63810598830E+02  0.23804386715E+02  0.35407466636E+02  0.14676339770E+03  0.12508942746E+03 0.  0.
          5    1    3    3  502    0  0.13265175728E+02 -0.16257135382E+02 -0.30773172564E+02  0.37479592949E+02  0.41800000000E+01 0.  1.
         -5    1    3    3    0  502 -0.77075774558E+02  0.40061522097E+02  0.66180639201E+02  0.10928380475E+03  0.41800000000E+01 0.  1.
        -11    1    1    2    0    0  0.14293662602E+02 -0.25037449942E+01 -0.50742070578E+02  0.52776275504E+02  0.00000000000E+00 0. -1.
         11    1    1    2    0    0  0.49516936228E+02 -0.21300641721E+02  0.32255107638E+02  0.62817483871E+02  0.00000000000E+00 0.  1.
</event>
<event>
 7    1  0.2723366E-009  0.9947730E+02  0.7561462E-02  0.1281399E+00
         -2   -1    0    0    0  501 -0.00000000000E+00  0.00000000000E+00  0.16409355054E+02  0.16409355054E+02  0.00000000000E+00 0.  1.
          2   -1    0    0  501    0  0.00000000000E+00 -0.00000000000E+00 -0.11650857341E+04  0.11650857341E+04  0.00000000000E+00 0. -1.
         25    2    1    2    0    0  0.34229239215E+02  0.86229967962E+01 -0.97000664052E+03  0.97867593036E+03  0.12509075551E+03 0.  0.
          5    1    3    3  502    0 -0.80882694500E+01  0.49714836652E+02 -0.71997246706E+03  0.72174428353E+03  0.41800000000E+01 0.  1.
         -5    1    3    3    0  502  0.42317508665E+02 -0.41091839856E+02 -0.25003417346E+03  0.25693164683E+03  0.41800000000E+01 0.  1.
        -11    1    1    2    0    0  0.26729441850E+02  0.40010373015E+01 -0.24204064668E+02  0.36280960675E+02  0.00000000000E+00 0.  1.
         11    1    1    2    0    0 -0.60958681065E+02 -0.12624034098E+02 -0.15446567389E+03  0.16653819815E+03  0.00000000000E+00 0. -1.
</event>
<event>
 7    1  0.2723366E-009  0.1127311E+03  0.7561462E-02  0.1255594E+00
         -1   -1    0    0    0  501 -0.00000000000E+00  0.00000000000E+00  0.82216755616E+02  0.82216755616E+02  0.00000000000E+00 0.  1.
          1   -1    0    0  501    0  0.00000000000E+00 -0.00000000000E+00 -0.47346600039E+03  0.47346600039E+03  0.00000000000E+00 0. -1.
         25    2    1    2    0    0 -0.75441420705E+02  0.60042148286E+02 -0.39201398445E+03  0.42263017047E+03  0.12507929269E+03 0.  0.
          5    1    3    3  502    0 -0.17928204222E+02 -0.86641100829E+01 -0.27220297350E+03  0.27296230233E+03  0.41800000000E+01 0. -1.
         -5    1    3    3    0  502 -0.57513216483E+02  0.68706258368E+02 -0.11981101095E+03  0.14966786814E+03  0.41800000000E+01 0. -1.
        -11    1    1    2    0    0  0.27304490683E+02  0.11138082910E+02 -0.29728655001E+02  0.41873440634E+02  0.00000000000E+00 0. -1.
         11    1    1    2    0    0  0.48136930022E+02 -0.71180231195E+02  0.30493394681E+02  0.91179144897E+02  0.00000000000E+00 0.  1.
</event>
<event>
 7    1  0.2723366E-009  0.1247895E+03  0.7561462E-02  0.1235399E+00
          2   -1    0    0  501    0  0.00000000000E+00  0.00000000000E+00  0.40694708377E+03  0.40694708377E+03  0.00000000000E+00 0. -1.
         -2   -1    0    0    0  501 -0.00000000000E+00 -0.00000000000E+00 -0.13930297846E+03  0.13930297846E+03  0.00000000000E+00 0.  1.
         25    2    1    2    0    0 -0.39267516051E+02  0.58014070609E+02  0.36741871112E+03  0.39440134292E+03  0.12509332443E+03 0.  0.
          5    1    3    3  502    0  0.39142128494E+02 -0.69971377286E+01  0.13035333454E+03  0.13634709526E+03  0.41800000000E+01 0. -1.
         -5    1    3    3    0  502 -0.78409644545E+02  0.65011208338E+02  0.23706537658E+03  0.25805424767E+03  0.41800000000E+01 0. -1.
        -11    1    1    2    0    0  0.13670015652E+02 -0.75453940165E+02 -0.44966923352E+02  0.88894266464E+02  0.00000000000E+00 0.  1.
         11    1    1    2    0    0  0.25597500399E+02  0.17439869556E+02 -0.54807682456E+02  0.62954452845E+02  0.00000000000E+00 0. -1.
</event>
<event>
 7    1  0.2723366E-009  0.9723236E+02  0.7561462E-02  0.1286226E+00
         -2   -1    0    0    0  501 -0.00000000000E+00  0.00000000000E+00  0.40191196079E+02  0.40191196079E+02  0.00000000000E+00 0.  1.
          2   -1    0    0  501    0  0.00000000000E+00 -0.00000000000E+00 -0.32997685551E+03  0.32997685551E+03  0.00000000000E+00 0. -1.
         25    2    1    2    0    0 -0.77846202175E+01  0.14605582188E+01 -0.21542437622E+03  0.24923017633E+03  0.12508111522E+03 0.  0.
          5    1    3    3  502    0  0.19897971977E+02 -0.42476961727E+02 -0.18041804483E+03  0.18646277073E+03  0.41800000000E+01 0.  1.
         -5    1    3    3    0  502 -0.27682592195E+02  0.43937519946E+02 -0.35006331387E+02  0.62767405608E+02  0.41800000000E+01 0.  1.
        -11    1    1    2    0    0 -0.39547280818E+02  0.18798777161E+02 -0.31402572525E+02  0.53884162832E+02  0.00000000000E+00 0.  1.
         11    1    1    2    0    0  0.47331901036E+02 -0.20259335379E+02 -0.42958710688E+02  0.67053712422E+02  0.00000000000E+00 0. -1.
</event>
<event>
 7    1  0.2723366E-009  0.1000963E+03  0.7561462E-02  0.1280094E+00
          3   -1    0    0  501    0  0.00000000000E+00  0.00000000000E+00  0.28288320141E+03  0.28288320141E+03  0.00000000000E+00 0. -1.
         -3   -1    0    0    0  501 -0.00000000000E+00 -0.00000000000E+00 -0.54809864817E+02  0.54809864817E+02  0.00000000000E+00 0.  1.
         25    2    1    2    0    0  0.52950734921E+02 -0.28278360752E+02  0.11751341450E+03  0.18182491137E+03  0.12508976693E+03 0.  0.
          5    1    3    3  502    0  0.76828745485E+01  0.40481631088E+02  0.40962759872E+01  0.41617795399E+02  0.41800000000E+01 0. -1.
         -5    1    3    3    0  502  0.45267860372E+02 -0.68759991840E+02  0.11341713851E+03  0.14020711597E+03  0.41800000000E+01 0. -1.
        -11    1    1    2    0    0 -0.61871455934E+02  0.23168979090E+02  0.12306625708E+03  0.13967885410E+03  0.00000000000E+00 0. -1.
         11    1    1    2    0    0  0.89207210137E+01  0.51093816619E+01 -0.12506334983E+02  0.16189300759E+02  0.00000000000E+00 0.  1.
</event>
<event>
 7    1  0.2723366E-009  0.8152463E+02  0.7561462E-02  0.1324780E+00
          1   -1    0    0  501    0  0.00000000000E+00  0.00000000000E+00  0.13298717328E+03  0.13298717328E+03  0.00000000000E+00 0. -1.
         -1   -1    0    0    0  501 -0.00000000000E+00 -0.00000000000E+00 -0.11259897800E+03  0.11259897800E+03  0.00000000000E+00 0.  1.
         25    2    1    2    0    0 -0.25725421120E+02  0.15690818704E+01 -0.38646151244E+02  0.13343275049E+03  0.12508602874E+03 0.  0.
          5    1    3    3  502    0 -0.60411164133E+02  0.29967367775E+02  0.86703307252E+01  0.68119005558E+02  0.41800000000E+01 0.  1.
         -5    1    3    3    0  502  0.34685743013E+02 -0.28398285904E+02 -0.47316481969E+02  0.65313744928E+02  0.41800000000E+01 0.  1.
        -11    1    1    2    0    0  0.32886703409E+02  0.12090447688E+02  0.79294415133E+02  0.86690936422E+02  0.00000000000E+00 0. -1.
         11    1    1    2    0    0 -0.71612822893E+01 -0.13659529558E+02 -0.20260068615E+02  0.25462464375E+02  0.00000000000E+00 0.  1.
</event>
<event>
 7    1  0.2723366E-009  0.3552563E+03  0.7561462E-02  0.1060478E+00
          2   -1    0    0  501    0  0.00000000000E+00  0.00000000000E+00  0.19087160435E+04  0.19087160435E+04  0.00000000000E+00 0.  1.
         -2   -1    0    0    0  501 -0.00000000000E+00 -0.00000000000E+00 -0.79115929904E+02  0.79115929904E+02  0.00000000000E+00 0. -1.
         25    2    1    2    0    0 -0.16183896059E+03 -0.29917049522E+03  0.13243398797E+04  0.13730325295E+04  0.12508947113E+03 0.  0.
          5    1    3    3  502    0 -0.40106425715E+02 -0.20134607446E+03  0.79809183782E+03  0.82408544525E+03  0.41800000000E+01 0.  1.
         -5    1    3    3    0  502 -0.12173253487E+03 -0.97824420753E+02  0.52624804189E+03  0.54894708427E+03  0.41800000000E+01 0.  1.
        -11    1    1    2    0    0  0.79520753099E+02  0.71829098671E+02  0.13121585224E+03  0.16941242418E+03  0.00000000000E+00 0.  1.
         11    1    1    2    0    0  0.82318207490E+02  0.22734139655E+03  0.37404438168E+03  0.44538701972E+03  0.00000000000E+00 0. -1.
</event>
<event>
 7    1  0.2723366E-009  0.1183109E+03  0.7561462E-02  0.1245910E+00
          1   -1    0    0  501    0  0.00000000000E+00  0.00000000000E+00  0.97403750770E+02  0.97403750770E+02  0.00000000000E+00 0. -1.
         -1   -1    0    0    0  501 -0.00000000000E+00 -0.00000000000E+00 -0.20902869167E+03  0.20902869167E+03  0.00000000000E+00 0.  1.
         25    2    1    2    0    0 -0.45297078566E+02  0.47884583276E+02 -0.12954086907E+03  0.19176388200E+03  0.12509113093E+03 0.  0.
          5    1    3    3  502    0  0.42249569981E+02  0.29839148166E+02 -0.46105258855E+02  0.69415907550E+02  0.41800000000E+01 0. -1.
         -5    1    3    3    0  502 -0.87546648547E+02  0.18045435110E+02 -0.83435610216E+02  0.12234797445E+03  0.41800000000E+01 0. -1.
        -11    1    1    2    0    0 -0.66451983542E+01  0.13370659322E+02 -0.20724957544E+02  0.25543238969E+02  0.00000000000E+00 0.  1.
         11    1    1    2    0    0  0.51942276920E+02 -0.61255242598E+02  0.38640885719E+02  0.89125321466E+02  0.00000000000E+00 0. -1.
</event>
<event>
 7    1  0.2723366E-009  0.9356711E+02  0.7561462E-02  0.1294436E+00
          2   -1    0    0  501    0  0.00000000000E+00  0.00000000000E+00  0.60524938431E+02  0.60524938431E+02  0.00000000000E+00 0. -1.
         -2   -1    0    0    0  501 -0.00000000000E+00 -0.00000000000E+00 -0.20398529106E+03  0.20398529106E+03  0.00000000000E+00 0.  1.
         25    2    1    2    0    0 -0.13095566491E+01  0.19389078385E+02 -0.92340918008E+02  0.15669409857E+03  0.12509414091E+03 0.  0.
          5    1    3    3  502    0 -0.38742523952E+02 -0.35199117176E+02 -0.68292525262E+02  0.86146981484E+02  0.41800000000E+01 0. -1.
         -5    1    3    3    0  502  0.37432967303E+02  0.54588195561E+02 -0.24048392746E+02  0.70547117088E+02  0.41800000000E+01 0. -1.
        -11    1    1    2    0    0  0.33396049321E+02 -0.93270395219E+01  0.11673164610E+02  0.36586234413E+02  0.00000000000E+00 0. -1.
         11    1    1    2    0    0 -0.32086492672E+02 -0.10062038863E+02 -0.62792599236E+02  0.71229896511E+02  0.00000000000E+00 0.  1.
</event>
<event>
 7    1  0.2723366E-009  0.1864320E+03  0.7561462E-02  0.1161719E+00
          2   -1    0    0  501    0  0.00000000000E+00  0.00000000000E+00  0.74379634440E+03  0.74379634440E+03  0.00000000000E+00 0. -1.
         -2   -1    0    0    0  501 -0.00000000000E+00 -0.00000000000E+00 -0.65795421442E+02  0.65795421442E+02  0.00000000000E+00 0.  1.
         25    2    1    2    0    0  0.12078589617E+03  0.12765658614E+03  0.20747237835E+03  0.29929574504E+03  0.12509084109E+03 0.  0.
          5    1    3    3  502    0  0.12601823592E+03  0.12504569080E+03  0.22128310180E+03  0.28372646002E+03  0.41800000000E+01 0.  1.
         -5    1    3    3    0  502 -0.52323397458E+01  0.26108953394E+01 -0.13810723458E+02  0.15569285023E+02  0.41800000000E+01 0.  1.
        -11    1    1    2    0    0 -0.13166124487E+02 -0.58978227623E+02  0.85848798866E+02  0.10498473429E+03  0.00000000000E+00 0.  1.
         11    1    1    2    0    0 -0.10761977168E+03 -0.68678358514E+02  0.38467974575E+03  0.40531128651E+03  0.00000000000E+00 0. -1.
</event>
<event>
 7    1  0.2723366E-009  0.1095135E+03  0.7561462E-02  0.1261474E+00
         -2   -1    0    0    0  501 -0.00000000000E+00  0.00000000000E+00  0.25135783025E+03  0.25135783025E+03  0.00000000000E+00 0.  1.
          2   -1    0    0  501    0  0.00000000000E+00 -0.00000000000E+00 -0.71114532751E+02  0.71114532751E+02  0.00000000000E+00 0. -1.
         25    2    1    2    0    0 -0.58570883420E+02  0.47649145785E+02  0.12121168926E+03  0.18983735475E+03  0.12507980719E+03 0.  0.
          5    1    3    3  502    0  0.15872610762E+02 -0.12415154351E+02  0.85028700921E+02  0.87483874001E+02  0.41800000000E+01 0.  1.
         -5    1    3    3    0  502 -0.74443494182E+02  0.60064300136E+02  0.36182988342E+02  0.10235348075E+03  0.41800000000E+01 0.  1.
        -11    1    1    2    0    0 -0.45344679002E+01  0.13857677634E+02  0.39872635822E+02  0.42454961028E+02  0.00000000000E+00 0.  1.
         11    1    1    2    0    0  0.63105351320E+02 -0.61506823419E+02  0.19158972416E+02  0.90180047218E+02  0.00000000000E+00 0. -1.
</event>
<event>
 7    1  0.2723366E-009  0.1340765E+03  0.7561462E-02  0.1221529E+00
         -1   -1    0    0    0  501 -0.00000000000E+00  0.00000000000E+00  0.10247604835E+03  0.10247604835E+03  0.00000000000E+00 0.  1.
          1   -1    0    0  501    0  0.00000000000E+00 -0.00000000000E+00 -0.20183983359E+03  0.20183983359E+03  0.00000000000E+00 0. -1.
         25    2    1    2    0    0 -0.23329106501E+02 -0.76260753581E+02 -0.16467684739E+01  0.14835405835E+03  0.12508503122E+03 0.  0.
          5    1    3    3  502    0  0.48323107913E+02 -0.53008341183E+02  0.79951684163E+01  0.72293859431E+02  0.41800000000E+01 0. -1.
         -5    1    3    3    0  502 -0.71652214414E+02 -0.23252412398E+02 -0.96419368902E+01  0.76060198920E+02  0.41800000000E+01 0. -1.
        -11    1    1    2    0    0 -0.13965524368E+02 -0.16062361013E+02 -0.23958051721E+02  0.32047208216E+02  0.00000000000E+00 0. -1.
         11    1    1    2    0    0  0.37294630869E+02  0.92323114595E+02 -0.73758965039E+02  0.12391461538E+03  0.00000000000E+00 0.  1.
</event>
<event>
 7    1  0.2723366E-009  0.1440676E+03  0.7561462E-02  0.1207958E+00
         -2   -1    0    0    0  501 -0.00000000000E+00  0.00000000000E+00  0.37263504279E+02  0.37263504279E+02  0.00000000000E+00 0.  1.
          2   -1    0    0  501    0  0.00000000000E+00 -0.00000000000E+00 -0.91132580579E+03  0.91132580579E+03  0.00000000000E+00 0. -1.
         25    2    1    2    0    0  0.36582520815E+02  0.94034874504E+02 -0.73555573835E+03  0.75290792043E+03  0.12508898421E+03 0.  0.
          5    1    3    3  502    0 -0.40263383353E+02  0.65844028625E+02 -0.40778027165E+03  0.41504071908E+03  0.41800000000E+01 0.  1.
         -5    1    3    3    0  502  0.76845904168E+02  0.28190845880E+02 -0.32777546670E+03  0.33786720135E+03  0.41800000000E+01 0.  1.
        -11    1    1    2    0    0 -0.29255551356E+02 -0.10865760286E+03 -0.13958049120E+03  0.17929047790E+03  0.00000000000E+00 0.  1.
         11    1    1    2    0    0 -0.73269694583E+01  0.14622728354E+02  0.10739280403E+01  0.16390911732E+02  0.00000000000E+00 0. -1.
</event>
<event>
 7    1  0.2723366E-009  0.1239913E+03  0.7561462E-02  0.1236654E+00
          1   -1    0    0  501    0  0.00000000000E+00  0.00000000000E+00  0.35890289352E+03  0.35890289352E+03  0.00000000000E+00 0. -1.
         -1   -1    0    0    0  501 -0.00000000000E+00 -0.00000000000E+00 -0.54300422584E+02  0.54300422584E+02  0.00000000000E+00 0.  1.
         25    2    1    2    0    0 -0.70407745595E+02  0.45795243089E+02  0.12604518675E+03  0.19644142641E+03  0.12508952785E+03 0.  0.
          5    1    3    3  502    0 -0.64523049745E+02  0.73170997216E+02  0.13512139660E+03  0.16671077650E+03  0.41800000000E+01 0. -1.
         -5    1    3    3    0  502 -0.58846958497E+01 -0.27375754127E+02 -0.90762098407E+01  0.29730649915E+02  0.41800000000E+01 0. -1.
        -11    1    1    2    0    0 -0.15697680749E+02 -0.30875673567E+02  0.39608039680E+02  0.52616738843E+02  0.00000000000E+00 0. -1.
         11    1    1    2    0    0  0.86105426344E+02 -0.14919569522E+02  0.13894924450E+03  0.16414515085E+03  0.00000000000E+00 0.  1.
</event>
<event>
 7    1  0.2723366E-009  0.9976425E+02  0.7561462E-02  0.1280792E+00
         -1   -1    0    0    0  501 -0.00000000000E+00  0.00000000000E+00  0.22708176602E+03  0.22708176602E+03  0.00000000000E+00 0.  1.
          1   -1    0    0  501    0  0.00000000000E+00 -0.00000000000E+00 -0.14070476870E+03  0.14070476870E+03  0.00000000000E+00 0. -1.
         25    2    1    2    0    0  0.42555413946E+02 -0.50806036377E+02 -0.83227454580E+02  0.16421596583E+03  0.12509139718E+03 0.  0.
          5    1    3    3  502    0 -0.15827070203E+02  0.15158597617E+01 -0.84111054424E+02  0.85702601234E+02  0.41800000000E+01 0.  1.
         -5    1    3    3    0  502  0.58382484149E+02 -0.52321896139E+02  0.88359984408E+00  0.78513364593E+02  0.41800000000E+01 0.  1.
        -11    1    1    2    0    0 -0.62338723966E+02  0.15702535235E+02  0.64761212226E+02  0.91250757408E+02  0.00000000000E+00 0. -1.
         11    1    1    2    0    0  0.19783310020E+02  0.35103501142E+02  0.10484323968E+03  0.11231981149E+03  0.00000000000E+00 0.  1.
</event>
<event>
 7    1  0.2723366E-009  0.4420546E+02  0.7561462E-02  0.1479364E+00
          1   -1    0    0  501    0  0.00000000000E+00  0.00000000000E+00  0.18913305097E+03  0.18913305097E+03  0.00000000000E+00 0. -1.
         -1   -1    0    0    0  501 -0.00000000000E+00 -0.00000000000E+00 -0.82985881748E+02  0.82985881748E+02  0.00000000000E+00 0.  1.
         25    2    1    2    0    0 -0.24905334072E+02  0.52526026773E+01  0.11994930209E+03  0.17517376135E+03  0.12510054394E+03 0.  0.
          5    1    3    3  502    0 -0.35759059847E+02  0.50506350398E+01 -0.15286802752E+02  0.39438281071E+02  0.41800000000E+01 0.  1.
         -5    1    3    3    0  502  0.10853725775E+02  0.20196763755E+00  0.13523610484E+03  0.13573548028E+03  0.41800000000E+01 0.  1.
        -11    1    1    2    0    0  0.12330143639E+02 -0.18452003487E+02 -0.50945294459E+02  0.55569163232E+02  0.00000000000E+00 0.  1.
         11    1    1    2    0    0  0.12575190433E+02  0.13199400810E+02  0.37143161591E+02  0.41376008135E+02  0.00000000000E+00 0. -1.
</event>
<event>
 7    1  0.2723366E-009  0.1091054E+03  0.7561462E-02  0.1262236E+00
         -1   -1    0    0    0  501 -0.00000000000E+00  0.00000000000E+00  0.10043779626E+03  0.10043779626E+03  0.00000000000E+00 0.  1.
          1   -1    0    0  501    0  0.00000000000E+00 -0.00000000000E+00 -0.19718993344E+03  0.19718993344E+03  0.00000000000E+00 0. -1.
         25    2    1    2    0    0 -0.54690792124E+02  0.53569124114E+02 -0.46656545035E+01  0.14673090716E+03  0.12508979567E+03 0.  0.
          5    1    3    3  502    0 -0.90226711521E+01  0.56514705102E+02 -0.54362041620E+02  0.79044446083E+02  0.41800000000E+01 0. -1.
         -5    1    3    3    0  502 -0.45668120972E+02 -0.29455809874E+01  0.49696387116E+02  0.67686461075E+02  0.41800000000E+01 0. -1.
        -11    1    1    2    0    0  0.74605992615E+02 -0.57967720686E+02 -0.57082065554E+02  0.11038420622E+03  0.00000000000E+00 0.  1.
         11    1    1    2    0    0 -0.19915200491E+02  0.43985965714E+01 -0.35004417125E+02  0.40512616314E+02  0.00000000000E+00 0. -1.
</event>
<event>
 7    1  0.2723366E-009  0.1123171E+03  0.7561462E-02  0.1256338E+00
          1   -1    0    0  501    0  0.00000000000E+00  0.00000000000E+00  0.58534646998E+03  0.58534646998E+03  0.00000000000E+00 0. -1.
         -1   -1    0    0    0  501 -0.00000000000E+00 -0.00000000000E+00 -0.25523059001E+02  0.25523059001E+02  0.00000000000E+00 0.  1.
         25    2    1    2    0    0 -0.38618738212E+02 -0.36182740727E+02  0.28018977993E+03  0.31137817060E+03  0.12509778050E+03 0.  0.
          5    1    3    3  502    0  0.50877322139E+01 -0.70731545608E+02  0.99555981623E+02  0.12230168617E+03  0.41800000000E+01 0.  1.
         -5    1    3    3    0  502 -0.43706470426E+02  0.34548804881E+02  0.18063379830E+03  0.18907648443E+03  0.41800000000E+01 0.  1.
        -11    1    1    2    0    0  0.60486563254E+02  0.43681219282E+02  0.14691804336E+03  0.16477737927E+03  0.00000000000E+00 0.  1.
         11    1    1    2    0    0 -0.21867825042E+02 -0.74984785541E+01  0.13271558768E+03  0.13471397911E+03  0.00000000000E+00 0. -1.
</event>
<event>
 7    1  0.2723366E-009  0.9642780E+02  0.7561462E-02  0.1287992E+00
         -1   -1    0    0    0  501 -0.00000000000E+00  0.00000000000E+00  0.25900173628E+03  0.25900173628E+03  0.00000000000E+00 0.  1.
          1   -1    0    0  501    0  0.00000000000E+00 -0.00000000000E+00 -0.50442133172E+02  0.50442133172E+02  0.00000000000E+00 0. -1.
         25    2    1    2    0    0 -0.17070604115E+02 -0.33548479984E+02  0.11366727277E+03  0.17316246836E+03  0.12509230798E+03 0.  0.
          5    1    3    3  502    0 -0.61311390505E+01  0.31132451468E+02 -0.96434951735E+01  0.33425885173E+02  0.41800000000E+01 0.  1.
         -5    1    3    3    0  502 -0.10939465064E+02 -0.64680931452E+02  0.12331076794E+03  0.13973658318E+03  0.41800000000E+01 0.  1.
        -11    1    1    2    0    0 -0.30839070048E+02  0.35681169549E+02  0.62963882803E+02  0.78667939082E+02  0.00000000000E+00 0. -1.
         11    1    1    2    0    0  0.47909674163E+02 -0.21326895650E+01  0.31928447540E+02  0.57613462016E+02  0.00000000000E+00 0.  1.
</event>
<event>
 7    1  0.2723366E-009  0.1117023E+03  0.7561462E-02  0.1257450E+00
          1   -1    0    0  501    0  0.00000000000E+00  0.00000000000E+00  0.54523441802E+03  0.54523441802E+03  0.00000000000E+00 0. -1.
         -1   -1    0    0    0  501 -0.00000000000E+00 -0.00000000000E+00 -0.33716126953E+02  0.33716126953E+02  0.00000000000E+00 0.  1.
         25    2    1    2    0    0  0.23248091111E+02  0.41621610919E+02  0.43850507474E+03  0.45848307533E+03  0.12508875873E+03 0.  0.
          5    1    3    3  502    0  0.44037686165E+02  0.76471309402E+02  0.35082710998E+03  0.36177936986E+03  0.41800000000E+01 0.  1.
         -5    1    3    3    0  502 -0.20789595053E+02 -0.34849698484E+02  0.87677964759E+02  0.96703705468E+02  0.41800000000E+01 0.  1.
        -11    1    1    2    0    0 -0.45720421071E+02  0.13860811893E+01  0.46261739968E+02  0.65057103446E+02  0.00000000000E+00 0. -1.
         11    1    1    2    0    0  0.22472329959E+02 -0.43007692108E+02  0.26751476363E+02  0.55410366195E+02  0.00000000000E+00 0.  1.
</event>
<event>
 7    1  0.2723366E-009  0.1439532E+03  0.7561462E-02  0.1208106E+00
          2   -1    0    0  501    0  0.00000000000E+00  0.00000000000E+00  0.10464865983E+03  0.10464865983E+03  0.00000000000E+00 0. -1.
         -2   -1    0    0    0  501 -0.00000000000E+00 -0.00000000000E+00 -0.26091937432E+03  0.26091937432E+03  0.00000000000E+00 0.  1.
         25    2    1    2    0    0  0.11245660233E+03  0.31889686335E+02 -0.85836095605E+02  0.19151958831E+03  0.12509387633E+03 0.  0.
          5    1    3    3  502    0  0.48951697508E+02  0.75666316738E+02 -0.26235634034E+02  0.93954462751E+02  0.41800000000E+01 0.  1.
         -5    1    3    3    0  502  0.63504904824E+02 -0.43776630403E+02 -0.59600461571E+02  0.97565125560E+02  0.41800000000E+01 0.  1.
        -11    1    1    2    0    0 -0.52938577656E+02 -0.35852882685E-01 -0.89427082042E+02  0.10392159204E+03  0.00000000000E+00 0.  1.
         11    1    1    2    0    0 -0.59518024675E+02 -0.31853833453E+02  0.18992463150E+02  0.70126853796E+02  0.00000000000E+00 0. -1.
</event>
<event>
 7    1  0.2877457E-009  0.1169445E+03  0.7561462E-02  0.1248225E+00
         -3   -1    0    0    0  501 -0.00000000000E+00  0.00000000000E+00  0.35464681793E+02  0.35464681793E+02  0.00000000000E+00 0.  1.
          3   -1    0    0  501    0  0.00000000000E+00 -0.00000000000E+00 -0.50641077563E+03  0.50641077563E+03  0.00000000000E+00 0. -1.
         25    2    1    2    0    0  0.66886620390E+02  0.25217777096E+02 -0.32549367092E+03  0.35595156204E+03  0.12508248654E+03 0.  0.
          5    1    3    3  502    0  0.85384887886E+02 -0.16598860752E+02 -0.27123595450E+03  0.28487280788E+03  0.41800000000E+01 0. -1.
         -5    1    3    3    0  502 -0.18498267497E+02  0.41816637848E+02 -0.54257716424E+02  0.71078754159E+02  0.41800000000E+01 0. -1.
        -11    1    1    2    0    0 -0.52256866833E+01 -0.37630168786E+02 -0.10367239740E+03  0.11041423543E+03  0.00000000000E+00 0. -1.
         11    1    1    2    0    0 -0.61660933706E+02  0.12412391690E+02 -0.41780025513E+02  0.75509659944E+02  0.00000000000E+00 0.  1.
</event>
<event>
 7    1  0.2723366E-009  0.1419330E+03  0.7561462E-02  0.1210751E+00
         -1   -1    0    0    0  501 -0.00000000000E+00  0.00000000000E+00  0.61726223379E+02  0.61726223379E+02  0.00000000000E+00 0.  1.
          1   -1    0    0  501    0  0.00000000000E+00 -0.00000000000E+00 -0.35668328508E+03  0.35668328508E+03  0.00000000000E+00 0. -1.
         25    2    1    2    0    0 -0.93185967093E+02  0.37611187016E+02 -0.16954195025E+03  0.23343190431E+03  0.12509098769E+03 0.  0.
          5    1    3    3  502    0 -0.50270979301E+02 -0.38366719887E+02 -0.33314822073E+02  0.71599764836E+02  0.41800000000E+01 0.  1.
         -5    1    3    3    0  502 -0.42914987792E+02  0.75977906904E+02 -0.13622712818E+03  0.16183213947E+03  0.41800000000E+01 0.  1.
        -11    1    1    2    0    0  0.89789717880E+02 -0.61607675852E+02 -0.86217114207E+02  0.13889236820E+03  0.00000000000E+00 0.  1.
         11    1    1    2    0    0  0.33962492124E+01  0.23996488836E+02 -0.39197997237E+02  0.46085235950E+02  0.00000000000E+00 0. -1.
</event>
<event>
 7    1  0.2723366E-009  0.1207449E+03  0.7561462E-02  0.1241873E+00
          2   -1    0    0  501    0  0.00000000000E+00  0.00000000000E+00  0.27061381149E+03  0.27061381149E+03  0.00000000000E+00 0. -1.
         -2   -1    0    0    0  501 -0.00000000000E+00 -0.00000000000E+00 -0.76924492065E+02  0.76924492065E+02  0.00000000000E+00 0.  1.
         25    2    1    2    0    0  0.40037354428E+01 -0.88200818919E+02  0.60345596079E+02  0.16457366228E+03  0.12508990764E+03 0.  0.
          5    1    3    3  502    0 -0.51808408526E+02 -0.44192107809E+01  0.24497052246E+02  0.57630014633E+02  0.41800000000E+01 0.  1.
         -5    1    3    3    0  502  0.55812143968E+02 -0.83781608138E+02  0.35848543832E+02  0.10694364764E+03  0.41800000000E+01 0.  1.
        -11    1    1    2    0    0  0.20268232206E+01  0.20063705954E+02 -0.11189282167E+02  0.23062097571E+02  0.00000000000E+00 0.  1.
         11    1    1    2    0    0 -0.60305586633E+01  0.68137112965E+02  0.14453300552E+03  0.15990254371E+03  0.00000000000E+00 0. -1.
</event>
<event>
 7    1  0.2723366E-009  0.2126201E+03  0.7561462E-02  0.1139508E+00
         -4   -1    0    0    0  501 -0.00000000000E+00  0.00000000000E+00  0.52903847740E+03  0.52903847740E+03  0.00000000000E+00 0.  1.
          4   -1    0    0  501    0  0.00000000000E+00 -0.00000000000E+00 -0.90525370573E+02  0.90525370573E+02  0.00000000000E+00 0. -1.
         25    2    1    2    0    0 -0.10534595438E+03 -0.15484870932E+03  0.26935404828E+03  0.35110631134E+03  0.12509254836E+03 0.  0.
          5    1    3    3  502    0 -0.22322231471E+02  0.16120679259E+02  0.10111269954E+02  0.29628845703E+02  0.41800000000E+01 0.  1.
         -5    1    3    3    0  502 -0.83023722914E+02 -0.17096938858E+03  0.25924277832E+03  0.32147746563E+03  0.41800000000E+01 0.  1.
        -11    1    1    2    0    0  0.10545408054E+03  0.79827748730E+02  0.93985271404E+02  0.16225370199E+03  0.00000000000E+00 0. -1.
         11    1    1    2    0    0 -0.10812615360E+00  0.75020960590E+02  0.75173787148E+02  0.10620383464E+03  0.00000000000E+00 0.  1.
</event>
<event>
 7    1  0.2723366E-009  0.1154846E+03  0.7561462E-02  0.1250738E+00
         -4   -1    0    0    0  501 -0.00000000000E+00  0.00000000000E+00  0.21361922752E+03  0.21361922752E+03  0.00000000000E+00 0.  1.
          4   -1    0    0  501    0  0.00000000000E+00 -0.00000000000E+00 -0.66295264101E+02  0.66295264101E+02  0.00000000000E+00 0. -1.
         25    2    1    2    0    0  0.88330082355E+01  0.41032442092E+02  0.56107880690E+02  0.14338313808E+03  0.12509575002E+03 0.  0.
          5    1    3    3  502    0  0.53823713511E+02  0.61935832322E+02  0.34515431558E+02  0.89116928118E+02  0.41800000000E+01 0.  1.
         -5    1    3    3    0  502 -0.44990705275E+02 -0.20903390230E+02  0.21592449132E+02  0.54266209964E+02  0.41800000000E+01 0.  1.
        -11    1    1    2    0    0  0.35324610379E+02  0.44814766741E+01  0.48107098402E+02  0.59851521687E+02  0.00000000000E+00 0. -1.
         11    1    1    2    0    0 -0.44157618615E+02 -0.45513918766E+02  0.43108984325E+02  0.76679831851E+02  0.00000000000E+00 0.  1.
</event>
<event>
 7    1  0.2723366E-009  0.1067721E+03  0.7561462E-02  0.1266667E+00
         -2   -1    0    0    0  501 -0.00000000000E+00  0.00000000000E+00  0.20813744184E+03  0.20813744184E+03  0.00000000000E+00 0.  1.
          2   -1    0    0  501    0  0.00000000000E+00 -0.00000000000E+00 -0.12512729914E+03  0.12512729914E+03  0.00000000000E+00 0. -1.
         25    2    1    2    0    0  0.27334016146E+02 -0.65716481799E+02 -0.53416569197E+02  0.15352136130E+03  0.12509865744E+03 0.  0.
          5    1    3    3  502    0  0.16055148617E+02 -0.81613757847E+02  0.12897494799E+02  0.84275684744E+02  0.41800000000E+01 0. -1.
         -5    1    3    3    0  502  0.11278867529E+02  0.15897276048E+02 -0.66314063996E+02  0.69245676559E+02  0.41800000000E+01 0. -1.
        -11    1    1    2    0    0 -0.55892581225E+02  0.26614732736E+02  0.10539936418E+03  0.12223481748E+03  0.00000000000E+00 0.  1.
         11    1    1    2    0    0  0.28558565079E+02  0.39101749064E+02  0.31027347721E+02  0.57508562196E+02  0.00000000000E+00 0. -1.
</event>
<event>
 7    1  0.2723366E-009  0.1406691E+03  0.7561462E-02  0.1212432E+00
          2   -1    0    0  501    0  0.00000000000E+00  0.00000000000E+00  0.77260465035E+02  0.77260465035E+02  0.00000000000E+00 0. -1.
         -2   -1    0    0    0  501 -0.00000000000E+00 -0.00000000000E+00 -0.32197849308E+03  0.32197849308E+03  0.00000000000E+00 0.  1.
         25    2    1    2    0    0  0.39747706041E+02  0.10333923284E+03 -0.16409853408E+03  0.23416896576E+03  0.12509156029E+03 0.  0.
          5    1    3    3  502    0 -0.34414099764E+02  0.55415980281E+02 -0.11696503971E+03  0.13399087300E+03  0.41800000000E+01 0.  1.
         -5    1    3    3    0  502  0.74161805805E+02  0.47923252563E+02 -0.47133494368E+02  0.10017809275E+03  0.41800000000E+01 0.  1.
        -11    1    1    2    0    0 -0.56643184730E+02 -0.68742811849E+02 -0.88727165696E+02  0.12572404102E+03  0.00000000000E+00 0. -1.
         11    1    1    2    0    0  0.16895478688E+02 -0.34596420996E+02  0.81076717347E+01  0.39345951339E+02  0.00000000000E+00 0.  1.
</event>
<event>
 7    1  0.2723366E-009  0.1004399E+03  0.7561462E-02  0.1279374E+00
         -2   -1    0    0    0  501 -0.00000000000E+00  0.00000000000E+00  0.28834734731E+03  0.28834734731E+03  0.00000000000E+00 0.  1.
          2   -1    0    0  501    0  0.00000000000E+00 -0.00000000000E+00 -0.49923373487E+02  0.49923373487E+02  0.00000000000E+00 0. -1.
         25    2    1    2    0    0  0.32962156866E+02 -0.40040661906E+02  0.17931512552E+03  0.22470316576E+03  0.12509132693E+03 0.  0.
          5    1    3    3  502    0 -0.36663175492E+02 -0.48326047618E+02  0.55362129472E+02  0.82231582103E+02  0.41800000000E+01 0.  1.
         -5    1    3    3    0  502  0.69625332358E+02  0.82853857116E+01  0.12395299604E+03  0.14247158366E+03  0.41800000000E+01 0.  1.
        -11    1    1    2    0    0 -0.12335941977E+02  0.46588994448E+02  0.73274144316E+02  0.87702965135E+02  0.00000000000E+00 0.  1.
         11    1    1    2    0    0 -0.20626214889E+02 -0.65483325416E+01 -0.14165296007E+02  0.25864589900E+02  0.00000000000E+00 0. -1.
</event>
<event>
 7    1  0.2723366E-009  0.1173139E+03  0.7561462E-02  0.1247595E+00
          1   -1    0    0  501    0  0.00000000000E+00  0.00000000000E+00  0.88564567088E+02  0.88564567088E+02  0.00000000000E+00 0. -1.
         -1   -1    0    0    0  501 -0.00000000000E+00 -0.00000000000E+00 -0.16271661656E+03  0.16271661656E+03  0.00000000000E+00 0.  1.
         25    2    1    2    0    0  0.51431252708E+02  0.28509898490E+00 -0.47826479452E+02  0.14345550828E+03  0.12508739218E+03 0.  0.
          5    1    3    3  502    0  0.54973098670E+02  0.54805935011E+02 -0.13796092146E+02  0.78952749467E+02  0.41800000000E+01 0. -1.
         -5    1    3    3    0  502 -0.35418459622E+01 -0.54520836026E+02 -0.34030387306E+02  0.64502758809E+02  0.41800000000E+01 0. -1.
        -11    1    1    2    0    0 -0.76714120893E+02  0.17062116584E+01 -0.29619824510E+02  0.82251452915E+02  0.00000000000E+00 0. -1.
         11    1    1    2    0    0  0.25282868185E+02 -0.19913106433E+01  0.32942544896E+01  0.25574222459E+02  0.00000000000E+00 0.  1.
</event>
<event>
 7    1  0.2723366E-009  0.1844832E+03  0.7561462E-02  0.1163533E+00
          2   -1    0    0  501    0  0.00000000000E+00  0.00000000000E+00  0.71512030270E+03  0.71512030270E+03  0.00000000000E+00 0. -1.
         -2   -1    0    0    0  501 -0.00000000000E+00 -0.00000000000E+00 -0.51928461478E+02  0.51928461478E+02  0.00000000000E+00 0.  1.
         25    2    1    2    0    0  0.98689283381E+02  0.12673852390E+03  0.35382478721E+03  0.40821646464E+03  0.12508586595E+03 0.  0.
          5    1    3    3  502    0  0.50158261663E+02  0.14118606290E+03  0.23184028925E+03  0.27607380841E+03  0.41800000000E+01 0.  1.
         -5    1    3    3    0  502  0.48531021718E+02 -0.14447539000E+02  0.12198449796E+03  0.13214265623E+03  0.41800000000E+01 0.  1.
        -11    1    1    2    0    0 -0.33717942989E+02 -0.83963791625E+02  0.23244411522E+03  0.24943352759E+03  0.00000000000E+00 0.  1.
         11    1    1    2    0    0 -0.64971340391E+02 -0.42774732273E+02  0.76922938792E+02  0.10939877196E+03  0.00000000000E+00 0. -1.
</event>
<event>
 7    1  0.2723366E-009  0.1051398E+03  0.7561462E-02  0.1269844E+00
         -2   -1    0    0    0  501 -0.00000000000E+00  0.00000000000E+00  0.50284938854E+02  0.50284938854E+02  0.00000000000E+00 0.  1.
          2   -1    0    0  501    0  0.00000000000E+00 -0.00000000000E+00 -0.34546165128E+03  0.34546165128E+03  0.00000000000E+00 0. -1.
         25    2    1    2    0    0  0.72633599486E+02  0.15024811956E+02 -0.17607277033E+03  0.22836556340E+03  0.12509126808E+03 0.  0.
          5    1    3    3  502    0 -0.16988301408E+02  0.21329262274E+02 -0.11828744240E+03  0.12146164515E+03  0.41800000000E+01 0.  1.
         -5    1    3    3    0  502  0.89621900893E+02 -0.63044503186E+01 -0.57785327925E+02  0.10690391825E+03  0.41800000000E+01 0.  1.
        -11    1    1    2    0    0 -0.66403014835E+02 -0.32695341927E+02 -0.36214836711E+02  0.82400607770E+02  0.00000000000E+00 0.  1.
         11    1    1    2    0    0 -0.62305846509E+01  0.17670529971E+02 -0.82889105393E+02  0.84980418964E+02  0.00000000000E+00 0. -1.
</event>
<event>
 7    1  0.2723366E-009  0.1263016E+03  0.7561462E-02  0.1233049E+00
         -2   -1    0    0    0  501 -0.00000000000E+00  0.00000000000E+00  0.75027849728E+02  0.75027849728E+02  0.00000000000E+00 0.  1.
          2   -1    0    0  501    0  0.00000000000E+00 -0.00000000000E+00 -0.28030682930E+03  0.28030682930E+03  0.00000000000E+00 0. -1.
         25    2    1    2    0    0 -0.78967004295E+02 -0.52289863446E+02 -0.11377260342E+03  0.19380463603E+03  0.12508402805E+03 0.  0.
          5    1    3    3  502    0 -0.59661164137E+00  0.15818497304E+02 -0.84182295188E+02  0.85759617685E+02  0.41800000000E+01 0.  1.
         -5    1    3    3    0  502 -0.78370392654E+02 -0.68108360750E+02 -0.29590308232E+02  0.10804501835E+03  0.41800000000E+01 0.  1.
        -11    1    1    2    0    0  0.38061113051E+02 -0.24532592469E+02 -0.39852702856E+02  0.60321922589E+02  0.00000000000E+00 0.  1.
         11    1    1    2    0    0  0.40905891244E+02  0.76822455914E+02 -0.51653673299E+02  0.10120812041E+03  0.00000000000E+00 0. -1.
</event>
<event>
 7    1  0.2723366E-009  0.1108470E+03  0.7561462E-02  0.1259009E+00
          2   -1    0    0  501    0  0.00000000000E+00  0.00000000000E+00  0.13674177528E+03  0.13674177528E+03  0.00000000000E+00 0. -1.
         -2   -1    0    0    0  501 -0.00000000000E+00 -0.00000000000E+00 -0.10470612920E+03  0.10470612920E+03  0.00000000000E+00 0.  1.
         25    2    1    2    0    0  0.22402636760E+02 -0.35895152806E+02  0.55473804729E+02  0.14322568910E+03  0.12508363153E+03 0.  0.
          5    1    3    3  502    0  0.52545754269E+02 -0.68836383107E+02  0.42397140827E+02  0.96511625628E+02  0.41800000000E+01 0.  1.
         -5    1    3    3    0  502 -0.30143117509E+02  0.32941230301E+02  0.13076663902E+02  0.46714063468E+02  0.41800000000E+01 0.  1.
        -11    1    1    2    0    0 -0.11131158854E+02  0.61327181172E+02 -0.30689198423E+02  0.69474835356E+02  0.00000000000E+00 0.  1.
         11    1    1    2    0    0 -0.11271477907E+02 -0.25432028366E+02  0.72510397743E+01  0.28747380034E+02  0.00000000000E+00 0. -1.
</event>
<event>
 7    1  0.2723366E-009  0.9083894E+02  0.7561462E-02  0.1300833E+00
         -2   -1    0    0    0  501 -0.00000000000E+00  0.00000000000E+00  0.48839560841E+02  0.48839560841E+02  0.00000000000E+00 0.  1.
          2   -1    0    0  501    0  0.00000000000E+00 -0.00000000000E+00 -0.42148043381E+03  0.42148043381E+03  0.00000000000E+00 0. -1.
         25    2    1    2    0    0 -0.17744341049E+02 -0.39930561168E+02 -0.33829987454E+03  0.36332213154E+03  0.12508738864E+03 0.  0.
          5    1    3    3  502    0  0.27040869538E+02 -0.26727724371E+02 -0.30098671282E+03  0.30340740526E+03  0.41800000000E+01 0. -1.
         -5    1    3    3    0  502 -0.44785210587E+02 -0.13202836797E+02 -0.37313161725E+02  0.59914726276E+02  0.41800000000E+01 0. -1.
        -11    1    1    2    0    0  0.30807526463E+02 -0.18996047915E+02  0.25099800433E+01  0.36280208420E+02  0.00000000000E+00 0.  1.
         11    1    1    2    0    0 -0.13063185414E+02  0.58926609083E+02 -0.36850978471E+02  0.70717654694E+02  0.00000000000E+00 0. -1.
</event>
<event>
 7    1  0.2929419E-009  0.8732169E+02  0.7561462E-02  0.1309470E+00
          2   -1    0    0  501    0  0.00000000000E+00  0.00000000000E+00  0.34679582683E+03  0.34679582683E+03  0.00000000000E+00 0. -1.
         -2   -1    0    0    0  501 -0.00000000000E+00 -0.00000000000E+00 -0.52129665411E+02  0.52129665411E+02  0.00000000000E+00 0.  1.
         25    2    1    2    0    0 -0.31147979346E+02  0.20285114709E+02  0.58134494459E+02  0.14286450803E+03  0.12509582612E+03 0.  0.
          5    1    3    3  502    0 -0.55329020340E+02  0.31758711075E+02 -0.14315387449E+02  0.65515791522E+02  0.41800000000E+01 0. -1.
         -5    1    3    3    0  502  0.24181040995E+02 -0.11473596366E+02  0.72449881908E+02  0.77348716509E+02  0.41800000000E+01 0. -1.
        -11    1    1    2    0    0  0.15627072893E+02 -0.48753493022E+02  0.71890273411E+02  0.88257123793E+02  0.00000000000E+00 0.  1.
         11    1    1    2    0    0  0.15520906453E+02  0.28468378313E+02  0.16464139355E+03  0.16780386042E+03  0.00000000000E+00 0. -1.
</event>
<event>
 7    1  0.2723366E-009  0.8831864E+02  0.7561462E-02  0.1306975E+00
         -1   -1    0    0    0  501 -0.00000000000E+00  0.00000000000E+00  0.66599003270E+02  0.66599003270E+02  0.00000000000E+00 0.  1.
          1   -1    0    0  501    0  0.00000000000E+00 -0.00000000000E+00 -0.20765426404E+03  0.20765426404E+03  0.00000000000E+00 0. -1.
         25    2    1    2    0    0 -0.21384802562E+02  0.16240786653E+02 -0.36199816776E+02  0.13296225212E+03  0.12508981102E+03 0.  0.
          5    1    3    3  502    0 -0.24784271436E+01 -0.40810972988E+02 -0.56072114228E+02  0.69521453605E+02  0.41800000000E+01 0.  1.
         -5    1    3    3    0  502 -0.18906375419E+02  0.57051759642E+02  0.19872297452E+02  0.63440798511E+02  0.41800000000E+01 0.  1.
        -11    1    1    2    0    0 -0.16266325073E+02  0.18096456719E+02  0.41464908466E+00  0.24336125637E+02  0.00000000000E+00 0.  1.
         11    1    1    2    0    0  0.37651127635E+02 -0.34337243372E+02 -0.10527009308E+03  0.11695488956E+03  0.00000000000E+00 0. -1.
</event>
<event>
 7    1  0.2723366E-009  0.1050077E+03  0.7561462E-02  0.1270104E+00
         -3   -1    0    0    0  501 -0.00000000000E+00  0.00000000000E+00  0.38043470273E+02  0.38043470273E+02  0.00000000000E+00 0.  1.
          3   -1    0    0  501    0  0.00000000000E+00 -0.00000000000E+00 -0.39331882533E+03  0.39331882533E+03  0.00000000000E+00 0. -1.
         25    2    1    2    0    0  0.23241747207E+02  0.37939371688E+02 -0.14560773657E+03  0.19704987424E+03  0.12508982873E+03 0.  0.
          5    1    3    3  502    0 -0.29300712504E+02 -0.16425034825E+02 -0.10665406876E+03  0.11189672160E+03  0.41800000000E+01 0.  1.
         -5    1    3    3    0  502  0.52542459711E+02  0.54364406513E+02 -0.38953667814E+02  0.85153152638E+02  0.41800000000E+01 0.  1.
        -11    1    1    2    0    0  0.10092415310E+02 -0.59758489822E+02 -0.92763941881E+02  0.11080651094E+03  0.00000000000E+00 0.  1.
         11    1    1    2    0    0 -0.33334162517E+02  0.21819118135E+02 -0.11690367660E+03  0.12350591042E+03  0.00000000000E+00 0. -1.
</event>
<event>
 7    1  0.2723366E-009  0.1267148E+03  0.7561462E-02  0.1232413E+00
         -4   -1    0    0    0  501 -0.00000000000E+00  0.00000000000E+00  0.11807223488E+03  0.11807223488E+03  0.00000000000E+00 0.  1.
          4   -1    0    0  501    0  0.00000000000E+00 -0.00000000000E+00 -0.13621742608E+03  0.13621742608E+03  0.00000000000E+00 0. -1.
         25    2    1    2    0    0 -0.52223222128E+02  0.58695162227E+01 -0.83871208552E+01  0.13593950834E+03  0.12508992758E+03 0.  0.
          5    1    3    3  502    0 -0.90171252575E+02 -0.15718826563E+02 -0.90809445636E+01  0.92075361817E+02  0.41800000000E+01 0. -1.
         -5    1    3    3    0  502  0.37948030447E+02  0.21588342785E+02  0.69382370842E+00  0.43864146525E+02  0.41800000000E+01 0. -1.
        -11    1    1    2    0    0 -0.32096234454E+02 -0.97240665204E+01 -0.24107385202E+01  0.33623464962E+02  0.00000000000E+00 0. -1.
         11    1    1    2    0    0  0.84319456582E+02  0.38545502977E+01 -0.73473318195E+01  0.84726687656E+02  0.00000000000E+00 0.  1.
</event>
<event>
 7    1  0.2723366E-009  0.1000264E+03  0.7561462E-02  0.1280240E+00
          1   -1    0    0  501    0  0.00000000000E+00  0.00000000000E+00  0.61978792832E+03  0.61978792832E+03  0.00000000000E+00 0. -1.
         -1   -1    0    0    0  501 -0.00000000000E+00 -0.00000000000E+00 -0.20606134088E+02  0.20606134088E+02  0.00000000000E+00 0.  1.
         25    2    1    2    0    0 -0.11055328034E+02 -0.13532977475E+02  0.38458592714E+03  0.40479577010E+03  0.12509163995E+03 0.  0.
          5    1    3    3  502    0  0.55684841663E+02 -0.75671822930E+01  0.13388152519E+03  0.14525769868E+03  0.41800000000E+01 0. -1.
         -5    1    3    3    0  502 -0.66740169696E+02 -0.59657951823E+01  0.25070440195E+03  0.25953807142E+03  0.41800000000E+01 0. -1.
        -11    1    1    2    0    0 -0.10045947844E+02 -0.28125878347E+02  0.16419431608E+03  0.16688846435E+03  0.00000000000E+00 0. -1.
         11    1    1    2    0    0  0.21101275878E+02  0.41658855823E+02  0.50401551010E+02  0.68709827946E+02  0.00000000000E+00 0.  1.
</event>
<event>
 7    1  0.2723366E-009  0.1048211E+03  0.7561462E-02  0.1270472E+00
         -2   -1    0    0    0  501 -0.00000000000E+00  0.00000000000E+00  0.53679299723E+03  0.53679299723E+03  0.00000000000E+00 0.  1.
          2   -1    0    0  501    0  0.00000000000E+00 -0.00000000000E+00 -0.25311276951E+02  0.25311276951E+02  0.00000000000E+00 0. -1.
         25    2    1    2    0    0  0.23203542929E+02  0.16177990433E+02  0.37262592342E+03  0.39407744153E+03  0.12508724692E+03 0.  0.
          5    1    3    3  502    0  0.59469333659E+02 -0.27052010567E+02  0.13823214451E+03  0.15295100881E+03  0.41800000000E+01 0.  1.
         -5    1    3    3    0  502 -0.36265790730E+02  0.43230001000E+02  0.23439377891E+03  0.24112643272E+03  0.41800000000E+01 0.  1.
        -11    1    1    2    0    0 -0.67444537522E+01 -0.49749468672E+02  0.10960224690E+03  0.12055351432E+03  0.00000000000E+00 0.  1.
         11    1    1    2    0    0 -0.16459089177E+02  0.33571478239E+02  0.29253549956E+02  0.47473318324E+02  0.00000000000E+00 0. -1.
</event>
<event>
 7    1  0.4419239E-009  0.1086736E+03  0.7561462E-02  0.1263046E+00
         -1   -1    0    0    0  501 -0.00000000000E+00  0.00000000000E+00  0.16319507673E+02  0.16319507673E+02  0.00000000000E+00 0.  1.
          1   -1    0    0  501    0  0.00000000000E+00 -0.00000000000E+00 -0.11536196757E+04  0.11536196757E+04  0.00000000000E+00 0. -1.
         25    2    1    2    0    0 -0.48190510322E+02  0.67586115289E+02 -0.66580233807E+03  0.68251797613E+03  0.12509127106E+03 0.  0.
          5    1    3    3  502    0 -0.41008532101E+02  0.84429751078E+02 -0.65314736369E+03  0.65987046734E+03  0.41800000000E+01 0. -1.
         -5    1    3    3    0  502 -0.71819782212E+01 -0.16843635789E+02 -0.12654974377E+02  0.22647508787E+02  0.41800000000E+01 0. -1.
        -11    1    1    2    0    0  0.10485330125E+02  0.12366175131E+02 -0.13877176152E+02  0.21341050891E+02  0.00000000000E+00 0.  1.
         11    1    1    2    0    0  0.37705180197E+02 -0.79952290419E+02 -0.45762065384E+03  0.46608015639E+03  0.00000000000E+00 0. -1.
</event>
<event>
 7    1  0.2723366E-009  0.1418987E+03  0.7561462E-02  0.1210797E+00
         -3   -1    0    0    0  501 -0.00000000000E+00  0.00000000000E+00  0.82212822079E+02  0.82212822079E+02  0.00000000000E+00 0.  1.
          3   -1    0    0  501    0  0.00000000000E+00 -0.00000000000E+00 -0.36169050268E+03  0.36169050268E+03  0.00000000000E+00 0. -1.
         25    2    1    2    0    0  0.32343842505E+02 -0.12604886640E+03 -0.19266362505E+03  0.26400997415E+03  0.12509018013E+03 0.  0.
          5    1    3    3  502    0  0.28350970680E+02 -0.76691278884E+02 -0.19777699161E+03  0.21405265849E+03  0.41800000000E+01 0. -1.
         -5    1    3    3    0  502  0.39928718257E+01 -0.49357587515E+02  0.51133665618E+01  0.49957315664E+02  0.41800000000E+01 0. -1.
        -11    1    1    2    0    0 -0.23103040689E+02  0.13640763981E+03 -0.62318477447E+02  0.15173789019E+03  0.00000000000E+00 0.  1.
         11    1    1    2    0    0 -0.92408018163E+01 -0.10358773409E+02 -0.24495578112E+02  0.28155460425E+02  0.00000000000E+00 0. -1.
</event>
<event>
 7    1  0.2723366E-009  0.1145995E+03  0.7561462E-02  0.1252282E+00
          2   -1    0    0  501    0  0.00000000000E+00  0.00000000000E+00  0.10368096297E+04  0.10368096297E+04  0.00000000000E+00 0.  1.
         -2   -1    0    0    0  501 -0.00000000000E+00 -0.00000000000E+00 -0.21730866252E+02  0.21730866252E+02  0.00000000000E+00 0. -1.
         25    2    1    2    0    0  0.38895273869E+02 -0.56730338139E+02  0.82582644933E+03  0.83807411604E+03  0.12509087087E+03 0.  0.
          5    1    3    3  502    0  0.75437527663E+02 -0.34709906417E+01  0.52016825094E+03  0.52563804090E+03  0.41800000000E+01 0.  1.
         -5    1    3    3    0  502 -0.36542253794E+02 -0.53259347497E+02  0.30565819839E+03  0.31243607514E+03  0.41800000000E+01 0.  1.
        -11    1    1    2    0    0 -0.87427985991E+01  0.58006094754E+02  0.17935661904E+03  0.18870596268E+03  0.00000000000E+00 0.  1.
         11    1    1    2    0    0 -0.30152475270E+02 -0.12757566155E+01  0.98956950348E+01  0.31760417190E+02  0.00000000000E+00 0. -1.
</event>
<event>
 7    1  0.2723366E-009  0.8879236E+02  0.7561462E-02  0.1305803E+00
         -1   -1    0    0    0  501 -0.00000000000E+00  0.00000000000E+00  0.27404061330E+02  0.27404061330E+02  0.00000000000E+00 0.  1.
          1   -1    0    0  501    0  0.00000000000E+00 -0.00000000000E+00 -0.44896586345E+03  0.44896586345E+03  0.00000000000E+00 0. -1.
         25    2    1    2    0    0 -0.57555229056E+01 -0.96179738796E+00 -0.28829433142E+03  0.31431705879E+03  0.12509013077E+03 0.  0.
          5    1    3    3  502    0 -0.47207721583E+02  0.29560037516E+02 -0.67748881199E+02  0.87805171253E+02  0.41800000000E+01 0. -1.
         -5    1    3    3    0  502  0.41452198677E+02 -0.30521834904E+02 -0.22054545022E+03  0.22651188753E+03  0.41800000000E+01 0. -1.
        -11    1    1    2    0    0  0.61557258497E-01  0.35287808314E+02 -0.11955372723E+03  0.12465282547E+03  0.00000000000E+00 0. -1.
         11    1    1    2    0    0  0.56939656471E+01 -0.34326010926E+02 -0.13713743476E+02  0.37400040522E+02  0.00000000000E+00 0.  1.
</event>
<event>
 7    1  0.2723366E-009  0.1076276E+03  0.7561462E-02  0.1265027E+00
         -2   -1    0    0    0  501 -0.00000000000E+00  0.00000000000E+00  0.27417359746E+02  0.27417359746E+02  0.00000000000E+00 0.  1.
          2   -1    0    0  501    0  0.00000000000E+00 -0.00000000000E+00 -0.55760309938E+03  0.55760309938E+03  0.00000000000E+00 0. -1.
         25    2    1    2    0    0  0.46496361203E+02  0.18655140304E+02 -0.37500334085E+03  0.39847866707E+03  0.12509123308E+03 0.  0.
          5    1    3    3  502    0  0.52222938722E+02 -0.32015609104E+02 -0.90183667614E+02  0.10909995811E+03  0.41800000000E+01 0.  1.
         -5    1    3    3    0  502 -0.57265775196E+01  0.50670749408E+02 -0.28481967324E+03  0.28937870896E+03  0.41800000000E+01 0.  1.
        -11    1    1    2    0    0 -0.96854759672E+01 -0.52078794448E+02 -0.68251011599E+02  0.86395658804E+02  0.00000000000E+00 0.  1.
         11    1    1    2    0    0 -0.36810885236E+02  0.33423654144E+02 -0.86931387185E+02  0.10014613326E+03  0.00000000000E+00 0. -1.
</event>
<event>
 7    1  0.2723366E-009  0.1354990E+03  0.7561462E-02  0.1219517E+00
          1   -1    0    0  501    0  0.00000000000E+00  0.00000000000E+00  0.58098744818E+03  0.58098744818E+03  0.00000000000E+00 0. -1.
         -1   -1    0    0    0  501 -0.00000000000E+00 -0.00000000000E+00 -0.51465487942E+02  0.51465487942E+02  0.00000000000E+00 0.  1.
         25    2    1    2    0    0 -0.11001465793E+03 -0.48707024225E+02  0.38137663509E+03  0.41901249227E+03  0.12509089385E+03 0.  0.
          5    1    3    3  502    0 -0.75560652644E+02  0.98204065471E+01  0.31442544464E+03  0.32355321858E+03  0.41800000000E+01 0. -1.
         -5    1    3    3    0  502 -0.34454005286E+02 -0.58527430772E+02  0.66951190441E+02  0.95459273696E+02  0.41800000000E+01 0. -1.
        -11    1    1    2    0    0  0.13023625951E+02  0.22790372745E+02 -0.83201968586E+01  0.27536187073E+02  0.00000000000E+00 0.  1.
         11    1    1    2    0    0  0.96991031979E+02  0.25916651480E+02  0.15646552201E+03  0.18590425677E+03  0.00000000000E+00 0. -1.
</event>
<event>
 7    1  0.2723366E-009  0.8940472E+02  0.7561462E-02  0.1304300E+00
          2   -1    0    0  501    0  0.00000000000E+00  0.00000000000E+00  0.15827189014E+03  0.15827189014E+03  0.00000000000E+00 0.  1.
         -2   -1    0    0    0  501 -0.00000000000E+00 -0.00000000000E+00 -0.10914434840E+03  0.10914434840E+03  0.00000000000E+00 0. -1.
         25    2    1    2    0    0  0.26806880916E+02  0.48342969058E+01 -0.41113984795E+02  0.13446196254E+03  0.12509068843E+03 0.  0.
          5    1    3    3  502    0  0.48865701740E+02 -0.42168964423E+02  0.50262664524E+01  0.64875373768E+02  0.41800000000E+01 0.  1.
         -5    1    3    3    0  502 -0.22058820824E+02  0.47003261329E+02 -0.46140251247E+02  0.69586588771E+02  0.41800000000E+01 0.  1.
        -11    1    1    2    0    0 -0.18154922252E+02  0.25044582920E+02  0.96402542455E+02  0.10124367895E+03  0.00000000000E+00 0.  1.
         11    1    1    2    0    0 -0.86519586644E+01 -0.29878879825E+02 -0.61610159245E+01  0.31710597055E+02  0.00000000000E+00 0. -1.
</event>
<event>
 7    1  0.2723366E-009  0.4587166E+02  0.7561462E-02  0.1468972E+00
         -4   -1    0    0    0  501 -0.00000000000E+00  0.00000000000E+00  0.27913691777E+02  0.27913691777E+02  0.00000000000E+00 0.  1.
          4   -1    0    0  501    0  0.00000000000E+00 -0.00000000000E+00 -0.54555853431E+03  0.54555853431E+03  0.00000000000E+00 0. -1.
         25    2    1    2    0    0  0.51675109244E+01 -0.40270326564E+02 -0.38784211705E+03  0.40953339687E+03  0.12509073917E+03 0.  0.
          5    1    3    3  502    0 -0.90301359047E+01 -0.39001982486E+01 -0.36280894631E+03  0.36296633290E+03  0.41800000000E+01 0. -1.
         -5    1    3    3    0  502  0.14197646829E+02 -0.36370128315E+02 -0.25033170737E+02  0.46567063965E+02  0.41800000000E+01 0. -1.
        -11    1    1    2    0    0  0.29986536840E+01  0.10709543550E+02  0.13442940378E+02  0.17447031065E+02  0.00000000000E+00 0.  1.
         11    1    1    2    0    0 -0.81661646084E+01  0.29560783014E+02 -0.14324566587E+03  0.14649179815E+03  0.00000000000E+00 0. -1.
</event>
<event>
 7    1  0.2891182E-009  0.7932717E+02  0.7561462E-02  0.1330972E+00
         -2   -1    0    0    0  501 -0.00000000000E+00  0.00000000000E+00  0.15988941725E+02  0.15988941725E+02  0.00000000000E+00 0. -1.
          2   -1    0    0  501    0  0.00000000000E+00 -0.00000000000E+00 -0.91484231490E+03  0.91484231490E+03  0.00000000000E+00 0.  1.
         25    2    1    2    0    0 -0.38990630942E+02 -0.35667507499E+02 -0.52549155493E+03  0.54275329319E+03  0.12508925842E+03 0.  0.
          5    1    3    3  502    0 -0.46885454311E+02 -0.41328071904E+02 -0.10597402020E+03  0.12310248052E+03  0.41800000000E+01 0. -1.
         -5    1    3    3    0  502  0.78948233698E+01  0.56605644053E+01 -0.41951753474E+03  0.41965081267E+03  0.41800000000E+01 0. -1.
        -11    1    1    2    0    0  0.32207844747E+02  0.55671270435E+02 -0.35274901127E+03  0.35856449987E+03  0.00000000000E+00 0.  1.
         11    1    1    2    0    0  0.67827861946E+01 -0.20003762936E+02 -0.20612806969E+02  0.29513463560E+02  0.00000000000E+00 0. -1.
</event>
<event>
 7    1  0.3062470E-009  0.1292773E+03  0.7561462E-02  0.1228532E+00
         -2   -1    0    0    0  501 -0.00000000000E+00  0.00000000000E+00  0.15881204298E+02  0.15881204298E+02  0.00000000000E+00 0.  1.
          2   -1    0    0  501    0  0.00000000000E+00 -0.00000000000E+00 -0.14626162311E+04  0.14626162311E+04  0.00000000000E+00 0. -1.
         25    2    1    2    0    0  0.83203368713E+02 -0.53576572086E+02 -0.98587677819E+03  0.99869399315E+03  0.12507366039E+03 0.  0.
          5    1    3    3  502    0  0.96169702722E+02 -0.82939127593E+02 -0.77478750737E+03  0.78513735396E+03  0.41800000000E+01 0. -1.
         -5    1    3    3    0  502 -0.12966334009E+02  0.29362555507E+02 -0.21108927083E+03  0.21355663919E+03  0.41800000000E+01 0. -1.
        -11    1    1    2    0    0 -0.20112402244E+02  0.15896938795E+02 -0.19085910909E+02  0.31960810101E+02  0.00000000000E+00 0.  1.
         11    1    1    2    0    0 -0.63090966469E+02  0.37679633291E+02 -0.44177233769E+03  0.44784263214E+03  0.00000000000E+00 0. -1.
</event>
<event>
 7    1  0.2825442E-009  0.1296716E+03  0.7561462E-02  0.1227944E+00
         -2   -1    0    0    0  501 -0.00000000000E+00  0.00000000000E+00  0.49926488779E+02  0.49926488779E+02  0.00000000000E+00 0.  1.
          2   -1    0    0  501    0  0.00000000000E+00 -0.00000000000E+00 -0.51902879500E+03  0.51902879500E+03  0.00000000000E+00 0. -1.
         25    2    1    2    0    0 -0.62284993721E+02  0.91140019851E+02 -0.17408291201E+03  0.24112263022E+03  0.12509731767E+03 0.  0.
          5    1    3    3  502    0 -0.42586383518E+02  0.91600798662E+02 -0.19014970145E+03  0.21535711676E+03  0.41800000000E+01 0. -1.
         -5    1    3    3    0  502 -0.19698610203E+02 -0.46077881160E+00  0.16066789440E+02  0.25765513462E+02  0.41800000000E+01 0. -1.
        -11    1    1    2    0    0 -0.16462456911E+02 -0.42408108093E+02 -0.60527807542E+02  0.75717076049E+02  0.00000000000E+00 0. -1.
         11    1    1    2    0    0  0.78747450633E+02 -0.48731911758E+02 -0.23449158667E+03  0.25211557751E+03  0.00000000000E+00 0.  1.
</event>
<event>
 7    1  0.2723366E-009  0.9355704E+02  0.7561462E-02  0.1294459E+00
         -2   -1    0    0    0  501 -0.00000000000E+00  0.00000000000E+00  0.48002538833E+02  0.48002538833E+02  0.00000000000E+00 0.  1.
          2   -1    0    0  501    0  0.00000000000E+00 -0.00000000000E+00 -0.29547755730E+03  0.29547755730E+03  0.00000000000E+00 0. -1.
         25    2    1    2    0    0  0.46569677900E+02  0.45061675782E+01 -0.13134051348E+03  0.18731807641E+03  0.12509472740E+03 0.  0.
          5    1    3    3  502    0  0.84326527477E+02  0.27927326146E+02 -0.87881420970E+02  0.12502605862E+03  0.41800000000E+01 0. -1.
         -5    1    3    3    0  502 -0.37756849577E+02 -0.23421158568E+02 -0.43459092506E+02  0.62292017788E+02  0.41800000000E+01 0. -1.
        -11    1    1    2    0    0 -0.89864255611E+01  0.98431535475E+01  0.14368898629E+02  0.19598692914E+02  0.00000000000E+00 0.  1.
         11    1    1    2    0    0 -0.37583252339E+02 -0.14349321126E+02 -0.13050340362E+03  0.13656332681E+03  0.00000000000E+00 0. -1.
</event>
<event>
 7    1  0.3352853E-009  0.1536334E+03  0.7561462E-02  0.1196078E+00
         -1   -1    0    0    0  501 -0.00000000000E+00  0.00000000000E+00  0.70681813124E+02  0.70681813124E+02  0.00000000000E+00 0.  1.
          1   -1    0    0  501    0  0.00000000000E+00 -0.00000000000E+00 -0.37127661881E+03  0.37127661881E+03  0.00000000000E+00 0. -1.
         25    2    1    2    0    0 -0.60369658495E+02 -0.10374339657E+03 -0.16210910002E+03  0.23735260799E+03  0.12509880980E+03 0.  0.
          5    1    3    3  502    0  0.27673034892E+01 -0.10555368944E+03 -0.74613481635E+02  0.12935951208E+03  0.41800000000E+01 0.  1.
         -5    1    3    3    0  502 -0.63136961984E+02  0.18102928710E+01 -0.87495618383E+02  0.10799309591E+03  0.41800000000E+01 0.  1.
        -11    1    1    2    0    0  0.50027064331E+01  0.76361653182E+02 -0.11580543098E+03  0.13880571671E+03  0.00000000000E+00 0. -1.
         11    1    1    2    0    0  0.55366952062E+02  0.27381743387E+02 -0.22680274693E+02  0.65800107232E+02  0.00000000000E+00 0.  1.
</event>
<event>
 7    1  0.2723366E-009  0.1686197E+03  0.7561462E-02  0.1179295E+00
          2   -1    0    0  501    0  0.00000000000E+00  0.00000000000E+00  0.14681972859E+04  0.14681972859E+04  0.00000000000E+00 0. -1.
         -2   -1    0    0    0  501 -0.00000000000E+00 -0.00000000000E+00 -0.22813373708E+02  0.22813373708E+02  0.00000000000E+00 0.  1.
         25    2    1    2    0    0  0.71106755722E+02 -0.12130426520E+03  0.94281953121E+03  0.96141925211E+03  0.12508962561E+03 0.  0.
          5    1    3    3  502    0  0.84842609229E+02 -0.12889239719E+03  0.92289053789E+03  0.93571145964E+03  0.41800000000E+01 0. -1.
         -5    1    3    3    0  502 -0.13735853507E+02  0.75881319831E+01  0.19928993322E+02  0.25707792464E+02  0.41800000000E+01 0. -1.
        -11    1    1    2    0    0 -0.44532101252E+02  0.21848501238E+01  0.15099037210E+03  0.15743561884E+03  0.00000000000E+00 0. -1.
         11    1    1    2    0    0 -0.26574654470E+02  0.11911941508E+03  0.35157400886E+03  0.37215578863E+03  0.00000000000E+00 0.  1.
</event>
<event>
 7    1  0.2723366E-009  0.1205184E+03  0.7561462E-02  0.1242244E+00
          2   -1    0    0  501    0  0.00000000000E+00  0.00000000000E+00  0.53110619183E+03  0.53110619183E+03  0.00000000000E+00 0. -1.
         -2   -1    0    0    0  501 -0.00000000000E+00 -0.00000000000E+00 -0.39518552374E+02  0.39518552374E+02  0.00000000000E+00 0.  1.
         25    2    1    2    0    0  0.23976167005E+02  0.56054223558E+02  0.41627217804E+03  0.43891562172E+03  0.12508982460E+03 0.  0.
          5    1    3    3  502    0  0.68752965472E+02  0.57893390850E+02  0.32383473412E+03  0.33610269620E+03  0.41800000000E+01 0.  1.
         -5    1    3    3    0  502 -0.44776798467E+02 -0.18391672922E+01  0.92437443912E+02  0.10281292552E+03  0.41800000000E+01 0.  1.
        -11    1    1    2    0    0 -0.70034169061E+01 -0.77995755971E+02  0.43808165392E+02  0.89730380323E+02  0.00000000000E+00 0.  1.
         11    1    1    2    0    0 -0.16972750099E+02  0.21941532414E+02  0.31507296024E+02  0.41978742160E+02  0.00000000000E+00 0. -1.
</event>
<event>
 7    1  0.2723366E-009  0.8993326E+02  0.7561462E-02  0.1303013E+00
         -2   -1    0    0    0  501 -0.00000000000E+00  0.00000000000E+00  0.29942623984E+02  0.29942623984E+02  0.00000000000E+00 0.  1.
          2   -1    0    0  501    0  0.00000000000E+00 -0.00000000000E+00 -0.39434129707E+03  0.39434129707E+03  0.00000000000E+00 0. -1.
         25    2    1    2    0    0 -0.67331915334E+01  0.15996408814E+01 -0.17744956838E+03  0.21721996924E+03  0.12509304937E+03 0.  0.
          5    1    3    3  502    0 -0.40818690461E+02 -0.38368381753E+02 -0.14458977645E+03  0.15511922532E+03  0.41800000000E+01 0.  1.
         -5    1    3    3    0  502  0.34085498927E+02  0.39968022634E+02 -0.32859791921E+02  0.62100743920E+02  0.41800000000E+01 0.  1.
        -11    1    1    2    0    0 -0.22673446208E+01 -0.35677311642E+02 -0.31430596936E+02  0.47601405876E+02  0.00000000000E+00 0.  1.
         11    1    1    2    0    0  0.90005361542E+01  0.34077670761E+02 -0.15551850777E+03  0.15946254593E+03  0.00000000000E+00 0. -1.
</event>
<event>
 7    1  0.2723366E-009  0.1376432E+03  0.7561462E-02  0.1216536E+00
          2   -1    0    0  501    0  0.00000000000E+00  0.00000000000E+00  0.28548036033E+03  0.28548036033E+03  0.00000000000E+00 0. -1.
         -2   -1    0    0    0  501 -0.00000000000E+00 -0.00000000000E+00 -0.88862546769E+02  0.88862546769E+02  0.00000000000E+00 0.  1.
         25    2    1    2    0    0  0.11030310913E+03  0.37121830955E+02  0.11623605832E+03  0.20664686396E+03  0.12508916386E+03 0.  0.
          5    1    3    3  502    0 -0.75514186128E+00 -0.11659260737E+02  0.78600944228E+02  0.79574427009E+02  0.41800000000E+01 0. -1.
         -5    1    3    3    0  502  0.11105825099E+03  0.48781091692E+02  0.37635114087E+02  0.12707243695E+03  0.41800000000E+01 0. -1.
        -11    1    1    2    0    0 -0.82330877925E+02  0.13730732697E+02  0.69569777915E+02  0.10865937824E+03  0.00000000000E+00 0. -1.
         11    1    1    2    0    0 -0.27972231207E+02 -0.50852563652E+02  0.10811977331E+02  0.59036664900E+02  0.00000000000E+00 0.  1.
</event>
<event>
 7    1  0.2723366E-009  0.1151001E+03  0.7561462E-02  0.1251406E+00
          2   -1    0    0  501    0  0.00000000000E+00  0.00000000000E+00  0.28895768802E+02  0.28895768802E+02  0.00000000000E+00 0. -1.
         -2   -1    0    0    0  501 -0.00000000000E+00 -0.00000000000E+00 -0.50868500442E+03  0.50868500442E+03  0.00000000000E+00 0.  1.
         25    2    1    2    0    0 -0.31033231175E+02 -0.27803755960E+02 -0.19136662248E+03  0.23239020026E+03  0.12509160920E+03 0.  0.
          5    1    3    3  502    0  0.11783620482E+02  0.45225146268E+02 -0.73885660898E+02  0.87525601129E+02  0.41800000000E+01 0.  1.
         -5    1    3    3    0  502 -0.42816851657E+02 -0.73028902228E+02 -0.11748096159E+03  0.14486459913E+03  0.41800000000E+01 0.  1.
        -11    1    1    2    0    0 -0.17535480968E+02  0.43965231207E+02 -0.11466910002E+03  0.12405417021E+03  0.00000000000E+00 0.  1.
         11    1    1    2    0    0  0.48568712142E+02 -0.16161475247E+02 -0.17375351311E+03  0.18113640275E+03  0.00000000000E+00 0. -1.
</event>
<event>
 7    1  0.3624621E-009  0.1653243E+03  0.7561462E-02  0.1182814E+00
         -2   -1    0    0    0  501 -0.00000000000E+00  0.00000000000E+00  0.33229351339E+02  0.33229351339E+02  0.00000000000E+00 0.  1.
          2   -1    0    0  501    0  0.00000000000E+00 -0.00000000000E+00 -0.90959470174E+03  0.90959470174E+03  0.00000000000E+00 0. -1.
         25    2    1    2    0    0  0.19214518973E+02 -0.13055439109E+03 -0.55071285331E+03  0.57995496281E+03  0.12509782297E+03 0.  0.
          5    1    3    3  502    0  0.37653318128E+02  0.87236374867E+01 -0.16235212323E+03  0.16694178187E+03  0.41800000000E+01 0. -1.
         -5    1    3    3    0  502 -0.18438799155E+02 -0.13927802857E+03 -0.38836073008E+03  0.41301318094E+03  0.41800000000E+01 0. -1.
        -11    1    1    2    0    0 -0.45005867076E+02  0.53238126487E+02 -0.92135179403E+02  0.11553664989E+03  0.00000000000E+00 0.  1.
         11    1    1    2    0    0  0.25791348103E+02  0.77316264598E+02 -0.23351731768E+03  0.24733244038E+03  0.00000000000E+00 0. -1.
</event>
<event>
 7    1  0.2723366E-009  0.9957198E+02  0.7561462E-02  0.1281199E+00
          1   -1    0    0  501    0  0.00000000000E+00  0.00000000000E+00  0.40988659331E+03  0.40988659331E+03  0.00000000000E+00 0. -1.
         -1   -1    0    0    0  501 -0.00000000000E+00 -0.00000000000E+00 -0.39197264537E+02  0.39197264537E+02  0.00000000000E+00 0.  1.
         25    2    1    2    0    0 -0.17607527541E+01  0.13035946593E+02  0.32109829278E+03  0.34485422054E+03  0.12508910282E+03 0.  0.
          5    1    3    3  502    0 -0.22004886139E+02  0.65573163627E+02  0.18056349205E+03  0.19340295205E+03  0.41800000000E+01 0. -1.
         -5    1    3    3    0  502  0.20244133385E+02 -0.52537217033E+02  0.14053480072E+03  0.15145126848E+03  0.41800000000E+01 0. -1.
        -11    1    1    2    0    0 -0.17643190488E+02 -0.37928624823E+02  0.58051804014E+02  0.71553299720E+02  0.00000000000E+00 0.  1.
         11    1    1    2    0    0  0.19403943242E+02  0.24892678230E+02 -0.84607680172E+01  0.32676337589E+02  0.00000000000E+00 0. -1.
</event>
<event>
 7    1  0.2723366E-009  0.2101254E+03  0.7561462E-02  0.1141467E+00
          2   -1    0    0  501    0  0.00000000000E+00  0.00000000000E+00  0.15731650877E+04  0.15731650877E+04  0.00000000000E+00 0. -1.
         -2   -1    0    0    0  501 -0.00000000000E+00 -0.00000000000E+00 -0.34920558259E+02  0.34920558259E+02  0.00000000000E+00 0.  1.
         25    2    1    2    0    0 -0.18178423510E+03 -0.72672344899E+02  0.10297046120E+04  0.10555883567E+04  0.12509361690E+03 0.  0.
          5    1    3    3  502    0 -0.17442959718E+03 -0.51142886308E+02  0.10066182493E+04  0.10229071568E+04  0.41800000000E+01 0.  1.
         -5    1    3    3    0  502 -0.73546379163E+01 -0.21529458590E+02  0.23086362768E+02  0.32681199977E+02  0.41800000000E+01 0.  1.
        -11    1    1    2    0    0  0.11961345400E+03 -0.62759950704E-01  0.26081876503E+03  0.28693868771E+03  0.00000000000E+00 0.  1.
         11    1    1    2    0    0  0.62170781102E+02  0.72735104849E+02  0.24772115238E+03  0.26555860151E+03  0.00000000000E+00 0. -1.
</event>
<event>
 7    1  0.2723366E-009  0.1636481E+03  0.7561462E-02  0.1184639E+00
         -2   -1    0    0    0  501 -0.00000000000E+00  0.00000000000E+00  0.34510633380E+03  0.34510633380E+03  0.00000000000E+00 0.  1.
          2   -1    0    0  501    0  0.00000000000E+00 -0.00000000000E+00 -0.12185295012E+03  0.12185295012E+03  0.00000000000E+00 0. -1.
         25    2    1    2    0    0  0.11485575998E+03 -0.66197320794E+02  0.24395596164E+03  0.30452775783E+03  0.12509481678E+03 0.  0.
          5    1    3    3  502    0  0.96824606877E+02 -0.93085124554E+02  0.23495295564E+03  0.27066623113E+03  0.41800000000E+01 0.  1.
         -5    1    3    3    0  502  0.18031153108E+02  0.26887803760E+02  0.90030060028E+01  0.33861526701E+02  0.41800000000E+01 0.  1.
        -11    1    1    2    0    0 -0.46578589750E+02  0.78133104821E+02 -0.19897718872E+02  0.93114264795E+02  0.00000000000E+00 0. -1.
         11    1    1    2    0    0 -0.68277170234E+02 -0.11935784027E+02 -0.80485908520E+00  0.69317261297E+02  0.00000000000E+00 0.  1.
</event>
<event>
 7    1  0.2723366E-009  0.1463046E+03  0.7561462E-02  0.1205089E+00
         -2   -1    0    0    0  501 -0.00000000000E+00  0.00000000000E+00  0.35005969503E+02  0.35005969503E+02  0.00000000000E+00 0.  1.
          2   -1    0    0  501    0  0.00000000000E+00 -0.00000000000E+00 -0.78664174028E+03  0.78664174028E+03  0.00000000000E+00 0. -1.
         25    2    1    2    0    0 -0.11444868110E+03 -0.52484361905E+02 -0.39695545300E+03  0.43482706298E+03  0.12509130339E+03 0.  0.
          5    1    3    3  502    0 -0.11094013733E+03 -0.23553757629E+01 -0.17532118458E+03  0.20752891854E+03  0.41800000000E+01 0.  1.
         -5    1    3    3    0  502 -0.35085437734E+01 -0.50128986143E+02 -0.22163426842E+03  0.22729814444E+03  0.41800000000E+01 0.  1.
        -11    1    1    2    0    0  0.93489688023E+02  0.25372348516E+02 -0.33171001726E+03  0.34556564266E+03  0.00000000000E+00 0. -1.
         11    1    1    2    0    0  0.20958993082E+02  0.27112013389E+02 -0.22970300520E+02  0.41255004145E+02  0.00000000000E+00 0.  1.
</event>
<event>
 7    1  0.2723366E-009  0.1109498E+03  0.7561462E-02  0.1258821E+00
         -2   -1    0    0    0  501 -0.00000000000E+00  0.00000000000E+00  0.40657634732E+03  0.40657634732E+03  0.00000000000E+00 0.  1.
          2   -1    0    0  501    0  0.00000000000E+00 -0.00000000000E+00 -0.49150416944E+02  0.49150416944E+02  0.00000000000E+00 0. -1.
         25    2    1    2    0    0 -0.42895927035E+02  0.66746571852E+02  0.12275385855E+03  0.19238336284E+03  0.12509069949E+03 0.  0.
          5    1    3    3  502    0  0.23479109976E+02  0.63172461928E+02  0.20896272112E+02  0.70683485620E+02  0.41800000000E+01 0. -1.
         -5    1    3    3    0  502 -0.66375037011E+02  0.35741099238E+01  0.10185758644E+03  0.12169987722E+03  0.41800000000E+01 0. -1.
        -11    1    1    2    0    0  0.16911980764E+02 -0.57907766275E+02  0.22695083804E+03  0.23483187044E+03  0.00000000000E+00 0.  1.
         11    1    1    2    0    0  0.25983946271E+02 -0.88388055767E+01  0.77212337875E+01  0.28511530984E+02  0.00000000000E+00 0. -1.
</event>
<event>
 7    1  0.2723366E-009  0.1176906E+03  0.7561462E-02  0.1246956E+00
         -1   -1    0    0    0  501 -0.00000000000E+00  0.00000000000E+00  0.14358237962E+03  0.14358237962E+03  0.00000000000E+00 0.  1.
          1   -1    0    0  501    0  0.00000000000E+00 -0.00000000000E+00 -0.17691856114E+03  0.17691856114E+03  0.00000000000E+00 0. -1.
         25    2    1    2    0    0  0.21410345746E+02 -0.49748225518E+02 -0.12132273459E+03  0.18248892721E+03  0.12509881606E+03 0.  0.
          5    1    3    3  502    0 -0.35154645956E+02  0.23352157475E+02 -0.50651875473E+02  0.66062525534E+02  0.41800000000E+01 0. -1.
         -5    1    3    3    0  502  0.56564991701E+02 -0.73100382993E+02 -0.70670859117E+02  0.11642640168E+03  0.41800000000E+01 0. -1.
        -11    1    1    2    0    0 -0.47065552766E+02  0.30490692035E+01  0.64197260906E+02  0.79660224629E+02  0.00000000000E+00 0.  1.
         11    1    1    2    0    0  0.25655207020E+02  0.46699156314E+02  0.23789292166E+02  0.58351788914E+02  0.00000000000E+00 0. -1.
</event>
<event>
 7    1  0.2723366E-009  0.9682128E+02  0.7561462E-02  0.1287126E+00
          1   -1    0    0  501    0  0.00000000000E+00  0.00000000000E+00  0.26913598474E+03  0.26913598474E+03  0.00000000000E+00 0. -1.
         -1   -1    0    0    0  501 -0.00000000000E+00 -0.00000000000E+00 -0.70729186699E+02  0.70729186699E+02  0.00000000000E+00 0.  1.
         25    2    1    2    0    0 -0.11707703157E+02  0.76385779711E+02  0.14898669951E+03  0.20932323918E+03  0.12508926483E+03 0.  0.
          5    1    3    3  502    0  0.20800423159E+02  0.11658829693E+02 -0.16048110295E+02  0.29044795703E+02  0.41800000000E+01 0.  1.
         -5    1    3    3    0  502 -0.32508126316E+02  0.64726950018E+02  0.16503480980E+03  0.18027844348E+03  0.41800000000E+01 0.  1.
        -11    1    1    2    0    0  0.34666613579E+02 -0.33346194673E+02 -0.14403471041E+02  0.50211580081E+02  0.00000000000E+00 0.  1.
         11    1    1    2    0    0 -0.22958910422E+02 -0.43039585038E+02  0.63823569573E+02  0.80330352178E+02  0.00000000000E+00 0. -1.
</event>
<event>
 7    1  0.2723366E-009  0.1094353E+03  0.7561462E-02  0.1261619E+00
         -1   -1    0    0    0  501 -0.00000000000E+00  0.00000000000E+00  0.10139928915E+03  0.10139928915E+03  0.00000000000E+00 0.  1.
          1   -1    0    0  501    0  0.00000000000E+00 -0.00000000000E+00 -0.18315125107E+03  0.18315125107E+03  0.00000000000E+00 0. -1.
         25    2    1    2    0    0 -0.54428016788E+02 -0.31365345438E+02 -0.10980173336E+03  0.17790977913E+03  0.12509706213E+03 0.  0.
          5    1    3    3  502    0 -0.26161984133E+02 -0.69093185308E+02 -0.20408227472E+02  0.76761226009E+02  0.41800000000E+01 0.  1.
         -5    1    3    3    0  502 -0.28266032655E+02  0.37727839870E+02 -0.89393505885E+02  0.10114855312E+03  0.41800000000E+01 0.  1.
        -11    1    1    2    0    0  0.65664405867E+02  0.15499651891E+01  0.23824102534E+01  0.65725888876E+02  0.00000000000E+00 0. -1.
         11    1    1    2    0    0 -0.11236389079E+02  0.29815380249E+02  0.25667361181E+02  0.40914872222E+02  0.00000000000E+00 0.  1.
</event>
<event>
 7    1  0.2723366E-009  0.6927051E+02  0.7561462E-02  0.1362591E+00
         -1   -1    0    0    0  501 -0.00000000000E+00  0.00000000000E+00  0.53999505329E+03  0.53999505329E+03  0.00000000000E+00 0.  1.
          1   -1    0    0  501    0  0.00000000000E+00 -0.00000000000E+00 -0.24147850368E+02  0.24147850368E+02  0.00000000000E+00 0. -1.
         25    2    1    2    0    0  0.19630467225E+02  0.27840586525E+02  0.31649611391E+03  0.34201992052E+03  0.12508949760E+03 0.  0.
          5    1    3    3  502    0  0.34477499345E+02  0.23315405386E+02  0.22334588880E+02  0.47419535530E+02  0.41800000000E+01 0. -1.
         -5    1    3    3    0  502 -0.14847032120E+02  0.45251811386E+01  0.29416152503E+03  0.29460038499E+03  0.41800000000E+01 0. -1.
        -11    1    1    2    0    0  0.20849056221E+02  0.11819336925E+02  0.12832891196E+02  0.27185712555E+02  0.00000000000E+00 0. -1.
         11    1    1    2    0    0 -0.40479523447E+02 -0.39659923450E+02  0.18651819781E+03  0.19493727058E+03  0.00000000000E+00 0.  1.
</event>
<event>
 7    1  0.2723366E-009  0.1068938E+03  0.7561462E-02  0.1266433E+00
         -2   -1    0    0    0  501 -0.00000000000E+00  0.00000000000E+00  0.56208836359E+02  0.56208836359E+02  0.00000000000E+00 0.  1.
          2   -1    0    0  501    0  0.00000000000E+00 -0.00000000000E+00 -0.28389792309E+03  0.28389792309E+03  0.00000000000E+00 0. -1.
         25    2    1    2    0    0 -0.57275102955E+02 -0.24611587390E+02 -0.10509734588E+03  0.17486941011E+03  0.12509073039E+03 0.  0.
          5    1    3    3  502    0  0.17206143253E+02  0.35896526506E+02 -0.50310519953E+02  0.64290223197E+02  0.41800000000E+01 0. -1.
         -5    1    3    3    0  502 -0.74481246208E+02 -0.60508113895E+02 -0.54786825925E+02  0.11057918692E+03  0.41800000000E+01 0. -1.
        -11    1    1    2    0    0  0.27883021798E+02 -0.12341121423E+02  0.34073964006E+01  0.30681859995E+02  0.00000000000E+00 0.  1.
         11    1    1    2    0    0  0.29392081158E+02  0.36952708812E+02 -0.12599913725E+03  0.13455548934E+03  0.00000000000E+00 0. -1.
</event>
<event>
 7    1  0.2723366E-009  0.1485248E+03  0.7561462E-02  0.1202298E+00
         -1   -1    0    0    0  501 -0.00000000000E+00  0.00000000000E+00  0.13057483539E+03  0.13057483539E+03  0.00000000000E+00 0.  1.
          1   -1    0    0  501    0  0.00000000000E+00 -0.00000000000E+00 -0.28396635660E+03  0.28396635660E+03  0.00000000000E+00 0. -1.
         25    2    1    2    0    0  0.22317295337E+02  0.12102476261E+03 -0.18932608557E+03  0.25813955983E+03  0.12508641348E+03 0.  0.
          5    1    3    3  502    0  0.96192356786E+00  0.14276878039E+03 -0.16897251376E+03  0.22125332259E+03  0.41800000000E+01 0.  1.
         -5    1    3    3    0  502  0.21355371769E+02 -0.21744017779E+02 -0.20353571813E+02  0.36886237245E+02  0.41800000000E+01 0.  1.
        -11    1    1    2    0    0 -0.18921551648E+02 -0.76705627821E+02 -0.23277329242E+02  0.82362688839E+02  0.00000000000E+00 0. -1.
         11    1    1    2    0    0 -0.33957436891E+01 -0.44319134785E+02  0.59211893609E+02  0.74038943321E+02  0.00000000000E+00 0.  1.
</event>
<event>
 7    1  0.2723366E-009  0.1071844E+03  0.7561462E-02  0.1265875E+00
         -1   -1    0    0    0  501 -0.00000000000E+00  0.00000000000E+00  0.10882561163E+03  0.10882561163E+03  0.00000000000E+00 0.  1.
          1   -1    0    0  501    0  0.00000000000E+00 -0.00000000000E+00 -0.12656931608E+03  0.12656931608E+03  0.00000000000E+00 0. -1.
         25    2    1    2    0    0 -0.28211144470E+02 -0.32060654240E+02 -0.20616365090E+02  0.13377720807E+03  0.12509017814E+03 0.  0.
          5    1    3    3  502    0 -0.73499100253E+02 -0.64796970422E+01  0.78813385781E+01  0.74321545392E+02  0.41800000000E+01 0.  1.
         -5    1    3    3    0  502  0.45287955782E+02 -0.25580957198E+02 -0.28497703668E+02  0.59455662678E+02  0.41800000000E+01 0.  1.
        -11    1    1    2    0    0  0.40244162967E+02  0.51538872523E+02 -0.20864713593E+02  0.68638067478E+02  0.00000000000E+00 0. -1.
         11    1    1    2    0    0 -0.12033018496E+02 -0.19478218283E+02  0.23737374235E+02  0.32979652169E+02  0.00000000000E+00 0.  1.
</event>
<event>
 7    1  0.2723366E-009  0.1184379E+03  0.7561462E-02  0.1245697E+00
         -1   -1    0    0    0  501 -0.00000000000E+00  0.00000000000E+00  0.30418981824E+02  0.30418981824E+02  0.00000000000E+00 0.  1.
          1   -1    0    0  501    0  0.00000000000E+00 -0.00000000000E+00 -0.70847903185E+03  0.70847903185E+03  0.00000000000E+00 0. -1.
         25    2    1    2    0    0 -0.81035105267E+02 -0.15506735568E+02 -0.50535419036E+03  0.52710263994E+03  0.12508872126E+03 0.  0.
          5    1    3    3  502    0 -0.93959410935E+02  0.29931003181E+02 -0.39184931016E+03  0.40408859193E+03  0.41800000000E+01 0. -1.
         -5    1    3    3    0  502  0.12924305667E+02 -0.45437738748E+02 -0.11350488019E+03  0.12301404801E+03  0.41800000000E+01 0. -1.
        -11    1    1    2    0    0  0.30206603488E+02  0.24796267839E+02 -0.89654889003E+01  0.40095807564E+02  0.00000000000E+00 0.  1.
         11    1    1    2    0    0  0.50828501779E+02 -0.92895322711E+01 -0.16374037077E+03  0.17169956617E+03  0.00000000000E+00 0. -1.
</event>
<event>
 7    1  0.2723366E-009  0.8300258E+02  0.7561462E-02  0.1320740E+00
          1   -1    0    0  501    0  0.00000000000E+00  0.00000000000E+00  0.37619663784E+02  0.37619663784E+02  0.00000000000E+00 0. -1.
         -1   -1    0    0    0  501 -0.00000000000E+00 -0.00000000000E+00 -0.32543585712E+03  0.32543585712E+03  0.00000000000E+00 0.  1.
         25    2    1    2    0    0 -0.20102327579E+01 -0.14597840451E+02 -0.16327167339E+03  0.20620947522E+03  0.12509024884E+03 0.  0.
          5    1    3    3  502    0  0.20326640604E+01 -0.42878465783E+02 -0.28645886913E+01  0.43224678362E+02  0.41800000000E+01 0.  1.
         -5    1    3    3    0  502 -0.40428968184E+01  0.28280625332E+02 -0.16040708470E+03  0.16298479685E+03  0.41800000000E+01 0.  1.
        -11    1    1    2    0    0  0.44621554901E+02 -0.86654872830E+01 -0.73350917754E+02  0.86293284599E+02  0.00000000000E+00 0.  1.
         11    1    1    2    0    0 -0.42611322143E+02  0.23263327734E+02 -0.51193602195E+02  0.70552761092E+02  0.00000000000E+00 0. -1.
</event>
<event>
 7    1  0.2723366E-009  0.1112145E+03  0.7561462E-02  0.1258337E+00
         -2   -1    0    0    0  501 -0.00000000000E+00  0.00000000000E+00  0.28827363813E+02  0.28827363813E+02  0.00000000000E+00 0.  1.
          2   -1    0    0  501    0  0.00000000000E+00 -0.00000000000E+00 -0.11989953088E+04  0.11989953088E+04  0.00000000000E+00 0. -1.
         25    2    1    2    0    0 -0.81183041353E+02  0.63120432933E+02 -0.98207404578E+03  0.99533481195E+03  0.12508829374E+03 0.  0.
          5    1    3    3  502    0 -0.15258604671E+02  0.12483759913E+02 -0.72169648302E+03  0.72197780802E+03  0.41800000000E+01 0. -1.
         -5    1    3    3    0  502 -0.65924436682E+02  0.50636673020E+02 -0.26037756276E+03  0.27335700393E+03  0.41800000000E+01 0. -1.
        -11    1    1    2    0    0  0.61120941443E+02 -0.95786888368E+01 -0.15389205287E+03  0.16586224616E+03  0.00000000000E+00 0. -1.
         11    1    1    2    0    0  0.20062099910E+02 -0.53541744096E+02 -0.34201846305E+02  0.66625614476E+02  0.00000000000E+00 0.  1.
</event>
<event>
 7    1  0.2723366E-009  0.8890901E+02  0.7561462E-02  0.1305515E+00
         -1   -1    0    0    0  501 -0.00000000000E+00  0.00000000000E+00  0.40709329902E+02  0.40709329902E+02  0.00000000000E+00 0.  1.
          1   -1    0    0  501    0  0.00000000000E+00 -0.00000000000E+00 -0.34275558782E+03  0.34275558782E+03  0.00000000000E+00 0. -1.
         25    2    1    2    0    0  0.42048444562E+02 -0.20365720942E+02 -0.16440627532E+03  0.21180444593E+03  0.12509542627E+03 0.  0.
          5    1    3    3  502    0  0.34586080196E+02 -0.60401979400E+02 -0.39020148178E+02  0.79903944975E+02  0.41800000000E+01 0. -1.
         -5    1    3    3    0  502  0.74623643657E+01  0.40036258458E+02 -0.12538612714E+03  0.13190050096E+03  0.41800000000E+01 0. -1.
        -11    1    1    2    0    0 -0.87492785110E+00 -0.13689485136E+02  0.84462328808E+01  0.16109200846E+02  0.00000000000E+00 0.  1.
         11    1    1    2    0    0 -0.41173516711E+02  0.34055206077E+02 -0.14608621548E+03  0.15555127095E+03  0.00000000000E+00 0. -1.
</event>
<event>
 7    1  0.2723366E-009  0.9203550E+02  0.7561462E-02  0.1297996E+00
          2   -1    0    0  501    0  0.00000000000E+00  0.00000000000E+00  0.25338803256E+03  0.25338803256E+03  0.00000000000E+00 0.  1.
         -2   -1    0    0    0  501 -0.00000000000E+00 -0.00000000000E+00 -0.83137231662E+02  0.83137231662E+02  0.00000000000E+00 0. -1.
         25    2    1    2    0    0  0.43604903055E+02 -0.54196987492E+02  0.15999675039E+02  0.14401888017E+03  0.12508695864E+03 0.  0.
          5    1    3    3  502    0 -0.25510786810E+00  0.48597453743E+01  0.58572628006E+02  0.58922893315E+02  0.41800000000E+01 0.  1.
         -5    1    3    3    0  502  0.43860010923E+02 -0.59056732866E+02 -0.42572952967E+02  0.85095986858E+02  0.41800000000E+01 0.  1.
        -11    1    1    2    0    0  0.18317822121E+02 -0.42728159398E+01  0.70853843616E+02  0.73308026290E+02  0.00000000000E+00 0.  1.
         11    1    1    2    0    0 -0.61922725176E+02  0.58469803432E+02  0.83397282241E+02  0.11919835776E+03  0.00000000000E+00 0. -1.
</event>
<event>
 7    1  0.2723366E-009  0.7044302E+02  0.7561462E-02  0.1358593E+00
          2   -1    0    0  501    0  0.00000000000E+00  0.00000000000E+00  0.16034425062E+03  0.16034425062E+03  0.00000000000E+00 0. -1.
         -2   -1    0    0    0  501 -0.00000000000E+00 -0.00000000000E+00 -0.85027276549E+02  0.85027276549E+02  0.00000000000E+00 0.  1.
         25    2    1    2    0    0 -0.29561649285E+02 -0.19586033552E+02  0.16700831278E+02  0.13108792733E+03  0.12509045970E+03 0.  0.
          5    1    3    3  502    0 -0.20854219133E+02  0.70591668903E+01 -0.52079912672E+02  0.56696737091E+02  0.41800000000E+01 0.  1.
         -5    1    3    3    0  502 -0.87074301517E+01 -0.26645200442E+02  0.68780743950E+02  0.74391190236E+02  0.41800000000E+01 0.  1.
        -11    1    1    2    0    0  0.53317922244E+02  0.33145466482E+02  0.17990715746E+02  0.65307646059E+02  0.00000000000E+00 0.  1.
         11    1    1    2    0    0 -0.23756272959E+02 -0.13559432930E+02  0.40625427049E+02  0.48975953785E+02  0.00000000000E+00 0. -1.
</event>
<event>
 7    1  0.2723366E-009  0.1026015E+03  0.7561462E-02  0.1274919E+00
         -2   -1    0    0    0  501 -0.00000000000E+00  0.00000000000E+00  0.15651025431E+03  0.15651025431E+03  0.00000000000E+00 0. -1.
          2   -1    0    0  501    0  0.00000000000E+00 -0.00000000000E+00 -0.99184924806E+02  0.99184924806E+02  0.00000000000E+00 0.  1.
         25    2    1    2    0    0 -0.36686026493E+02  0.43230378716E+02  0.72543395049E+01  0.13753419810E+03  0.12509316537E+03 0.  0.
          5    1    3    3  502    0  0.25293540444E+02  0.60117442214E+02  0.26227347304E+02  0.70421702572E+02  0.41800000000E+01 0.  1.
         -5    1    3    3    0  502 -0.61979566937E+02 -0.16887063498E+02 -0.18973007799E+02  0.67112495530E+02  0.41800000000E+01 0.  1.
        -11    1    1    2    0    0  0.43770327059E+02 -0.14848964877E+02  0.69194926473E+02  0.83212205465E+02  0.00000000000E+00 0. -1.
         11    1    1    2    0    0 -0.70843005662E+01 -0.28381413839E+02 -0.19123936475E+02  0.34948775548E+02  0.00000000000E+00 0.  1.
</event>
<event>
 7    1  0.2723366E-009  0.1097833E+03  0.7561462E-02  0.1260972E+00
         -2   -1    0    0    0  501 -0.00000000000E+00  0.00000000000E+00  0.64384520496E+02  0.64384520496E+02  0.00000000000E+00 0.  1.
          2   -1    0    0  501    0  0.00000000000E+00 -0.00000000000E+00 -0.28142869107E+03  0.28142869107E+03  0.00000000000E+00 0. -1.
         25    2    1    2    0    0 -0.76600735903E+02 -0.11378056399E+02 -0.13771568500E+03  0.20152154209E+03  0.12509272210E+03 0.  0.
          5    1    3    3  502    0 -0.55505160701E+02  0.50153280980E+02 -0.42519022868E+02  0.86148210446E+02  0.41800000000E+01 0.  1.
         -5    1    3    3    0  502 -0.21095575202E+02 -0.61531337379E+02 -0.95196662135E+02  0.11537333164E+03  0.41800000000E+01 0.  1.
        -11    1    1    2    0    0  0.32392018393E+02 -0.40353084716E+01  0.17281613255E+02  0.36934817270E+02  0.00000000000E+00 0.  1.
         11    1    1    2    0    0  0.44208717510E+02  0.15413364871E+02 -0.96610098826E+02  0.10735685221E+03  0.00000000000E+00 0. -1.
</event>
<event>
 7    1  0.2815387E-009  0.1222161E+03  0.7561462E-02  0.1239485E+00
          1   -1    0    0  501    0  0.00000000000E+00  0.00000000000E+00  0.26502575625E+03  0.26502575625E+03  0.00000000000E+00 0. -1.
         -1   -1    0    0    0  501 -0.00000000000E+00 -0.00000000000E+00 -0.72248231858E+02  0.72248231858E+02  0.00000000000E+00 0.  1.
         25    2    1    2    0    0  0.24581859356E+02  0.80691905480E+02  0.90270193042E+02  0.17581932132E+03  0.12509306366E+03 0.  0.
          5    1    3    3  502    0 -0.48516985481E+02  0.49908992951E+02  0.55478016535E+02  0.89107172417E+02  0.41800000000E+01 0. -1.
         -5    1    3    3    0  502  0.73098844838E+02  0.30782912530E+02  0.34792176507E+02  0.86712148898E+02  0.41800000000E+01 0. -1.
        -11    1    1    2    0    0  0.61427716652E+00 -0.66213541864E+02  0.13174687800E+02  0.67514315972E+02  0.00000000000E+00 0.  1.
         11    1    1    2    0    0 -0.25196136523E+02 -0.14478363617E+02  0.89332643553E+02  0.93940350823E+02  0.00000000000E+00 0. -1.
</event>
<event>
 7    1  0.2723366E-009  0.1086185E+03  0.7561462E-02  0.1263150E+00
         -2   -1    0    0    0  501 -0.00000000000E+00  0.00000000000E+00  0.24156125719E+03  0.24156125719E+03  0.00000000000E+00 0.  1.
          2   -1    0    0  501    0  0.00000000000E+00 -0.00000000000E+00 -0.49715506228E+02  0.49715506228E+02  0.00000000000E+00 0. -1.
         25    2    1    2    0    0  0.51024008629E+01  0.29100575034E+01  0.99893721300E+02  0.16018998155E+03  0.12509025423E+03 0.  0.
          5    1    3    3  502    0  0.53850932530E+02  0.35877560118E+02  0.40375814279E+02  0.76385869328E+02  0.41800000000E+01 0. -1.
         -5    1    3    3    0  502 -0.48748531667E+02 -0.32967502615E+02  0.59517907022E+02  0.83804112218E+02  0.41800000000E+01 0. -1.
        -11    1    1    2    0    0  0.33687103350E+02 -0.30781059037E+02  0.43254388408E+02  0.62874769535E+02  0.00000000000E+00 0.  1.
         11    1    1    2    0    0 -0.38789504212E+02  0.27871001533E+02  0.48697641258E+02  0.68212012341E+02  0.00000000000E+00 0. -1.
</event>
<event>
 7    1  0.2723366E-009  0.1899813E+03  0.7561462E-02  0.1158478E+00
         -1   -1    0    0    0  501 -0.00000000000E+00  0.00000000000E+00  0.81275452147E+02  0.81275452147E+02  0.00000000000E+00 0.  1.
          1   -1    0    0  501    0  0.00000000000E+00 -0.00000000000E+00 -0.55110901873E+03  0.55110901873E+03  0.00000000000E+00 0. -1.
         25    2    1    2    0    0 -0.13011647227E+03 -0.12450661880E+03 -0.22787294735E+03  0.31623658307E+03  0.12508917562E+03 0.  0.
          5    1    3    3  502    0 -0.21407372443E+02 -0.37480633620E+01 -0.11797836206E+03  0.12003620240E+03  0.41800000000E+01 0. -1.
         -5    1    3    3    0  502 -0.10870909983E+03 -0.12075855544E+03 -0.10989458529E+03  0.19620038067E+03  0.41800000000E+01 0. -1.
        -11    1    1    2    0    0  0.58989496328E+02  0.10678383285E+03 -0.19185960369E+03  0.22736018816E+03  0.00000000000E+00 0.  1.
         11    1    1    2    0    0  0.71126975941E+02  0.17722785959E+02 -0.50101015545E+02  0.88787699640E+02  0.00000000000E+00 0. -1.
</event>
<event>
 7    1  0.2723366E-009  0.8380007E+02  0.7561462E-02  0.1318601E+00
          1   -1    0    0  501    0  0.00000000000E+00  0.00000000000E+00  0.91881432535E+03  0.91881432535E+03  0.00000000000E+00 0. -1.
         -1   -1    0    0    0  501 -0.00000000000E+00 -0.00000000000E+00 -0.16263259951E+02  0.16263259951E+02  0.00000000000E+00 0.  1.
         25    2    1    2    0    0  0.26274683932E+02  0.28016018966E+02  0.66363197932E+03  0.67640956614E+03  0.12508893180E+03 0.  0.
          5    1    3    3  502    0 -0.17864694073E+02 -0.35875035905E+01  0.11373596454E+02  0.21882608908E+02  0.41800000000E+01 0.  1.
         -5    1    3    3    0  502  0.44139378004E+02  0.31603522556E+02  0.65225838287E+03  0.65452695724E+03  0.41800000000E+01 0.  1.
        -11    1    1    2    0    0  0.31359600772E+02 -0.17369196310E+02  0.13151407281E+03  0.13631237980E+03  0.00000000000E+00 0. -1.
         11    1    1    2    0    0 -0.57634284704E+02 -0.10646822656E+02  0.10740501327E+03  0.12235563936E+03  0.00000000000E+00 0.  1.
</event>
<event>
 7    1  0.2723366E-009  0.6485017E+02  0.7561462E-02  0.1378536E+00
          1   -1    0    0  501    0  0.00000000000E+00  0.00000000000E+00  0.11922240190E+03  0.11922240190E+03  0.00000000000E+00 0. -1.
         -1   -1    0    0    0  501 -0.00000000000E+00 -0.00000000000E+00 -0.72403027328E+02  0.72403027328E+02  0.00000000000E+00 0.  1.
         25    2    1    2    0    0 -0.78887473845E+01  0.28371613802E+02  0.43660921480E+02  0.13572144908E+03  0.12508738893E+03 0.  0.
          5    1    3    3  502    0  0.12979855619E+01  0.57647569694E+02 -0.22998670815E+02  0.62220079696E+02  0.41800000000E+01 0. -1.
         -5    1    3    3    0  502 -0.91867329464E+01 -0.29275955892E+02  0.66659592296E+02  0.73501369379E+02  0.41800000000E+01 0. -1.
        -11    1    1    2    0    0  0.17938114382E+02 -0.11580934618E+02 -0.17383624702E+02  0.27533332563E+02  0.00000000000E+00 0.  1.
         11    1    1    2    0    0 -0.10049366998E+02 -0.16790679184E+02  0.20542077791E+02  0.28370647587E+02  0.00000000000E+00 0. -1.
</event>
<event>
 7    1  0.2723366E-009  0.1214327E+03  0.7561462E-02  0.1240752E+00
          1   -1    0    0  501    0  0.00000000000E+00  0.00000000000E+00  0.26969228612E+03  0.26969228612E+03  0.00000000000E+00 0. -1.
         -1   -1    0    0    0  501 -0.00000000000E+00 -0.00000000000E+00 -0.73611456650E+02  0.73611456650E+02  0.00000000000E+00 0.  1.
         25    2    1    2    0    0 -0.28137239610E+02  0.64874074549E+02  0.17474916901E+03  0.22624219097E+03  0.12509159486E+03 0.  0.
          5    1    3    3  502    0 -0.76541200018E+02  0.24353261645E+02  0.97682652465E+02  0.12653461837E+03  0.41800000000E+01 0.  1.
         -5    1    3    3    0  502  0.48403960409E+02  0.40520812904E+02  0.77066516546E+02  0.99707572602E+02  0.41800000000E+01 0.  1.
        -11    1    1    2    0    0 -0.11455948852E+02  0.95207900235E+01  0.28833273278E+02  0.32453687845E+02  0.00000000000E+00 0. -1.
         11    1    1    2    0    0  0.39593188462E+02 -0.74394864573E+02 -0.75016128241E+01  0.84607863951E+02  0.00000000000E+00 0.  1.
</event>
<event>
 7    1  0.2723366E-009  0.1247116E+03  0.7561462E-02  0.1235521E+00
         -1   -1    0    0    0  501 -0.00000000000E+00  0.00000000000E+00  0.79925363902E+02  0.79925363902E+02  0.00000000000E+00 0.  1.
          1   -1    0    0  501    0  0.00000000000E+00 -0.00000000000E+00 -0.21408292250E+03  0.21408292250E+03  0.00000000000E+00 0. -1.
         25    2    1    2    0    0  0.66396505077E+00  0.67863362245E+02 -0.49657045859E+02  0.15072563906E+03  0.12508604751E+03 0.  0.
          5    1    3    3  502    0  0.60590765877E+02  0.50880902218E+02 -0.34907668551E+02  0.86580164263E+02  0.41800000000E+01 0.  1.
         -5    1    3    3    0  502 -0.59926800827E+02  0.16982460027E+02 -0.14749377308E+02  0.64145474796E+02  0.41800000000E+01 0.  1.
        -11    1    1    2    0    0 -0.35134239629E+02 -0.42202980172E+01 -0.54395387518E+02  0.64892864730E+02  0.00000000000E+00 0. -1.
         11    1    1    2    0    0  0.34470274578E+02 -0.63643064227E+02 -0.30105125225E+02  0.78389782616E+02  0.00000000000E+00 0.  1.
</event>
<event>
 7    1  0.2723366E-009  0.9655525E+02  0.7561462E-02  0.1287711E+00
          2   -1    0    0  501    0  0.00000000000E+00  0.00000000000E+00  0.47755832340E+03  0.47755832340E+03  0.00000000000E+00 0. -1.
         -2   -1    0    0    0  501 -0.00000000000E+00 -0.00000000000E+00 -0.27215872846E+02  0.27215872846E+02  0.00000000000E+00 0.  1.
         25    2    1    2    0    0  0.12745431269E+02 -0.17438366817E+02  0.32270553167E+03  0.34677531623E+03  0.12509083547E+03 0.  0.
          5    1    3    3  502    0  0.57955676383E+02 -0.16006206055E+02  0.81696219084E+02  0.10152242939E+03  0.41800000000E+01 0. -1.
         -5    1    3    3    0  502 -0.45210245114E+02 -0.14321607616E+01  0.24100931258E+03  0.24525288683E+03  0.41800000000E+01 0. -1.
        -11    1    1    2    0    0  0.18583400795E+02 -0.27161760982E+02  0.76426896108E+02  0.83211624750E+02  0.00000000000E+00 0. -1.
         11    1    1    2    0    0 -0.31328832064E+02  0.44600127799E+02  0.51210022781E+02  0.74787255274E+02  0.00000000000E+00 0.  1.
</event>
<event>
 7    1  0.2723366E-009  0.1207532E+03  0.7561462E-02  0.1241860E+00
         -1   -1    0    0    0  501 -0.00000000000E+00  0.00000000000E+00  0.12451945367E+03  0.12451945367E+03  0.00000000000E+00 0.  1.
          1   -1    0    0  501    0  0.00000000000E+00 -0.00000000000E+00 -0.12321108900E+03  0.12321108900E+03  0.00000000000E+00 0. -1.
         25    2    1    2    0    0  0.33798307510E+02  0.50025904356E+02 -0.74814407364E+00  0.13889784709E+03  0.12508851071E+03 0.  0.
          5    1    3    3  502    0  0.36113203660E+02 -0.35111341315E+02  0.13806648719E+02  0.52393374737E+02  0.41800000000E+01 0. -1.
         -5    1    3    3    0  502 -0.23148961503E+01  0.85137245671E+02 -0.14554792793E+02  0.86504472357E+02  0.41800000000E+01 0. -1.
        -11    1    1    2    0    0 -0.56359140312E+02 -0.58835576324E+02 -0.94472405140E+01  0.82019681123E+02  0.00000000000E+00 0.  1.
         11    1    1    2    0    0  0.22560832803E+02  0.88096719688E+01  0.11503749262E+02  0.26813014452E+02  0.00000000000E+00 0. -1.
</event>
<event>
 7    1  0.2723366E-009  0.8439206E+02  0.7561462E-02  0.1317030E+00
          2   -1    0    0  501    0  0.00000000000E+00  0.00000000000E+00  0.14837548888E+03  0.14837548888E+03  0.00000000000E+00 0. -1.
         -2   -1    0    0    0  501 -0.00000000000E+00 -0.00000000000E+00 -0.81292775023E+02  0.81292775023E+02  0.00000000000E+00 0.  1.
         25    2    1    2    0    0  0.12286415678E+02  0.16219386410E+02  0.28715793960E+02  0.12993883212E+03  0.12508188824E+03 0.  0.
          5    1    3    3  502    0  0.72335755588E+01 -0.43996814109E+02 -0.22953551993E+02  0.50322780291E+02  0.41800000000E+01 0.  1.
         -5    1    3    3    0  502  0.50528401195E+01  0.60216200519E+02  0.51669345953E+02  0.79616051833E+02  0.41800000000E+01 0.  1.
        -11    1    1    2    0    0 -0.21952122242E+02 -0.35569984615E+02 -0.13180675093E+02  0.43827499043E+02  0.00000000000E+00 0.  1.
         11    1    1    2    0    0  0.96657065634E+01  0.19350598206E+02  0.51547594987E+02  0.55901932732E+02  0.00000000000E+00 0. -1.
</event>
<event>
 7    1  0.2723366E-009  0.7496672E+02  0.7561462E-02  0.1343974E+00
          2   -1    0    0  501    0  0.00000000000E+00  0.00000000000E+00  0.77950177913E+03  0.77950177913E+03  0.00000000000E+00 0. -1.
         -2   -1    0    0    0  501 -0.00000000000E+00 -0.00000000000E+00 -0.16370123458E+02  0.16370123458E+02  0.00000000000E+00 0.  1.
         25    2    1    2    0    0  0.13227517913E+02 -0.94143428677E+01  0.34178893305E+03  0.36432179352E+03  0.12508835836E+03 0.  0.
          5    1    3    3  502    0 -0.82414077678E+00  0.21873466908E+02  0.15558718630E+01  0.22338775701E+02  0.41800000000E+01 0. -1.
         -5    1    3    3    0  502  0.14051658690E+02 -0.31287809775E+02  0.34023306119E+03  0.34198301782E+03  0.41800000000E+01 0. -1.
        -11    1    1    2    0    0  0.29459444477E+02 -0.24706881295E+02  0.18836052861E+03  0.19224457753E+03  0.00000000000E+00 0.  1.
         11    1    1    2    0    0 -0.42686962390E+02  0.34121224163E+02  0.23298219401E+03  0.23930553153E+03  0.00000000000E+00 0. -1.
</event>
<event>
 7    1  0.2723366E-009  0.1335985E+03  0.7561462E-02  0.1222212E+00
         -2   -1    0    0    0  501 -0.00000000000E+00  0.00000000000E+00  0.96503866631E+02  0.96503866631E+02  0.00000000000E+00 0.  1.
          2   -1    0    0  501    0  0.00000000000E+00 -0.00000000000E+00 -0.21148085614E+03  0.21148085614E+03  0.00000000000E+00 0. -1.
         25    2    1    2    0    0 -0.69494635983E+02  0.61143273275E+02 -0.57826682932E+02  0.16601021155E+03  0.12508981087E+03 0.  0.
          5    1    3    3  502    0  0.17224091182E+02  0.52112595432E+02  0.93921362876E+01  0.55839739825E+02  0.41800000000E+01 0. -1.
         -5    1    3    3    0  502 -0.86718727165E+02  0.90306778428E+01 -0.67218819220E+02  0.11017047173E+03  0.41800000000E+01 0. -1.
        -11    1    1    2    0    0  0.37485346043E+02  0.16444489775E+02 -0.38072191768E+02  0.55902273638E+02  0.00000000000E+00 0. -1.
         11    1    1    2    0    0  0.32009289940E+02 -0.77587763049E+02 -0.19078114808E+02  0.86072237580E+02  0.00000000000E+00 0.  1.
</event>
<event>
 7    1  0.2723366E-009  0.1920819E+03  0.7561462E-02  0.1156597E+00
         -2   -1    0    0    0  501 -0.00000000000E+00  0.00000000000E+00  0.33848605638E+03  0.33848605638E+03  0.00000000000E+00 0.  1.
          2   -1    0    0  501    0  0.00000000000E+00 -0.00000000000E+00 -0.12175892035E+03  0.12175892035E+03  0.00000000000E+00 0. -1.
         25    2    1    2    0    0  0.14097297133E+03  0.93975058861E+02  0.13421579816E+03  0.24973360579E+03  0.12509317747E+03 0.  0.
          5    1    3    3  502    0  0.11214396936E+03  0.12104589486E+03  0.82604470775E+02  0.18457884364E+03  0.41800000000E+01 0. -1.
         -5    1    3    3    0  502  0.28829001973E+02 -0.27070836001E+02  0.51611327385E+02  0.65154762152E+02  0.41800000000E+01 0. -1.
        -11    1    1    2    0    0 -0.24322682532E+02  0.67198522899E+01  0.45500596489E+02  0.52029353073E+02  0.00000000000E+00 0.  1.
         11    1    1    2    0    0 -0.11665028880E+03 -0.10069491115E+03  0.37010741382E+02  0.15848201787E+03  0.00000000000E+00 0. -1.
</event>
<event>
 7    1  0.2723366E-009  0.1117229E+03  0.7561462E-02  0.1257412E+00
         -2   -1    0    0    0  501 -0.00000000000E+00  0.00000000000E+00  0.51595296606E+03  0.51595296606E+03  0.00000000000E+00 0.  1.
          2   -1    0    0  501    0  0.00000000000E+00 -0.00000000000E+00 -0.42801397350E+02  0.42801397350E+02  0.00000000000E+00 0. -1.
         25    2    1    2    0    0 -0.88010106176E+02 -0.41691441586E+02  0.20403190179E+03  0.25838128973E+03  0.12509164178E+03 0.  0.
          5    1    3    3  502    0 -0.83671957057E+02 -0.57004599358E+02  0.21562772750E+03  0.23825051944E+03  0.41800000000E+01 0.  1.
         -5    1    3    3    0  502 -0.43381491189E+01  0.15313157772E+02 -0.11595825707E+02  0.20130770292E+02  0.41800000000E+01 0.  1.
        -11    1    1    2    0    0  0.48763622819E+02  0.44893759588E+02  0.24586356740E+03  0.25464138378E+03  0.00000000000E+00 0.  1.
         11    1    1    2    0    0  0.39246483357E+02 -0.32023180024E+01  0.23256099526E+02  0.45731689906E+02  0.00000000000E+00 0. -1.
</event>
<event>
 7    1  0.2757293E-009  0.1671536E+03  0.7561462E-02  0.1180849E+00
         -2   -1    0    0    0  501 -0.00000000000E+00  0.00000000000E+00  0.16935357669E+02  0.16935357669E+02  0.00000000000E+00 0.  1.
          2   -1    0    0  501    0  0.00000000000E+00 -0.00000000000E+00 -0.18150983770E+04  0.18150983770E+04  0.00000000000E+00 0. -1.
         25    2    1    2    0    0 -0.11867329075E+03  0.64838629195E+02 -0.10763154092E+04  0.10919662699E+04  0.12509227291E+03 0.  0.
          5    1    3    3  502    0 -0.98179160357E+02  0.98137750649E+02 -0.93591362894E+03  0.94616169805E+03  0.41800000000E+01 0.  1.
         -5    1    3    3    0  502 -0.20494130392E+02 -0.33299121455E+02 -0.14040178026E+03  0.14580457185E+03  0.41800000000E+01 0.  1.
        -11    1    1    2    0    0  0.41979664261E+01 -0.38382467147E+02 -0.99555021520E+02  0.10678033066E+03  0.00000000000E+00 0.  1.
         11    1    1    2    0    0  0.11447532432E+03 -0.26456162048E+02 -0.62229258864E+03  0.63328713414E+03  0.00000000000E+00 0. -1.
</event>
<event>
 7    1  0.2723366E-009  0.9160568E+02  0.7561462E-02  0.1299009E+00
          3   -1    0    0  501    0  0.00000000000E+00  0.00000000000E+00  0.12631891160E+03  0.12631891160E+03  0.00000000000E+00 0. -1.
         -3   -1    0    0    0  501 -0.00000000000E+00 -0.00000000000E+00 -0.10449142704E+03  0.10449142704E+03  0.00000000000E+00 0.  1.
         25    2    1    2    0    0  0.12213716266E+02  0.24786924285E+02  0.43434289550E+02  0.13526943424E+03  0.12509083041E+03 0.  0.
          5    1    3    3  502    0 -0.42520708618E+02 -0.93355275160E+01 -0.16866529392E+02  0.46873392764E+02  0.41800000000E+01 0. -1.
         -5    1    3    3    0  502  0.54734424885E+02  0.34122451801E+02  0.60300818942E+02  0.88396041481E+02  0.41800000000E+01 0. -1.
        -11    1    1    2    0    0 -0.25280994504E+02 -0.44507118775E+02 -0.40495932732E+02  0.65268161247E+02  0.00000000000E+00 0.  1.
         11    1    1    2    0    0  0.13067278238E+02  0.19720194489E+02  0.18889127733E+02  0.30272743149E+02  0.00000000000E+00 0. -1.
</event>
<event>
 7    1  0.2723366E-009  0.2397765E+03  0.7561462E-02  0.1119942E+00
          2   -1    0    0  501    0  0.00000000000E+00  0.00000000000E+00  0.19478543214E+04  0.19478543214E+04  0.00000000000E+00 0. -1.
         -2   -1    0    0    0  501 -0.00000000000E+00 -0.00000000000E+00 -0.33819224996E+02  0.33819224996E+02  0.00000000000E+00 0.  1.
         25    2    1    2    0    0 -0.19155270638E+03 -0.12991306865E+03  0.10665994360E+04  0.10985684476E+04  0.12509369495E+03 0.  0.
          5    1    3    3  502    0 -0.16057262613E+02 -0.46003263830E+02  0.43338343084E+03  0.43613393183E+03  0.41800000000E+01 0.  1.
         -5    1    3    3    0  502 -0.17549544377E+03 -0.83909804820E+02  0.63321600511E+03  0.66243451575E+03  0.41800000000E+01 0.  1.
        -11    1    1    2    0    0  0.44011864913E+02  0.80993493931E+01  0.75089271932E+02  0.87413056651E+02  0.00000000000E+00 0.  1.
         11    1    1    2    0    0  0.14754084147E+03  0.12181371926E+03  0.77234638848E+03  0.79569204212E+03  0.00000000000E+00 0. -1.
</event>
<event>
 7    1  0.2723366E-009  0.1304908E+03  0.7561462E-02  0.1226729E+00
          1   -1    0    0  501    0  0.00000000000E+00  0.00000000000E+00  0.92993420278E+02  0.92993420278E+02  0.00000000000E+00 0. -1.
         -1   -1    0    0    0  501 -0.00000000000E+00 -0.00000000000E+00 -0.26591124630E+03  0.26591124630E+03  0.00000000000E+00 0.  1.
         25    2    1    2    0    0  0.25710788123E+02  0.81463604755E+02 -0.73295032505E+01  0.15165528293E+03  0.12509292425E+03 0.  0.
          5    1    3    3  502    0 -0.43778476736E+02  0.15994185763E+02 -0.27087626184E+02  0.54070147918E+02  0.41800000000E+01 0. -1.
         -5    1    3    3    0  502  0.69489264859E+02  0.65469418992E+02  0.19758122934E+02  0.97585135014E+02  0.41800000000E+01 0. -1.
        -11    1    1    2    0    0 -0.54115024567E+02 -0.35935800101E+02 -0.12159506328E+03  0.13785926529E+03  0.00000000000E+00 0. -1.
         11    1    1    2    0    0  0.28404236444E+02 -0.45527804654E+02 -0.43993259493E+02  0.69390118356E+02  0.00000000000E+00 0.  1.
</event>
<event>
 7    1  0.2723366E-009  0.9412289E+02  0.7561462E-02  0.1293164E+00
         -2   -1    0    0    0  501 -0.00000000000E+00  0.00000000000E+00  0.72729663141E+02  0.72729663141E+02  0.00000000000E+00 0.  1.
          2   -1    0    0  501    0  0.00000000000E+00 -0.00000000000E+00 -0.17475116832E+03  0.17475116832E+03  0.00000000000E+00 0. -1.
         25    2    1    2    0    0  0.34443442600E+01 -0.26374195949E+02 -0.76022555458E+02  0.14877446139E+03  0.12508776800E+03 0.  0.
          5    1    3    3  502    0 -0.41827028395E+02 -0.22305730673E+01  0.14597826876E+02  0.44553840576E+02  0.41800000000E+01 0. -1.
         -5    1    3    3    0  502  0.45271372655E+02 -0.24143622882E+02 -0.90620382334E+02  0.10422062081E+03  0.41800000000E+01 0. -1.
        -11    1    1    2    0    0 -0.43918228732E+02 -0.39574079309E+01 -0.68515568445E+01  0.44625281217E+02  0.00000000000E+00 0.  1.
         11    1    1    2    0    0  0.40473884472E+02  0.30331603880E+02 -0.19147392877E+02  0.54081088859E+02  0.00000000000E+00 0. -1.
</event>
<event>
 7    1  0.2723366E-009  0.1812163E+03  0.7561462E-02  0.1166631E+00
          1   -1    0    0  501    0  0.00000000000E+00  0.00000000000E+00  0.76841601658E+03  0.76841601658E+03  0.00000000000E+00 0. -1.
         -1   -1    0    0    0  501 -0.00000000000E+00 -0.00000000000E+00 -0.43624291916E+02  0.43624291916E+02  0.00000000000E+00 0.  1.
         25    2    1    2    0    0  0.14379895307E+03  0.34225834189E+02  0.34560738460E+03  0.39615608545E+03  0.12508250525E+03 0.  0.
          5    1    3    3  502    0  0.54292206668E+02 -0.47570576695E+02  0.13068945644E+03  0.14935799241E+03  0.41800000000E+01 0. -1.
         -5    1    3    3    0  502  0.89506746402E+02  0.81796410884E+02  0.21491792816E+03  0.24679809304E+03  0.41800000000E+01 0. -1.
        -11    1    1    2    0    0 -0.53504655638E+01 -0.29807610396E+02  0.46239835996E+02  0.55274257591E+02  0.00000000000E+00 0.  1.
         11    1    1    2    0    0 -0.13844848751E+03 -0.44182237933E+01  0.33294450407E+03  0.36060996545E+03  0.00000000000E+00 0. -1.
</event>
<event>
 7    1  0.2723366E-009  0.1309598E+03  0.7561462E-02  0.1226038E+00
         -2   -1    0    0    0  501 -0.00000000000E+00  0.00000000000E+00  0.39690135174E+02  0.39690135174E+02  0.00000000000E+00 0.  1.
          2   -1    0    0  501    0  0.00000000000E+00 -0.00000000000E+00 -0.75755420498E+03  0.75755420498E+03  0.00000000000E+00 0. -1.
         25    2    1    2    0    0  0.10101704394E+03  0.58038563244E+02 -0.22369746413E+03  0.28153777493E+03  0.12510014095E+03 0.  0.
          5    1    3    3  502    0  0.74937464716E+02  0.40013198742E+02 -0.23316093442E+03  0.24818979317E+03  0.41800000000E+01 0. -1.
         -5    1    3    3    0  502  0.26079579220E+02  0.18025364502E+02  0.94634702921E+01  0.33347981763E+02  0.41800000000E+01 0. -1.
        -11    1    1    2    0    0 -0.10563815484E+03 -0.21178482786E+02 -0.32094577288E+03  0.33854709720E+03  0.00000000000E+00 0.  1.
         11    1    1    2    0    0  0.46211109024E+01 -0.36860080457E+02 -0.17322083279E+03  0.17715946802E+03  0.00000000000E+00 0. -1.
</event>
<event>
 7    1  0.2723366E-009  0.7425159E+02  0.7561462E-02  0.1346204E+00
         -2   -1    0    0    0  501 -0.00000000000E+00  0.00000000000E+00  0.78213819053E+02  0.78213819053E+02  0.00000000000E+00 0. -1.
          2   -1    0    0  501    0  0.00000000000E+00 -0.00000000000E+00 -0.28986908468E+03  0.28986908468E+03  0.00000000000E+00 0.  1.
         25    2    1    2    0    0  0.58898195811E+01 -0.44269693707E+02 -0.22826287068E+03  0.26409187388E+03  0.12508430742E+03 0.  0.
          5    1    3    3  502    0 -0.32499790209E+02 -0.53712944166E+02 -0.47038374334E+02  0.78558244600E+02  0.41800000000E+01 0. -1.
         -5    1    3    3    0  502  0.38389609790E+02  0.94432504590E+01 -0.18122449634E+03  0.18553362928E+03  0.41800000000E+01 0. -1.
        -11    1    1    2    0    0  0.29369867234E+01  0.13706226560E+02 -0.38160737620E+02  0.40653762843E+02  0.00000000000E+00 0.  1.
         11    1    1    2    0    0 -0.88268063045E+01  0.30563467147E+02  0.54768342670E+02  0.63337267011E+02  0.00000000000E+00 0. -1.
</event>
<event>
 7    1  0.2723366E-009  0.1083283E+03  0.7561462E-02  0.1263697E+00
         -2   -1    0    0    0  501 -0.00000000000E+00  0.00000000000E+00  0.10061572250E+02  0.10061572250E+02  0.00000000000E+00 0.  1.
          2   -1    0    0  501    0  0.00000000000E+00 -0.00000000000E+00 -0.12397257068E+04  0.12397257068E+04  0.00000000000E+00 0. -1.
         25    2    1    2    0    0 -0.16893318934E+02 -0.34344763539E+02 -0.87025404872E+03  0.88003133632E+03  0.12509235222E+03 0.  0.
          5    1    3    3  502    0 -0.45684214033E+01  0.47519097841E+02 -0.32215935120E+03  0.32570393780E+03  0.41800000000E+01 0. -1.
         -5    1    3    3    0  502 -0.12324897531E+02 -0.81863861380E+02 -0.54809469752E+03  0.55432739852E+03  0.41800000000E+01 0. -1.
        -11    1    1    2    0    0  0.77576164640E+01 -0.24806527368E+02 -0.84554611435E+02  0.88459181141E+02  0.00000000000E+00 0. -1.
         11    1    1    2    0    0  0.91357024700E+01  0.59151290907E+02 -0.27485547441E+03  0.28129676160E+03  0.00000000000E+00 0.  1.
</event>
<event>
 7    1  0.2723366E-009  0.1698521E+03  0.7561462E-02  0.1178002E+00
          1   -1    0    0  501    0  0.00000000000E+00  0.00000000000E+00  0.97185011034E+03  0.97185011034E+03  0.00000000000E+00 0. -1.
         -1   -1    0    0    0  501 -0.00000000000E+00 -0.00000000000E+00 -0.45039479911E+02  0.45039479911E+02  0.00000000000E+00 0.  1.
         25    2    1    2    0    0  0.13513057024E+03 -0.63713942959E+02  0.24666142788E+03  0.31433859020E+03  0.12508857561E+03 0.  0.
          5    1    3    3  502    0 -0.72235777553E+01  0.69722483273E+01 -0.84269412846E+01  0.13757836376E+02  0.41800000000E+01 0. -1.
         -5    1    3    3    0  502  0.14235414799E+03 -0.70686191287E+02  0.25508836916E+03  0.30058075383E+03  0.41800000000E+01 0. -1.
        -11    1    1    2    0    0 -0.11080046113E+03  0.10466457787E+02  0.35054402595E+03  0.36778717086E+03  0.00000000000E+00 0. -1.
         11    1    1    2    0    0 -0.24330109113E+02  0.53247485172E+02  0.32960517660E+03  0.33476382918E+03  0.00000000000E+00 0.  1.
</event>
<event>
 7    1  0.2723366E-009  0.1376040E+03  0.7561462E-02  0.1216590E+00
          1   -1    0    0  501    0  0.00000000000E+00  0.00000000000E+00  0.78842414039E+02  0.78842414039E+02  0.00000000000E+00 0. -1.
         -1   -1    0    0    0  501 -0.00000000000E+00 -0.00000000000E+00 -0.36321897015E+03  0.36321897015E+03  0.00000000000E+00 0.  1.
         25    2    1    2    0    0  0.82647562212E+02  0.75513497010E+02 -0.24008094921E+03  0.29294542964E+03  0.12508099297E+03 0.  0.
          5    1    3    3  502    0  0.77954051263E+02 -0.89192888478E+01 -0.81686865284E+02  0.11334286119E+03  0.41800000000E+01 0.  1.
         -5    1    3    3    0  502  0.46935109488E+01  0.84432785858E+02 -0.15839408393E+03  0.17960256846E+03  0.41800000000E+01 0.  1.
        -11    1    1    2    0    0 -0.34993018730E+02 -0.33289579694E+02 -0.66056711941E+02  0.81830291876E+02  0.00000000000E+00 0.  1.
         11    1    1    2    0    0 -0.47654543483E+02 -0.42223917316E+02  0.21761105044E+02  0.67285662669E+02  0.00000000000E+00 0. -1.
</event>
<event>
 7    1  0.2723366E-009  0.1897102E+03  0.7561462E-02  0.1158723E+00
         -2   -1    0    0    0  501 -0.00000000000E+00  0.00000000000E+00  0.35329030428E+02  0.35329030428E+02  0.00000000000E+00 0.  1.
          2   -1    0    0  501    0  0.00000000000E+00 -0.00000000000E+00 -0.13722363154E+04  0.13722363154E+04  0.00000000000E+00 0. -1.
         25    2    1    2    0    0  0.14498004237E+03  0.12106764027E+03 -0.61243208209E+03  0.65299064962E+03  0.12508855708E+03 0.  0.
          5    1    3    3  502    0  0.38374022831E+02  0.20959636031E+02 -0.34820398037E+03  0.35096346864E+03  0.41800000000E+01 0.  1.
         -5    1    3    3    0  502  0.10660601954E+03  0.10010800424E+03 -0.26422810171E+03  0.30202718098E+03  0.41800000000E+01 0.  1.
        -11    1    1    2    0    0 -0.40562529207E+02 -0.27665415131E+02 -0.71468889377E+02  0.86709262013E+02  0.00000000000E+00 0.  1.
         11    1    1    2    0    0 -0.10441751316E+03 -0.93402225141E+02 -0.65300631352E+03  0.66786543421E+03  0.00000000000E+00 0. -1.
</event>
<event>
 7    1  0.2723366E-009  0.1104075E+03  0.7561462E-02  0.1259817E+00
          1   -1    0    0  501    0  0.00000000000E+00  0.00000000000E+00  0.19343566637E+02  0.19343566637E+02  0.00000000000E+00 0. -1.
         -1   -1    0    0    0  501 -0.00000000000E+00 -0.00000000000E+00 -0.14253353430E+04  0.14253353430E+04  0.00000000000E+00 0.  1.
         25    2    1    2    0    0 -0.51915679298E+01 -0.46227118984E+02 -0.12593485317E+04  0.12664004459E+04  0.12508983316E+03 0.  0.
          5    1    3    3  502    0  0.15544823049E+02  0.33592938902E+02 -0.17543978058E+03  0.17935081845E+03  0.41800000000E+01 0.  1.
         -5    1    3    3    0  502 -0.20736390979E+02 -0.79820057886E+02 -0.10839087511E+04  0.10870496275E+04  0.41800000000E+01 0.  1.
        -11    1    1    2    0    0 -0.42139703884E+02  0.17551214329E+02 -0.58502999065E+02  0.74205125615E+02  0.00000000000E+00 0. -1.
         11    1    1    2    0    0  0.47331271814E+02  0.28675904655E+02 -0.88140245628E+02  0.10407333808E+03  0.00000000000E+00 0.  1.
</event>
<event>
 7    1  0.2723366E-009  0.1228322E+03  0.7561462E-02  0.1238497E+00
          2   -1    0    0  501    0  0.00000000000E+00  0.00000000000E+00  0.38624612022E+03  0.38624612022E+03  0.00000000000E+00 0. -1.
         -2   -1    0    0    0  501 -0.00000000000E+00 -0.00000000000E+00 -0.48251506982E+02  0.48251506982E+02  0.00000000000E+00 0.  1.
         25    2    1    2    0    0  0.51690003220E+01 -0.67763966257E+02  0.27198353141E+03  0.30698800467E+03  0.12509164628E+03 0.  0.
          5    1    3    3  502    0  0.64859478360E+02 -0.36543741455E+02  0.13268768739E+03  0.15220279813E+03  0.41800000000E+01 0. -1.
         -5    1    3    3    0  502 -0.59690478038E+02 -0.31220224802E+02  0.13929584402E+03  0.15478520655E+03  0.41800000000E+01 0. -1.
        -11    1    1    2    0    0  0.26963468573E+01  0.84801340105E+02  0.67873114565E+02  0.10865218475E+03  0.00000000000E+00 0. -1.
         11    1    1    2    0    0 -0.78653471793E+01 -0.17037373848E+02 -0.18620327304E+01  0.18857437784E+02  0.00000000000E+00 0.  1.
</event>
<event>
 7    1  0.2723366E-009  0.7980841E+02  0.7561462E-02  0.1329596E+00
          2   -1    0    0  501    0  0.00000000000E+00  0.00000000000E+00  0.12759422775E+03  0.12759422775E+03  0.00000000000E+00 0.  1.
         -2   -1    0    0    0  501 -0.00000000000E+00 -0.00000000000E+00 -0.10005622448E+03  0.10005622448E+03  0.00000000000E+00 0. -1.
         25    2    1    2    0    0 -0.30130933569E+02 -0.27163082079E+01  0.24139826557E+02  0.13094161860E+03  0.12509086604E+03 0.  0.
          5    1    3    3  502    0 -0.45584695725E+01  0.40450379650E+02  0.57478935549E+02  0.70557163282E+02  0.41800000000E+01 0.  1.
         -5    1    3    3    0  502 -0.25572463997E+02 -0.43166687857E+02 -0.33339108992E+02  0.60384455316E+02  0.41800000000E+01 0.  1.
        -11    1    1    2    0    0  0.39441415962E+02  0.23263850954E+02  0.35173004973E+02  0.57740560554E+02  0.00000000000E+00 0.  1.
         11    1    1    2    0    0 -0.93104823925E+01 -0.20547542746E+02 -0.31774828264E+02  0.38968273075E+02  0.00000000000E+00 0. -1.
</event>
<event>
 7    1  0.2723366E-009  0.1301402E+03  0.7561462E-02  0.1227248E+00
          1   -1    0    0  501    0  0.00000000000E+00  0.00000000000E+00  0.71016365646E+03  0.71016365646E+03  0.00000000000E+00 0. -1.
         -1   -1    0    0    0  501 -0.00000000000E+00 -0.00000000000E+00 -0.26686388653E+02  0.26686388653E+02  0.00000000000E+00 0.  1.
         25    2    1    2    0    0  0.67848454555E+02 -0.53760536452E+02  0.34499851443E+03  0.37704766469E+03  0.12508940172E+03 0.  0.
          5    1    3    3  502    0  0.38843024502E+01  0.31283331709E+02  0.16390698203E+03  0.16696318698E+03  0.41800000000E+01 0.  1.
         -5    1    3    3    0  502  0.63964152105E+02 -0.85043868161E+02  0.18109153240E+03  0.21008447771E+03  0.41800000000E+01 0.  1.
        -11    1    1    2    0    0 -0.26153829021E+02 -0.22872114607E+02  0.10055277797E+03  0.10638617183E+03  0.00000000000E+00 0. -1.
         11    1    1    2    0    0 -0.41694625534E+02  0.76632651059E+02  0.23792597541E+03  0.25341620860E+03  0.00000000000E+00 0.  1.
</event>
<event>
 7    1  0.2723366E-009  0.1320318E+03  0.7561462E-02  0.1224472E+00
          2   -1    0    0  501    0  0.00000000000E+00  0.00000000000E+00  0.20966925595E+03  0.20966925595E+03  0.00000000000E+00 0. -1.
         -2   -1    0    0    0  501 -0.00000000000E+00 -0.00000000000E+00 -0.87713571250E+02  0.87713571250E+02  0.00000000000E+00 0.  1.
         25    2    1    2    0    0  0.15318554429E+02  0.78298245203E+02  0.45559018870E+02  0.15520733613E+03  0.12509364363E+03 0.  0.
          5    1    3    3  502    0 -0.22368827743E+02 -0.27570267405E+02  0.14170461144E+02  0.38454628699E+02  0.41800000000E+01 0.  1.
         -5    1    3    3    0  502  0.37687382172E+02  0.10586851261E+03  0.31388557726E+02  0.11675270743E+03  0.41800000000E+01 0.  1.
        -11    1    1    2    0    0 -0.29800362151E+02 -0.91521060691E+02  0.47709404671E+02  0.10742603701E+03  0.00000000000E+00 0.  1.
         11    1    1    2    0    0  0.14481807722E+02  0.13222815488E+02  0.28687261162E+02  0.34749454058E+02  0.00000000000E+00 0. -1.
</event>
<event>
 7    1  0.2723366E-009  0.8688175E+02  0.7561462E-02  0.1310584E+00
          1   -1    0    0  501    0  0.00000000000E+00  0.00000000000E+00  0.16625635269E+03  0.16625635269E+03  0.00000000000E+00 0. -1.
         -1   -1    0    0    0  501 -0.00000000000E+00 -0.00000000000E+00 -0.89237443682E+02  0.89237443682E+02  0.00000000000E+00 0.  1.
         25    2    1    2    0    0 -0.18336592466E+02  0.15657560302E+02 -0.10843310004E+02  0.12785334565E+03  0.12509001081E+03 0.  0.
          5    1    3    3  502    0  0.53279135061E+02  0.10795446631E+02  0.31054004320E+01  0.54610656585E+02  0.41800000000E+01 0. -1.
         -5    1    3    3    0  502 -0.71615727527E+02  0.48621136703E+01 -0.13948710436E+02  0.73242689064E+02  0.41800000000E+01 0. -1.
        -11    1    1    2    0    0  0.16155891210E+02  0.11666625675E+02 -0.12552373714E+02  0.23551752828E+02  0.00000000000E+00 0.  1.
         11    1    1    2    0    0  0.21807012560E+01 -0.27324185976E+02  0.10041459273E+03  0.10408869789E+03  0.00000000000E+00 0. -1.
</event>
<event>
 7    1  0.2723366E-009  0.1089684E+03  0.7561462E-02  0.1262492E+00
         -2   -1    0    0    0  501 -0.00000000000E+00  0.00000000000E+00  0.49991958861E+03  0.49991958861E+03  0.00000000000E+00 0.  1.
          2   -1    0    0  501    0  0.00000000000E+00 -0.00000000000E+00 -0.32589888802E+02  0.32589888802E+02  0.00000000000E+00 0. -1.
         25    2    1    2    0    0 -0.21603787029E+02 -0.30654346407E+02  0.14001927496E+03  0.19146582611E+03  0.12508937861E+03 0.  0.
          5    1    3    3  502    0  0.29695148738E+02  0.30113513370E+02  0.18898968806E+02  0.46510955354E+02  0.41800000000E+01 0.  1.
         -5    1    3    3    0  502 -0.51298935767E+02 -0.60767859777E+02  0.12112030616E+03  0.14495487076E+03  0.41800000000E+01 0.  1.
        -11    1    1    2    0    0 -0.34225837276E+02  0.17520520303E+02  0.13243648725E+03  0.13790503879E+03  0.00000000000E+00 0.  1.
         11    1    1    2    0    0  0.55829624304E+02  0.13133826104E+02  0.19487393759E+03  0.20313861250E+03  0.00000000000E+00 0. -1.
</event>
<event>
 7    1  0.2723366E-009  0.1291763E+03  0.7561462E-02  0.1228683E+00
         -2   -1    0    0    0  501 -0.00000000000E+00  0.00000000000E+00  0.70180149025E+02  0.70180149025E+02  0.00000000000E+00 0.  1.
          2   -1    0    0  501    0  0.00000000000E+00 -0.00000000000E+00 -0.37663161280E+03  0.37663161280E+03  0.00000000000E+00 0. -1.
         25    2    1    2    0    0 -0.69573742466E+02 -0.96849227532E+02 -0.19097299286E+03  0.25755780704E+03  0.12508022006E+03 0.  0.
          5    1    3    3  502    0 -0.41348276940E+02 -0.21931434920E+02  0.35881243619E+01  0.47127644540E+02  0.41800000000E+01 0.  1.
         -5    1    3    3    0  502 -0.28225465526E+02 -0.74917792613E+02 -0.19456111722E+03  0.21043016250E+03  0.41800000000E+01 0.  1.
        -11    1    1    2    0    0  0.54840173847E+02  0.10181621016E+03 -0.12557633142E+03  0.17071438232E+03  0.00000000000E+00 0. -1.
         11    1    1    2    0    0  0.14733568618E+02 -0.49669826271E+01  0.10097860500E+02  0.18539572468E+02  0.00000000000E+00 0.  1.
</event>
<event>
 7    1  0.2723366E-009  0.1225640E+03  0.7561462E-02  0.1238926E+00
          1   -1    0    0  501    0  0.00000000000E+00  0.00000000000E+00  0.53935368188E+02  0.53935368188E+02  0.00000000000E+00 0. -1.
         -1   -1    0    0    0  501 -0.00000000000E+00 -0.00000000000E+00 -0.34801781452E+03  0.34801781452E+03  0.00000000000E+00 0.  1.
         25    2    1    2    0    0  0.17846458485E+02  0.78561728742E+02 -0.12954608117E+03  0.19728296276E+03  0.12509172212E+03 0.  0.
          5    1    3    3  502    0 -0.50340408133E+02  0.37403456296E+02 -0.85672795061E+02  0.10625664896E+03  0.41800000000E+01 0. -1.
         -5    1    3    3    0  502  0.68186866618E+02  0.41158272447E+02 -0.43873286109E+02  0.91026313800E+02  0.41800000000E+01 0. -1.
        -11    1    1    2    0    0 -0.18155568958E+02  0.50982475840E+01  0.13247164646E+01  0.18904276932E+02  0.00000000000E+00 0. -1.
         11    1    1    2    0    0  0.30911047240E+00 -0.83659976326E+02 -0.16586108163E+03  0.18576594302E+03  0.00000000000E+00 0.  1.
</event>
<event>
 7    1  0.2723366E-009  0.1418625E+03  0.7561462E-02  0.1210845E+00
         -1   -1    0    0    0  501 -0.00000000000E+00  0.00000000000E+00  0.12023240677E+03  0.12023240677E+03  0.00000000000E+00 0.  1.
          1   -1    0    0  501    0  0.00000000000E+00 -0.00000000000E+00 -0.23123346939E+03  0.23123346939E+03  0.00000000000E+00 0. -1.
         25    2    1    2    0    0 -0.10422172771E+03 -0.56705841358E+02 -0.10351477364E+03  0.20109997131E+03  0.12509264217E+03 0.  0.
          5    1    3    3  502    0 -0.11177357982E+03 -0.59256229822E+02 -0.34082401680E+02  0.13108667523E+03  0.41800000000E+01 0.  1.
         -5    1    3    3    0  502  0.75518521078E+01  0.25503884640E+01 -0.69432371957E+02  0.70013296074E+02  0.41800000000E+01 0.  1.
        -11    1    1    2    0    0  0.14869668941E+01  0.44685781248E+02  0.90489406366E+01  0.45617030185E+02  0.00000000000E+00 0.  1.
         11    1    1    2    0    0  0.10273476082E+03  0.12020060110E+02 -0.16535229616E+02  0.10474887467E+03  0.00000000000E+00 0. -1.
</event>
<event>
 7    1  0.2723366E-009  0.1940470E+03  0.7561462E-02  0.1154861E+00
         -1   -1    0    0    0  501 -0.00000000000E+00  0.00000000000E+00  0.19796342352E+03  0.19796342352E+03  0.00000000000E+00 0.  1.
          1   -1    0    0  501    0  0.00000000000E+00 -0.00000000000E+00 -0.30626272290E+03  0.30626272290E+03  0.00000000000E+00 0. -1.
         25    2    1    2    0    0 -0.14859570132E+03 -0.94822093104E+02 -0.12251641516E+03  0.24845588012E+03  0.12509252812E+03 0.  0.
          5    1    3    3  502    0  0.12244751403E+02  0.10856150913E+02  0.49283407841E+01  0.17594058442E+02  0.41800000000E+01 0. -1.
         -5    1    3    3    0  502 -0.16084045272E+03 -0.10567824402E+03 -0.12744475594E+03  0.23086182168E+03  0.41800000000E+01 0. -1.
        -11    1    1    2    0    0  0.51695286242E+02  0.50084877451E+02  0.96937021282E+02  0.12073807877E+03  0.00000000000E+00 0.  1.
         11    1    1    2    0    0  0.96900415077E+02  0.44737215653E+02 -0.82719905501E+02  0.13503218754E+03  0.00000000000E+00 0. -1.
</event>
<event>
 7    1  0.2723366E-009  0.1108556E+03  0.7561462E-02  0.1258994E+00
         -2   -1    0    0    0  501 -0.00000000000E+00  0.00000000000E+00  0.26331632999E+03  0.26331632999E+03  0.00000000000E+00 0.  1.
          2   -1    0    0  501    0  0.00000000000E+00 -0.00000000000E+00 -0.61933267300E+02  0.61933267300E+02  0.00000000000E+00 0. -1.
         25    2    1    2    0    0  0.31338676014E+02  0.15812315210E+02  0.18916928249E+03  0.22949028946E+03  0.12509449864E+03 0.  0.
          5    1    3    3  502    0  0.31534192756E+01 -0.52587564425E+02  0.10357968607E+03  0.11628249976E+03  0.41800000000E+01 0.  1.
         -5    1    3    3    0  502  0.28185256739E+02  0.68399879635E+02  0.85589596424E+02  0.11320778969E+03  0.41800000000E+01 0.  1.
        -11    1    1    2    0    0  0.28571605836E+02  0.89495074464E+01  0.90262107851E+00  0.29954049282E+02  0.00000000000E+00 0.  1.
         11    1    1    2    0    0 -0.59910281850E+02 -0.24761822656E+02  0.11311159122E+02  0.65805258553E+02  0.00000000000E+00 0. -1.
</event>
<event>
 7    1  0.2723366E-009  0.1204359E+03  0.7561462E-02  0.1242380E+00
          1   -1    0    0  501    0  0.00000000000E+00  0.00000000000E+00  0.18687967314E+03  0.18687967314E+03  0.00000000000E+00 0. -1.
         -1   -1    0    0    0  501 -0.00000000000E+00 -0.00000000000E+00 -0.16562628178E+03  0.16562628178E+03  0.00000000000E+00 0.  1.
         25    2    1    2    0    0 -0.56013551299E+02 -0.85515675142E+02  0.10513243535E+03  0.19274624374E+03  0.12509131420E+03 0.  0.
          5    1    3    3  502    0 -0.43328930315E+02 -0.89605472088E+02  0.14057298142E+02  0.10060624663E+03  0.41800000000E+01 0. -1.
         -5    1    3    3    0  502 -0.12684620984E+02  0.40897969465E+01  0.91075137212E+02  0.92139997106E+02  0.41800000000E+01 0. -1.
        -11    1    1    2    0    0  0.66215368031E+02  0.33366819390E+02 -0.75758331501E+02  0.10600539794E+03  0.00000000000E+00 0.  1.
         11    1    1    2    0    0 -0.10201816733E+02  0.52148855752E+02 -0.81207124984E+01  0.53754313245E+02  0.00000000000E+00 0. -1.
</event>
<event>
 7    1  0.2723366E-009  0.1384516E+03  0.7561462E-02  0.1215428E+00
         -4   -1    0    0    0  501 -0.00000000000E+00  0.00000000000E+00  0.34375122417E+03  0.34375122417E+03  0.00000000000E+00 0.  1.
          4   -1    0    0  501    0  0.00000000000E+00 -0.00000000000E+00 -0.86264584050E+02  0.86264584050E+02  0.00000000000E+00 0. -1.
         25    2    1    2    0    0  0.54422926679E+02 -0.76151669900E+02  0.25299918145E+03  0.29735056989E+03  0.12509134192E+03 0.  0.
          5    1    3    3  502    0  0.58996650695E+02 -0.10262422530E+03  0.15169159323E+03  0.19245817278E+03  0.41800000000E+01 0. -1.
         -5    1    3    3    0  502 -0.45737240154E+01  0.26472555405E+02  0.10130758821E+03  0.10489239711E+03  0.41800000000E+01 0. -1.
        -11    1    1    2    0    0 -0.70209734154E+02  0.20092655771E+02 -0.67925708945E+01  0.73343442824E+02  0.00000000000E+00 0. -1.
         11    1    1    2    0    0  0.15786807475E+02  0.56059014129E+02  0.11280029567E+02  0.59321795509E+02  0.00000000000E+00 0.  1.
</event>
<event>
 7    1  0.2723366E-009  0.1478076E+03  0.7561462E-02  0.1203193E+00
          1   -1    0    0  501    0  0.00000000000E+00  0.00000000000E+00  0.68847982470E+03  0.68847982470E+03  0.00000000000E+00 0. -1.
         -1   -1    0    0    0  501 -0.00000000000E+00 -0.00000000000E+00 -0.39072476234E+02  0.39072476234E+02  0.00000000000E+00 0.  1.
         25    2    1    2    0    0  0.12194440290E+03  0.49385977789E+01  0.33445529208E+03  0.37736233711E+03  0.12508862428E+03 0.  0.
          5    1    3    3  502    0  0.13838584346E+03 -0.28574517196E+01  0.21021643011E+03  0.25172847791E+03  0.41800000000E+01 0.  1.
         -5    1    3    3    0  502 -0.16441440560E+02  0.77960494985E+01  0.12423886197E+03  0.12563385921E+03  0.41800000000E+01 0.  1.
        -11    1    1    2    0    0 -0.46601644722E+02  0.29993866652E+02  0.20524033761E+03  0.21259101935E+03  0.00000000000E+00 0. -1.
         11    1    1    2    0    0 -0.75342758182E+02 -0.34932464431E+02  0.10971171878E+03  0.13759894447E+03  0.00000000000E+00 0.  1.
</event>
<event>
 7    1  0.2723366E-009  0.2547087E+03  0.7561462E-02  0.1110365E+00
         -1   -1    0    0    0  501 -0.00000000000E+00  0.00000000000E+00  0.80088336103E+02  0.80088336103E+02  0.00000000000E+00 0.  1.
          1   -1    0    0  501    0  0.00000000000E+00 -0.00000000000E+00 -0.14693156633E+04  0.14693156633E+04  0.00000000000E+00 0. -1.
         25    2    1    2    0    0 -0.19886598735E+03 -0.11878353288E+03 -0.18987745222E+03  0.32458899312E+03  0.12508940398E+03 0.  0.
          5    1    3    3  502    0 -0.11889217384E+03 -0.39167062886E+00 -0.69944699053E+02  0.13800447721E+03  0.41800000000E+01 0.  1.
         -5    1    3    3    0  502 -0.79973813509E+02 -0.11839186225E+03 -0.11993275317E+03  0.18658451591E+03  0.41800000000E+01 0.  1.
        -11    1    1    2    0    0  0.70329176554E+02  0.92703295405E+02 -0.61724995476E+03  0.62812228165E+03  0.00000000000E+00 0.  1.
         11    1    1    2    0    0  0.12853681079E+03  0.26080237471E+02 -0.58209992023E+03  0.59669272465E+03  0.00000000000E+00 0. -1.
</event>
<event>
 7    1  0.2723366E-009  0.1099290E+03  0.7561462E-02  0.1260701E+00
         -3   -1    0    0    0  501 -0.00000000000E+00  0.00000000000E+00  0.17707465658E+03  0.17707465658E+03  0.00000000000E+00 0.  1.
          3   -1    0    0  501    0  0.00000000000E+00 -0.00000000000E+00 -0.95065195731E+02  0.95065195731E+02  0.00000000000E+00 0. -1.
         25    2    1    2    0    0 -0.34622848716E+02  0.16400881717E+02 -0.14253498033E+02  0.13158879041E+03  0.12507884306E+03 0.  0.
          5    1    3    3  502    0  0.77267167476E+01 -0.44316865783E+02  0.20606837287E+02  0.49656831227E+02  0.41800000000E+01 0. -1.
         -5    1    3    3    0  502 -0.42349565463E+02  0.60717747500E+02 -0.34860335319E+02  0.81931959180E+02  0.41800000000E+01 0. -1.
        -11    1    1    2    0    0 -0.30692645604E+02 -0.17257931908E+02  0.21435076669E+02  0.41223018081E+02  0.00000000000E+00 0.  1.
         11    1    1    2    0    0  0.65315494320E+02  0.85705019075E+00  0.74827882213E+02  0.99328043823E+02  0.00000000000E+00 0. -1.
</event>
<event>
 7    1  0.2723366E-009  0.9549301E+02  0.7561462E-02  0.1290070E+00
         -1   -1    0    0    0  501 -0.00000000000E+00  0.00000000000E+00  0.88234622512E+02  0.88234622512E+02  0.00000000000E+00 0.  1.
          1   -1    0    0  501    0  0.00000000000E+00 -0.00000000000E+00 -0.19642256943E+03  0.19642256943E+03  0.00000000000E+00 0. -1.
         25    2    1    2    0    0 -0.51148312375E+02 -0.12120644035E+02 -0.11699771125E+03  0.17916294476E+03  0.12509131251E+03 0.  0.
          5    1    3    3  502    0 -0.22924162268E+02 -0.40046346157E+02 -0.12932908418E+03  0.13737798758E+03  0.41800000000E+01 0.  1.
         -5    1    3    3    0  502 -0.28224150106E+02  0.27925702123E+02  0.12331372928E+02  0.41784957180E+02  0.41800000000E+01 0.  1.
        -11    1    1    2    0    0  0.74420775619E+02  0.24525052948E+02  0.25985690642E+01  0.78400782057E+02  0.00000000000E+00 0.  1.
         11    1    1    2    0    0 -0.23272463245E+02 -0.12404408913E+02  0.62111952686E+01  0.27093465128E+02  0.00000000000E+00 0. -1.
</event>
<event>
 7    1  0.2723366E-009  0.7547070E+02  0.7561462E-02  0.1342420E+00
          2   -1    0    0  501    0  0.00000000000E+00  0.00000000000E+00  0.27410041019E+03  0.27410041019E+03  0.00000000000E+00 0. -1.
         -2   -1    0    0    0  501 -0.00000000000E+00 -0.00000000000E+00 -0.49677891677E+02  0.49677891677E+02  0.00000000000E+00 0.  1.
         25    2    1    2    0    0 -0.42671483909E+01  0.21270787019E+02  0.17932539846E+03  0.21971836892E+03  0.12509159912E+03 0.  0.
          5    1    3    3  502    0 -0.47581526325E+02 -0.14416350120E+02  0.25728663040E+02  0.56136167486E+02  0.41800000000E+01 0. -1.
         -5    1    3    3    0  502  0.43314377934E+02  0.35687137139E+02  0.15359673542E+03  0.16358220143E+03  0.41800000000E+01 0. -1.
        -11    1    1    2    0    0 -0.68940105961E+01 -0.29886327548E+02  0.69449289350E+02  0.75920509400E+02  0.00000000000E+00 0. -1.
         11    1    1    2    0    0  0.11161158987E+02  0.86155405289E+01 -0.24352169295E+02  0.28139423553E+02  0.00000000000E+00 0.  1.
</event>
<event>
 7    1  0.2723366E-009  0.1465372E+03  0.7561462E-02  0.1204794E+00
         -1   -1    0    0    0  501 -0.00000000000E+00  0.00000000000E+00  0.98538990977E+02  0.98538990977E+02  0.00000000000E+00 0.  1.
          1   -1    0    0  501    0  0.00000000000E+00 -0.00000000000E+00 -0.26332932298E+03  0.26332932298E+03  0.00000000000E+00 0. -1.
         25    2    1    2    0    0  0.95967310156E+02  0.30823950892E+02 -0.16055725548E+03  0.22712733104E+03  0.12509337173E+03 0.  0.
          5    1    3    3  502    0  0.54198218519E+02 -0.45773795727E+02 -0.91051257682E+02  0.11550104411E+03  0.41800000000E+01 0.  1.
         -5    1    3    3    0  502  0.41769091637E+02  0.76597746618E+02 -0.69505997797E+02  0.11162628693E+03  0.41800000000E+01 0.  1.
        -11    1    1    2    0    0  0.17394648533E+02 -0.89549671048E+00  0.22171555515E-01  0.17417697998E+02  0.00000000000E+00 0.  1.
         11    1    1    2    0    0 -0.11336195869E+03 -0.29928454181E+02 -0.42552480777E+01  0.11732328492E+03  0.00000000000E+00 0. -1.
</event>
<event>
 7    1  0.2723366E-009  0.3469022E+03  0.7561462E-02  0.1063894E+00
         -2   -1    0    0    0  501 -0.00000000000E+00  0.00000000000E+00  0.10829588959E+03  0.10829588959E+03  0.00000000000E+00 0.  1.
          2   -1    0    0  501    0  0.00000000000E+00 -0.00000000000E+00 -0.12097167042E+04  0.12097167042E+04  0.00000000000E+00 0. -1.
         25    2    1    2    0    0  0.21882307347E+03 -0.25844971282E+03 -0.43789452673E+03  0.56752007113E+03  0.12509045945E+03 0.  0.
          5    1    3    3  502    0  0.19609321374E+03 -0.16058797412E+03 -0.25967560685E+03  0.36289108434E+03  0.41800000000E+01 0. -1.
         -5    1    3    3    0  502  0.22729859735E+02 -0.97861738705E+02 -0.17821891989E+03  0.20462898678E+03  0.41800000000E+01 0. -1.
        -11    1    1    2    0    0 -0.15957023325E+03  0.20640542290E+03 -0.41921793972E+03  0.49377073518E+03  0.00000000000E+00 0.  1.
         11    1    1    2    0    0 -0.59252840223E+02  0.52044289925E+02 -0.24430834819E+03  0.25672178751E+03  0.00000000000E+00 0. -1.
</event>
<event>
 7    1  0.2723366E-009  0.6175362E+02  0.7561462E-02  0.1390617E+00
         -2   -1    0    0    0  501 -0.00000000000E+00  0.00000000000E+00  0.12137178165E+02  0.12137178165E+02  0.00000000000E+00 0.  1.
          2   -1    0    0  501    0  0.00000000000E+00 -0.00000000000E+00 -0.14733359691E+04  0.14733359691E+04  0.00000000000E+00 0. -1.
         25    2    1    2    0    0 -0.43795211591E+02 -0.14272234512E+02 -0.12769546630E+04  0.12838933146E+04  0.12508842794E+03 0.  0.
          5    1    3    3  502    0 -0.24717590432E+02  0.74769838011E+01 -0.12161091202E+04  0.12163904510E+04  0.41800000000E+01 0.  1.
         -5    1    3    3    0  502 -0.19077621160E+02 -0.21749218313E+02 -0.60845542754E+02  0.67502863638E+02  0.41800000000E+01 0.  1.
        -11    1    1    2    0    0  0.43122600717E+02 -0.96462904212E+01 -0.16517260629E+03  0.17098128401E+03  0.00000000000E+00 0. -1.
         11    1    1    2    0    0  0.67261087449E+00  0.23918524933E+02 -0.19071521697E+02  0.30598548662E+02  0.00000000000E+00 0.  1.
</event>
<event>
 7    1  0.2723366E-009  0.2145556E+03  0.7561462E-02  0.1138008E+00
          1   -1    0    0  501    0  0.00000000000E+00  0.00000000000E+00  0.50741351679E+03  0.50741351679E+03  0.00000000000E+00 0. -1.
         -1   -1    0    0    0  501 -0.00000000000E+00 -0.00000000000E+00 -0.10264048792E+03  0.10264048792E+03  0.00000000000E+00 0.  1.
         25    2    1    2    0    0 -0.16782247945E+03 -0.10513174649E+03  0.16615621851E+03  0.28717943821E+03  0.12508825707E+03 0.  0.
          5    1    3    3  502    0 -0.57850507230E+02 -0.92668763783E+02  0.33446628640E+02  0.11432554542E+03  0.41800000000E+01 0.  1.
         -5    1    3    3    0  502 -0.10997197222E+03 -0.12462982708E+02  0.13270958987E+03  0.17285389280E+03  0.41800000000E+01 0.  1.
        -11    1    1    2    0    0  0.50683227137E+00  0.22354632578E+02  0.34504779310E+01  0.22625036455E+02  0.00000000000E+00 0.  1.
         11    1    1    2    0    0  0.16731564718E+03  0.82777113913E+02  0.23516633243E+03  0.30024953004E+03  0.00000000000E+00 0. -1.
</event>
<event>
 7    1  0.2723366E-009  0.1115569E+03  0.7561462E-02  0.1257714E+00
          2   -1    0    0  501    0  0.00000000000E+00  0.00000000000E+00  0.17709355437E+03  0.17709355437E+03  0.00000000000E+00 0. -1.
         -2   -1    0    0    0  501 -0.00000000000E+00 -0.00000000000E+00 -0.12982248999E+03  0.12982248999E+03  0.00000000000E+00 0.  1.
         25    2    1    2    0    0 -0.80045912109E+02  0.63877763950E+02 -0.30712326467E+01  0.16169495635E+03  0.12509240451E+03 0.  0.
          5    1    3    3  502    0 -0.23856025798E+02  0.18902099583E+01  0.54757232206E+02  0.59904171302E+02  0.41800000000E+01 0.  1.
         -5    1    3    3    0  502 -0.56189886311E+02  0.61987553992E+02 -0.57828464852E+02  0.10179078505E+03  0.41800000000E+01 0.  1.
        -11    1    1    2    0    0 -0.15093242908E+01 -0.24395645553E+02 -0.19134258634E+02  0.31041028257E+02  0.00000000000E+00 0.  1.
         11    1    1    2    0    0  0.81555236400E+02 -0.39482118397E+02  0.69476555661E+02  0.11418005975E+03  0.00000000000E+00 0. -1.
</event>
<event>
 7    1  0.2723366E-009  0.1534151E+03  0.7561462E-02  0.1196338E+00
         -2   -1    0    0    0  501 -0.00000000000E+00  0.00000000000E+00  0.64467312007E+02  0.64467312007E+02  0.00000000000E+00 0.  1.
          2   -1    0    0  501    0  0.00000000000E+00 -0.00000000000E+00 -0.41301171681E+03  0.41301171681E+03  0.00000000000E+00 0. -1.
         25    2    1    2    0    0  0.87643444127E+02 -0.83647178402E+02 -0.19524295703E+03  0.26162332401E+03  0.12509487455E+03 0.  0.
          5    1    3    3  502    0  0.33666502242E+01 -0.89340146476E+02 -0.10416675844E+03  0.13733601883E+03  0.41800000000E+01 0. -1.
         -5    1    3    3    0  502  0.84276793902E+02  0.56929680731E+01 -0.91076198597E+02  0.12428730517E+03  0.41800000000E+01 0. -1.
        -11    1    1    2    0    0  0.52082867046E+01  0.18784968512E+02  0.59975825676E+01  0.20395398723E+02  0.00000000000E+00 0.  1.
         11    1    1    2    0    0 -0.92851730831E+02  0.64862209890E+02 -0.15929903034E+03  0.19546030609E+03  0.00000000000E+00 0. -1.
</event>
<event>
 7    1  0.2723366E-009  0.9480831E+02  0.7561462E-02  0.1291608E+00
          2   -1    0    0  501    0  0.00000000000E+00  0.00000000000E+00  0.42307164473E+03  0.42307164473E+03  0.00000000000E+00 0. -1.
         -2   -1    0    0    0  501 -0.00000000000E+00 -0.00000000000E+00 -0.36303788016E+02  0.36303788016E+02  0.00000000000E+00 0.  1.
         25    2    1    2    0    0 -0.42348740360E+02  0.42104593927E+02  0.19643976586E+03  0.24042071422E+03  0.12508927043E+03 0.  0.
          5    1    3    3  502    0 -0.54271698904E+02  0.75878979248E+02  0.17529763015E+03  0.19861965746E+03  0.41800000000E+01 0. -1.
         -5    1    3    3    0  502  0.11922958544E+02 -0.33774385321E+02  0.21142135712E+02  0.41801056766E+02  0.41800000000E+01 0. -1.
        -11    1    1    2    0    0  0.25430498693E+02 -0.20092295975E+02  0.18835384203E+03  0.19112189939E+03  0.00000000000E+00 0. -1.
         11    1    1    2    0    0  0.16918241667E+02 -0.22012297952E+02  0.19742488291E+01  0.27832819129E+02  0.00000000000E+00 0.  1.
</event>
<event>
 7    1  0.2723366E-009  0.8014543E+02  0.7561462E-02  0.1328639E+00
         -1   -1    0    0    0  501 -0.00000000000E+00  0.00000000000E+00  0.19754165270E+03  0.19754165270E+03  0.00000000000E+00 0.  1.
          1   -1    0    0  501    0  0.00000000000E+00 -0.00000000000E+00 -0.82410104114E+02  0.82410104114E+02  0.00000000000E+00 0. -1.
         25    2    1    2    0    0 -0.15544493060E+00  0.72502242158E-01  0.13449588901E+03  0.18367471870E+03  0.12508888324E+03 0.  0.
          5    1    3    3  502    0  0.41716350772E+02 -0.28451724892E+02  0.13503509713E+02  0.52436359004E+02  0.41800000000E+01 0.  1.
         -5    1    3    3    0  502 -0.41871795703E+02  0.28524227134E+02  0.12099237930E+03  0.13123835970E+03  0.41800000000E+01 0.  1.
        -11    1    1    2    0    0 -0.18105450447E+02 -0.23130172812E+02  0.27962450576E+02  0.40555035105E+02  0.00000000000E+00 0.  1.
         11    1    1    2    0    0  0.18260895377E+02  0.23057670570E+02 -0.47326791001E+02  0.55722003002E+02  0.00000000000E+00 0. -1.
</event>
<event>
 7    1  0.2723366E-009  0.5991500E+02  0.7561462E-02  0.1398189E+00
         -1   -1    0    0    0  501 -0.00000000000E+00  0.00000000000E+00  0.91193489436E+02  0.91193489436E+02  0.00000000000E+00 0.  1.
          1   -1    0    0  501    0  0.00000000000E+00 -0.00000000000E+00 -0.15022768978E+03  0.15022768978E+03  0.00000000000E+00 0. -1.
         25    2    1    2    0    0 -0.23070696981E+02 -0.31572816290E+02 -0.72307132534E+02  0.14968294415E+03  0.12509021771E+03 0.  0.
          5    1    3    3  502    0 -0.60290824302E+00 -0.47665537549E+01  0.35603408624E+02  0.36168475759E+02  0.41800000000E+01 0. -1.
         -5    1    3    3    0  502 -0.22467788738E+02 -0.26806262536E+02 -0.10791054116E+03  0.11351446839E+03  0.41800000000E+01 0. -1.
        -11    1    1    2    0    0  0.27080922039E+02 -0.15358951006E+02 -0.17267363020E+02  0.35601060942E+02  0.00000000000E+00 0. -1.
         11    1    1    2    0    0 -0.40102250579E+01  0.46931767297E+02  0.30540295211E+02  0.56137174120E+02  0.00000000000E+00 0.  1.
</event>
<event>
 7    1  0.2723366E-009  0.7521698E+02  0.7561462E-02  0.1343200E+00
         -2   -1    0    0    0  501 -0.00000000000E+00  0.00000000000E+00  0.16635371777E+02  0.16635371777E+02  0.00000000000E+00 0.  1.
          2   -1    0    0  501    0  0.00000000000E+00 -0.00000000000E+00 -0.74901875649E+03  0.74901875649E+03  0.00000000000E+00 0. -1.
         25    2    1    2    0    0  0.17947508536E+02 -0.10643876000E+02 -0.45558364998E+03  0.47290663919E+03  0.12509525214E+03 0.  0.
          5    1    3    3  502    0 -0.22276525357E+02  0.21429774607E+02 -0.27084781422E+02  0.41310248200E+02  0.41800000000E+01 0. -1.
         -5    1    3    3    0  502  0.40224033893E+02 -0.32073650607E+02 -0.42849886856E+03  0.43159639099E+03  0.41800000000E+01 0. -1.
        -11    1    1    2    0    0  0.10884558170E+02 -0.21712373846E+02 -0.17712279649E+02  0.30060366514E+02  0.00000000000E+00 0.  1.
         11    1    1    2    0    0 -0.28832066706E+02  0.32356249846E+02 -0.25908745509E+03  0.26268712256E+03  0.00000000000E+00 0. -1.
</event>
<event>
 7    1  0.2723366E-009  0.1042444E+03  0.7561462E-02  0.1271615E+00
         -1   -1    0    0    0  501 -0.00000000000E+00  0.00000000000E+00  0.14845455720E+03  0.14845455720E+03  0.00000000000E+00 0.  1.
          1   -1    0    0  501    0  0.00000000000E+00 -0.00000000000E+00 -0.99046419289E+02  0.99046419289E+02  0.00000000000E+00 0. -1.
         25    2    1    2    0    0  0.10882108015E+02  0.34150139424E+02  0.69575918702E+02  0.14755522170E+03  0.12508829957E+03 0.  0.
          5    1    3    3  502    0 -0.24730299417E+02 -0.36808650025E+02  0.44139815086E+01  0.44759580635E+02  0.41800000000E+01 0. -1.
         -5    1    3    3    0  502  0.35612407432E+02  0.70958789449E+02  0.65161937193E+02  0.10279564106E+03  0.41800000000E+01 0. -1.
        -11    1    1    2    0    0  0.14819569180E+01  0.24479544484E+02  0.16628466995E+02  0.29630224586E+02  0.00000000000E+00 0.  1.
         11    1    1    2    0    0 -0.12364064933E+02 -0.58629683908E+02 -0.36796247784E+02  0.70315530204E+02  0.00000000000E+00 0. -1.
</event>
<event>
 7    1  0.2723366E-009  0.1364689E+03  0.7561462E-02  0.1218161E+00
          1   -1    0    0  501    0  0.00000000000E+00  0.00000000000E+00  0.17215021095E+03  0.17215021095E+03  0.00000000000E+00 0. -1.
         -1   -1    0    0    0  501 -0.00000000000E+00 -0.00000000000E+00 -0.23201092038E+03  0.23201092038E+03  0.00000000000E+00 0.  1.
         25    2    1    2    0    0  0.91271568341E+02 -0.70006953056E+02  0.91928157083E+02  0.19321022614E+03  0.12509169739E+03 0.  0.
          5    1    3    3  502    0  0.97524363713E+02 -0.38407461493E+02  0.11324074406E+03  0.15436020579E+03  0.41800000000E+01 0. -1.
         -5    1    3    3    0  502 -0.62527953721E+01 -0.31599491563E+02 -0.21312586981E+02  0.38850020345E+02  0.41800000000E+01 0. -1.
        -11    1    1    2    0    0 -0.10101070761E+03  0.73807759978E+02 -0.10596371865E+03  0.16394833990E+03  0.00000000000E+00 0. -1.
         11    1    1    2    0    0  0.97391392721E+01 -0.38008069226E+01 -0.45825147866E+02  0.47002565291E+02  0.00000000000E+00 0.  1.
</event>
<event>
 7    1  0.2723366E-009  0.1044035E+03  0.7561462E-02  0.1271299E+00
         -1   -1    0    0    0  501 -0.00000000000E+00  0.00000000000E+00  0.40912755037E+02  0.40912755037E+02  0.00000000000E+00 0.  1.
          1   -1    0    0  501    0  0.00000000000E+00 -0.00000000000E+00 -0.28069258011E+03  0.28069258011E+03  0.00000000000E+00 0. -1.
         25    2    1    2    0    0  0.86772488781E+00 -0.37763738776E+01 -0.14457156776E+03  0.19121585077E+03  0.12509016522E+03 0.  0.
          5    1    3    3  502    0 -0.61642641389E+02  0.31780117905E+01 -0.65577986342E+02  0.90154643191E+02  0.41800000000E+01 0. -1.
         -5    1    3    3    0  502  0.62510366276E+02 -0.69543856681E+01 -0.78993581420E+02  0.10106120758E+03  0.41800000000E+01 0. -1.
        -11    1    1    2    0    0 -0.42314663657E+02  0.32394795258E+00 -0.26058502982E+02  0.49695887962E+02  0.00000000000E+00 0.  1.
         11    1    1    2    0    0  0.41446938769E+02  0.34524259250E+01 -0.69149754330E+02  0.80693596413E+02  0.00000000000E+00 0. -1.
</event>
<event>
 7    1  0.2723366E-009  0.1182988E+03  0.7561462E-02  0.1245930E+00
          1   -1    0    0  501    0  0.00000000000E+00  0.00000000000E+00  0.22831277553E+02  0.22831277553E+02  0.00000000000E+00 0. -1.
         -1   -1    0    0    0  501 -0.00000000000E+00 -0.00000000000E+00 -0.76252461846E+03  0.76252461846E+03  0.00000000000E+00 0.  1.
         25    2    1    2    0    0  0.54448249608E+02 -0.23155125507E+01 -0.50102982816E+03  0.51927672780E+03  0.12508979910E+03 0.  0.
          5    1    3    3  502    0 -0.34536962009E+02 -0.80235492177E+01 -0.25630751533E+03  0.25878213597E+03  0.41800000000E+01 0.  1.
         -5    1    3    3    0  502  0.88985211617E+02  0.57080366670E+01 -0.24472231284E+03  0.26049459182E+03  0.41800000000E+01 0.  1.
        -11    1    1    2    0    0 -0.24375676664E+01 -0.42744682981E+02 -0.53376261323E+02  0.68425689124E+02  0.00000000000E+00 0.  1.
         11    1    1    2    0    0 -0.52010681941E+02  0.45060195532E+02 -0.18528725142E+03  0.19765347909E+03  0.00000000000E+00 0. -1.
</event>
<event>
 7    1  0.2723366E-009  0.1168485E+03  0.7561462E-02  0.1248388E+00
          1   -1    0    0  501    0  0.00000000000E+00  0.00000000000E+00  0.74686870758E+03  0.74686870758E+03  0.00000000000E+00 0. -1.
         -1   -1    0    0    0  501 -0.00000000000E+00 -0.00000000000E+00 -0.26006887071E+02  0.26006887071E+02  0.00000000000E+00 0.  1.
         25    2    1    2    0    0  0.46742475123E+02 -0.42933595783E+02  0.23728895095E+03  0.27564622176E+03  0.12508653284E+03 0.  0.
          5    1    3    3  502    0 -0.16541814078E+01  0.30731554973E+02  0.11315818091E+02  0.33055785065E+02  0.41800000000E+01 0.  1.
         -5    1    3    3    0  502  0.48396656531E+02 -0.73665150756E+02  0.22597313286E+03  0.24259043669E+03  0.41800000000E+01 0.  1.
        -11    1    1    2    0    0 -0.22804854477E+02  0.72704734611E+02  0.35582046404E+03  0.36388767834E+03  0.00000000000E+00 0.  1.
         11    1    1    2    0    0 -0.23937620646E+02 -0.29771138829E+02  0.12775240553E+03  0.13334169456E+03  0.00000000000E+00 0. -1.
</event>
<event>
 7    1  0.2723366E-009  0.1106058E+03  0.7561462E-02  0.1259452E+00
         -1   -1    0    0    0  501 -0.00000000000E+00  0.00000000000E+00  0.25428968415E+02  0.25428968415E+02  0.00000000000E+00 0.  1.
          1   -1    0    0  501    0  0.00000000000E+00 -0.00000000000E+00 -0.58495098642E+03  0.58495098642E+03  0.00000000000E+00 0. -1.
         25    2    1    2    0    0 -0.55198368538E+02  0.14658165749E+01 -0.30896598604E+03  0.33787110437E+03  0.12509154301E+03 0.  0.
          5    1    3    3  502    0  0.21281911640E+02  0.43967022544E+02 -0.10429139731E+03  0.11523969276E+03  0.41800000000E+01 0.  1.
         -5    1    3    3    0  502 -0.76480280177E+02 -0.42501205969E+02 -0.20467458872E+03  0.22263141161E+03  0.41800000000E+01 0.  1.
        -11    1    1    2    0    0  0.62561960934E+01 -0.28156455412E+02 -0.19484057466E+02  0.34807390972E+02  0.00000000000E+00 0.  1.
         11    1    1    2    0    0  0.48942172444E+02  0.26690638837E+02 -0.23107197451E+03  0.23770145950E+03  0.00000000000E+00 0. -1.
</event>
<event>
 7    1  0.2723366E-009  0.1048329E+03  0.7561462E-02  0.1270449E+00
         -2   -1    0    0    0  501 -0.00000000000E+00  0.00000000000E+00  0.25564560536E+02  0.25564560536E+02  0.00000000000E+00 0.  1.
          2   -1    0    0  501    0  0.00000000000E+00 -0.00000000000E+00 -0.51078839749E+03  0.51078839749E+03  0.00000000000E+00 0. -1.
         25    2    1    2    0    0  0.42290071113E+01 -0.34093580953E+02 -0.25677542729E+03  0.28768380998E+03  0.12509235668E+03 0.  0.
          5    1    3    3  502    0  0.55054862090E+02 -0.24449040420E+02 -0.63775297814E+02  0.87826843439E+02  0.41800000000E+01 0.  1.
         -5    1    3    3    0  502 -0.50825854978E+02 -0.96445405332E+01 -0.19300012947E+03  0.19985696654E+03  0.41800000000E+01 0.  1.
        -11    1    1    2    0    0 -0.40326138237E+02  0.44262485714E+02 -0.12419932775E+03  0.13787979577E+03  0.00000000000E+00 0.  1.
         11    1    1    2    0    0  0.36097131126E+02 -0.10168904761E+02 -0.10424908191E+03  0.11078935228E+03  0.00000000000E+00 0. -1.
</event>
<event>
 7    1  0.2723366E-009  0.6749522E+02  0.7561462E-02  0.1368824E+00
          1   -1    0    0  501    0  0.00000000000E+00  0.00000000000E+00  0.77223944609E+02  0.77223944609E+02  0.00000000000E+00 0. -1.
         -1   -1    0    0    0  501 -0.00000000000E+00 -0.00000000000E+00 -0.28038342237E+03  0.28038342237E+03  0.00000000000E+00 0.  1.
         25    2    1    2    0    0 -0.27639431027E+02  0.93416719805E+01  0.49824377302E+01  0.12854432059E+03  0.12509041805E+03 0.  0.
          5    1    3    3  502    0  0.71399749319E+01 -0.19909943399E+01  0.60956304943E+02  0.61547435469E+02  0.41800000000E+01 0.  1.
         -5    1    3    3    0  502 -0.34779405959E+02  0.11332666320E+02 -0.55973867213E+02  0.66996885119E+02  0.41800000000E+01 0.  1.
        -11    1    1    2    0    0 -0.25975237977E+02 -0.22603455862E+02 -0.12174943703E+03  0.12652491700E+03  0.00000000000E+00 0.  1.
         11    1    1    2    0    0  0.53614669004E+02  0.13261783882E+02 -0.86392478456E+02  0.10253812939E+03  0.00000000000E+00 0. -1.
</event>
<event>
 7    1  0.2723366E-009  0.9054823E+02  0.7561462E-02  0.1301529E+00
         -1   -1    0    0    0  501 -0.00000000000E+00  0.00000000000E+00  0.16107805765E+03  0.16107805765E+03  0.00000000000E+00 0.  1.
          1   -1    0    0  501    0  0.00000000000E+00 -0.00000000000E+00 -0.11325751807E+03  0.11325751807E+03  0.00000000000E+00 0. -1.
         25    2    1    2    0    0  0.30059873736E+02  0.23166683510E+02  0.98208754028E+02  0.16350274460E+03  0.12509155403E+03 0.  0.
          5    1    3    3  502    0  0.63188931412E+02  0.22486819647E+02  0.84481547349E+01  0.67729918272E+02  0.41800000000E+01 0.  1.
         -5    1    3    3    0  502 -0.33129057676E+02  0.67986386385E+00  0.89760599293E+02  0.95772826327E+02  0.41800000000E+01 0.  1.
        -11    1    1    2    0    0 -0.46472117921E+02  0.61714155502E+01 -0.59741261912E+02  0.75939202582E+02  0.00000000000E+00 0. -1.
         11    1    1    2    0    0  0.16412244185E+02 -0.29338099061E+02  0.93530474582E+01  0.34893628536E+02  0.00000000000E+00 0.  1.
</event>
<event>
 7    1  0.2723366E-009  0.1008278E+03  0.7561462E-02  0.1278565E+00
          2   -1    0    0  501    0  0.00000000000E+00  0.00000000000E+00  0.44783736091E+03  0.44783736091E+03  0.00000000000E+00 0. -1.
         -2   -1    0    0    0  501 -0.00000000000E+00 -0.00000000000E+00 -0.29597238253E+02  0.29597238253E+02  0.00000000000E+00 0.  1.
         25    2    1    2    0    0 -0.24577693805E+02  0.38118421201E+01  0.17739985964E+03  0.21848760368E+03  0.12509008589E+03 0.  0.
          5    1    3    3  502    0 -0.36697252633E+02  0.54065646915E+02  0.54850502094E+02  0.85415645564E+02  0.41800000000E+01 0.  1.
         -5    1    3    3    0  502  0.12119558827E+02 -0.50253804794E+02  0.12254935754E+03  0.13307195811E+03  0.41800000000E+01 0.  1.
        -11    1    1    2    0    0  0.47817377974E+02 -0.24026289485E+02  0.87683137192E+02  0.10272339933E+03  0.00000000000E+00 0.  1.
         11    1    1    2    0    0 -0.23239684169E+02  0.20214447365E+02  0.15315712583E+03  0.15622359616E+03  0.00000000000E+00 0. -1.
</event>
<event>
 7    1  0.2723366E-009  0.1101664E+03  0.7561462E-02  0.1260262E+00
          4   -1    0    0  501    0  0.00000000000E+00  0.00000000000E+00  0.23417572362E+03  0.23417572362E+03  0.00000000000E+00 0. -1.
         -4   -1    0    0    0  501 -0.00000000000E+00 -0.00000000000E+00 -0.73418539465E+02  0.73418539465E+02  0.00000000000E+00 0.  1.
         25    2    1    2    0    0  0.45645471735E+02  0.11643884980E+01  0.15558046236E+03  0.20478513198E+03  0.12508719008E+03 0.  0.
          5    1    3    3  502    0 -0.19157559032E+02 -0.41425987650E+02  0.97743822027E+02  0.10795578570E+03  0.41800000000E+01 0. -1.
         -5    1    3    3    0  502  0.64803030767E+02  0.42590376148E+02  0.57836640335E+02  0.96829346287E+02  0.41800000000E+01 0. -1.
        -11    1    1    2    0    0  0.25541353137E+02 -0.23135413770E+01 -0.13805891118E+02  0.29125861761E+02  0.00000000000E+00 0.  1.
         11    1    1    2    0    0 -0.71186824872E+02  0.11491528790E+01  0.18982612910E+02  0.73683269340E+02  0.00000000000E+00 0. -1.
</event>
<event>
 7    1  0.2723366E-009  0.8641034E+02  0.7561462E-02  0.1311785E+00
         -1   -1    0    0    0  501 -0.00000000000E+00  0.00000000000E+00  0.43851939504E+03  0.43851939504E+03  0.00000000000E+00 0. -1.
          1   -1    0    0  501    0  0.00000000000E+00 -0.00000000000E+00 -0.51712025678E+02  0.51712025678E+02  0.00000000000E+00 0.  1.
         25    2    1    2    0    0  0.39615257664E+02  0.36119861100E+02  0.63936310502E+02  0.15036301942E+03  0.12508865977E+03 0.  0.
          5    1    3    3  502    0  0.17101358847E+02 -0.73813126191E+01  0.91862349087E+02  0.93824857209E+02  0.41800000000E+01 0. -1.
         -5    1    3    3    0  502  0.22513898817E+02  0.43501173719E+02 -0.27926038586E+02  0.56538162209E+02  0.41800000000E+01 0. -1.
        -11    1    1    2    0    0 -0.24163730949E+02  0.28940010014E+02  0.89772036497E+02  0.97367492572E+02  0.00000000000E+00 0.  1.
         11    1    1    2    0    0 -0.15451526715E+02 -0.65059871114E+02  0.23309902237E+03  0.24250090873E+03  0.00000000000E+00 0. -1.
</event>
<event>
 7    1  0.2723366E-009  0.9912982E+02  0.7561462E-02  0.1282137E+00
         -1   -1    0    0    0  501 -0.00000000000E+00  0.00000000000E+00  0.11374925416E+03  0.11374925416E+03  0.00000000000E+00 0.  1.
          1   -1    0    0  501    0  0.00000000000E+00 -0.00000000000E+00 -0.15225316005E+03  0.15225316005E+03  0.00000000000E+00 0. -1.
         25    2    1    2    0    0 -0.11896942548E+02 -0.70512582725E+02 -0.90958877961E+01  0.14438402892E+03  0.12510176285E+03 0.  0.
          5    1    3    3  502    0 -0.43802291379E+02 -0.79481086142E+01 -0.46663366681E+02  0.64627821800E+02  0.41800000000E+01 0.  1.
         -5    1    3    3    0  502  0.31905348831E+02 -0.62564474110E+02  0.37567478885E+02  0.79756207122E+02  0.41800000000E+01 0.  1.
        -11    1    1    2    0    0 -0.15416831293E+02  0.36121395970E+02 -0.57391376653E+02  0.69542821686E+02  0.00000000000E+00 0. -1.
         11    1    1    2    0    0  0.27313773841E+02  0.34391186755E+02  0.27983358558E+02  0.52075563597E+02  0.00000000000E+00 0.  1.
</event>
<event>
 7    1  0.2723366E-009  0.1088040E+03  0.7561462E-02  0.1262801E+00
          2   -1    0    0  501    0  0.00000000000E+00  0.00000000000E+00  0.52340221621E+03  0.52340221621E+03  0.00000000000E+00 0. -1.
         -2   -1    0    0    0  501 -0.00000000000E+00 -0.00000000000E+00 -0.25494683168E+02  0.25494683168E+02  0.00000000000E+00 0.  1.
         25    2    1    2    0    0 -0.38329273898E+02  0.29092990899E+01  0.32639667342E+03  0.35165393553E+03  0.12509238462E+03 0.  0.
          5    1    3    3  502    0  0.43652529269E+02  0.67331390054E+01  0.74700471300E+02  0.86882168969E+02  0.41800000000E+01 0.  1.
         -5    1    3    3    0  502 -0.81981803166E+02 -0.38238399155E+01  0.25169620212E+03  0.26477176656E+03  0.41800000000E+01 0.  1.
        -11    1    1    2    0    0 -0.26054290163E+01 -0.37427971104E+02  0.10710119686E+03  0.11348263149E+03  0.00000000000E+00 0. -1.
         11    1    1    2    0    0  0.40934702914E+02  0.34518672014E+02  0.64409662755E+02  0.83760332356E+02  0.00000000000E+00 0.  1.
</event>
<event>
 7    1  0.2723366E-009  0.1473120E+03  0.7561462E-02  0.1203815E+00
          1   -1    0    0  501    0  0.00000000000E+00  0.00000000000E+00  0.26145004752E+03  0.26145004752E+03  0.00000000000E+00 0. -1.
         -1   -1    0    0    0  501 -0.00000000000E+00 -0.00000000000E+00 -0.12104439878E+03  0.12104439878E+03  0.00000000000E+00 0.  1.
         25    2    1    2    0    0  0.29483483269E+02 -0.94550191644E+02  0.18076796903E+03  0.24110794200E+03  0.12508783531E+03 0.  0.
          5    1    3    3  502    0  0.75944787097E+02 -0.34526750501E+02  0.94928282468E+02  0.12644587142E+03  0.41800000000E+01 0.  1.
         -5    1    3    3    0  502 -0.46461303828E+02 -0.60023441142E+02  0.85839686558E+02  0.11466207057E+03  0.41800000000E+01 0.  1.
        -11    1    1    2    0    0  0.15073711168E+01  0.10295397654E+03 -0.25916248069E+02  0.10617648217E+03  0.00000000000E+00 0.  1.
         11    1    1    2    0    0 -0.30990854386E+02 -0.84037848934E+01 -0.14446072211E+02  0.35210022130E+02  0.00000000000E+00 0. -1.
</event>
<event>
 7    1  0.2723366E-009  0.1544271E+03  0.7561462E-02  0.1195136E+00
         -1   -1    0    0    0  501 -0.00000000000E+00  0.00000000000E+00  0.20276302502E+03  0.20276302502E+03  0.00000000000E+00 0.  1.
          1   -1    0    0  501    0  0.00000000000E+00 -0.00000000000E+00 -0.16341601956E+03  0.16341601956E+03  0.00000000000E+00 0. -1.
         25    2    1    2    0    0 -0.68129102818E+02  0.12772041575E+03  0.79722040798E+01  0.19148080825E+03  0.12508902686E+03 0.  0.
          5    1    3    3  502    0 -0.35552990845E+02  0.69674271914E+01 -0.42978299188E+02  0.56366362316E+02  0.41800000000E+01 0. -1.
         -5    1    3    3    0  502 -0.32576111973E+02  0.12075298856E+03  0.50950503268E+02  0.13511444594E+03  0.41800000000E+01 0. -1.
        -11    1    1    2    0    0  0.30888252252E+02 -0.31721867041E+02  0.53432701033E+02  0.69393187817E+02  0.00000000000E+00 0.  1.
         11    1    1    2    0    0  0.37240850566E+02 -0.95998548709E+02 -0.22057899654E+02  0.10530504851E+03  0.00000000000E+00 0. -1.
</event>
<event>
 7    1  0.2723366E-009  0.7678066E+02  0.7561462E-02  0.1338444E+00
         -1   -1    0    0    0  501 -0.00000000000E+00  0.00000000000E+00  0.13512308369E+03  0.13512308369E+03  0.00000000000E+00 0.  1.
          1   -1    0    0  501    0  0.00000000000E+00 -0.00000000000E+00 -0.13598879808E+03  0.13598879808E+03  0.00000000000E+00 0. -1.
         25    2    1    2    0    0 -0.69017664368E+02 -0.31197330974E+02 -0.27556491931E+02  0.14880848943E+03  0.12509154578E+03 0.  0.
          5    1    3    3  502    0 -0.48003092059E+02 -0.17213751635E+02 -0.77398757412E+02  0.92782811670E+02  0.41800000000E+01 0.  1.
         -5    1    3    3    0  502 -0.21014572309E+02 -0.13983579339E+02  0.49842265481E+02  0.56025677763E+02  0.41800000000E+01 0.  1.
        -11    1    1    2    0    0  0.44518204331E+02  0.26665671905E+02  0.60882132957E+02  0.79997266756E+02  0.00000000000E+00 0.  1.
         11    1    1    2    0    0  0.24499460037E+02  0.45316590681E+01 -0.34191355424E+02  0.42306125582E+02  0.00000000000E+00 0. -1.
</event>
<event>
 7    1  0.2723366E-009  0.1159546E+03  0.7561462E-02  0.1249924E+00
         -2   -1    0    0    0  501 -0.00000000000E+00  0.00000000000E+00  0.20159367522E+02  0.20159367522E+02  0.00000000000E+00 0.  1.
          2   -1    0    0  501    0  0.00000000000E+00 -0.00000000000E+00 -0.94475691341E+03  0.94475691341E+03  0.00000000000E+00 0. -1.
         25    2    1    2    0    0 -0.38641216496E+02  0.36769741373E+02 -0.73997146949E+03  0.75236313986E+03  0.12508941227E+03 0.  0.
          5    1    3    3  502    0 -0.80348530399E+02  0.26015088830E+02 -0.59782782012E+03  0.60377830873E+03  0.41800000000E+01 0. -1.
         -5    1    3    3    0  502  0.41707313903E+02  0.10754652544E+02 -0.14214364937E+03  0.14858483112E+03  0.41800000000E+01 0. -1.
        -11    1    1    2    0    0  0.67976828478E+02 -0.24108456637E+02 -0.11206702615E+03  0.13327072162E+03  0.00000000000E+00 0. -1.
         11    1    1    2    0    0 -0.29335611982E+02 -0.12661284736E+02 -0.72559050256E+02  0.79282419461E+02  0.00000000000E+00 0.  1.
</event>
<event>
 7    1  0.2723366E-009  0.9914899E+02  0.7561462E-02  0.1282096E+00
         -1   -1    0    0    0  501 -0.00000000000E+00  0.00000000000E+00  0.74680225196E+02  0.74680225196E+02  0.00000000000E+00 0.  1.
          1   -1    0    0  501    0  0.00000000000E+00 -0.00000000000E+00 -0.16188393136E+03  0.16188393136E+03  0.00000000000E+00 0. -1.
         25    2    1    2    0    0 -0.14682919772E+02 -0.67481579561E+00 -0.57201792740E+02  0.13833043423E+03  0.12508885015E+03 0.  0.
          5    1    3    3  502    0  0.43729350035E+02  0.33136960965E+02 -0.41471033557E+02  0.68903071490E+02  0.41800000000E+01 0.  1.
         -5    1    3    3    0  502 -0.58412269808E+02 -0.33811776761E+02 -0.15730759183E+02  0.69427362735E+02  0.41800000000E+01 0.  1.
        -11    1    1    2    0    0  0.45110745546E+02  0.23968591278E+01  0.11621860330E+02  0.46645384927E+02  0.00000000000E+00 0.  1.
         11    1    1    2    0    0 -0.30427825774E+02 -0.17220433322E+01 -0.41623773751E+02  0.51588337401E+02  0.00000000000E+00 0. -1.
</event>
<event>
 7    1  0.2723366E-009  0.9287737E+02  0.7561462E-02  0.1296030E+00
          1   -1    0    0  501    0  0.00000000000E+00  0.00000000000E+00  0.10911450387E+03  0.10911450387E+03  0.00000000000E+00 0. -1.
         -1   -1    0    0    0  501 -0.00000000000E+00 -0.00000000000E+00 -0.11062923229E+03  0.11062923229E+03  0.00000000000E+00 0.  1.
         25    2    1    2    0    0 -0.36896261353E+01 -0.73271979325E+01 -0.16637823417E+02  0.12646083367E+03  0.12509286196E+03 0.  0.
          5    1    3    3  502    0  0.29283868028E+02 -0.48954973444E+02  0.21329923181E+02  0.61045658113E+02  0.41800000000E+01 0. -1.
         -5    1    3    3    0  502 -0.32973494163E+02  0.41627775511E+02 -0.37967746599E+02  0.65415175557E+02  0.41800000000E+01 0. -1.
        -11    1    1    2    0    0 -0.34785558545E+02  0.11379808110E+02 -0.19406835810E+02  0.41426566259E+02  0.00000000000E+00 0.  1.
         11    1    1    2    0    0  0.38475184680E+02 -0.40526101774E+01  0.34529930811E+02  0.51856336230E+02  0.00000000000E+00 0. -1.
</event>
<event>
 7    1  0.2723366E-009  0.9032858E+02  0.7561462E-02  0.1302058E+00
          1   -1    0    0  501    0  0.00000000000E+00  0.00000000000E+00  0.83113263964E+03  0.83113263964E+03  0.00000000000E+00 0. -1.
         -1   -1    0    0    0  501 -0.00000000000E+00 -0.00000000000E+00 -0.22393164895E+02  0.22393164895E+02  0.00000000000E+00 0.  1.
         25    2    1    2    0    0  0.79631898605E+01 -0.33349288332E+02  0.67181732117E+03  0.68422638436E+03  0.12510653300E+03 0.  0.
          5    1    3    3  502    0  0.19279562771E+02  0.37623909713E+02  0.11177344118E+03  0.11957438971E+03  0.41800000000E+01 0. -1.
         -5    1    3    3    0  502 -0.11316372910E+02 -0.70973198045E+02  0.56004388000E+03  0.56465199465E+03  0.41800000000E+01 0. -1.
        -11    1    1    2    0    0 -0.20220750485E+02 -0.89730202130E+01 -0.32550204661E+01  0.22360433810E+02  0.00000000000E+00 0.  1.
         11    1    1    2    0    0  0.12257560625E+02  0.42322308545E+02  0.14017717404E+03  0.14693898637E+03  0.00000000000E+00 0. -1.
</event>
<event>
 7    1  0.2723366E-009  0.1544543E+03  0.7561462E-02  0.1195104E+00
          2   -1    0    0  501    0  0.00000000000E+00  0.00000000000E+00  0.20531327669E+03  0.20531327669E+03  0.00000000000E+00 0. -1.
         -2   -1    0    0    0  501 -0.00000000000E+00 -0.00000000000E+00 -0.13250737313E+03  0.13250737313E+03  0.00000000000E+00 0.  1.
         25    2    1    2    0    0 -0.32472338877E+02 -0.12234577880E+03  0.34526478622E+02  0.18127784267E+03  0.12508651461E+03 0.  0.
          5    1    3    3  502    0 -0.47929471808E+02 -0.13743255537E+03  0.66451947226E+01  0.14576204087E+03  0.41800000000E+01 0.  1.
         -5    1    3    3    0  502  0.15457132931E+02  0.15086776578E+02  0.27881283900E+02  0.35515801805E+02  0.41800000000E+01 0.  1.
        -11    1    1    2    0    0  0.42615934008E+02  0.12391079696E+03  0.15993206182E+02  0.13200676528E+03  0.00000000000E+00 0.  1.
         11    1    1    2    0    0 -0.10143595131E+02 -0.15650181681E+01  0.22286218760E+02  0.24536041870E+02  0.00000000000E+00 0. -1.
</event>
<event>
 7    1  0.2835970E-009  0.1191184E+03  0.7561462E-02  0.1244559E+00
          2   -1    0    0  501    0  0.00000000000E+00  0.00000000000E+00  0.15364995050E+04  0.15364995050E+04  0.00000000000E+00 0. -1.
         -2   -1    0    0    0  501 -0.00000000000E+00 -0.00000000000E+00 -0.14843739155E+02  0.14843739155E+02  0.00000000000E+00 0.  1.
         25    2    1    2    0    0  0.84055419874E+02 -0.26811137571E+02  0.11094835278E+04  0.11199951018E+04  0.12510467145E+03 0.  0.
          5    1    3    3  502    0 -0.13851457792E+02 -0.33661956247E+02  0.60060211858E+03  0.60171867798E+03  0.41800000000E+01 0. -1.
         -5    1    3    3    0  502  0.97906877666E+02  0.68508186764E+01  0.50888140922E+03  0.51827642379E+03  0.41800000000E+01 0. -1.
        -11    1    1    2    0    0 -0.78896705675E+02  0.29525346352E+01  0.39143779513E+03  0.39932061690E+03  0.00000000000E+00 0. -1.
         11    1    1    2    0    0 -0.51587141996E+01  0.23858602935E+02  0.20734442940E+02  0.32027525509E+02  0.00000000000E+00 0.  1.
</event>
<event>
 7    1  0.2723366E-009  0.1240288E+03  0.7561462E-02  0.1236595E+00
         -1   -1    0    0    0  501 -0.00000000000E+00  0.00000000000E+00  0.37708550207E+02  0.37708550207E+02  0.00000000000E+00 0.  1.
          1   -1    0    0  501    0  0.00000000000E+00 -0.00000000000E+00 -0.55915258290E+03  0.55915258290E+03  0.00000000000E+00 0. -1.
         25    2    1    2    0    0 -0.16484004309E+02  0.62324177756E+02 -0.42605039619E+03  0.44869018652E+03  0.12509163782E+03 0.  0.
          5    1    3    3  502    0 -0.66834577181E+02  0.58468829609E+02 -0.24278322412E+03  0.25854715442E+03  0.41800000000E+01 0.  1.
         -5    1    3    3    0  502  0.50350572872E+02  0.38553481473E+01 -0.18326717207E+03  0.19014303210E+03  0.41800000000E+01 0.  1.
        -11    1    1    2    0    0 -0.19562964068E+02  0.14015928756E+02 -0.51805901299E+01  0.24616952210E+02  0.00000000000E+00 0.  1.
         11    1    1    2    0    0  0.36046968377E+02 -0.76340106512E+02 -0.90213046369E+02  0.12355399438E+03  0.00000000000E+00 0. -1.
</event>
<event>
 7    1  0.3114009E-009  0.1477322E+03  0.7561462E-02  0.1203288E+00
          1   -1    0    0  501    0  0.00000000000E+00  0.00000000000E+00  0.12953373793E+04  0.12953373793E+04  0.00000000000E+00 0. -1.
         -1   -1    0    0    0  501 -0.00000000000E+00 -0.00000000000E+00 -0.19611162202E+02  0.19611162202E+02  0.00000000000E+00 0.  1.
         25    2    1    2    0    0 -0.11233215779E+03 -0.26829376904E+02  0.74475695019E+03  0.76396929754E+03  0.12509134101E+03 0.  0.
          5    1    3    3  502    0 -0.86423816735E+01  0.34386282955E+02  0.33411410040E+03  0.33601608846E+03  0.41800000000E+01 0.  1.
         -5    1    3    3    0  502 -0.10368977612E+03 -0.61215659859E+02  0.41064284979E+03  0.42795320908E+03  0.41800000000E+01 0.  1.
        -11    1    1    2    0    0  0.53003395565E+02 -0.26720075608E+02  0.14240117608E+03  0.15427707973E+03  0.00000000000E+00 0. -1.
         11    1    1    2    0    0  0.59328762226E+02  0.53549452512E+02  0.38856809081E+03  0.39670216421E+03  0.00000000000E+00 0.  1.
</event>
<event>
 7    1  0.2723366E-009  0.8351034E+02  0.7561462E-02  0.1319375E+00
         -2   -1    0    0    0  501 -0.00000000000E+00  0.00000000000E+00  0.18985466336E+02  0.18985466336E+02  0.00000000000E+00 0.  1.
          2   -1    0    0  501    0  0.00000000000E+00 -0.00000000000E+00 -0.60241278153E+03  0.60241278153E+03  0.00000000000E+00 0. -1.
         25    2    1    2    0    0 -0.23485106228E+01  0.11784346100E+02 -0.33054182825E+03  0.35362372355E+03  0.12508977304E+03 0.  0.
          5    1    3    3  502    0 -0.15391307463E+02  0.44467931884E+02 -0.42919939316E+02  0.63826976290E+02  0.41800000000E+01 0.  1.
         -5    1    3    3    0  502  0.13042796840E+02 -0.32683585784E+02 -0.28762188894E+03  0.28979674726E+03  0.41800000000E+01 0.  1.
        -11    1    1    2    0    0  0.24360289250E+02 -0.41042946524E+02 -0.17985149316E+03  0.18607661525E+03  0.00000000000E+00 0. -1.
         11    1    1    2    0    0 -0.22011778627E+02  0.29258600424E+02 -0.73033993786E+02  0.81697909064E+02  0.00000000000E+00 0.  1.
</event>
<event>
 7    1  0.2723366E-009  0.2383270E+03  0.7561462E-02  0.1120912E+00
         -2   -1    0    0    0  501 -0.00000000000E+00  0.00000000000E+00  0.15044117183E+03  0.15044117183E+03  0.00000000000E+00 0.  1.
          2   -1    0    0  501    0  0.00000000000E+00 -0.00000000000E+00 -0.54759874423E+03  0.54759874423E+03  0.00000000000E+00 0. -1.
         25    2    1    2    0    0  0.16476732775E+03  0.14927771329E+03 -0.26434683695E+02  0.25647272876E+03  0.12508940849E+03 0.  0.
          5    1    3    3  502    0 -0.11410120949E+02  0.43290385052E+02 -0.23664007529E+02  0.50810490554E+02  0.41800000000E+01 0. -1.
         -5    1    3    3    0  502  0.17617744870E+03  0.10598732824E+03 -0.27706761659E+01  0.20566223821E+03  0.41800000000E+01 0. -1.
        -11    1    1    2    0    0 -0.11649814982E+03 -0.78881836697E+02 -0.15373635063E+03  0.20839632573E+03  0.00000000000E+00 0.  1.
         11    1    1    2    0    0 -0.48269177925E+02 -0.70395876593E+02 -0.21698653807E+03  0.23317086157E+03  0.00000000000E+00 0. -1.
</event>
<event>
 7    1  0.2723366E-009  0.1512791E+03  0.7561462E-02  0.1198910E+00
         -3   -1    0    0    0  501 -0.00000000000E+00  0.00000000000E+00  0.23547487060E+03  0.23547487060E+03  0.00000000000E+00 0.  1.
          3   -1    0    0  501    0  0.00000000000E+00 -0.00000000000E+00 -0.25777332895E+03  0.25777332895E+03  0.00000000000E+00 0. -1.
         25    2    1    2    0    0  0.76157822865E+02  0.97356495099E+02  0.12370876599E+03  0.21500652156E+03  0.12508255038E+03 0.  0.
          5    1    3    3  502    0  0.54574256374E+02 -0.18561649711E+02  0.37807006426E+02  0.69063206077E+02  0.41800000000E+01 0.  1.
         -5    1    3    3    0  502  0.21583566491E+02  0.11591814481E+03  0.85901759562E+02  0.14594331548E+03  0.41800000000E+01 0.  1.
        -11    1    1    2    0    0 -0.43581815487E+02 -0.33068539094E+02  0.47058769198E+02  0.72162529594E+02  0.00000000000E+00 0.  1.
         11    1    1    2    0    0 -0.32576007378E+02 -0.64287956006E+02 -0.19306599354E+03  0.20607914840E+03  0.00000000000E+00 0. -1.
</event>
<event>
 7    1  0.2723366E-009  0.9715045E+02  0.7561462E-02  0.1286405E+00
          2   -1    0    0  501    0  0.00000000000E+00  0.00000000000E+00  0.21827585323E+02  0.21827585323E+02  0.00000000000E+00 0. -1.
         -2   -1    0    0    0  501 -0.00000000000E+00 -0.00000000000E+00 -0.61110223819E+03  0.61110223819E+03  0.00000000000E+00 0.  1.
         25    2    1    2    0    0 -0.15932703344E+02 -0.33230102220E+02 -0.38168620516E+03  0.40334904954E+03  0.12509198947E+03 0.  0.
          5    1    3    3  502    0 -0.57211240395E+02 -0.14813467975E+02 -0.32678475403E+03  0.33211189790E+03  0.41800000000E+01 0.  1.
         -5    1    3    3    0  502  0.41278537051E+02 -0.18416634245E+02 -0.54901451133E+02  0.71237151645E+02  0.41800000000E+01 0.  1.
        -11    1    1    2    0    0 -0.18449755403E+02 -0.19415414273E+02 -0.11205506793E+03  0.11521150131E+03  0.00000000000E+00 0.  1.
         11    1    1    2    0    0  0.34382458747E+02  0.52645516493E+02 -0.95533379775E+02  0.11436927265E+03  0.00000000000E+00 0. -1.
</event>
<event>
 7    1  0.2723366E-009  0.9676036E+02  0.7561462E-02  0.1287260E+00
         -3   -1    0    0    0  501 -0.00000000000E+00  0.00000000000E+00  0.91242394975E+02  0.91242394975E+02  0.00000000000E+00 0.  1.
          3   -1    0    0  501    0  0.00000000000E+00 -0.00000000000E+00 -0.13520693122E+03  0.13520693122E+03  0.00000000000E+00 0. -1.
         25    2    1    2    0    0  0.15748398917E+02 -0.10926541319E+01 -0.47808935651E+02  0.13484281301E+03  0.12509070281E+03 0.  0.
          5    1    3    3  502    0  0.66737532089E+02 -0.15304143778E+02 -0.92420025559E+01  0.69217064495E+02  0.41800000000E+01 0.  1.
         -5    1    3    3    0  502 -0.50989133172E+02  0.14211489646E+02 -0.38566933095E+02  0.65625748513E+02  0.41800000000E+01 0.  1.
        -11    1    1    2    0    0 -0.22119798851E+02 -0.31569866472E+02  0.30350634950E+02  0.49062236111E+02  0.00000000000E+00 0.  1.
         11    1    1    2    0    0  0.63713999335E+01  0.32662520604E+02 -0.26506235546E+02  0.42544277079E+02  0.00000000000E+00 0. -1.
</event>
<event>
 7    1  0.2723366E-009  0.2597972E+03  0.7561462E-02  0.1107265E+00
          2   -1    0    0  501    0  0.00000000000E+00  0.00000000000E+00  0.18222847636E+04  0.18222847636E+04  0.00000000000E+00 0. -1.
         -2   -1    0    0    0  501 -0.00000000000E+00 -0.00000000000E+00 -0.70301083646E+02  0.70301083646E+02  0.00000000000E+00 0.  1.
         25    2    1    2    0    0  0.23644372697E+03 -0.63125584613E+02  0.15156867737E+04  0.15404052584E+04  0.12510591042E+03 0.  0.
          5    1    3    3  502    0  0.19195732942E+03 -0.44479921878E+01  0.12501504471E+04  0.12648165929E+04  0.41800000000E+01 0. -1.
         -5    1    3    3    0  502  0.44486397546E+02 -0.58677592425E+02  0.26553632660E+03  0.27558866552E+03  0.41800000000E+01 0. -1.
        -11    1    1    2    0    0 -0.52756509162E+02 -0.13972320495E+02  0.89105404627E+02  0.10449042125E+03  0.00000000000E+00 0. -1.
         11    1    1    2    0    0 -0.18368721781E+03  0.77097905108E+02  0.14719150167E+03  0.24769016759E+03  0.00000000000E+00 0.  1.
</event>
<event>
 7    1  0.2723366E-009  0.1102208E+03  0.7561462E-02  0.1260162E+00
          2   -1    0    0  501    0  0.00000000000E+00  0.00000000000E+00  0.38694572850E+03  0.38694572850E+03  0.00000000000E+00 0. -1.
         -2   -1    0    0    0  501 -0.00000000000E+00 -0.00000000000E+00 -0.53760513277E+02  0.53760513277E+02  0.00000000000E+00 0.  1.
         25    2    1    2    0    0 -0.60780184738E+02  0.28914436240E+02  0.28668812756E+03  0.31995255933E+03  0.12509709134E+03 0.  0.
          5    1    3    3  502    0 -0.47441255046E+00  0.61408728391E+02  0.20074150181E+03  0.20996637812E+03  0.41800000000E+01 0.  1.
         -5    1    3    3    0  502 -0.60305772187E+02 -0.32494292152E+02  0.85946625743E+02  0.10998618121E+03  0.41800000000E+01 0.  1.
        -11    1    1    2    0    0  0.70835052472E+02 -0.34463639970E+02  0.62847604376E+02  0.10077285604E+03  0.00000000000E+00 0. -1.
         11    1    1    2    0    0 -0.10054867735E+02  0.55492037302E+01 -0.16350516708E+02  0.19980826405E+02  0.00000000000E+00 0.  1.
</event>
<event>
 7    1  0.2723366E-009  0.1069247E+03  0.7561462E-02  0.1266373E+00
         -2   -1    0    0    0  501 -0.00000000000E+00  0.00000000000E+00  0.89581056783E+02  0.89581056783E+02  0.00000000000E+00 0. -1.
          2   -1    0    0  501    0  0.00000000000E+00 -0.00000000000E+00 -0.14736538824E+03  0.14736538824E+03  0.00000000000E+00 0.  1.
         25    2    1    2    0    0  0.28195497634E+02 -0.24869889432E+02 -0.33447096071E+02  0.13483114552E+03  0.12508889671E+03 0.  0.
          5    1    3    3  502    0  0.77777927123E+02 -0.19062841616E+02 -0.15894163596E+02  0.81748973782E+02  0.41800000000E+01 0. -1.
         -5    1    3    3    0  502 -0.49582429489E+02 -0.58070478158E+01 -0.17552932475E+02  0.53082171742E+02  0.41800000000E+01 0. -1.
        -11    1    1    2    0    0 -0.53893405933E+02  0.19490820845E+02 -0.41491933698E+02  0.70752892960E+02  0.00000000000E+00 0.  1.
         11    1    1    2    0    0  0.25697908299E+02  0.53790685868E+01  0.17154698311E+02  0.31362406540E+02  0.00000000000E+00 0. -1.
</event>
<event>
 7    1  0.2723366E-009  0.5188185E+02  0.7561462E-02  0.1435448E+00
         -2   -1    0    0    0  501 -0.00000000000E+00  0.00000000000E+00  0.56943711406E+02  0.56943711406E+02  0.00000000000E+00 0. -1.
          2   -1    0    0  501    0  0.00000000000E+00 -0.00000000000E+00 -0.25106381670E+03  0.25106381670E+03  0.00000000000E+00 0.  1.
         25    2    1    2    0    0  0.32384664514E+02 -0.38213826841E+01 -0.59657772631E+02  0.14237436698E+03  0.12509213036E+03 0.  0.
          5    1    3    3  502    0  0.16070742499E+02 -0.20306062901E+02  0.35613802380E+02  0.44231439892E+02  0.41800000000E+01 0.  1.
         -5    1    3    3    0  502  0.16313922016E+02  0.16484680217E+02 -0.95271575010E+02  0.98142927093E+02  0.41800000000E+01 0.  1.
        -11    1    1    2    0    0 -0.37037829422E+02  0.16436005347E+02 -0.14371065881E+03  0.14931408686E+03  0.00000000000E+00 0.  1.
         11    1    1    2    0    0  0.46531649079E+01 -0.12614622663E+02  0.92483261371E+01  0.16319074267E+02  0.00000000000E+00 0. -1.
</event>
<event>
 7    1  0.2723366E-009  0.1048664E+03  0.7561462E-02  0.1270383E+00
          3   -1    0    0  501    0  0.00000000000E+00  0.00000000000E+00  0.11388941180E+03  0.11388941180E+03  0.00000000000E+00 0.  1.
         -3   -1    0    0    0  501 -0.00000000000E+00 -0.00000000000E+00 -0.13998061206E+03  0.13998061206E+03  0.00000000000E+00 0. -1.
         25    2    1    2    0    0  0.37045948568E+02  0.95049853980E+01  0.46731909921E+02  0.13890573002E+03  0.12509269912E+03 0.  0.
          5    1    3    3  502    0  0.12617517244E+02  0.66072736176E+02  0.13361893664E+02  0.68708229562E+02  0.41800000000E+01 0. -1.
         -5    1    3    3    0  502  0.24428431324E+02 -0.56567750778E+02  0.33370016257E+02  0.70197500454E+02  0.41800000000E+01 0. -1.
        -11    1    1    2    0    0 -0.10749524168E+02 -0.39355067365E+02 -0.12433253722E+02  0.42649260196E+02  0.00000000000E+00 0.  1.
         11    1    1    2    0    0 -0.26296424399E+02  0.29850081967E+02 -0.60389856458E+02  0.72315033656E+02  0.00000000000E+00 0. -1.
</event>
<event>
 7    1  0.2723366E-009  0.1252072E+03  0.7561462E-02  0.1234746E+00
          2   -1    0    0  501    0  0.00000000000E+00  0.00000000000E+00  0.10308902766E+03  0.10308902766E+03  0.00000000000E+00 0. -1.
         -2   -1    0    0    0  501 -0.00000000000E+00 -0.00000000000E+00 -0.19555975172E+03  0.19555975172E+03  0.00000000000E+00 0.  1.
         25    2    1    2    0    0  0.86519531278E+02 -0.29347521185E+02 -0.59883165943E+02  0.16607486248E+03  0.12509180665E+03 0.  0.
          5    1    3    3  502    0  0.97671372292E+02 -0.64481744394E+02 -0.52059326929E+02  0.12816098566E+03  0.41800000000E+01 0.  1.
         -5    1    3    3    0  502 -0.11151841014E+02  0.35134223209E+02 -0.78238390143E+01  0.37913876819E+02  0.41800000000E+01 0.  1.
        -11    1    1    2    0    0 -0.13593822575E+02 -0.63585779243E+01 -0.47679404742E+02  0.49985489514E+02  0.00000000000E+00 0.  1.
         11    1    1    2    0    0 -0.72925708703E+02  0.35706099109E+02  0.15091846634E+02  0.82588427387E+02  0.00000000000E+00 0. -1.
</event>
<event>
 7    1  0.2723366E-009  0.2267506E+03  0.7561462E-02  0.1128948E+00
         -3   -1    0    0    0  501 -0.00000000000E+00  0.00000000000E+00  0.48509305662E+03  0.48509305662E+03  0.00000000000E+00 0.  1.
          3   -1    0    0  501    0  0.00000000000E+00 -0.00000000000E+00 -0.18475536962E+03  0.18475536962E+03  0.00000000000E+00 0. -1.
         25    2    1    2    0    0 -0.63698144329E+02 -0.19995826740E+03  0.35874407075E+03  0.43403455679E+03  0.12509166999E+03 0.  0.
          5    1    3    3  502    0 -0.17537153246E+02 -0.16872141730E+03  0.18275006732E+03  0.24937828274E+03  0.41800000000E+01 0. -1.
         -5    1    3    3    0  502 -0.46160991083E+02 -0.31236850102E+02  0.17599400344E+03  0.18465627405E+03  0.41800000000E+01 0. -1.
        -11    1    1    2    0    0  0.75699755448E+02  0.91272209361E+02 -0.38477928650E+02  0.12466603455E+03  0.00000000000E+00 0.  1.
         11    1    1    2    0    0 -0.12001611119E+02  0.10868605804E+03 -0.19928455105E+02  0.11114783490E+03  0.00000000000E+00 0. -1.
</event>
<event>
 7    1  0.4674830E-009  0.9755300E+02  0.7561462E-02  0.1285527E+00
         -1   -1    0    0    0  501 -0.00000000000E+00  0.00000000000E+00  0.18788384128E+02  0.18788384128E+02  0.00000000000E+00 0.  1.
          1   -1    0    0  501    0  0.00000000000E+00 -0.00000000000E+00 -0.82657526839E+03  0.82657526839E+03  0.00000000000E+00 0. -1.
         25    2    1    2    0    0 -0.15342512302E+02 -0.23948819062E+02 -0.63703968412E+03  0.64982779395E+03  0.12509062327E+03 0.  0.
          5    1    3    3  502    0 -0.61440476947E+02 -0.24139134381E+01 -0.49636002044E+03  0.50017147208E+03  0.41800000000E+01 0. -1.
         -5    1    3    3    0  502  0.46097964645E+02 -0.21534905624E+02 -0.14067966368E+03  0.14965632187E+03  0.41800000000E+01 0. -1.
        -11    1    1    2    0    0  0.41138748798E+02 -0.74292963388E+01 -0.37239789019E+02  0.55985649795E+02  0.00000000000E+00 0.  1.
         11    1    1    2    0    0 -0.25796236495E+02  0.31378115401E+02 -0.13350741113E+03  0.13955020878E+03  0.00000000000E+00 0. -1.
</event>
<event>
 7    1  0.2723366E-009  0.1083623E+03  0.7561462E-02  0.1263633E+00
          2   -1    0    0  501    0  0.00000000000E+00  0.00000000000E+00  0.15258218643E+03  0.15258218643E+03  0.00000000000E+00 0. -1.
         -2   -1    0    0    0  501 -0.00000000000E+00 -0.00000000000E+00 -0.11472795416E+03  0.11472795416E+03  0.00000000000E+00 0.  1.
         25    2    1    2    0    0 -0.88869591692E+01 -0.21519564797E+02 -0.51961459885E+02  0.13743951186E+03  0.12509019304E+03 0.  0.
          5    1    3    3  502    0 -0.66441132300E+02 -0.55405248574E+01 -0.33811088911E+02  0.74871781135E+02  0.41800000000E+01 0.  1.
         -5    1    3    3    0  502  0.57554173131E+02 -0.15979039939E+02 -0.18150370973E+02  0.62567730730E+02  0.41800000000E+01 0.  1.
        -11    1    1    2    0    0  0.46629687264E+02  0.64085272734E-01  0.28192815000E+02  0.54490060184E+02  0.00000000000E+00 0.  1.
         11    1    1    2    0    0 -0.37742728095E+02  0.21455479524E+02  0.61622877150E+02  0.75380568543E+02  0.00000000000E+00 0. -1.
</event>
<event>
 7    1  0.2723366E-009  0.1062349E+03  0.7561462E-02  0.1267705E+00
          2   -1    0    0  501    0  0.00000000000E+00  0.00000000000E+00  0.27080104154E+02  0.27080104154E+02  0.00000000000E+00 0. -1.
         -2   -1    0    0    0  501 -0.00000000000E+00 -0.00000000000E+00 -0.66844470925E+03  0.66844470925E+03  0.00000000000E+00 0.  1.
         25    2    1    2    0    0 -0.77772035660E+02  0.21364031137E+02 -0.31679029109E+03  0.35001303026E+03  0.12509245167E+03 0.  0.
          5    1    3    3  502    0 -0.14953069130E+02 -0.21145178483E+02 -0.21376275082E+01  0.26320233678E+02  0.41800000000E+01 0. -1.
         -5    1    3    3    0  502 -0.62818966529E+02  0.42509209620E+02 -0.31465266358E+03  0.32369279658E+03  0.41800000000E+01 0. -1.
        -11    1    1    2    0    0 -0.14009702406E+02  0.48398365192E+01 -0.13239503053E+02  0.19874109292E+02  0.00000000000E+00 0. -1.
         11    1    1    2    0    0  0.91781738066E+02 -0.26203867656E+02 -0.31133481096E+03  0.32563767386E+03  0.00000000000E+00 0.  1.
</event>
<event>
 7    1  0.2723366E-009  0.8158173E+02  0.7561462E-02  0.1324622E+00
         -3   -1    0    0    0  501 -0.00000000000E+00  0.00000000000E+00  0.85753603201E+02  0.85753603201E+02  0.00000000000E+00 0.  1.
          3   -1    0    0  501    0  0.00000000000E+00 -0.00000000000E+00 -0.16889326287E+03  0.16889326287E+03  0.00000000000E+00 0. -1.
         25    2    1    2    0    0 -0.40129974489E+02  0.14395753916E+02 -0.16930133873E+02  0.13323380769E+03  0.12508783112E+03 0.  0.
          5    1    3    3  502    0  0.33742570063E+02  0.29296313431E+02 -0.33444836489E+02  0.55971997489E+02  0.41800000000E+01 0.  1.
         -5    1    3    3    0  502 -0.73872544552E+02 -0.14900559515E+02  0.16514702616E+02  0.77261810197E+02  0.41800000000E+01 0.  1.
        -11    1    1    2    0    0  0.26128282229E+02 -0.74104292402E+01 -0.89401728565E+02  0.93435917420E+02  0.00000000000E+00 0. -1.
         11    1    1    2    0    0  0.14001692260E+02 -0.69853246754E+01  0.23192202773E+02  0.27977140962E+02  0.00000000000E+00 0.  1.
</event>
<event>
 7    1  0.2723366E-009  0.1293717E+03  0.7561462E-02  0.1228391E+00
         -2   -1    0    0    0  501 -0.00000000000E+00  0.00000000000E+00  0.14227687314E+02  0.14227687314E+02  0.00000000000E+00 0.  1.
          2   -1    0    0  501    0  0.00000000000E+00 -0.00000000000E+00 -0.13347191451E+04  0.13347191451E+04  0.00000000000E+00 0. -1.
         25    2    1    2    0    0  0.55608474793E+02 -0.44595531168E+02 -0.94754579567E+03  0.95842117333E+03  0.12508815576E+03 0.  0.
          5    1    3    3  502    0  0.54891156135E+02 -0.85554593004E+02 -0.61894674391E+03  0.62725207979E+03  0.41800000000E+01 0. -1.
         -5    1    3    3    0  502  0.71731865756E+00  0.40959061836E+02 -0.32859905176E+03  0.33116909353E+03  0.41800000000E+01 0. -1.
        -11    1    1    2    0    0  0.25147724824E+02  0.17546327768E+02 -0.95352916228E+02  0.10016217008E+03  0.00000000000E+00 0.  1.
         11    1    1    2    0    0 -0.80756199617E+02  0.27049203400E+02 -0.27759274586E+03  0.29036348899E+03  0.00000000000E+00 0. -1.
</event>
<event>
 7    1  0.2723366E-009  0.1270458E+03  0.7561462E-02  0.1231906E+00
         -2   -1    0    0    0  501 -0.00000000000E+00  0.00000000000E+00  0.69533959279E+03  0.69533959279E+03  0.00000000000E+00 0.  1.
          2   -1    0    0  501    0  0.00000000000E+00 -0.00000000000E+00 -0.38151277656E+02  0.38151277656E+02  0.00000000000E+00 0. -1.
         25    2    1    2    0    0  0.97743484761E+01 -0.11263414213E+03  0.42309848512E+03  0.45545731364E+03  0.12508816322E+03 0.  0.
          5    1    3    3  502    0 -0.24415719281E+01 -0.74008886775E+02  0.40350230683E+03  0.41026194146E+03  0.41800000000E+01 0. -1.
         -5    1    3    3    0  502  0.12215920404E+02 -0.38625255360E+02  0.19596178290E+02  0.45195372180E+02  0.41800000000E+01 0. -1.
        -11    1    1    2    0    0 -0.44447323010E+02  0.80341542719E+02  0.19871947993E+03  0.21890582384E+03  0.00000000000E+00 0.  1.
         11    1    1    2    0    0  0.34672974534E+02  0.32292599415E+02  0.35370350089E+02  0.59127732964E+02  0.00000000000E+00 0. -1.
</event>
<event>
 7    1  0.2723366E-009  0.1087369E+03  0.7561462E-02  0.1262927E+00
         -2   -1    0    0    0  501 -0.00000000000E+00  0.00000000000E+00  0.36023003343E+03  0.36023003343E+03  0.00000000000E+00 0.  1.
          2   -1    0    0  501    0  0.00000000000E+00 -0.00000000000E+00 -0.34367522984E+02  0.34367522984E+02  0.00000000000E+00 0. -1.
         25    2    1    2    0    0  0.72261506552E+01 -0.20926421815E+02  0.17761320411E+03  0.21836715437E+03  0.12509049305E+03 0.  0.
          5    1    3    3  502    0  0.60772825655E+02 -0.35423915654E+02  0.11223535578E+03  0.13252334747E+03  0.41800000000E+01 0.  1.
         -5    1    3    3    0  502 -0.53546675000E+02  0.14497493839E+02  0.65377848327E+02  0.85843806900E+02  0.41800000000E+01 0.  1.
        -11    1    1    2    0    0  0.28087333563E+01  0.55399438940E+02  0.11317432136E+03  0.12603735095E+03  0.00000000000E+00 0.  1.
         11    1    1    2    0    0 -0.10034884011E+02 -0.34473017125E+02  0.35074984970E+02  0.50193051087E+02  0.00000000000E+00 0. -1.
</event>
<event>
 7    1  0.2723366E-009  0.7288660E+02  0.7561462E-02  0.1350543E+00
          2   -1    0    0  501    0  0.00000000000E+00  0.00000000000E+00  0.28454415102E+03  0.28454415102E+03  0.00000000000E+00 0. -1.
         -2   -1    0    0    0  501 -0.00000000000E+00 -0.00000000000E+00 -0.49212701818E+02  0.49212701818E+02  0.00000000000E+00 0.  1.
         25    2    1    2    0    0 -0.16584288861E+02 -0.17245171998E+02  0.19290641260E+03  0.23115867469E+03  0.12509602019E+03 0.  0.
          5    1    3    3  502    0  0.11127705604E+02 -0.22286859068E+02 -0.93304699007E+01  0.26926937956E+02  0.41800000000E+01 0.  1.
         -5    1    3    3    0  502 -0.27711994465E+02  0.50416870700E+01  0.20223688250E+03  0.20423173673E+03  0.41800000000E+01 0.  1.
        -11    1    1    2    0    0 -0.21131881671E+02 -0.26750184527E+02  0.24357854661E+02  0.41897898263E+02  0.00000000000E+00 0.  1.
         11    1    1    2    0    0  0.37716170531E+02  0.43995356526E+02  0.18067181948E+02  0.60700279892E+02  0.00000000000E+00 0. -1.
</event>
<event>
 7    1  0.2723366E-009  0.6992442E+02  0.7561462E-02  0.1360350E+00
         -2   -1    0    0    0  501 -0.00000000000E+00  0.00000000000E+00  0.54830916461E+02  0.54830916461E+02  0.00000000000E+00 0.  1.
          2   -1    0    0  501    0  0.00000000000E+00 -0.00000000000E+00 -0.32333991383E+03  0.32333991383E+03  0.00000000000E+00 0. -1.
         25    2    1    2    0    0  0.37076568108E+02  0.93766596989E+01 -0.24268116538E+03  0.27568862174E+03  0.12508986560E+03 0.  0.
          5    1    3    3  502    0  0.13817178327E+02 -0.20191286411E+02 -0.23593945506E+03  0.23724144098E+03  0.41800000000E+01 0. -1.
         -5    1    3    3    0  502  0.23259389781E+02  0.29567946110E+02 -0.67417103156E+01  0.38447180756E+02  0.41800000000E+01 0. -1.
        -11    1    1    2    0    0 -0.36579028943E+02  0.24030058953E+02 -0.45968178488E+02  0.63470800572E+02  0.00000000000E+00 0. -1.
         11    1    1    2    0    0 -0.49753916485E+00 -0.33406718652E+02  0.20140346492E+02  0.39011407987E+02  0.00000000000E+00 0.  1.
</event>
<event>
 7    1  0.2723366E-009  0.1123791E+03  0.7561462E-02  0.1256227E+00
         -1   -1    0    0    0  501 -0.00000000000E+00  0.00000000000E+00  0.33533898199E+02  0.33533898199E+02  0.00000000000E+00 0.  1.
          1   -1    0    0  501    0  0.00000000000E+00 -0.00000000000E+00 -0.42806766645E+03  0.42806766645E+03  0.00000000000E+00 0. -1.
         25    2    1    2    0    0 -0.39696712343E+02  0.25797826162E+02 -0.25085571804E+03  0.28428313668E+03  0.12508778406E+03 0.  0.
          5    1    3    3  502    0 -0.28259247338E+02 -0.49572649920E+02 -0.11490158248E+03  0.12835839956E+03  0.41800000000E+01 0.  1.
         -5    1    3    3    0  502 -0.11437465005E+02  0.75370476082E+02 -0.13595413556E+03  0.15592473712E+03  0.41800000000E+01 0.  1.
        -11    1    1    2    0    0  0.29131066373E+02 -0.53847367147E+02 -0.50261282165E+02  0.79210822881E+02  0.00000000000E+00 0.  1.
         11    1    1    2    0    0  0.10565645969E+02  0.28049540985E+02 -0.93416768044E+02  0.98107605087E+02  0.00000000000E+00 0. -1.
</event>
<event>
 7    1  0.2723366E-009  0.9167977E+02  0.7561462E-02  0.1298834E+00
          1   -1    0    0  501    0  0.00000000000E+00  0.00000000000E+00  0.11360052506E+03  0.11360052506E+03  0.00000000000E+00 0. -1.
         -1   -1    0    0    0  501 -0.00000000000E+00 -0.00000000000E+00 -0.12836671232E+03  0.12836671232E+03  0.00000000000E+00 0.  1.
         25    2    1    2    0    0  0.18942394460E+02  0.50916954863E+02  0.54727254283E+01  0.13648575582E+03  0.12508820975E+03 0.  0.
          5    1    3    3  502    0 -0.70585410075E+01  0.72085104588E+02  0.44307460022E+02  0.85010050690E+02  0.41800000000E+01 0. -1.
         -5    1    3    3    0  502  0.26000935467E+02 -0.21168149725E+02 -0.38834734594E+02  0.51475705133E+02  0.41800000000E+01 0. -1.
        -11    1    1    2    0    0 -0.35922822678E+02 -0.18453936696E+02 -0.45608591039E+02  0.60919131193E+02  0.00000000000E+00 0.  1.
         11    1    1    2    0    0  0.16980428218E+02 -0.32463018167E+02  0.25369678352E+02  0.44562350372E+02  0.00000000000E+00 0. -1.
</event>
<event>
 7    1  0.2723366E-009  0.1089320E+03  0.7561462E-02  0.1262561E+00
         -1   -1    0    0    0  501 -0.00000000000E+00  0.00000000000E+00  0.10025374190E+03  0.10025374190E+03  0.00000000000E+00 0.  1.
          1   -1    0    0  501    0  0.00000000000E+00 -0.00000000000E+00 -0.18447936040E+03  0.18447936040E+03  0.00000000000E+00 0. -1.
         25    2    1    2    0    0 -0.77942361598E+01 -0.39971606231E+02 -0.12120213978E+03  0.17887197785E+03  0.12508695515E+03 0.  0.
          5    1    3    3  502    0 -0.54339979115E+02  0.15184162274E+02 -0.71344680921E+02  0.91054533165E+02  0.41800000000E+01 0. -1.
         -5    1    3    3    0  502  0.46545742955E+02 -0.55155768505E+02 -0.49857458857E+02  0.87817444681E+02  0.41800000000E+01 0. -1.
        -11    1    1    2    0    0 -0.16602366614E+02 -0.18967339490E+02  0.33571730988E+02  0.41981658686E+02  0.00000000000E+00 0. -1.
         11    1    1    2    0    0  0.24396602773E+02  0.58938945721E+02  0.34047902952E+01  0.63879465765E+02  0.00000000000E+00 0.  1.
</event>
<event>
 7    1  0.2723366E-009  0.1317627E+03  0.7561462E-02  0.1224863E+00
          1   -1    0    0  501    0  0.00000000000E+00  0.00000000000E+00  0.10010006722E+03  0.10010006722E+03  0.00000000000E+00 0. -1.
         -1   -1    0    0    0  501 -0.00000000000E+00 -0.00000000000E+00 -0.19843625721E+03  0.19843625721E+03  0.00000000000E+00 0.  1.
         25    2    1    2    0    0 -0.30838337143E+02  0.41704341834E+02 -0.21216350059E+02  0.13707088726E+03  0.12509212389E+03 0.  0.
          5    1    3    3  502    0 -0.73436060561E+02  0.17532214511E+02 -0.38642442024E+02  0.84917278936E+02  0.41800000000E+01 0.  1.
         -5    1    3    3    0  502  0.42597723418E+02  0.24172127323E+02  0.17426091965E+02  0.52153608321E+02  0.41800000000E+01 0.  1.
        -11    1    1    2    0    0  0.76713232151E+02  0.63144010972E-01 -0.25755094785E+02  0.80921251112E+02  0.00000000000E+00 0. -1.
         11    1    1    2    0    0 -0.45874895008E+02 -0.41767485845E+02 -0.51364745144E+02  0.80544186069E+02  0.00000000000E+00 0.  1.
</event>
<event>
 7    1  0.2723366E-009  0.7031227E+02  0.7561462E-02  0.1359034E+00
          2   -1    0    0  501    0  0.00000000000E+00  0.00000000000E+00  0.79671190892E+02  0.79671190892E+02  0.00000000000E+00 0. -1.
         -2   -1    0    0    0  501 -0.00000000000E+00 -0.00000000000E+00 -0.16897083947E+03  0.16897083947E+03  0.00000000000E+00 0.  1.
         25    2    1    2    0    0  0.18754239113E+02  0.26833362021E+02 -0.76913638829E+02  0.15045058308E+03  0.12509164364E+03 0.  0.
          5    1    3    3  502    0  0.43998653871E+01  0.28756490281E+02 -0.11012456576E+03  0.11397888810E+03  0.41800000000E+01 0.  1.
         -5    1    3    3    0  502  0.14354373726E+02 -0.19231282597E+01  0.33210926928E+02  0.36471694981E+02  0.41800000000E+01 0.  1.
        -11    1    1    2    0    0  0.28329709201E+02 -0.38359412580E+02  0.16846095902E+01  0.47716400392E+02  0.00000000000E+00 0. -1.
         11    1    1    2    0    0 -0.47083948314E+02  0.11526050559E+02 -0.14070619342E+02  0.50475046894E+02  0.00000000000E+00 0.  1.
</event>
<event>
 7    1  0.2723366E-009  0.1353871E+03  0.7561462E-02  0.1219674E+00
         -1   -1    0    0    0  501 -0.00000000000E+00  0.00000000000E+00  0.18075958587E+02  0.18075958587E+02  0.00000000000E+00 0.  1.
          1   -1    0    0  501    0  0.00000000000E+00 -0.00000000000E+00 -0.19432167279E+04  0.19432167279E+04  0.00000000000E+00 0. -1.
         25    2    1    2    0    0  0.25111228019E+02  0.84644538717E+02 -0.16599674396E+04  0.16670126407E+04  0.12507586573E+03 0.  0.
          5    1    3    3  502    0  0.17238667781E+02 -0.26590897670E+02 -0.67261189349E+03  0.67337098183E+03  0.41800000000E+01 0.  1.
         -5    1    3    3    0  502  0.78725602382E+01  0.11123543639E+03 -0.98735554607E+03  0.99364165888E+03  0.41800000000E+01 0.  1.
        -11    1    1    2    0    0 -0.53166215467E+02 -0.20098494676E+02 -0.10712495272E+03  0.12126974664E+03  0.00000000000E+00 0. -1.
         11    1    1    2    0    0  0.28054987448E+02 -0.64546044041E+02 -0.15804837700E+03  0.17301029910E+03  0.00000000000E+00 0.  1.
</event>
<event>
 7    1  0.2723366E-009  0.8403778E+02  0.7561462E-02  0.1317968E+00
          1   -1    0    0  501    0  0.00000000000E+00  0.00000000000E+00  0.23408834817E+03  0.23408834817E+03  0.00000000000E+00 0. -1.
         -1   -1    0    0    0  501 -0.00000000000E+00 -0.00000000000E+00 -0.58089085966E+02  0.58089085966E+02  0.00000000000E+00 0.  1.
         25    2    1    2    0    0 -0.33617857184E+02  0.25735369522E+02  0.11012993591E+03  0.17195848322E+03  0.12509455465E+03 0.  0.
          5    1    3    3  502    0 -0.47164947233E+02  0.31224294543E+02 -0.39635489085E+01  0.56856582180E+02  0.41800000000E+01 0.  1.
         -5    1    3    3    0  502  0.13547090049E+02 -0.54889250215E+01  0.11409348482E+03  0.11510190104E+03  0.41800000000E+01 0.  1.
        -11    1    1    2    0    0  0.47091959813E+02  0.17981573891E+02  0.16802521521E+02  0.53134869983E+02  0.00000000000E+00 0.  1.
         11    1    1    2    0    0 -0.13474102629E+02 -0.43716943413E+02  0.49066804775E+02  0.67084080927E+02  0.00000000000E+00 0. -1.
</event>
<event>
 7    1  0.2723366E-009  0.1493504E+03  0.7561462E-02  0.1201273E+00
         -2   -1    0    0    0  501 -0.00000000000E+00  0.00000000000E+00  0.49711260170E+02  0.49711260170E+02  0.00000000000E+00 0. -1.
          2   -1    0    0  501    0  0.00000000000E+00 -0.00000000000E+00 -0.75706890541E+03  0.75706890541E+03  0.00000000000E+00 0.  1.
         25    2    1    2    0    0  0.10145086255E+03  0.45869712721E+02 -0.61037216955E+03  0.63292791625E+03  0.12508898332E+03 0.  0.
          5    1    3    3  502    0  0.50513938468E+01 -0.38640848596E+02 -0.14149039656E+03  0.14681837923E+03  0.41800000000E+01 0.  1.
         -5    1    3    3    0  502  0.96399468704E+02  0.84510561317E+02 -0.46888177299E+03  0.48610953702E+03  0.41800000000E+01 0.  1.
        -11    1    1    2    0    0 -0.54510007845E+02  0.12909988838E+02 -0.78418878168E+02  0.96371827938E+02  0.00000000000E+00 0.  1.
         11    1    1    2    0    0 -0.46940854706E+02 -0.58779701559E+02 -0.18566597523E+02  0.77480421395E+02  0.00000000000E+00 0. -1.
</event>
<event>
 7    1  0.2723366E-009  0.2173352E+03  0.7561462E-02  0.1135886E+00
         -2   -1    0    0    0  501 -0.00000000000E+00  0.00000000000E+00  0.54131582691E+02  0.54131582691E+02  0.00000000000E+00 0.  1.
          2   -1    0    0  501    0  0.00000000000E+00 -0.00000000000E+00 -0.94051835934E+03  0.94051835934E+03  0.00000000000E+00 0. -1.
         25    2    1    2    0    0 -0.18656066157E+03 -0.64296837517E+02 -0.46826062278E+03  0.52331122495E+03  0.12509062134E+03 0.  0.
          5    1    3    3  502    0 -0.20211724380E+03 -0.69961213597E+02 -0.45028790589E+03  0.49852043312E+03  0.41800000000E+01 0.  1.
         -5    1    3    3    0  502  0.15556582227E+02  0.56643760798E+01 -0.17972716892E+02  0.24790791828E+02  0.41800000000E+01 0.  1.
        -11    1    1    2    0    0  0.13338767998E+02 -0.84540475019E+01 -0.35629952241E+01  0.16189150250E+02  0.00000000000E+00 0.  1.
         11    1    1    2    0    0  0.17322189357E+03  0.72750885019E+02 -0.41456315864E+03  0.45514956683E+03  0.00000000000E+00 0. -1.
</event>
<event>
 7    1  0.2723366E-009  0.2237245E+03  0.7561462E-02  0.1131136E+00
         -2   -1    0    0    0  501 -0.00000000000E+00  0.00000000000E+00  0.10862985601E+03  0.10862985601E+03  0.00000000000E+00 0.  1.
          2   -1    0    0  501    0  0.00000000000E+00 -0.00000000000E+00 -0.57704641582E+03  0.57704641582E+03  0.00000000000E+00 0. -1.
         25    2    1    2    0    0  0.10068883434E+03 -0.19109293247E+03 -0.32802945405E+03  0.41219556600E+03  0.12508841556E+03 0.  0.
          5    1    3    3  502    0  0.53123253251E+02 -0.38270844104E+02 -0.26424688586E+02  0.70728170564E+02  0.41800000000E+01 0. -1.
         -5    1    3    3    0  502  0.47565581089E+02 -0.15282208837E+03 -0.30160476546E+03  0.34146739543E+03  0.41800000000E+01 0. -1.
        -11    1    1    2    0    0 -0.66398759064E+02  0.72621584899E+02 -0.18585822792E+02  0.10014051432E+03  0.00000000000E+00 0.  1.
         11    1    1    2    0    0 -0.34290075276E+02  0.11847134757E+03 -0.12180128297E+03  0.17334019151E+03  0.00000000000E+00 0. -1.
</event>
<event>
 7    1  0.2723366E-009  0.9794133E+02  0.7561462E-02  0.1284686E+00
          1   -1    0    0  501    0  0.00000000000E+00  0.00000000000E+00  0.33166601148E+03  0.33166601148E+03  0.00000000000E+00 0. -1.
         -1   -1    0    0    0  501 -0.00000000000E+00 -0.00000000000E+00 -0.38465107290E+02  0.38465107290E+02  0.00000000000E+00 0.  1.
         25    2    1    2    0    0 -0.10274825872E+02 -0.10197220619E+02  0.12608439325E+03  0.17819797820E+03  0.12509072651E+03 0.  0.
          5    1    3    3  502    0 -0.10623003118E+02  0.48403475322E+02  0.14024541922E+02  0.51671121477E+02  0.41800000000E+01 0.  1.
         -5    1    3    3    0  502  0.34817724591E+00 -0.58600695942E+02  0.11205985133E+03  0.12652685672E+03  0.41800000000E+01 0.  1.
        -11    1    1    2    0    0 -0.35573116535E+02  0.19575163616E+02  0.42307496166E+02  0.58639217955E+02  0.00000000000E+00 0.  1.
         11    1    1    2    0    0  0.45847942406E+02 -0.93779429965E+01  0.12480901477E+03  0.13329392262E+03  0.00000000000E+00 0. -1.
</event>
<event>
 7    1  0.2723366E-009  0.2082140E+03  0.7561462E-02  0.1142988E+00
          2   -1    0    0  501    0  0.00000000000E+00  0.00000000000E+00  0.93950108603E+03  0.93950108603E+03  0.00000000000E+00 0.  1.
         -2   -1    0    0    0  501 -0.00000000000E+00 -0.00000000000E+00 -0.64108935387E+02  0.64108935387E+02  0.00000000000E+00 0. -1.
         25    2    1    2    0    0 -0.86270620772E+02 -0.16842464340E+03  0.68226004459E+03  0.71898269138E+03  0.12509141280E+03 0.  0.
          5    1    3    3  502    0  0.15246746053E+02 -0.42356074605E+01  0.92013259645E+01  0.18776060164E+02  0.41800000000E+01 0. -1.
         -5    1    3    3    0  502 -0.10151736683E+03 -0.16418903594E+03  0.67305871862E+03  0.70020663122E+03  0.41800000000E+01 0. -1.
        -11    1    1    2    0    0  0.67267405444E+02  0.42371647606E+02  0.55053529544E+02  0.96701351962E+02  0.00000000000E+00 0. -1.
         11    1    1    2    0    0  0.19003215328E+02  0.12605299580E+03  0.13807857651E+03  0.18792597807E+03  0.00000000000E+00 0.  1.
</event>
<event>
 7    1  0.2723366E-009  0.2907006E+03  0.7561462E-02  0.1089984E+00
          2   -1    0    0  501    0  0.00000000000E+00  0.00000000000E+00  0.15388158252E+04  0.15388158252E+04  0.00000000000E+00 0. -1.
         -2   -1    0    0    0  501 -0.00000000000E+00 -0.00000000000E+00 -0.97931819544E+02  0.97931819544E+02  0.00000000000E+00 0.  1.
         25    2    1    2    0    0  0.20786477315E+03 -0.18154498692E+03  0.20116000600E+03  0.36370202995E+03  0.12508985724E+03 0.  0.
          5    1    3    3  502    0  0.14189515680E+03 -0.17916995914E+03  0.11740375261E+03  0.25697708713E+03  0.41800000000E+01 0. -1.
         -5    1    3    3    0  502  0.65969616351E+02 -0.23750277777E+01  0.83756253394E+02  0.10672494282E+03  0.41800000000E+01 0. -1.
        -11    1    1    2    0    0 -0.58433376481E+02  0.10157119102E+03  0.42362269640E+03  0.43953083537E+03  0.00000000000E+00 0.  1.
         11    1    1    2    0    0 -0.14943139667E+03  0.79973795902E+02  0.81610130325E+03  0.83351477942E+03  0.00000000000E+00 0. -1.
</event>
<event>
 7    1  0.2723366E-009  0.1006838E+03  0.7561462E-02  0.1278864E+00
          2   -1    0    0  501    0  0.00000000000E+00  0.00000000000E+00  0.52443004105E+03  0.52443004105E+03  0.00000000000E+00 0. -1.
         -2   -1    0    0    0  501 -0.00000000000E+00 -0.00000000000E+00 -0.24963340218E+02  0.24963340218E+02  0.00000000000E+00 0.  1.
         25    2    1    2    0    0  0.73399210383E+01  0.40390548362E+02  0.28115246223E+03  0.31045044295E+03  0.12508996631E+03 0.  0.
          5    1    3    3  502    0  0.50460206334E+02 -0.16744706043E+02  0.17007689691E+03  0.17824208501E+03  0.41800000000E+01 0. -1.
         -5    1    3    3    0  502 -0.43120285296E+02  0.57135254405E+02  0.11107556532E+03  0.13220835795E+03  0.41800000000E+01 0. -1.
        -11    1    1    2    0    0  0.19793869848E+02 -0.44676347188E+02  0.56006525952E+02  0.74327008758E+02  0.00000000000E+00 0.  1.
         11    1    1    2    0    0 -0.27133790887E+02  0.42857988262E+01  0.16230771264E+03  0.16461592956E+03  0.00000000000E+00 0. -1.
</event>
<event>
 7    1  0.2723366E-009  0.1596206E+03  0.7561462E-02  0.1189126E+00
         -2   -1    0    0    0  501 -0.00000000000E+00  0.00000000000E+00  0.17047796840E+03  0.17047796840E+03  0.00000000000E+00 0.  1.
          2   -1    0    0  501    0  0.00000000000E+00 -0.00000000000E+00 -0.28109846663E+03  0.28109846663E+03  0.00000000000E+00 0. -1.
         25    2    1    2    0    0 -0.73944509433E+02  0.12523711030E+03  0.67758366964E+02  0.20344616270E+03  0.12508805120E+03 0.  0.
          5    1    3    3  502    0 -0.29137148462E+02  0.31784457425E+01  0.67114068879E+02  0.73354253996E+02  0.41800000000E+01 0. -1.
         -5    1    3    3    0  502 -0.44807360971E+02  0.12205866455E+03  0.64429808447E+00  0.13009190870E+03  0.41800000000E+01 0. -1.
        -11    1    1    2    0    0  0.37250783504E+01 -0.70272322807E+02 -0.33335684153E+02  0.77867473308E+02  0.00000000000E+00 0.  1.
         11    1    1    2    0    0  0.70219431082E+02 -0.54964787488E+02 -0.14504318104E+03  0.17026279902E+03  0.00000000000E+00 0. -1.
</event>
<event>
 7    1  0.2723366E-009  0.1300345E+03  0.7561462E-02  0.1227405E+00
          1   -1    0    0  501    0  0.00000000000E+00  0.00000000000E+00  0.66361553688E+02  0.66361553688E+02  0.00000000000E+00 0. -1.
         -1   -1    0    0    0  501 -0.00000000000E+00 -0.00000000000E+00 -0.32326645121E+03  0.32326645121E+03  0.00000000000E+00 0.  1.
         25    2    1    2    0    0 -0.47850510404E+02 -0.57162647392E+02 -0.55196685455E+02  0.15572589267E+03  0.12508652990E+03 0.  0.
          5    1    3    3  502    0 -0.85047704380E+02 -0.60100849813E+02 -0.55703441932E+02  0.11817601284E+03  0.41800000000E+01 0.  1.
         -5    1    3    3    0  502  0.37197193976E+02  0.29382024215E+01  0.50675647689E+00  0.37549879831E+02  0.41800000000E+01 0.  1.
        -11    1    1    2    0    0  0.73979627480E+02  0.27894984539E+02 -0.12968610403E+03  0.15188680332E+03  0.00000000000E+00 0.  1.
         11    1    1    2    0    0 -0.26129117076E+02  0.29267662853E+02 -0.72022108037E+02  0.82015308901E+02  0.00000000000E+00 0. -1.
</event>
<event>
 7    1  0.2723366E-009  0.1162546E+03  0.7561462E-02  0.1249407E+00
         -1   -1    0    0    0  501 -0.00000000000E+00  0.00000000000E+00  0.55561315589E+02  0.55561315589E+02  0.00000000000E+00 0. -1.
          1   -1    0    0  501    0  0.00000000000E+00 -0.00000000000E+00 -0.10287902513E+04  0.10287902513E+04  0.00000000000E+00 0.  1.
         25    2    1    2    0    0 -0.80097181303E+02  0.58247377791E+02 -0.90663345964E+03  0.92056530824E+03  0.12509173081E+03 0.  0.
          5    1    3    3  502    0 -0.32433751486E+02  0.23073453248E+02 -0.77640913190E+03  0.77743999446E+03  0.41800000000E+01 0. -1.
         -5    1    3    3    0  502 -0.47663429817E+02  0.35173924542E+02 -0.13022432774E+03  0.14312531378E+03  0.41800000000E+01 0. -1.
        -11    1    1    2    0    0  0.76106167189E+02 -0.14040408009E+01  0.26095048586E-01  0.76119121749E+02  0.00000000000E+00 0. -1.
         11    1    1    2    0    0  0.39910141133E+01 -0.56843336990E+02 -0.66621571101E+02  0.87667136886E+02  0.00000000000E+00 0.  1.
</event>
<event>
 7    1  0.2723366E-009  0.8357473E+02  0.7561462E-02  0.1319202E+00
          2   -1    0    0  501    0  0.00000000000E+00  0.00000000000E+00  0.57479938672E+03  0.57479938672E+03  0.00000000000E+00 0. -1.
         -2   -1    0    0    0  501 -0.00000000000E+00 -0.00000000000E+00 -0.37214739351E+02  0.37214739351E+02  0.00000000000E+00 0.  1.
         25    2    1    2    0    0 -0.44720983836E+01  0.17123101717E+01  0.49051018735E+03  0.50623128441E+03  0.12508772021E+03 0.  0.
          5    1    3    3  502    0 -0.65256431798E+01 -0.47168374298E+02  0.40350743133E+03  0.40632888046E+03  0.41800000000E+01 0. -1.
         -5    1    3    3    0  502  0.20535447962E+01  0.48880684469E+02  0.87002756017E+02  0.99902403950E+02  0.41800000000E+01 0. -1.
        -11    1    1    2    0    0  0.36914495377E+02 -0.64068854258E+01 -0.11041462352E+02  0.39059468003E+02  0.00000000000E+00 0.  1.
         11    1    1    2    0    0 -0.32442396994E+02  0.46945752541E+01  0.58115922370E+02  0.66723373659E+02  0.00000000000E+00 0. -1.
</event>
<event>
 7    1  0.2723366E-009  0.3083144E+03  0.7561462E-02  0.1081157E+00
          1   -1    0    0  501    0  0.00000000000E+00  0.00000000000E+00  0.48350745685E+03  0.48350745685E+03  0.00000000000E+00 0. -1.
         -1   -1    0    0    0  501 -0.00000000000E+00 -0.00000000000E+00 -0.26539012243E+03  0.26539012243E+03  0.00000000000E+00 0.  1.
         25    2    1    2    0    0  0.72168696190E+02  0.29813814178E+03 -0.45115529350E+02  0.33432993419E+03  0.12508565708E+03 0.  0.
          5    1    3    3  502    0  0.39580305457E+02  0.12217608918E+03 -0.80822280988E+02  0.15180023337E+03  0.41800000000E+01 0. -1.
         -5    1    3    3    0  502  0.32588390733E+02  0.17596205260E+03  0.35706751638E+02  0.18252970082E+03  0.41800000000E+01 0. -1.
        -11    1    1    2    0    0  0.40340097396E+01 -0.33413496977E+02  0.16005397891E+00  0.33656509505E+02  0.00000000000E+00 0.  1.
         11    1    1    2    0    0 -0.76202705930E+02 -0.26472464481E+03  0.26307280979E+03  0.38091113558E+03  0.00000000000E+00 0. -1.
</event>
<event>
 7    1  0.2723366E-009  0.1407595E+03  0.7561462E-02  0.1212311E+00
         -1   -1    0    0    0  501 -0.00000000000E+00  0.00000000000E+00  0.38765784488E+02  0.38765784488E+02  0.00000000000E+00 0.  1.
          1   -1    0    0  501    0  0.00000000000E+00 -0.00000000000E+00 -0.92937041250E+03  0.92937041250E+03  0.00000000000E+00 0. -1.
         25    2    1    2    0    0  0.75765227543E+02  0.10182340451E+03 -0.68736287831E+03  0.71008707693E+03  0.12509018723E+03 0.  0.
          5    1    3    3  502    0  0.22039249842E+02  0.58617564737E+02 -0.95948766240E+02  0.11465332779E+03  0.41800000000E+01 0. -1.
         -5    1    3    3    0  502  0.53725977701E+02  0.43205839776E+02 -0.59141411207E+03  0.59543374915E+03  0.41800000000E+01 0. -1.
        -11    1    1    2    0    0 -0.58493305143E+02 -0.13953828395E+02 -0.12669077118E+03  0.14023811028E+03  0.00000000000E+00 0. -1.
         11    1    1    2    0    0 -0.17271922399E+02 -0.87869576118E+02 -0.76550978523E+02  0.11781100977E+03  0.00000000000E+00 0.  1.
</event>
<event>
 7    1  0.2723366E-009  0.1009433E+03  0.7561462E-02  0.1278325E+00
         -1   -1    0    0    0  501 -0.00000000000E+00  0.00000000000E+00  0.12998288311E+03  0.12998288311E+03  0.00000000000E+00 0.  1.
          1   -1    0    0  501    0  0.00000000000E+00 -0.00000000000E+00 -0.12209365829E+03  0.12209365829E+03  0.00000000000E+00 0. -1.
         25    2    1    2    0    0 -0.15454185343E+02  0.18857407999E+02  0.58286674893E+02  0.14014336259E+03  0.12509353271E+03 0.  0.
          5    1    3    3  502    0 -0.53158027938E+02 -0.11531614508E+02 -0.10857124570E+02  0.55624667382E+02  0.41800000000E+01 0. -1.
         -5    1    3    3    0  502  0.37703842595E+02  0.30389022507E+02  0.69143799463E+02  0.84518695207E+02  0.41800000000E+01 0. -1.
        -11    1    1    2    0    0  0.49683593927E+02  0.13645123027E+02 -0.34984459217E+02  0.62278096267E+02  0.00000000000E+00 0.  1.
         11    1    1    2    0    0 -0.34229408584E+02 -0.32502531025E+02 -0.15412990856E+02  0.49655082541E+02  0.00000000000E+00 0. -1.
</event>
<event>
 7    1  0.2723366E-009  0.1179806E+03  0.7561462E-02  0.1246466E+00
          2   -1    0    0  501    0  0.00000000000E+00  0.00000000000E+00  0.28301911039E+03  0.28301911039E+03  0.00000000000E+00 0. -1.
         -2   -1    0    0    0  501 -0.00000000000E+00 -0.00000000000E+00 -0.57538753196E+02  0.57538753196E+02  0.00000000000E+00 0.  1.
         25    2    1    2    0    0  0.34403723333E+01  0.52008670173E+02  0.17050115582E+03  0.21779669805E+03  0.12509204455E+03 0.  0.
          5    1    3    3  502    0 -0.24994588287E+02 -0.31072181109E+02  0.90284962712E+02  0.98787938405E+02  0.41800000000E+01 0.  1.
         -5    1    3    3    0  502  0.28434960620E+02  0.83080851282E+02  0.80216193106E+02  0.11900875964E+03  0.41800000000E+01 0.  1.
        -11    1    1    2    0    0 -0.47342314634E+02 -0.41155622129E+02  0.20849746039E+02  0.66104401499E+02  0.00000000000E+00 0.  1.
         11    1    1    2    0    0  0.43901942301E+02 -0.10853048045E+02  0.34129455333E+02  0.56656764035E+02  0.00000000000E+00 0. -1.
</event>
<event>
 7    1  0.2723366E-009  0.9508121E+02  0.7561462E-02  0.1290993E+00
         -2   -1    0    0    0  501 -0.00000000000E+00  0.00000000000E+00  0.40176850753E+02  0.40176850753E+02  0.00000000000E+00 0.  1.
          2   -1    0    0  501    0  0.00000000000E+00 -0.00000000000E+00 -0.31151211396E+03  0.31151211396E+03  0.00000000000E+00 0. -1.
         25    2    1    2    0    0  0.10330305986E+02  0.23392900315E+02 -0.19043314546E+03  0.22927913075E+03  0.12510073502E+03 0.  0.
          5    1    3    3  502    0 -0.56125172884E+02  0.99362311992E+01 -0.64389904347E+02  0.86094691494E+02  0.41800000000E+01 0. -1.
         -5    1    3    3    0  502  0.66455478870E+02  0.13456669116E+02 -0.12604324111E+03  0.14318443926E+03  0.41800000000E+01 0. -1.
        -11    1    1    2    0    0  0.13158044273E+02 -0.36064627372E+02 -0.12553283746E+01  0.38410510618E+02  0.00000000000E+00 0.  1.
         11    1    1    2    0    0 -0.23488350259E+02  0.12671727057E+02 -0.79646789367E+02  0.83999323337E+02  0.00000000000E+00 0. -1.
</event>
<event>
 7    1  0.2723366E-009  0.9972669E+02  0.7561462E-02  0.1280872E+00
          2   -1    0    0  501    0  0.00000000000E+00  0.00000000000E+00  0.12001037876E+03  0.12001037876E+03  0.00000000000E+00 0.  1.
         -2   -1    0    0    0  501 -0.00000000000E+00 -0.00000000000E+00 -0.10162931823E+03  0.10162931823E+03  0.00000000000E+00 0. -1.
         25    2    1    2    0    0 -0.22484799279E+01  0.12151439488E+02  0.25872687100E+02  0.12833437879E+03  0.12509038212E+03 0.  0.
          5    1    3    3  502    0 -0.31981839270E+00  0.68712901574E+02  0.16853012241E+02  0.70873560289E+02  0.41800000000E+01 0. -1.
         -5    1    3    3    0  502 -0.19286615352E+01 -0.56561462086E+02  0.90196748592E+01  0.57460818504E+02  0.41800000000E+01 0. -1.
        -11    1    1    2    0    0 -0.36274967108E+01 -0.42650402703E+02  0.24000102277E+02  0.49073623184E+02  0.00000000000E+00 0.  1.
         11    1    1    2    0    0  0.58759766388E+01  0.30498963215E+02 -0.31491728844E+02  0.44231695019E+02  0.00000000000E+00 0. -1.
</event>
<event>
 7    1  0.2723366E-009  0.1202163E+03  0.7561462E-02  0.1242741E+00
          1   -1    0    0  501    0  0.00000000000E+00  0.00000000000E+00  0.31061164073E+03  0.31061164073E+03  0.00000000000E+00 0.  1.
         -1   -1    0    0    0  501 -0.00000000000E+00 -0.00000000000E+00 -0.70352743638E+02  0.70352743638E+02  0.00000000000E+00 0. -1.
         25    2    1    2    0    0 -0.69474459862E+02 -0.72852528317E+02  0.14197306434E+03  0.21433037781E+03  0.12508784273E+03 0.  0.
          5    1    3    3  502    0 -0.41513784536E+02  0.14450567985E+02 -0.13161512921E+01  0.44174855696E+02  0.41800000000E+01 0. -1.
         -5    1    3    3    0  502 -0.27960675326E+02 -0.87303096302E+02  0.14328921563E+03  0.17015552211E+03  0.41800000000E+01 0. -1.
        -11    1    1    2    0    0  0.18835594353E+01  0.16224148029E+02  0.73139201071E+02  0.74940733308E+02  0.00000000000E+00 0.  1.
         11    1    1    2    0    0  0.67590900427E+02  0.56628380288E+02  0.25146631679E+02  0.91693273250E+02  0.00000000000E+00 0. -1.
</event>
<event>
 7    1  0.2723366E-009  0.8122793E+02  0.7561462E-02  0.1325602E+00
         -1   -1    0    0    0  501 -0.00000000000E+00  0.00000000000E+00  0.45127712432E+02  0.45127712432E+02  0.00000000000E+00 0.  1.
          1   -1    0    0  501    0  0.00000000000E+00 -0.00000000000E+00 -0.33465648032E+03  0.33465648032E+03  0.00000000000E+00 0. -1.
         25    2    1    2    0    0  0.24231852408E+02 -0.40079022046E+02 -0.11384972906E+03  0.17550056763E+03  0.12508068497E+03 0.  0.
          5    1    3    3  502    0  0.86939982628E+01 -0.65096143076E+02 -0.88867499743E+01  0.66404368639E+02  0.41800000000E+01 0.  1.
         -5    1    3    3    0  502  0.15537854146E+02  0.25017121031E+02 -0.10496297909E+03  0.10909619899E+03  0.41800000000E+01 0.  1.
        -11    1    1    2    0    0  0.14562716368E+02  0.13671495494E+02  0.24059449109E+01  0.20118923131E+02  0.00000000000E+00 0.  1.
         11    1    1    2    0    0 -0.38794568776E+02  0.26407526552E+02 -0.17808498374E+03  0.18416470199E+03  0.00000000000E+00 0. -1.
</event>
<event>
 7    1  0.2723366E-009  0.1057683E+03  0.7561462E-02  0.1268613E+00
          2   -1    0    0  501    0  0.00000000000E+00  0.00000000000E+00  0.15104693938E+03  0.15104693938E+03  0.00000000000E+00 0. -1.
         -2   -1    0    0    0  501 -0.00000000000E+00 -0.00000000000E+00 -0.12411045095E+03  0.12411045095E+03  0.00000000000E+00 0.  1.
         25    2    1    2    0    0 -0.73458559817E+02  0.34328387398E+02  0.31716444973E+02  0.15240660114E+03  0.12508893236E+03 0.  0.
          5    1    3    3  502    0 -0.39481265359E+02  0.47460720679E+02 -0.38723620346E+02  0.72995078563E+02  0.41800000000E+01 0. -1.
         -5    1    3    3    0  502 -0.33977294458E+02 -0.13132333282E+02  0.70440065319E+02  0.79411522579E+02  0.41800000000E+01 0. -1.
        -11    1    1    2    0    0  0.29923019492E+02 -0.56651619265E+02  0.21034197999E+02  0.67433156135E+02  0.00000000000E+00 0. -1.
         11    1    1    2    0    0  0.43535540325E+02  0.22323231867E+02 -0.25814154539E+02  0.55317633056E+02  0.00000000000E+00 0.  1.
</event>
<event>
 7    1  0.2723366E-009  0.1036124E+03  0.7561462E-02  0.1272878E+00
         -2   -1    0    0    0  501 -0.00000000000E+00  0.00000000000E+00  0.43192500450E+02  0.43192500450E+02  0.00000000000E+00 0. -1.
          2   -1    0    0  501    0  0.00000000000E+00 -0.00000000000E+00 -0.38292790278E+03  0.38292790278E+03  0.00000000000E+00 0.  1.
         25    2    1    2    0    0 -0.39699007669E+02 -0.10366081209E+02 -0.82849070815E+02  0.15554710321E+03  0.12508983145E+03 0.  0.
          5    1    3    3  502    0 -0.30157224154E+01 -0.65007484304E+02 -0.34491013896E+02  0.73771065038E+02  0.41800000000E+01 0.  1.
         -5    1    3    3    0  502 -0.36683285254E+02  0.54641403096E+02 -0.48358056920E+02  0.81776038167E+02  0.41800000000E+01 0.  1.
        -11    1    1    2    0    0  0.21465501412E+02  0.37598683290E+02 -0.20249316291E+03  0.20706981857E+03  0.00000000000E+00 0.  1.
         11    1    1    2    0    0  0.18233506257E+02 -0.27232602081E+02 -0.54393168607E+02  0.63503481461E+02  0.00000000000E+00 0. -1.
</event>
<event>
 7    1  0.2723366E-009  0.1250260E+03  0.7561462E-02  0.1235029E+00
         -2   -1    0    0    0  501 -0.00000000000E+00  0.00000000000E+00  0.71415117308E+02  0.71415117308E+02  0.00000000000E+00 0.  1.
          2   -1    0    0  501    0  0.00000000000E+00 -0.00000000000E+00 -0.31268063757E+03  0.31268063757E+03  0.00000000000E+00 0. -1.
         25    2    1    2    0    0  0.69479253939E+02 -0.52835669589E+02 -0.61834587992E+02  0.16459447468E+03  0.12509536408E+03 0.  0.
          5    1    3    3  502    0 -0.86796941628E+01  0.18920406298E+02 -0.54112979271E+02  0.58129216327E+02  0.41800000000E+01 0.  1.
         -5    1    3    3    0  502  0.78158948102E+02 -0.71756075886E+02 -0.77216087210E+01  0.10646525835E+03  0.41800000000E+01 0.  1.
        -11    1    1    2    0    0 -0.18159713187E+02  0.66983356758E+02 -0.74364248898E+02  0.10171817330E+03  0.00000000000E+00 0.  1.
         11    1    1    2    0    0 -0.51319540751E+02 -0.14147687169E+02 -0.10506668337E+03  0.11778310689E+03  0.00000000000E+00 0. -1.
</event>
<event>
 7    1  0.2723366E-009  0.6163315E+03  0.7561462E-02  0.9872091E-01
         -1   -1    0    0    0  501 -0.00000000000E+00  0.00000000000E+00  0.40633031829E+03  0.40633031829E+03  0.00000000000E+00 0.  1.
          1   -1    0    0  501    0  0.00000000000E+00 -0.00000000000E+00 -0.10086819527E+04  0.10086819527E+04  0.00000000000E+00 0. -1.
         25    2    1    2    0    0 -0.33271514371E+03  0.50940504104E+03 -0.14424421891E+03  0.63768864429E+03  0.12509016620E+03 0.  0.
          5    1    3    3  502    0  0.89435595336E+01  0.21384771534E+02 -0.15485946232E+02  0.28188342296E+02  0.41800000000E+01 0. -1.
         -5    1    3    3    0  502 -0.34165870325E+03  0.48802026950E+03 -0.12875827268E+03  0.60950030200E+03  0.41800000000E+01 0. -1.
        -11    1    1    2    0    0  0.10861321701E+03 -0.10528931521E+03 -0.19078028134E+03  0.24347440637E+03  0.00000000000E+00 0. -1.
         11    1    1    2    0    0  0.22410192671E+03 -0.40411572582E+03 -0.26732713420E+03  0.53384922037E+03  0.00000000000E+00 0.  1.
</event>
<event>
 7    1  0.2723366E-009  0.6596607E+02  0.7561462E-02  0.1374374E+00
         -1   -1    0    0    0  501 -0.00000000000E+00  0.00000000000E+00  0.17349784909E+03  0.17349784909E+03  0.00000000000E+00 0.  1.
          1   -1    0    0  501    0  0.00000000000E+00 -0.00000000000E+00 -0.76205658865E+02  0.76205658865E+02  0.00000000000E+00 0. -1.
         25    2    1    2    0    0  0.70313829426E+01  0.23374941689E+02  0.86566378626E+02  0.15406511748E+03  0.12508594754E+03 0.  0.
          5    1    3    3  502    0  0.40545707603E+02  0.26267148500E+02 -0.11897802575E+02  0.49929426208E+02  0.41800000000E+01 0.  1.
         -5    1    3    3    0  502 -0.33514324661E+02 -0.28922068105E+01  0.98464181201E+02  0.10413569127E+03  0.41800000000E+01 0.  1.
        -11    1    1    2    0    0  0.25155539913E+01 -0.34666031373E+02 -0.33945511321E+02  0.48583530974E+02  0.00000000000E+00 0. -1.
         11    1    1    2    0    0 -0.95469369339E+01  0.11291089683E+02  0.44671322923E+02  0.47054859502E+02  0.00000000000E+00 0.  1.
</event>
<event>
 7    1  0.2723366E-009  0.8541519E+02  0.7561462E-02  0.1314350E+00
          2   -1    0    0  501    0  0.00000000000E+00  0.00000000000E+00  0.11863190786E+03  0.11863190786E+03  0.00000000000E+00 0. -1.
         -2   -1    0    0    0  501 -0.00000000000E+00 -0.00000000000E+00 -0.26636766436E+03  0.26636766436E+03  0.00000000000E+00 0.  1.
         25    2    1    2    0    0 -0.46476083591E+02  0.26026130632E+01  0.64064261859E+02  0.14804615469E+03  0.12508650738E+03 0.  0.
          5    1    3    3  502    0  0.11745292832E+02  0.33636673676E+02 -0.20023898687E+02  0.41082923926E+02  0.41800000000E+01 0. -1.
         -5    1    3    3    0  502 -0.58221376423E+02 -0.31034060613E+02  0.84088160545E+02  0.10696323076E+03  0.41800000000E+01 0. -1.
        -11    1    1    2    0    0  0.19349853986E+02 -0.26421927939E+02 -0.13547621343E+02  0.35441122575E+02  0.00000000000E+00 0. -1.
         11    1    1    2    0    0  0.27126229605E+02  0.23819314876E+02 -0.19825239702E+03  0.20151229495E+03  0.00000000000E+00 0.  1.
</event>
<event>
 7    1  0.2723366E-009  0.1237325E+03  0.7561462E-02  0.1237064E+00
         -1   -1    0    0    0  501 -0.00000000000E+00  0.00000000000E+00  0.10878565561E+03  0.10878565561E+03  0.00000000000E+00 0.  1.
          1   -1    0    0  501    0  0.00000000000E+00 -0.00000000000E+00 -0.22997537039E+03  0.22997537039E+03  0.00000000000E+00 0. -1.
         25    2    1    2    0    0 -0.40194800889E+02 -0.43698378190E+02 -0.16867949457E+03  0.21823526387E+03  0.12509471704E+03 0.  0.
          5    1    3    3  502    0 -0.62033167372E+02  0.23388331556E+02 -0.66490970040E+02  0.93987495998E+02  0.41800000000E+01 0.  1.
         -5    1    3    3    0  502  0.21838366482E+02 -0.67086709746E+02 -0.10218852453E+03  0.12424776787E+03  0.41800000000E+01 0.  1.
        -11    1    1    2    0    0 -0.30260719650E+02  0.76151352385E+01  0.88164648974E+01  0.32425784366E+02  0.00000000000E+00 0.  1.
         11    1    1    2    0    0  0.70455520539E+02  0.36083242952E+02  0.38673314904E+02  0.88099977764E+02  0.00000000000E+00 0. -1.
</event>
<event>
 7    1  0.2723366E-009  0.2226760E+03  0.7561462E-02  0.1131904E+00
          2   -1    0    0  501    0  0.00000000000E+00  0.00000000000E+00  0.46557815025E+03  0.46557815025E+03  0.00000000000E+00 0. -1.
         -2   -1    0    0    0  501 -0.00000000000E+00 -0.00000000000E+00 -0.10982992763E+03  0.10982992763E+03  0.00000000000E+00 0.  1.
         25    2    1    2    0    0  0.15236082754E+03 -0.12473811958E+03  0.21327425758E+03  0.31608216937E+03  0.12509439877E+03 0.  0.
          5    1    3    3  502    0  0.13474629605E+03 -0.36992098109E+02  0.15729274212E+03  0.21043635319E+03  0.41800000000E+01 0. -1.
         -5    1    3    3    0  502  0.17614531494E+02 -0.87746021469E+02  0.55981515457E+02  0.10564581618E+03  0.41800000000E+01 0. -1.
        -11    1    1    2    0    0 -0.39494735509E+02  0.89333729281E+02  0.53979214711E+02  0.11159796119E+03  0.00000000000E+00 0. -1.
         11    1    1    2    0    0 -0.11286609204E+03  0.35404390297E+02  0.88494750329E+02  0.14772794732E+03  0.00000000000E+00 0.  1.
</event>
<event>
 7    1  0.2723366E-009  0.1992802E+03  0.7561462E-02  0.1150348E+00
          2   -1    0    0  501    0  0.00000000000E+00  0.00000000000E+00  0.18995052957E+03  0.18995052957E+03  0.00000000000E+00 0. -1.
         -2   -1    0    0    0  501 -0.00000000000E+00 -0.00000000000E+00 -0.38858582485E+03  0.38858582485E+03  0.00000000000E+00 0.  1.
         25    2    1    2    0    0 -0.17602692338E+03  0.28073632625E+02 -0.28703310318E+03  0.36028987682E+03  0.12508871418E+03 0.  0.
          5    1    3    3  502    0 -0.13939532593E+03 -0.30295114477E+02 -0.23029586172E+03  0.27092897072E+03  0.41800000000E+01 0. -1.
         -5    1    3    3    0  502 -0.36631597456E+02  0.58368747102E+02 -0.56737241456E+02  0.89360906097E+02  0.41800000000E+01 0. -1.
        -11    1    1    2    0    0  0.38419969602E+02  0.16996722154E+02 -0.99900153937E+01  0.43183133695E+02  0.00000000000E+00 0.  1.
         11    1    1    2    0    0  0.13760695378E+03 -0.45070354778E+02  0.98387823290E+02  0.17506334391E+03  0.00000000000E+00 0. -1.
</event>
<event>
 7    1  0.2723366E-009  0.1330002E+03  0.7561462E-02  0.1223071E+00
         -3   -1    0    0    0  501 -0.00000000000E+00  0.00000000000E+00  0.46729110507E+03  0.46729110507E+03  0.00000000000E+00 0.  1.
          3   -1    0    0  501    0  0.00000000000E+00 -0.00000000000E+00 -0.64702141527E+02  0.64702141527E+02  0.00000000000E+00 0. -1.
         25    2    1    2    0    0  0.17695320105E+01  0.12027941606E+03  0.30481472562E+03  0.35075400714E+03  0.12508432115E+03 0.  0.
          5    1    3    3  502    0  0.12825557381E+02  0.14243860326E+02  0.20077840226E+03  0.20173453273E+03  0.41800000000E+01 0. -1.
         -5    1    3    3    0  502 -0.11056025371E+02  0.10603555573E+03  0.10403632336E+03  0.14901947441E+03  0.41800000000E+01 0. -1.
        -11    1    1    2    0    0  0.17808548882E+02 -0.11872234109E+03  0.50859693911E+02  0.13037962706E+03  0.00000000000E+00 0. -1.
         11    1    1    2    0    0 -0.19578080893E+02 -0.15570749724E+01  0.46914544013E+02  0.50859612404E+02  0.00000000000E+00 0.  1.
</event>
<event>
 7    1  0.2723366E-009  0.3264683E+03  0.7561462E-02  0.1072710E+00
         -2   -1    0    0    0  501 -0.00000000000E+00  0.00000000000E+00  0.61168942396E+02  0.61168942396E+02  0.00000000000E+00 0.  1.
          2   -1    0    0  501    0  0.00000000000E+00 -0.00000000000E+00 -0.20155443987E+04  0.20155443987E+04  0.00000000000E+00 0. -1.
         25    2    1    2    0    0 -0.44108395368E+02  0.32027025976E+03 -0.74823762128E+03  0.82463690579E+03  0.12509156113E+03 0.  0.
          5    1    3    3  502    0 -0.11780526564E+02  0.11197440354E+02 -0.28090193047E+01  0.17015477250E+02  0.41800000000E+01 0. -1.
         -5    1    3    3    0  502 -0.32327868804E+02  0.30907281940E+03 -0.74542860198E+03  0.80762142854E+03  0.41800000000E+01 0. -1.
        -11    1    1    2    0    0  0.37013481115E+02 -0.13559641092E+03 -0.37097520192E+03  0.39671020264E+03  0.00000000000E+00 0.  1.
         11    1    1    2    0    0  0.70949142530E+01 -0.18467384883E+03 -0.83516263308E+03  0.85536623264E+03  0.00000000000E+00 0. -1.
</event>
<event>
 7    1  0.2723366E-009  0.1002029E+03  0.7561462E-02  0.1279870E+00
          2   -1    0    0  501    0  0.00000000000E+00  0.00000000000E+00  0.42883493689E+03  0.42883493689E+03  0.00000000000E+00 0. -1.
         -2   -1    0    0    0  501 -0.00000000000E+00 -0.00000000000E+00 -0.31880433261E+02  0.31880433261E+02  0.00000000000E+00 0.  1.
         25    2    1    2    0    0 -0.29483175168E+01 -0.41757022746E+02  0.25188790478E+03  0.28432838035E+03  0.12507105889E+03 0.  0.
          5    1    3    3  502    0 -0.27525917724E+02  0.26321791250E+02  0.17297391570E+03  0.17716647751E+03  0.41800000000E+01 0.  1.
         -5    1    3    3    0  502  0.24577600207E+02 -0.68078813996E+02  0.78913989080E+02  0.10716190284E+03  0.41800000000E+01 0.  1.
        -11    1    1    2    0    0 -0.13136653782E+02 -0.21019501561E+02  0.10286337490E+02  0.26836539595E+02  0.00000000000E+00 0.  1.
         11    1    1    2    0    0  0.16084971299E+02  0.62776524307E+02  0.13478026136E+03  0.14955045021E+03  0.00000000000E+00 0. -1.
</event>
<event>
 7    1  0.2723366E-009  0.7295050E+02  0.7561462E-02  0.1350338E+00
         -2   -1    0    0    0  501 -0.00000000000E+00  0.00000000000E+00  0.93635814783E+02  0.93635814783E+02  0.00000000000E+00 0. -1.
          2   -1    0    0  501    0  0.00000000000E+00 -0.00000000000E+00 -0.28373442471E+03  0.28373442471E+03  0.00000000000E+00 0.  1.
         25    2    1    2    0    0  0.40442363407E+01 -0.58400933228E+01 -0.24127076434E+03  0.27186336971E+03  0.12509055731E+03 0.  0.
          5    1    3    3  502    0 -0.29780937218E+02 -0.26593922569E+02 -0.16212739027E+02  0.43295106489E+02  0.41800000000E+01 0.  1.
         -5    1    3    3    0  502  0.33825173558E+02  0.20753829247E+02 -0.22505802531E+03  0.22856826322E+03  0.41800000000E+01 0.  1.
        -11    1    1    2    0    0  0.24310155924E+02 -0.16814602864E+02 -0.12598682644E+02  0.32131625463E+02  0.00000000000E+00 0.  1.
         11    1    1    2    0    0 -0.28354392264E+02  0.22654696187E+02  0.63770837056E+02  0.73375244319E+02  0.00000000000E+00 0. -1.
</event>
<event>
 7    1  0.2723366E-009  0.8445434E+02  0.7561462E-02  0.1316866E+00
          1   -1    0    0  501    0  0.00000000000E+00  0.00000000000E+00  0.63578066810E+03  0.63578066810E+03  0.00000000000E+00 0. -1.
         -1   -1    0    0    0  501 -0.00000000000E+00 -0.00000000000E+00 -0.24690582447E+02  0.24690582447E+02  0.00000000000E+00 0.  1.
         25    2    1    2    0    0  0.31523939515E+02  0.10547319412E+02  0.44535311597E+03  0.46378023259E+03  0.12509077313E+03 0.  0.
          5    1    3    3  502    0  0.39139903312E+02 -0.10904283794E+02  0.43740729395E+03  0.43931019637E+03  0.41800000000E+01 0.  1.
         -5    1    3    3    0  502 -0.76159637972E+01  0.21451603206E+02  0.79458220230E+01  0.24470036214E+02  0.41800000000E+01 0.  1.
        -11    1    1    2    0    0 -0.28156508394E+02  0.42928197220E+02  0.67662776475E+02  0.84934506543E+02  0.00000000000E+00 0.  1.
         11    1    1    2    0    0 -0.33674311214E+01 -0.53475516632E+02  0.98074193206E+02  0.11175651142E+03  0.00000000000E+00 0. -1.
</event>
<event>
 7    1  0.2723366E-009  0.1185412E+03  0.7561462E-02  0.1245523E+00
          1   -1    0    0  501    0  0.00000000000E+00  0.00000000000E+00  0.94727250671E+02  0.94727250671E+02  0.00000000000E+00 0. -1.
         -1   -1    0    0    0  501 -0.00000000000E+00 -0.00000000000E+00 -0.16915924339E+03  0.16915924339E+03  0.00000000000E+00 0.  1.
         25    2    1    2    0    0  0.15799648823E+02 -0.51784908753E+02 -0.80191844120E+02  0.15814379746E+03  0.12508966038E+03 0.  0.
          5    1    3    3  502    0  0.25088730026E+02 -0.89672377521E+02 -0.72683860395E+02  0.11819896627E+03  0.41800000000E+01 0.  1.
         -5    1    3    3    0  502 -0.92890812031E+01  0.37887468767E+02 -0.75079837245E+01  0.39944831190E+02  0.41800000000E+01 0.  1.
        -11    1    1    2    0    0 -0.14425932752E+02 -0.24452098251E+02 -0.47081715185E+01  0.28778108411E+02  0.00000000000E+00 0.  1.
         11    1    1    2    0    0 -0.13737160710E+01  0.76237007004E+02  0.10468022915E+02  0.76964588199E+02  0.00000000000E+00 0. -1.
</event>
<event>
 7    1  0.2723366E-009  0.1085997E+03  0.7561462E-02  0.1263185E+00
          1   -1    0    0  501    0  0.00000000000E+00  0.00000000000E+00  0.60420825907E+02  0.60420825907E+02  0.00000000000E+00 0. -1.
         -1   -1    0    0    0  501 -0.00000000000E+00 -0.00000000000E+00 -0.22453469424E+03  0.22453469424E+03  0.00000000000E+00 0.  1.
         25    2    1    2    0    0  0.33305566875E+02  0.18608701980E+02 -0.94742547633E+02  0.16149115425E+03  0.12509075903E+03 0.  0.
          5    1    3    3  502    0  0.12894788454E+02  0.67358480942E+02 -0.23352421922E+02  0.72568922644E+02  0.41800000000E+01 0. -1.
         -5    1    3    3    0  502  0.20410778421E+02 -0.48749778961E+02 -0.71390125711E+02  0.88922231605E+02  0.41800000000E+01 0. -1.
        -11    1    1    2    0    0  0.14837453369E+02  0.25939571381E+02 -0.43888476354E+02  0.53096230964E+02  0.00000000000E+00 0.  1.
         11    1    1    2    0    0 -0.48143020244E+02 -0.44548273362E+02 -0.25482844342E+02  0.70368134930E+02  0.00000000000E+00 0. -1.
</event>
<event>
 7    1  0.2723366E-009  0.1124484E+03  0.7561462E-02  0.1256102E+00
          4   -1    0    0  501    0  0.00000000000E+00  0.00000000000E+00  0.14612604886E+03  0.14612604886E+03  0.00000000000E+00 0. -1.
         -4   -1    0    0    0  501 -0.00000000000E+00 -0.00000000000E+00 -0.95545626305E+02  0.95545626305E+02  0.00000000000E+00 0.  1.
         25    2    1    2    0    0  0.50753135298E+02 -0.55370108189E+01  0.25784381358E+02  0.13754917231E+03  0.12509356998E+03 0.  0.
          5    1    3    3  502    0 -0.33645924902E+02 -0.21771309120E+02  0.31744114890E+02  0.51295218037E+02  0.41800000000E+01 0. -1.
         -5    1    3    3    0  502  0.84399060200E+02  0.16234298302E+02 -0.59597335318E+01  0.86253954273E+02  0.41800000000E+01 0. -1.
        -11    1    1    2    0    0 -0.42541531279E+02  0.42831579029E+02  0.26428210586E+02  0.65899744767E+02  0.00000000000E+00 0.  1.
         11    1    1    2    0    0 -0.82116040194E+01 -0.37294568210E+02 -0.16321693929E+01  0.38222758083E+02  0.00000000000E+00 0. -1.
</event>
<event>
 7    1  0.2723366E-009  0.6450310E+02  0.7561462E-02  0.1379850E+00
         -1   -1    0    0    0  501 -0.00000000000E+00  0.00000000000E+00  0.93742664214E+02  0.93742664214E+02  0.00000000000E+00 0.  1.
          1   -1    0    0  501    0  0.00000000000E+00 -0.00000000000E+00 -0.15495766941E+03  0.15495766941E+03  0.00000000000E+00 0. -1.
         25    2    1    2    0    0  0.86983471652E+01 -0.29537263467E+02 -0.80916451890E+02  0.15212873386E+03  0.12509024064E+03 0.  0.
          5    1    3    3  502    0  0.73355571327E+01 -0.37652026778E+01  0.33505750666E+02  0.34757659262E+02  0.41800000000E+01 0.  1.
         -5    1    3    3    0  502  0.13627900325E+01 -0.25772060790E+02 -0.11442220256E+03  0.11737107460E+03  0.41800000000E+01 0.  1.
        -11    1    1    2    0    0 -0.29079812952E+02  0.54269249752E+02  0.19291652673E+02  0.64520964444E+02  0.00000000000E+00 0. -1.
         11    1    1    2    0    0  0.20381465787E+02 -0.24731986284E+02  0.40979402590E+00  0.32050635319E+02  0.00000000000E+00 0.  1.
</event>
<event>
 7    1  0.2723366E-009  0.1068530E+03  0.7561462E-02  0.1266511E+00
         -1   -1    0    0    0  501 -0.00000000000E+00  0.00000000000E+00  0.53469830303E+02  0.53469830303E+02  0.00000000000E+00 0.  1.
          1   -1    0    0  501    0  0.00000000000E+00 -0.00000000000E+00 -0.27122011958E+03  0.27122011958E+03  0.00000000000E+00 0. -1.
         25    2    1    2    0    0  0.10574619768E+02 -0.52960682198E+02 -0.10538133888E+03  0.17224915549E+03  0.12509152066E+03 0.  0.
          5    1    3    3  502    0 -0.44571872869E-02 -0.88691027572E+02 -0.10102813801E+03  0.13450002030E+03  0.41800000000E+01 0.  1.
         -5    1    3    3    0  502  0.10579076956E+02  0.35730345374E+02 -0.43532008733E+01  0.37749135190E+02  0.41800000000E+01 0.  1.
        -11    1    1    2    0    0  0.13761276763E+02  0.60418722633E+02 -0.11078631794E+03  0.12693857973E+03  0.00000000000E+00 0. -1.
         11    1    1    2    0    0 -0.24335896531E+02 -0.74580404353E+01 -0.15826324634E+01  0.25502214661E+02  0.00000000000E+00 0.  1.
</event>
<event>
 7    1  0.2723366E-009  0.1337953E+03  0.7561462E-02  0.1221930E+00
         -2   -1    0    0    0  501 -0.00000000000E+00  0.00000000000E+00  0.28720057061E+02  0.28720057061E+02  0.00000000000E+00 0.  1.
          2   -1    0    0  501    0  0.00000000000E+00 -0.00000000000E+00 -0.63589330768E+03  0.63589330768E+03  0.00000000000E+00 0. -1.
         25    2    1    2    0    0  0.78959185512E+02  0.10776220436E+02 -0.37855486302E+03  0.40657418336E+03  0.12509237532E+03 0.  0.
          5    1    3    3  502    0  0.53221438348E+02 -0.55506964078E+02 -0.20329466229E+03  0.21739304653E+03  0.41800000000E+01 0. -1.
         -5    1    3    3    0  502  0.25737747164E+02  0.66283184514E+02 -0.17526020072E+03  0.18918113684E+03  0.41800000000E+01 0. -1.
        -11    1    1    2    0    0 -0.70546828659E+02  0.30766574747E+02 -0.15610428616E+03  0.17404592874E+03  0.00000000000E+00 0. -1.
         11    1    1    2    0    0 -0.84123568535E+01 -0.41542795182E+02 -0.72514101442E+02  0.83993252630E+02  0.00000000000E+00 0.  1.
</event>
<event>
 7    1  0.2723366E-009  0.8396680E+02  0.7561462E-02  0.1318157E+00
         -2   -1    0    0    0  501 -0.00000000000E+00  0.00000000000E+00  0.18218261183E+03  0.18218261183E+03  0.00000000000E+00 0.  1.
          2   -1    0    0  501    0  0.00000000000E+00 -0.00000000000E+00 -0.79760902657E+02  0.79760902657E+02  0.00000000000E+00 0. -1.
         25    2    1    2    0    0  0.37322986928E+02 -0.34233073204E+02  0.40113168470E+02  0.14078915576E+03  0.12509041307E+03 0.  0.
          5    1    3    3  502    0  0.15628422661E+02  0.14037395370E+02 -0.39597270151E+02  0.45019021169E+02  0.41800000000E+01 0. -1.
         -5    1    3    3    0  502  0.21694564267E+02 -0.48270468574E+02  0.79710438621E+02  0.95770134594E+02  0.41800000000E+01 0. -1.
        -11    1    1    2    0    0 -0.42437530056E+02  0.56454363485E+02  0.67580548351E+02  0.97750547973E+02  0.00000000000E+00 0.  1.
         11    1    1    2    0    0  0.51145431275E+01 -0.22221290281E+02 -0.52720076455E+01  0.23403810753E+02  0.00000000000E+00 0. -1.
</event>
<event>
 7    1  0.2723366E-009  0.1098383E+03  0.7561462E-02  0.1260870E+00
         -1   -1    0    0    0  501 -0.00000000000E+00  0.00000000000E+00  0.24991428370E+03  0.24991428370E+03  0.00000000000E+00 0.  1.
          1   -1    0    0  501    0  0.00000000000E+00 -0.00000000000E+00 -0.91288087800E+02  0.91288087800E+02  0.00000000000E+00 0. -1.
         25    2    1    2    0    0  0.45102824578E+02 -0.88150004054E+00 -0.21345793149E+02  0.13467726338E+03  0.12508909049E+03 0.  0.
          5    1    3    3  502    0 -0.37439275987E+02  0.52686532327E+00 -0.34370118825E+02  0.50997592508E+02  0.41800000000E+01 0. -1.
         -5    1    3    3    0  502  0.82542100565E+02 -0.14083653638E+01  0.13024325676E+02  0.83679670877E+02  0.41800000000E+01 0. -1.
        -11    1    1    2    0    0 -0.69776422109E+02  0.14341352940E+02  0.14586221516E+03  0.16232747549E+03  0.00000000000E+00 0.  1.
         11    1    1    2    0    0  0.24673597531E+02 -0.13459852900E+02  0.34109773882E+02  0.44197632623E+02  0.00000000000E+00 0. -1.
</event>
<event>
 7    1  0.2723366E-009  0.1171555E+03  0.7561462E-02  0.1247865E+00
          1   -1    0    0  501    0  0.00000000000E+00  0.00000000000E+00  0.10069942725E+03  0.10069942725E+03  0.00000000000E+00 0. -1.
         -1   -1    0    0    0  501 -0.00000000000E+00 -0.00000000000E+00 -0.16597567797E+03  0.16597567797E+03  0.00000000000E+00 0.  1.
         25    2    1    2    0    0 -0.17590190254E+02 -0.69086218239E+02 -0.12171454209E+02  0.14449252874E+03  0.12509047214E+03 0.  0.
          5    1    3    3  502    0 -0.43313746304E+02 -0.96063566882E+02 -0.16468421015E+02  0.10673786016E+03  0.41800000000E+01 0.  1.
         -5    1    3    3    0  502  0.25723556051E+02  0.26977348643E+02  0.42969668055E+01  0.37754668578E+02  0.41800000000E+01 0.  1.
        -11    1    1    2    0    0  0.37185300162E+02  0.30610852647E+02  0.64801903976E+01  0.48597980570E+02  0.00000000000E+00 0.  1.
         11    1    1    2    0    0 -0.19595109908E+02  0.38475365592E+02 -0.59584986915E+02  0.73584595911E+02  0.00000000000E+00 0. -1.
</event>
<event>
 7    1  0.2723366E-009  0.1203518E+03  0.7561462E-02  0.1242518E+00
          2   -1    0    0  501    0  0.00000000000E+00  0.00000000000E+00  0.31134135611E+03  0.31134135611E+03  0.00000000000E+00 0. -1.
         -2   -1    0    0    0  501 -0.00000000000E+00 -0.00000000000E+00 -0.55613750343E+02  0.55613750343E+02  0.00000000000E+00 0.  1.
         25    2    1    2    0    0 -0.67130478353E+01 -0.73237573607E+02  0.13178109884E+03  0.19601590568E+03  0.12508864885E+03 0.  0.
          5    1    3    3  502    0 -0.43488895750E+02 -0.21340146706E+01  0.10114991916E+03  0.11020261620E+03  0.41800000000E+01 0. -1.
         -5    1    3    3    0  502  0.36775847914E+02 -0.71103558937E+02  0.30631179680E+02  0.85813289483E+02  0.41800000000E+01 0. -1.
        -11    1    1    2    0    0  0.34957538264E+02 -0.34028619609E+01  0.27881527584E+02  0.44844046777E+02  0.00000000000E+00 0.  1.
         11    1    1    2    0    0 -0.28244490428E+02  0.76640435568E+02  0.96064979350E+02  0.12609515400E+03  0.00000000000E+00 0. -1.
</event>
<event>
 7    1  0.2723366E-009  0.8038711E+02  0.7561462E-02  0.1327956E+00
          1   -1    0    0  501    0  0.00000000000E+00  0.00000000000E+00  0.75007034444E+02  0.75007034444E+02  0.00000000000E+00 0. -1.
         -1   -1    0    0    0  501 -0.00000000000E+00 -0.00000000000E+00 -0.19267170048E+03  0.19267170048E+03  0.00000000000E+00 0.  1.
         25    2    1    2    0    0  0.14228808284E+02 -0.39234167026E+02 -0.55696283757E+02  0.14314563571E+03  0.12508724216E+03 0.  0.
          5    1    3    3  502    0  0.35188536661E+02 -0.42694117576E+02  0.24079565502E+02  0.60484036428E+02  0.41800000000E+01 0.  1.
         -5    1    3    3    0  502 -0.20959728377E+02  0.34599505496E+01 -0.79775849259E+02  0.82661599286E+02  0.41800000000E+01 0.  1.
        -11    1    1    2    0    0  0.29718243898E+02  0.12823894975E+02  0.12010454783E+02  0.34523576390E+02  0.00000000000E+00 0. -1.
         11    1    1    2    0    0 -0.43947052182E+02  0.26410272051E+02 -0.73978837067E+02  0.90009522824E+02  0.00000000000E+00 0.  1.
</event>
<event>
 7    1  0.2723366E-009  0.1004756E+03  0.7561462E-02  0.1279299E+00
          2   -1    0    0  501    0  0.00000000000E+00  0.00000000000E+00  0.24445058881E+03  0.24445058881E+03  0.00000000000E+00 0. -1.
         -2   -1    0    0    0  501 -0.00000000000E+00 -0.00000000000E+00 -0.58804601791E+02  0.58804601791E+02  0.00000000000E+00 0.  1.
         25    2    1    2    0    0 -0.31640014953E+02 -0.34203786153E+02  0.76103766884E+02  0.15364536905E+03  0.12507648286E+03 0.  0.
          5    1    3    3  502    0 -0.51832316560E+02 -0.72618252244E+02  0.57621462904E+02  0.10629066274E+03  0.41800000000E+01 0. -1.
         -5    1    3    3    0  502  0.20192301607E+02  0.38414466091E+02  0.18482303980E+02  0.47354706309E+02  0.41800000000E+01 0. -1.
        -11    1    1    2    0    0 -0.10454344818E+02  0.21758741031E+02  0.10231395223E+03  0.10512317041E+03  0.00000000000E+00 0.  1.
         11    1    1    2    0    0  0.42094359772E+02  0.12445045122E+02  0.72282679095E+01  0.44486651140E+02  0.00000000000E+00 0. -1.
</event>
<event>
 7    1  0.2723366E-009  0.1117524E+03  0.7561462E-02  0.1257359E+00
         -2   -1    0    0    0  501 -0.00000000000E+00  0.00000000000E+00  0.33693047487E+02  0.33693047487E+02  0.00000000000E+00 0.  1.
          2   -1    0    0  501    0  0.00000000000E+00 -0.00000000000E+00 -0.43939945924E+03  0.43939945924E+03  0.00000000000E+00 0. -1.
         25    2    1    2    0    0  0.39044275573E+02  0.32349893092E+02 -0.27131315660E+03  0.30303401472E+03  0.12509122309E+03 0.  0.
          5    1    3    3  502    0  0.84701402673E+02  0.19553843855E+02 -0.18556820705E+03  0.20496270952E+03  0.41800000000E+01 0. -1.
         -5    1    3    3    0  502 -0.45657127100E+02  0.12796049237E+02 -0.85744949548E+02  0.98071305202E+02  0.41800000000E+01 0. -1.
        -11    1    1    2    0    0 -0.28347851963E+02  0.20480749788E+02 -0.13131831323E+02  0.37356482927E+02  0.00000000000E+00 0.  1.
         11    1    1    2    0    0 -0.10696423610E+02 -0.52830642879E+02 -0.12126142383E+03  0.13270200908E+03  0.00000000000E+00 0. -1.
</event>
<event>
 7    1  0.2723366E-009  0.1029607E+03  0.7561462E-02  0.1274190E+00
          2   -1    0    0  501    0  0.00000000000E+00  0.00000000000E+00  0.68783222462E+02  0.68783222462E+02  0.00000000000E+00 0. -1.
         -2   -1    0    0    0  501 -0.00000000000E+00 -0.00000000000E+00 -0.23781452931E+03  0.23781452931E+03  0.00000000000E+00 0.  1.
         25    2    1    2    0    0  0.51506596626E+01 -0.66833641394E+02 -0.10838392943E+03  0.17857340329E+03  0.12509244297E+03 0.  0.
          5    1    3    3  502    0 -0.39151477319E+02 -0.54886013469E+02 -0.11363967394E+03  0.13219969949E+03  0.41800000000E+01 0. -1.
         -5    1    3    3    0  502  0.44302136982E+02 -0.11947627925E+02  0.52557445154E+01  0.46373703805E+02  0.41800000000E+01 0. -1.
        -11    1    1    2    0    0  0.43432862625E+01 -0.12068806642E+02 -0.45304558396E+02  0.47085276263E+02  0.00000000000E+00 0.  1.
         11    1    1    2    0    0 -0.94939459250E+01  0.78902448037E+02 -0.15342819025E+02  0.80939072215E+02  0.00000000000E+00 0. -1.
</event>
<event>
 7    1  0.2723366E-009  0.1122535E+03  0.7561462E-02  0.1256453E+00
         -1   -1    0    0    0  501 -0.00000000000E+00  0.00000000000E+00  0.47297702931E+02  0.47297702931E+02  0.00000000000E+00 0.  1.
          1   -1    0    0  501    0  0.00000000000E+00 -0.00000000000E+00 -0.31240509481E+03  0.31240509481E+03  0.00000000000E+00 0. -1.
         25    2    1    2    0    0  0.43172766518E+02 -0.10571716263E+02 -0.10875587526E+03  0.17161261489E+03  0.12508956884E+03 0.  0.
          5    1    3    3  502    0 -0.40526170885E+02  0.99069416119E+01 -0.57841185249E+02  0.71439436796E+02  0.41800000000E+01 0.  1.
         -5    1    3    3    0  502  0.83698937403E+02 -0.20478657875E+02 -0.50914690015E+02  0.10017317810E+03  0.41800000000E+01 0.  1.
        -11    1    1    2    0    0  0.87015549915E+01 -0.29502416106E+02 -0.88737524264E+02  0.93917292486E+02  0.00000000000E+00 0. -1.
         11    1    1    2    0    0 -0.51874321510E+02  0.40074132370E+02 -0.67613992349E+02  0.94172890360E+02  0.00000000000E+00 0.  1.
</event>
<event>
 7    1  0.2723366E-009  0.9038502E+02  0.7561462E-02  0.1301922E+00
         -1   -1    0    0    0  501 -0.00000000000E+00  0.00000000000E+00  0.27950356315E+02  0.27950356315E+02  0.00000000000E+00 0.  1.
          1   -1    0    0  501    0  0.00000000000E+00 -0.00000000000E+00 -0.48063843603E+03  0.48063843603E+03  0.00000000000E+00 0. -1.
         25    2    1    2    0    0  0.14207442300E+02 -0.23344684923E+02 -0.19014930610E+03  0.22923971443E+03  0.12508901762E+03 0.  0.
          5    1    3    3  502    0 -0.41043277505E+02  0.14998410164E+02 -0.13565229939E+03  0.14257812478E+03  0.41800000000E+01 0. -1.
         -5    1    3    3    0  502  0.55250719805E+02 -0.38343095087E+02 -0.54497006716E+02  0.86661589651E+02  0.41800000000E+01 0. -1.
        -11    1    1    2    0    0  0.22425013451E+02 -0.52359055066E+01 -0.14988796815E+02  0.27476534802E+02  0.00000000000E+00 0.  1.
         11    1    1    2    0    0 -0.36632455751E+02  0.28580590430E+02 -0.24754997679E+03  0.25187254311E+03  0.00000000000E+00 0. -1.
</event>
<event>
 7    1  0.2723366E-009  0.9571142E+02  0.7561462E-02  0.1289582E+00
         -1   -1    0    0    0  501 -0.00000000000E+00  0.00000000000E+00  0.38146818510E+02  0.38146818510E+02  0.00000000000E+00 0.  1.
          1   -1    0    0  501    0  0.00000000000E+00 -0.00000000000E+00 -0.33236965013E+03  0.33236965013E+03  0.00000000000E+00 0. -1.
         25    2    1    2    0    0  0.23848627168E+02  0.91908406233E+01 -0.13677580905E+03  0.18710513515E+03  0.12508989204E+03 0.  0.
          5    1    3    3  502    0  0.16652970744E+02  0.64250989701E+02 -0.10095931696E+03  0.12089568724E+03  0.41800000000E+01 0. -1.
         -5    1    3    3    0  502  0.71956564239E+01 -0.55060149078E+02 -0.35816492091E+02  0.66209447917E+02  0.41800000000E+01 0. -1.
        -11    1    1    2    0    0 -0.18618958100E+02  0.26927059342E+02 -0.13845116705E+03  0.14226896282E+03  0.00000000000E+00 0. -1.
         11    1    1    2    0    0 -0.52296690685E+01 -0.36117899966E+02 -0.18995855520E+02  0.41142370659E+02  0.00000000000E+00 0.  1.
</event>
<event>
 7    1  0.2723366E-009  0.1029363E+03  0.7561462E-02  0.1274240E+00
         -2   -1    0    0    0  501 -0.00000000000E+00  0.00000000000E+00  0.52393750404E+03  0.52393750404E+03  0.00000000000E+00 0.  1.
          2   -1    0    0  501    0  0.00000000000E+00 -0.00000000000E+00 -0.50309338933E+02  0.50309338933E+02  0.00000000000E+00 0. -1.
         25    2    1    2    0    0 -0.67565211354E+02 -0.59769862903E+02  0.39924070669E+03  0.42799295412E+03  0.12508929853E+03 0.  0.
          5    1    3    3  502    0 -0.19848807988E+02 -0.40385851459E+02  0.36072514884E+03  0.36354517956E+03  0.41800000000E+01 0. -1.
         -5    1    3    3    0  502 -0.47716403366E+02 -0.19384011444E+02  0.38515557850E+02  0.64447774564E+02  0.41800000000E+01 0. -1.
        -11    1    1    2    0    0  0.38525025411E+02  0.68579288665E+02  0.15738030749E+02  0.80218339727E+02  0.00000000000E+00 0. -1.
         11    1    1    2    0    0  0.29040185943E+02 -0.88094257626E+01  0.58649427674E+02  0.66035549126E+02  0.00000000000E+00 0.  1.
</event>
<event>
 7    1  0.2723366E-009  0.1019165E+03  0.7561462E-02  0.1276317E+00
          1   -1    0    0  501    0  0.00000000000E+00  0.00000000000E+00  0.11966668209E+03  0.11966668209E+03  0.00000000000E+00 0. -1.
         -1   -1    0    0    0  501 -0.00000000000E+00 -0.00000000000E+00 -0.14269358185E+03  0.14269358185E+03  0.00000000000E+00 0.  1.
         25    2    1    2    0    0 -0.48105054072E+02 -0.50685920359E+02 -0.36469510467E+02  0.14784654933E+03  0.12508164616E+03 0.  0.
          5    1    3    3  502    0 -0.38394623687E+02  0.22093377384E+01  0.39098351131E+02  0.55001652361E+02  0.41800000000E+01 0.  1.
         -5    1    3    3    0  502 -0.97104303848E+01 -0.52895258097E+02 -0.75567861597E+02  0.92844896972E+02  0.41800000000E+01 0.  1.
        -11    1    1    2    0    0 -0.50563130846E+00  0.61422671558E+02 -0.45176998667E+01  0.61590663712E+02  0.00000000000E+00 0. -1.
         11    1    1    2    0    0  0.48610685380E+02 -0.10736751199E+02  0.17960310573E+02  0.52923050888E+02  0.00000000000E+00 0.  1.
</event>
<event>
 7    1  0.2723366E-009  0.1136063E+03  0.7561462E-02  0.1254034E+00
         -1   -1    0    0    0  501 -0.00000000000E+00  0.00000000000E+00  0.78962440922E+02  0.78962440922E+02  0.00000000000E+00 0. -1.
          1   -1    0    0  501    0  0.00000000000E+00 -0.00000000000E+00 -0.25538767955E+03  0.25538767955E+03  0.00000000000E+00 0.  1.
         25    2    1    2    0    0  0.63973383695E+01 -0.70613530742E+02 -0.28695504833E+02  0.14661491087E+03  0.12508118735E+03 0.  0.
          5    1    3    3  502    0 -0.30069082190E+02  0.73591687148E+01 -0.48967454515E+02  0.58082622785E+02  0.41800000000E+01 0. -1.
         -5    1    3    3    0  502  0.36466420559E+02 -0.77972699456E+02  0.20271949682E+02  0.88532288081E+02  0.41800000000E+01 0. -1.
        -11    1    1    2    0    0 -0.21587261351E+02  0.85705516783E+02 -0.13876639826E+03  0.16452221353E+03  0.00000000000E+00 0.  1.
         11    1    1    2    0    0  0.15189922982E+02 -0.15091986041E+02 -0.89633355383E+01  0.23212996076E+02  0.00000000000E+00 0. -1.
</event>
<event>
 7    1  0.2723366E-009  0.8788475E+02  0.7561462E-02  0.1308056E+00
          1   -1    0    0  501    0  0.00000000000E+00  0.00000000000E+00  0.19361145983E+03  0.19361145983E+03  0.00000000000E+00 0. -1.
         -1   -1    0    0    0  501 -0.00000000000E+00 -0.00000000000E+00 -0.13983701563E+03  0.13983701563E+03  0.00000000000E+00 0.  1.
         25    2    1    2    0    0 -0.81819805702E+01  0.39438711848E+01  0.15064254304E+03  0.19601977034E+03  0.12509226861E+03 0.  0.
          5    1    3    3  502    0 -0.66277268786E+02  0.22186638435E+01  0.69851110717E+02  0.96406684910E+02  0.41800000000E+01 0.  1.
         -5    1    3    3    0  502  0.58095288216E+02  0.17252073413E+01  0.80791432321E+02  0.99613085434E+02  0.41800000000E+01 0.  1.
        -11    1    1    2    0    0 -0.15639464489E+02 -0.17639827623E+02 -0.10590943265E+03  0.10850144834E+03  0.00000000000E+00 0.  1.
         11    1    1    2    0    0  0.23821445059E+02  0.13695956439E+02  0.90413338063E+01  0.28927256774E+02  0.00000000000E+00 0. -1.
</event>
<event>
 7    1  0.2723366E-009  0.1934649E+03  0.7561462E-02  0.1155373E+00
         -1   -1    0    0    0  501 -0.00000000000E+00  0.00000000000E+00  0.68814956470E+03  0.68814956470E+03  0.00000000000E+00 0.  1.
          1   -1    0    0  501    0  0.00000000000E+00 -0.00000000000E+00 -0.74679651404E+02  0.74679651404E+02  0.00000000000E+00 0. -1.
         25    2    1    2    0    0 -0.38673459205E+02  0.18255797866E+03  0.42954826552E+03  0.48474837530E+03  0.12508486289E+03 0.  0.
          5    1    3    3  502    0  0.21224430288E+02  0.51111786767E+02  0.24034631213E+03  0.24667126574E+03  0.41800000000E+01 0. -1.
         -5    1    3    3    0  502 -0.59897889493E+02  0.13144619190E+03  0.18920195339E+03  0.23807710956E+03  0.41800000000E+01 0. -1.
        -11    1    1    2    0    0  0.32168008703E+02 -0.12828914432E+03  0.17988517611E+03  0.22327463340E+03  0.00000000000E+00 0.  1.
         11    1    1    2    0    0  0.65054505019E+01 -0.54268834344E+02  0.40364716702E+01  0.54806207411E+02  0.00000000000E+00 0. -1.
</event>
<event>
 7    1  0.2723366E-009  0.9547095E+02  0.7561462E-02  0.1290119E+00
         -1   -1    0    0    0  501 -0.00000000000E+00  0.00000000000E+00  0.20709603350E+03  0.20709603350E+03  0.00000000000E+00 0.  1.
          1   -1    0    0  501    0  0.00000000000E+00 -0.00000000000E+00 -0.57152368413E+02  0.57152368413E+02  0.00000000000E+00 0. -1.
         25    2    1    2    0    0  0.39306484337E+01 -0.11575135008E+02  0.95866134790E+02  0.15807072368E+03  0.12508638670E+03 0.  0.
          5    1    3    3  502    0 -0.43488743846E+02 -0.31017902441E+02  0.51922268554E+01  0.53831335975E+02  0.41800000000E+01 0.  1.
         -5    1    3    3    0  502  0.47419392280E+02  0.19442767433E+02  0.90673907935E+02  0.10423938771E+03  0.41800000000E+01 0.  1.
        -11    1    1    2    0    0 -0.14252624982E+02  0.46963107183E+02  0.48311094329E+02  0.68866774213E+02  0.00000000000E+00 0.  1.
         11    1    1    2    0    0  0.10321976548E+02 -0.35387972175E+02  0.57664359639E+01  0.37310904013E+02  0.00000000000E+00 0. -1.
</event>
<event>
 7    1  0.2723366E-009  0.9479958E+02  0.7561462E-02  0.1291628E+00
          1   -1    0    0  501    0  0.00000000000E+00  0.00000000000E+00  0.12710420979E+03  0.12710420979E+03  0.00000000000E+00 0. -1.
         -1   -1    0    0    0  501 -0.00000000000E+00 -0.00000000000E+00 -0.14014679493E+03  0.14014679493E+03  0.00000000000E+00 0.  1.
         25    2    1    2    0    0  0.57399023678E+02  0.18755109543E+02 -0.55728370726E+02  0.14966499951E+03  0.12509020233E+03 0.  0.
          5    1    3    3  502    0  0.40495958887E+02  0.57911725816E+02  0.97008088849E+01  0.71451163505E+02  0.41800000000E+01 0. -1.
         -5    1    3    3    0  502  0.16903064792E+02 -0.39156616273E+02 -0.65429179611E+02  0.78213836001E+02  0.41800000000E+01 0. -1.
        -11    1    1    2    0    0 -0.43804077469E+02 -0.34058069753E+02  0.66221155731E+02  0.86394390932E+02  0.00000000000E+00 0. -1.
         11    1    1    2    0    0 -0.13594946209E+02  0.15302960210E+02 -0.23535370141E+02  0.31191614279E+02  0.00000000000E+00 0.  1.
</event>
<event>
 7    1  0.2723366E-009  0.1333164E+03  0.7561462E-02  0.1222616E+00
         -2   -1    0    0    0  501 -0.00000000000E+00  0.00000000000E+00  0.57821734547E+02  0.57821734547E+02  0.00000000000E+00 0.  1.
          2   -1    0    0  501    0  0.00000000000E+00 -0.00000000000E+00 -0.35413004614E+03  0.35413004614E+03  0.00000000000E+00 0. -1.
         25    2    1    2    0    0 -0.72567689382E+02  0.58519377333E+02 -0.14204211068E+03  0.21098281599E+03  0.12508876996E+03 0.  0.
          5    1    3    3  502    0 -0.28123087225E+02  0.83525605287E+02 -0.40093648762E+02  0.96914435688E+02  0.41800000000E+01 0. -1.
         -5    1    3    3    0  502 -0.44444602157E+02 -0.25006227953E+02 -0.10194846192E+03  0.11406838030E+03  0.41800000000E+01 0. -1.
        -11    1    1    2    0    0  0.89845429092E+02 -0.31588888779E+02 -0.12817140721E+03  0.15968083369E+03  0.00000000000E+00 0. -1.
         11    1    1    2    0    0 -0.17277739710E+02 -0.26930488554E+02 -0.26094793702E+02  0.41288131002E+02  0.00000000000E+00 0.  1.
</event>
<event>
 7    1  0.2723366E-009  0.2654134E+03  0.7561462E-02  0.1103934E+00
         -1   -1    0    0    0  501 -0.00000000000E+00  0.00000000000E+00  0.16427747333E+03  0.16427747333E+03  0.00000000000E+00 0.  1.
          1   -1    0    0  501    0  0.00000000000E+00 -0.00000000000E+00 -0.50904917676E+03  0.50904917676E+03  0.00000000000E+00 0. -1.
         25    2    1    2    0    0 -0.18035830353E+03 -0.17556220436E+03 -0.28197841219E+03  0.39813302893E+03  0.12508748352E+03 0.  0.
          5    1    3    3  502    0 -0.19249283341E+02 -0.85725030198E+02 -0.48155664139E+02  0.10027839299E+03  0.41800000000E+01 0.  1.
         -5    1    3    3    0  502 -0.16110902019E+03 -0.89837174165E+02 -0.23382274805E+03  0.29785463594E+03  0.41800000000E+01 0.  1.
        -11    1    1    2    0    0  0.45521195349E+02  0.83456805968E+02  0.11570024706E+02  0.95765772382E+02  0.00000000000E+00 0. -1.
         11    1    1    2    0    0  0.13483710818E+03  0.92105398395E+02 -0.74363315943E+02  0.17942784877E+03  0.00000000000E+00 0.  1.
</event>
<event>
 7    1  0.2723366E-009  0.1093091E+03  0.7561462E-02  0.1261855E+00
          2   -1    0    0  501    0  0.00000000000E+00  0.00000000000E+00  0.72029048344E+03  0.72029048344E+03  0.00000000000E+00 0. -1.
         -2   -1    0    0    0  501 -0.00000000000E+00 -0.00000000000E+00 -0.21323622758E+02  0.21323622758E+02  0.00000000000E+00 0.  1.
         25    2    1    2    0    0  0.34531648569E+02  0.21491706602E+02  0.52197601830E+03  0.53829415194E+03  0.12508917667E+03 0.  0.
          5    1    3    3  502    0  0.40618947464E+02 -0.46555479239E+02  0.28383687821E+03  0.29051360962E+03  0.41800000000E+01 0.  1.
         -5    1    3    3    0  502 -0.60872988949E+01  0.68047185841E+02  0.23813914009E+03  0.24778054232E+03  0.41800000000E+01 0.  1.
        -11    1    1    2    0    0  0.25493663281E+02 -0.47822898150E+01  0.10478381266E+03  0.10794648933E+03  0.00000000000E+00 0. -1.
         11    1    1    2    0    0 -0.60025311850E+02 -0.16709416787E+02  0.72207029728E+02  0.95373464938E+02  0.00000000000E+00 0.  1.
</event>
<event>
 7    1  0.2723366E-009  0.1093505E+03  0.7561462E-02  0.1261777E+00
         -4   -1    0    0    0  501 -0.00000000000E+00  0.00000000000E+00  0.21805232947E+03  0.21805232947E+03  0.00000000000E+00 0.  1.
          4   -1    0    0  501    0  0.00000000000E+00 -0.00000000000E+00 -0.98583626676E+02  0.98583626676E+02  0.00000000000E+00 0. -1.
         25    2    1    2    0    0  0.63802191199E+02  0.60024714177E+02  0.11531946268E+03  0.19136484818E+03  0.12509292839E+03 0.  0.
          5    1    3    3  502    0  0.10873450426E+02  0.33702352691E+02  0.12617618061E+03  0.13111819651E+03  0.41800000000E+01 0.  1.
         -5    1    3    3    0  502  0.52928740773E+02  0.26322361487E+02 -0.10856717928E+02  0.60246651676E+02  0.41800000000E+01 0.  1.
        -11    1    1    2    0    0 -0.15096427520E+02 -0.72049134150E+02 -0.67834144402E+01  0.73925601568E+02  0.00000000000E+00 0.  1.
         11    1    1    2    0    0 -0.48705763679E+02  0.12024419973E+02  0.10932654546E+02  0.51345506392E+02  0.00000000000E+00 0. -1.
</event>
<event>
 7    1  0.2723366E-009  0.1463519E+03  0.7561462E-02  0.1205029E+00
         -1   -1    0    0    0  501 -0.00000000000E+00  0.00000000000E+00  0.42145264848E+03  0.42145264848E+03  0.00000000000E+00 0.  1.
          1   -1    0    0  501    0  0.00000000000E+00 -0.00000000000E+00 -0.68199365160E+02  0.68199365160E+02  0.00000000000E+00 0. -1.
         25    2    1    2    0    0 -0.91197808025E+01 -0.12434335159E+03  0.24085624132E+03  0.29866955926E+03  0.12508931673E+03 0.  0.
          5    1    3    3  502    0 -0.23979572068E+02  0.79274450771E+01  0.26108238294E+01  0.25732334971E+02  0.41800000000E+01 0. -1.
         -5    1    3    3    0  502  0.14859791265E+02 -0.13227079667E+03  0.23824541750E+03  0.27293722429E+03  0.41800000000E+01 0. -1.
        -11    1    1    2    0    0 -0.89614985556E+01  0.11125317409E+03  0.12315172643E+03  0.16620446722E+03  0.00000000000E+00 0.  1.
         11    1    1    2    0    0  0.18081279358E+02  0.13090177501E+02 -0.10754684435E+02  0.24777987157E+02  0.00000000000E+00 0. -1.
</event>
<event>
 7    1  0.2723366E-009  0.9665965E+02  0.7561462E-02  0.1287481E+00
          1   -1    0    0  501    0  0.00000000000E+00  0.00000000000E+00  0.25528912899E+03  0.25528912899E+03  0.00000000000E+00 0. -1.
         -1   -1    0    0    0  501 -0.00000000000E+00 -0.00000000000E+00 -0.52526161214E+02  0.52526161214E+02  0.00000000000E+00 0.  1.
         25    2    1    2    0    0  0.32578746390E+02 -0.75780245278E+01  0.13850954913E+03  0.18961414904E+03  0.12509927716E+03 0.  0.
          5    1    3    3  502    0  0.60562674678E+02 -0.20631756756E+02  0.14431542388E+03  0.15791744970E+03  0.41800000000E+01 0.  1.
         -5    1    3    3    0  502 -0.27983928287E+02  0.13053732228E+02 -0.58058747529E+01  0.31696699341E+02  0.41800000000E+01 0.  1.
        -11    1    1    2    0    0 -0.26886930426E+02  0.49181399972E+02  0.27667639576E+02  0.62507722808E+02  0.00000000000E+00 0.  1.
         11    1    1    2    0    0 -0.56918159647E+01 -0.41603375444E+02  0.36585779071E+02  0.55693418351E+02  0.00000000000E+00 0. -1.
</event>
<event>
 7    1  0.2723366E-009  0.9981075E+02  0.7561462E-02  0.1280694E+00
         -1   -1    0    0    0  501 -0.00000000000E+00  0.00000000000E+00  0.78552890765E+02  0.78552890765E+02  0.00000000000E+00 0.  1.
          1   -1    0    0  501    0  0.00000000000E+00 -0.00000000000E+00 -0.17194165491E+03  0.17194165491E+03  0.00000000000E+00 0. -1.
         25    2    1    2    0    0 -0.18511872183E+02 -0.34166971638E+02 -0.75639657115E+02  0.15127367691E+03  0.12510913729E+03 0.  0.
          5    1    3    3  502    0 -0.45702153245E+02 -0.51895365167E+02 -0.91612060619E+02  0.11485668369E+03  0.41800000000E+01 0.  1.
         -5    1    3    3    0  502  0.27190281061E+02  0.17728393529E+02  0.15972403504E+02  0.36416993217E+02  0.41800000000E+01 0.  1.
        -11    1    1    2    0    0  0.27473576385E+02  0.62301344710E+02 -0.12011368969E+02  0.69141361981E+02  0.00000000000E+00 0.  1.
         11    1    1    2    0    0 -0.89617042017E+01 -0.28134373072E+02 -0.57377380562E+01  0.30079506784E+02  0.00000000000E+00 0. -1.
</event>
<event>
 7    1  0.3378188E-009  0.1860209E+03  0.7561462E-02  0.1162100E+00
          2   -1    0    0  501    0  0.00000000000E+00  0.00000000000E+00  0.69809479711E+03  0.69809479711E+03  0.00000000000E+00 0. -1.
         -2   -1    0    0    0  501 -0.00000000000E+00 -0.00000000000E+00 -0.51975592703E+02  0.51975592703E+02  0.00000000000E+00 0.  1.
         25    2    1    2    0    0  0.69169853475E+02  0.13932212171E+03  0.36288232905E+03  0.41415559561E+03  0.12508457306E+03 0.  0.
          5    1    3    3  502    0 -0.16746824468E+02 -0.10511730872E+02  0.13250303387E+02  0.24165999991E+02  0.41800000000E+01 0. -1.
         -5    1    3    3    0  502  0.85916677944E+02  0.14983385258E+03  0.34963202566E+03  0.38998959562E+03  0.41800000000E+01 0. -1.
        -11    1    1    2    0    0 -0.22220891970E+01 -0.10275548603E+03  0.14060201852E+03  0.17416243913E+03  0.00000000000E+00 0. -1.
         11    1    1    2    0    0 -0.66947764278E+02 -0.36566635673E+02  0.14263485684E+03  0.16175235507E+03  0.00000000000E+00 0.  1.
</event>
<event>
 7    1  0.2723366E-009  0.1158781E+03  0.7561462E-02  0.1250056E+00
         -2   -1    0    0    0  501 -0.00000000000E+00  0.00000000000E+00  0.10835798626E+03  0.10835798626E+03  0.00000000000E+00 0. -1.
          2   -1    0    0  501    0  0.00000000000E+00 -0.00000000000E+00 -0.28549216503E+03  0.28549216503E+03  0.00000000000E+00 0.  1.
         25    2    1    2    0    0  0.11275019503E+03 -0.10517169030E+02 -0.17929218878E+03  0.24620483731E+03  0.12509162895E+03 0.  0.
          5    1    3    3  502    0  0.55292439277E+02 -0.22206635441E+02 -0.23765438823E+01  0.59778832873E+02  0.41800000000E+01 0.  1.
         -5    1    3    3    0  502  0.57457755758E+02  0.11689466411E+02 -0.17691564490E+03  0.18642600444E+03  0.41800000000E+01 0.  1.
        -11    1    1    2    0    0 -0.60625142541E+02  0.59302473526E+01  0.48409586772E+02  0.77807864855E+02  0.00000000000E+00 0. -1.
         11    1    1    2    0    0 -0.52125052493E+02  0.45869216772E+01 -0.46251576758E+02  0.69837449127E+02  0.00000000000E+00 0.  1.
</event>
<event>
 7    1  0.2723366E-009  0.8743030E+02  0.7561462E-02  0.1309197E+00
          1   -1    0    0  501    0  0.00000000000E+00  0.00000000000E+00  0.10714960423E+03  0.10714960423E+03  0.00000000000E+00 0. -1.
         -1   -1    0    0    0  501 -0.00000000000E+00 -0.00000000000E+00 -0.10852432596E+03  0.10852432596E+03  0.00000000000E+00 0.  1.
         25    2    1    2    0    0  0.10843790710E+02  0.34917156410E+01 -0.32486066463E+02  0.12973348400E+03  0.12508258264E+03 0.  0.
          5    1    3    3  502    0  0.54212968653E+02  0.31453772871E+02 -0.44005466732E+02  0.76696409958E+02  0.41800000000E+01 0.  1.
         -5    1    3    3    0  502 -0.43369177943E+02 -0.27962057230E+02  0.11519400269E+02  0.53037074039E+02  0.41800000000E+01 0.  1.
        -11    1    1    2    0    0 -0.11771308127E+02 -0.30787978590E+02 -0.11854674599E+02  0.35028511680E+02  0.00000000000E+00 0.  1.
         11    1    1    2    0    0  0.92751741656E+00  0.27296262949E+02  0.42966019330E+02  0.50911934520E+02  0.00000000000E+00 0. -1.
</event>
<event>
 7    1  0.2723366E-009  0.1174131E+03  0.7561462E-02  0.1247427E+00
         -2   -1    0    0    0  501 -0.00000000000E+00  0.00000000000E+00  0.21129930756E+03  0.21129930756E+03  0.00000000000E+00 0.  1.
          2   -1    0    0  501    0  0.00000000000E+00 -0.00000000000E+00 -0.83986109295E+02  0.83986109295E+02  0.00000000000E+00 0. -1.
         25    2    1    2    0    0  0.64850011916E+02 -0.22166158528E+02  0.11350285036E+03  0.18228523811E+03  0.12509255918E+03 0.  0.
          5    1    3    3  502    0  0.75164204527E+02  0.34538611920E+02  0.51510391745E+02  0.97536486574E+02  0.41800000000E+01 0.  1.
         -5    1    3    3    0  502 -0.10314192611E+02 -0.56704770448E+02  0.61992458617E+02  0.84748751531E+02  0.41800000000E+01 0.  1.
        -11    1    1    2    0    0 -0.73936577654E+02  0.32229264994E+02  0.34936788293E+02  0.87897225289E+02  0.00000000000E+00 0.  1.
         11    1    1    2    0    0  0.90865657383E+01 -0.10063106466E+02 -0.21126440391E+02  0.25102953457E+02  0.00000000000E+00 0. -1.
</event>
<event>
 7    1  0.2723366E-009  0.1467030E+03  0.7561462E-02  0.1204584E+00
         -1   -1    0    0    0  501 -0.00000000000E+00  0.00000000000E+00  0.21770004132E+03  0.21770004132E+03  0.00000000000E+00 0. -1.
          1   -1    0    0  501    0  0.00000000000E+00 -0.00000000000E+00 -0.15678456330E+03  0.15678456330E+03  0.00000000000E+00 0.  1.
         25    2    1    2    0    0 -0.11120803473E+03  0.84161578412E+02  0.11219211161E+03  0.21836778977E+03  0.12508806271E+03 0.  0.
          5    1    3    3  502    0 -0.14802388390E+02  0.42679690181E+02 -0.19956100246E+02  0.49561930885E+02  0.41800000000E+01 0. -1.
         -5    1    3    3    0  502 -0.96405646336E+02  0.41481888231E+02  0.13214821186E+03  0.16880585888E+03  0.41800000000E+01 0. -1.
        -11    1    1    2    0    0  0.78260557420E+02 -0.39952446471E+02 -0.12598939552E+02  0.88767370720E+02  0.00000000000E+00 0.  1.
         11    1    1    2    0    0  0.32947477305E+02 -0.44209131941E+02 -0.38677694041E+02  0.67349444126E+02  0.00000000000E+00 0. -1.
</event>
<event>
 7    1  0.2723366E-009  0.1817602E+03  0.7561462E-02  0.1166110E+00
         -2   -1    0    0    0  501 -0.00000000000E+00  0.00000000000E+00  0.71788782728E+02  0.71788782728E+02  0.00000000000E+00 0.  1.
          2   -1    0    0  501    0  0.00000000000E+00 -0.00000000000E+00 -0.49532873648E+03  0.49532873648E+03  0.00000000000E+00 0. -1.
         25    2    1    2    0    0 -0.15585188262E+03 -0.45752969563E+02 -0.21640127296E+03  0.29809519716E+03  0.12509233426E+03 0.  0.
          5    1    3    3  502    0 -0.91406514632E+02  0.33962455093E+02 -0.73505066638E+02  0.12218455915E+03  0.41800000000E+01 0. -1.
         -5    1    3    3    0  502 -0.64445367986E+02 -0.79715424656E+02 -0.14289620632E+03  0.17591063801E+03  0.41800000000E+01 0. -1.
        -11    1    1    2    0    0  0.76844912102E+02  0.13658084726E+02 -0.14078146063E+03  0.16096926244E+03  0.00000000000E+00 0. -1.
         11    1    1    2    0    0  0.79006970516E+02  0.32094884837E+02 -0.66357220160E+02  0.10805305961E+03  0.00000000000E+00 0.  1.
</event>
<event>
 7    1  0.2723366E-009  0.9569377E+02  0.7561462E-02  0.1289621E+00
          1   -1    0    0  501    0  0.00000000000E+00  0.00000000000E+00  0.81018889645E+03  0.81018889645E+03  0.00000000000E+00 0. -1.
         -1   -1    0    0    0  501 -0.00000000000E+00 -0.00000000000E+00 -0.41171599035E+02  0.41171599035E+02  0.00000000000E+00 0.  1.
         25    2    1    2    0    0 -0.55925328392E+02  0.46520201753E+02  0.70032172125E+03  0.71511331771E+03  0.12507906451E+03 0.  0.
          5    1    3    3  502    0 -0.19481118933E+02  0.43833407131E+02  0.77720920149E+02  0.91426994943E+02  0.41800000000E+01 0. -1.
         -5    1    3    3    0  502 -0.36444209458E+02  0.26867946218E+01  0.62260080110E+03  0.62368632276E+03  0.41800000000E+01 0. -1.
        -11    1    1    2    0    0  0.18473855971E+02  0.21781757685E+02 -0.50225145838E+01  0.28999206455E+02  0.00000000000E+00 0.  1.
         11    1    1    2    0    0  0.37451472420E+02 -0.68301959437E+02  0.73718090744E+02  0.10724797132E+03  0.00000000000E+00 0. -1.
</event>
<event>
 7    1  0.2723366E-009  0.1093865E+03  0.7561462E-02  0.1261710E+00
         -2   -1    0    0    0  501 -0.00000000000E+00  0.00000000000E+00  0.11926756287E+03  0.11926756287E+03  0.00000000000E+00 0.  1.
          2   -1    0    0  501    0  0.00000000000E+00 -0.00000000000E+00 -0.17705670648E+03  0.17705670648E+03  0.00000000000E+00 0. -1.
         25    2    1    2    0    0  0.47612313432E+02 -0.41527227396E+02 -0.10440317297E+03  0.17475133965E+03  0.12508623097E+03 0.  0.
          5    1    3    3  502    0  0.12746347387E+02  0.43114743090E+02 -0.17396523268E+02  0.48388654303E+02  0.41800000000E+01 0. -1.
         -5    1    3    3    0  502  0.34865966046E+02 -0.84641970487E+02 -0.87006649699E+02  0.12636268535E+03  0.41800000000E+01 0. -1.
        -11    1    1    2    0    0 -0.59131646569E+02  0.35705074821E+02 -0.41440149308E+01  0.69199543739E+02  0.00000000000E+00 0. -1.
         11    1    1    2    0    0  0.11519333137E+02  0.58221525751E+01  0.50758044295E+02  0.52373385962E+02  0.00000000000E+00 0.  1.
</event>
<event>
 7    1  0.2723366E-009  0.1077697E+03  0.7561462E-02  0.1264757E+00
          3   -1    0    0  501    0  0.00000000000E+00  0.00000000000E+00  0.48722637057E+02  0.48722637057E+02  0.00000000000E+00 0. -1.
         -3   -1    0    0    0  501 -0.00000000000E+00 -0.00000000000E+00 -0.38736827484E+03  0.38736827484E+03  0.00000000000E+00 0.  1.
         25    2    1    2    0    0  0.27340859572E+02 -0.51751848410E+02 -0.88744563188E+02  0.16416320307E+03  0.12509269896E+03 0.  0.
          5    1    3    3  502    0 -0.44239312728E+02 -0.62369077491E+01 -0.54423186113E+01  0.45200741595E+02  0.41800000000E+01 0.  1.
         -5    1    3    3    0  502  0.71580172300E+02 -0.45514940661E+02 -0.83302244576E+02  0.11896246148E+03  0.41800000000E+01 0.  1.
        -11    1    1    2    0    0 -0.14248219073E+02  0.65336726115E+02 -0.24268158629E+03  0.25172654180E+03  0.00000000000E+00 0.  1.
         11    1    1    2    0    0 -0.13092640499E+02 -0.13584877705E+02 -0.72194883110E+01  0.20201167020E+02  0.00000000000E+00 0. -1.
</event>
<event>
 7    1  0.2723366E-009  0.8775831E+02  0.7561462E-02  0.1308373E+00
          2   -1    0    0  501    0  0.00000000000E+00  0.00000000000E+00  0.41040871509E+02  0.41040871509E+02  0.00000000000E+00 0.  1.
         -2   -1    0    0    0  501 -0.00000000000E+00 -0.00000000000E+00 -0.41553588301E+03  0.41553588301E+03  0.00000000000E+00 0. -1.
         25    2    1    2    0    0 -0.51141418969E+02  0.16097999486E+02 -0.12226837386E+03  0.18295687859E+03  0.12509625836E+03 0.  0.
          5    1    3    3  502    0  0.17334697877E+01 -0.33283585405E+02 -0.10246575633E+03  0.10783091205E+03  0.41800000000E+01 0.  1.
         -5    1    3    3    0  502 -0.52874888757E+02  0.49381584891E+02 -0.19802617537E+02  0.75125966541E+02  0.41800000000E+01 0.  1.
        -11    1    1    2    0    0  0.32382351586E+02 -0.31507439578E+02 -0.24375602843E+03  0.24790792008E+03  0.00000000000E+00 0. -1.
         11    1    1    2    0    0  0.18759067383E+02  0.15409440091E+02 -0.84706092113E+01  0.25711955846E+02  0.00000000000E+00 0.  1.
</event>
<event>
 7    1  0.2723366E-009  0.1358458E+03  0.7561462E-02  0.1219031E+00
         -2   -1    0    0    0  501 -0.00000000000E+00  0.00000000000E+00  0.52558905134E+02  0.52558905134E+02  0.00000000000E+00 0.  1.
          2   -1    0    0  501    0  0.00000000000E+00 -0.00000000000E+00 -0.39656911983E+03  0.39656911983E+03  0.00000000000E+00 0. -1.
         25    2    1    2    0    0 -0.87772632597E+02 -0.35273995942E+02 -0.18924140951E+03  0.24578083313E+03  0.12509043542E+03 0.  0.
          5    1    3    3  502    0 -0.66383594058E+01  0.43033070320E+02 -0.46757201898E+02  0.64028285047E+02  0.41800000000E+01 0.  1.
         -5    1    3    3    0  502 -0.81134273192E+02 -0.78307066262E+02 -0.14248420762E+03  0.18175254808E+03  0.41800000000E+01 0.  1.
        -11    1    1    2    0    0  0.51833295601E+02  0.53776197314E+02 -0.14286092856E+03  0.16120736596E+03  0.00000000000E+00 0. -1.
         11    1    1    2    0    0  0.35939336997E+02 -0.18502201372E+02 -0.11907876620E+02  0.42139825877E+02  0.00000000000E+00 0.  1.
</event>
<event>
 7    1  0.2723366E-009  0.1342205E+03  0.7561462E-02  0.1221324E+00
         -1   -1    0    0    0  501 -0.00000000000E+00  0.00000000000E+00  0.46678800048E+02  0.46678800048E+02  0.00000000000E+00 0.  1.
          1   -1    0    0  501    0  0.00000000000E+00 -0.00000000000E+00 -0.48212739880E+03  0.48212739880E+03  0.00000000000E+00 0. -1.
         25    2    1    2    0    0  0.19147290092E+02 -0.94501251851E+02 -0.31433788408E+03  0.35178493310E+03  0.12508888228E+03 0.  0.
          5    1    3    3  502    0 -0.43104021500E+02 -0.28711493077E+02 -0.49141074159E+02  0.71516599987E+02  0.41800000000E+01 0.  1.
         -5    1    3    3    0  502  0.62251311592E+02 -0.65789758775E+02 -0.26519680992E+03  0.28026833311E+03  0.41800000000E+01 0.  1.
        -11    1    1    2    0    0  0.19416773140E+02  0.83473618965E+02 -0.99983863157E+02  0.13168761914E+03  0.00000000000E+00 0.  1.
         11    1    1    2    0    0 -0.38564063232E+02  0.11027632886E+02 -0.21126851517E+02  0.45333646610E+02  0.00000000000E+00 0. -1.
</event>
<event>
 7    1  0.2723366E-009  0.1058406E+03  0.7561462E-02  0.1268472E+00
         -1   -1    0    0    0  501 -0.00000000000E+00  0.00000000000E+00  0.33772327456E+03  0.33772327456E+03  0.00000000000E+00 0.  1.
          1   -1    0    0  501    0  0.00000000000E+00 -0.00000000000E+00 -0.39563348081E+02  0.39563348081E+02  0.00000000000E+00 0. -1.
         25    2    1    2    0    0 -0.65887203356E+01 -0.37728851393E+02  0.14830959218E+03  0.19776037658E+03  0.12508618608E+03 0.  0.
          5    1    3    3  502    0  0.46147976923E+02  0.12676563223E+02  0.97708413946E+02  0.10887946356E+03  0.41800000000E+01 0.  1.
         -5    1    3    3    0  502 -0.52736697258E+02 -0.50405414616E+02  0.50601178232E+02  0.88880913017E+02  0.41800000000E+01 0.  1.
        -11    1    1    2    0    0 -0.33909555768E+02  0.36829300900E+02  0.45734827192E+02  0.67808036363E+02  0.00000000000E+00 0. -1.
         11    1    1    2    0    0  0.40498276103E+02  0.89955049291E+00  0.10411550711E+03  0.11171820970E+03  0.00000000000E+00 0.  1.
</event>
<event>
 7    1  0.2723366E-009  0.1009575E+03  0.7561462E-02  0.1278295E+00
         -2   -1    0    0    0  501 -0.00000000000E+00  0.00000000000E+00  0.14642064843E+03  0.14642064843E+03  0.00000000000E+00 0.  1.
          2   -1    0    0  501    0  0.00000000000E+00 -0.00000000000E+00 -0.93166442210E+02  0.93166442210E+02  0.00000000000E+00 0. -1.
         25    2    1    2    0    0 -0.67361512169E+01  0.42615992037E+02  0.45079629482E+02  0.13980020433E+03  0.12510166116E+03 0.  0.
          5    1    3    3  502    0 -0.34911929148E+02 -0.25789558891E+02 -0.13165819476E+02  0.45549482402E+02  0.41800000000E+01 0. -1.
         -5    1    3    3    0  502  0.28175777931E+02  0.68405550928E+02  0.58245448958E+02  0.94250721929E+02  0.41800000000E+01 0. -1.
        -11    1    1    2    0    0 -0.31440793591E+02 -0.31364888291E+02 -0.22266503133E+02  0.49679743165E+02  0.00000000000E+00 0. -1.
         11    1    1    2    0    0  0.38176944808E+02 -0.11251103747E+02  0.30441079873E+02  0.50107143146E+02  0.00000000000E+00 0.  1.
</event>
<event>
 7    1  0.2723366E-009  0.8565789E+02  0.7561462E-02  0.1313721E+00
          2   -1    0    0  501    0  0.00000000000E+00  0.00000000000E+00  0.92780789531E+03  0.92780789531E+03  0.00000000000E+00 0. -1.
         -2   -1    0    0    0  501 -0.00000000000E+00 -0.00000000000E+00 -0.15253414793E+02  0.15253414793E+02  0.00000000000E+00 0.  1.
         25    2    1    2    0    0 -0.27830145351E+02 -0.31199770162E+02  0.63335315471E+03  0.64694043552E+03  0.12509103035E+03 0.  0.
          5    1    3    3  502    0  0.25695207253E+02 -0.42270011660E+02  0.10951015191E+03  0.12023702979E+03  0.41800000000E+01 0. -1.
         -5    1    3    3    0  502 -0.53525352604E+02  0.11070241498E+02  0.52384300280E+03  0.52670340573E+03  0.41800000000E+01 0. -1.
        -11    1    1    2    0    0  0.10497356383E+00 -0.13907509331E+02  0.21710605882E+01  0.14076339699E+02  0.00000000000E+00 0.  1.
         11    1    1    2    0    0  0.27725171787E+02  0.45107279492E+02  0.27703026522E+03  0.28204453489E+03  0.00000000000E+00 0. -1.
</event>
<event>
 7    1  0.2723366E-009  0.1190132E+03  0.7561462E-02  0.1244734E+00
          1   -1    0    0  501    0  0.00000000000E+00  0.00000000000E+00  0.12424342869E+02  0.12424342869E+02  0.00000000000E+00 0. -1.
         -1   -1    0    0    0  501 -0.00000000000E+00 -0.00000000000E+00 -0.16137222283E+04  0.16137222283E+04  0.00000000000E+00 0.  1.
         25    2    1    2    0    0  0.10725343803E+02 -0.37234532485E+02 -0.12473879001E+04  0.12542430101E+04  0.12509001434E+03 0.  0.
          5    1    3    3  502    0 -0.10596240382E+02  0.41016116608E+02 -0.64534195759E+03  0.64674439832E+03  0.41800000000E+01 0.  1.
         -5    1    3    3    0  502  0.21321584185E+02 -0.78250649094E+02 -0.60204594250E+03  0.60749861179E+03  0.41800000000E+01 0.  1.
        -11    1    1    2    0    0  0.29674549105E+02  0.60672328399E+02 -0.20477861016E+03  0.21562928715E+03  0.00000000000E+00 0.  1.
         11    1    1    2    0    0 -0.40399892908E+02 -0.23437795914E+02 -0.14913137514E+03  0.15627427387E+03  0.00000000000E+00 0. -1.
</event>
<event>
 7    1  0.2723366E-009  0.9377148E+02  0.7561462E-02  0.1293967E+00
         -2   -1    0    0    0  501 -0.00000000000E+00  0.00000000000E+00  0.17888604424E+02  0.17888604424E+02  0.00000000000E+00 0.  1.
          2   -1    0    0  501    0  0.00000000000E+00 -0.00000000000E+00 -0.10040114928E+04  0.10040114928E+04  0.00000000000E+00 0. -1.
         25    2    1    2    0    0  0.54053903900E+02  0.59769564940E+02 -0.51534284388E+03  0.53639447189E+03  0.12508619952E+03 0.  0.
          5    1    3    3  502    0  0.12672543249E+02  0.30432717570E+02 -0.20721174838E+02  0.39160989999E+02  0.41800000000E+01 0.  1.
         -5    1    3    3    0  502  0.41381360651E+02  0.29336847370E+02 -0.49462166904E+03  0.49723348189E+03  0.41800000000E+01 0.  1.
        -11    1    1    2    0    0 -0.68337782574E+02 -0.40526945531E+02 -0.43654603810E+03  0.44371717256E+03  0.00000000000E+00 0. -1.
         11    1    1    2    0    0  0.14283878674E+02 -0.19242619409E+02 -0.34234006383E+02  0.41788452768E+02  0.00000000000E+00 0.  1.
</event>
<event>
 7    1  0.2723366E-009  0.8242817E+02  0.7561462E-02  0.1322299E+00
          2   -1    0    0  501    0  0.00000000000E+00  0.00000000000E+00  0.51879932335E+03  0.51879932335E+03  0.00000000000E+00 0. -1.
         -2   -1    0    0    0  501 -0.00000000000E+00 -0.00000000000E+00 -0.32475027049E+02  0.32475027049E+02  0.00000000000E+00 0.  1.
         25    2    1    2    0    0 -0.22957459685E+02  0.18922062015E+02  0.40644722144E+03  0.42629978007E+03  0.12508824599E+03 0.  0.
          5    1    3    3  502    0 -0.58035100487E+02  0.20031653317E+02  0.37161958064E+03  0.37668013637E+03  0.41800000000E+01 0. -1.
         -5    1    3    3    0  502  0.35077640801E+02 -0.11095913021E+01  0.34827640803E+02  0.49619643701E+02  0.41800000000E+01 0. -1.
        -11    1    1    2    0    0  0.20686514772E+02  0.20126265706E+02  0.80851122460E+02  0.85848136076E+02  0.00000000000E+00 0. -1.
         11    1    1    2    0    0  0.22709449131E+01 -0.39048327721E+02 -0.97404759877E+00  0.39126434253E+02  0.00000000000E+00 0.  1.
</event>
<event>
 7    1  0.2723366E-009  0.9591970E+02  0.7561462E-02  0.1289118E+00
         -1   -1    0    0    0  501 -0.00000000000E+00  0.00000000000E+00  0.15918331184E+02  0.15918331184E+02  0.00000000000E+00 0.  1.
          1   -1    0    0  501    0  0.00000000000E+00 -0.00000000000E+00 -0.89075702367E+03  0.89075702367E+03  0.00000000000E+00 0. -1.
         25    2    1    2    0    0 -0.21526466066E+02  0.75542768064E+01 -0.66112745055E+03  0.67324440960E+03  0.12509225935E+03 0.  0.
          5    1    3    3  502    0 -0.37126853700E+02 -0.38790025968E+02 -0.53811070346E+03  0.54079910406E+03  0.41800000000E+01 0. -1.
         -5    1    3    3    0  502  0.15600387634E+02  0.46344302775E+02 -0.12301674709E+03  0.13244530554E+03  0.41800000000E+01 0. -1.
        -11    1    1    2    0    0 -0.18477528673E+02 -0.35558616141E+02 -0.13482079348E+03  0.14065020655E+03  0.00000000000E+00 0. -1.
         11    1    1    2    0    0  0.40003994739E+02  0.28004339335E+02 -0.78890448455E+02  0.92780738702E+02  0.00000000000E+00 0.  1.
</event>
<event>
 7    1  0.2723366E-009  0.1348238E+03  0.7561462E-02  0.1220469E+00
         -2   -1    0    0    0  501 -0.00000000000E+00  0.00000000000E+00  0.25046636846E+03  0.25046636846E+03  0.00000000000E+00 0.  1.
          2   -1    0    0  501    0  0.00000000000E+00 -0.00000000000E+00 -0.11428947419E+03  0.11428947419E+03  0.00000000000E+00 0. -1.
         25    2    1    2    0    0  0.40422022856E+02  0.84489846102E+02  0.16988202655E+03  0.23082611199E+03  0.12509323325E+03 0.  0.
          5    1    3    3  502    0  0.83422014214E+02  0.71096716169E+02  0.13347595255E+03  0.17276364726E+03  0.41800000000E+01 0. -1.
         -5    1    3    3    0  502 -0.42999991359E+02  0.13393129933E+02  0.36406074003E+02  0.58062464730E+02  0.41800000000E+01 0. -1.
        -11    1    1    2    0    0 -0.56518272422E+02 -0.45535232669E+02  0.99375073517E+01  0.73256580484E+02  0.00000000000E+00 0.  1.
         11    1    1    2    0    0  0.16096249567E+02 -0.38954613433E+02 -0.43642639641E+02  0.60673150179E+02  0.00000000000E+00 0. -1.
</event>
<event>
 7    1  0.2723366E-009  0.1152044E+03  0.7561462E-02  0.1251225E+00
          1   -1    0    0  501    0  0.00000000000E+00  0.00000000000E+00  0.10519881726E+03  0.10519881726E+03  0.00000000000E+00 0. -1.
         -1   -1    0    0    0  501 -0.00000000000E+00 -0.00000000000E+00 -0.16202508009E+03  0.16202508009E+03  0.00000000000E+00 0.  1.
         25    2    1    2    0    0 -0.44138138254E+02  0.63750520993E+02 -0.15178600211E+02  0.14794957587E+03  0.12508550243E+03 0.  0.
          5    1    3    3  502    0 -0.82001645840E+02  0.43123871768E+02 -0.36499438954E+02  0.99667545775E+02  0.41800000000E+01 0.  1.
         -5    1    3    3    0  502  0.37863507586E+02  0.20626649226E+02  0.21320838743E+02  0.48282030091E+02  0.41800000000E+01 0.  1.
        -11    1    1    2    0    0  0.32004249935E+02 -0.27191255783E+01 -0.46881118063E+02  0.56828732950E+02  0.00000000000E+00 0.  1.
         11    1    1    2    0    0  0.12133888319E+02 -0.61031395415E+02  0.52334554487E+01  0.62445588539E+02  0.00000000000E+00 0. -1.
</event>
<event>
 7    1  0.2723366E-009  0.1104576E+03  0.7561462E-02  0.1259725E+00
          1   -1    0    0  501    0  0.00000000000E+00  0.00000000000E+00  0.23610170280E+03  0.23610170280E+03  0.00000000000E+00 0. -1.
         -1   -1    0    0    0  501 -0.00000000000E+00 -0.00000000000E+00 -0.55091378144E+02  0.55091378144E+02  0.00000000000E+00 0.  1.
         25    2    1    2    0    0 -0.33516211830E+02 -0.15930471716E+02  0.99561163948E+02  0.16412455193E+03  0.12508927529E+03 0.  0.
          5    1    3    3  502    0 -0.51522277706E+02  0.39629760186E+02  0.26068908532E+02  0.70157846208E+02  0.41800000000E+01 0. -1.
         -5    1    3    3    0  502  0.18006065876E+02 -0.55560231901E+02  0.73492255416E+02  0.93966705717E+02  0.41800000000E+01 0. -1.
        -11    1    1    2    0    0  0.30350208515E+02  0.52434616081E+02  0.55563818695E+02  0.82206216726E+02  0.00000000000E+00 0. -1.
         11    1    1    2    0    0  0.31660033148E+01 -0.36504144366E+02  0.25885342009E+02  0.44862312288E+02  0.00000000000E+00 0.  1.
</event>
<event>
 7    1  0.2723366E-009  0.1123069E+03  0.7561462E-02  0.1256357E+00
         -2   -1    0    0    0  501 -0.00000000000E+00  0.00000000000E+00  0.15002193572E+03  0.15002193572E+03  0.00000000000E+00 0.  1.
          2   -1    0    0  501    0  0.00000000000E+00 -0.00000000000E+00 -0.88739151140E+02  0.88739151140E+02  0.00000000000E+00 0. -1.
         25    2    1    2    0    0 -0.28760130646E+02 -0.25286154172E+02  0.60904655922E+02  0.14430873938E+03  0.12509636462E+03 0.  0.
          5    1    3    3  502    0 -0.53412512604E+02 -0.64690290656E+02  0.42586674059E+02  0.94174452030E+02  0.41800000000E+01 0. -1.
         -5    1    3    3    0  502  0.24652381957E+02  0.39404136484E+02  0.18317981863E+02  0.50134287347E+02  0.41800000000E+01 0. -1.
        -11    1    1    2    0    0  0.58775897891E+02  0.80130670905E+01  0.49270467406E+01  0.59523870898E+02  0.00000000000E+00 0.  1.
         11    1    1    2    0    0 -0.30015767245E+02  0.17273087082E+02 -0.45489180845E+01  0.34928476582E+02  0.00000000000E+00 0. -1.
</event>
<event>
 7    1  0.2723366E-009  0.1692935E+03  0.7561462E-02  0.1178587E+00
          1   -1    0    0  501    0  0.00000000000E+00  0.00000000000E+00  0.11597600373E+03  0.11597600373E+03  0.00000000000E+00 0.  1.
         -1   -1    0    0    0  501 -0.00000000000E+00 -0.00000000000E+00 -0.43989219903E+03  0.43989219903E+03  0.00000000000E+00 0. -1.
         25    2    1    2    0    0  0.15435342314E+03 -0.28974299915E+02 -0.19758142415E+02  0.20174784771E+03  0.12508925043E+03 0.  0.
          5    1    3    3  502    0  0.38207642412E+02 -0.32728282042E+01 -0.64030291997E+02  0.74752164092E+02  0.41800000000E+01 0. -1.
         -5    1    3    3    0  502  0.11614578072E+03 -0.25701471711E+02  0.44272149583E+02  0.12699568362E+03  0.41800000000E+01 0. -1.
        -11    1    1    2    0    0  0.11521109694E+02 -0.33293640306E+01 -0.15032294527E+02  0.19229937914E+02  0.00000000000E+00 0.  1.
         11    1    1    2    0    0 -0.16587453283E+03  0.32303663946E+02 -0.28912575836E+03  0.33489041714E+03  0.00000000000E+00 0. -1.
</event>
<event>
 7    1  0.2723366E-009  0.9589879E+02  0.7561462E-02  0.1289165E+00
          3   -1    0    0  501    0  0.00000000000E+00  0.00000000000E+00  0.45330030744E+02  0.45330030744E+02  0.00000000000E+00 0. -1.
         -3   -1    0    0    0  501 -0.00000000000E+00 -0.00000000000E+00 -0.30831197197E+03  0.30831197197E+03  0.00000000000E+00 0.  1.
         25    2    1    2    0    0 -0.46058045625E+02 -0.10843766995E+01 -0.13439772829E+03  0.18930347636E+03  0.12510210770E+03 0.  0.
          5    1    3    3  502    0 -0.61851437585E+02  0.45156928775E+02 -0.49573348538E+02  0.91322165070E+02  0.41800000000E+01 0. -1.
         -5    1    3    3    0  502  0.15793391960E+02 -0.46241305474E+02 -0.84824379749E+02  0.97981311286E+02  0.41800000000E+01 0. -1.
        -11    1    1    2    0    0 -0.45154904464E+01 -0.12834385885E+02  0.95219498169E+01  0.16606584337E+02  0.00000000000E+00 0. -1.
         11    1    1    2    0    0  0.50573536071E+02  0.13918762584E+02 -0.13810616275E+03  0.14773194202E+03  0.00000000000E+00 0.  1.
</event>
<event>
 7    1  0.2723366E-009  0.1371011E+03  0.7561462E-02  0.1217284E+00
         -2   -1    0    0    0  501 -0.00000000000E+00  0.00000000000E+00  0.27410704342E+02  0.27410704342E+02  0.00000000000E+00 0.  1.
          2   -1    0    0  501    0  0.00000000000E+00 -0.00000000000E+00 -0.85279534841E+03  0.85279534841E+03  0.00000000000E+00 0. -1.
         25    2    1    2    0    0 -0.73826223991E+02 -0.39039771073E+02 -0.61987066701E+03  0.63785773270E+03  0.12509367799E+03 0.  0.
          5    1    3    3  502    0 -0.47204955303E+02  0.42123268930E+02 -0.30902922408E+03  0.31546665644E+03  0.41800000000E+01 0.  1.
         -5    1    3    3    0  502 -0.26621268689E+02 -0.81163040004E+02 -0.31084144292E+03  0.32239107625E+03  0.41800000000E+01 0.  1.
        -11    1    1    2    0    0  0.92726680756E+02  0.47940537678E+02 -0.14760802306E+03  0.18078899565E+03  0.00000000000E+00 0.  1.
         11    1    1    2    0    0 -0.18900456764E+02 -0.89007666043E+01 -0.57905954002E+02  0.61559324403E+02  0.00000000000E+00 0. -1.
</event>
<event>
 7    1  0.2723366E-009  0.1283722E+03  0.7561462E-02  0.1229891E+00
         -1   -1    0    0    0  501 -0.00000000000E+00  0.00000000000E+00  0.43345117232E+02  0.43345117232E+02  0.00000000000E+00 0.  1.
          1   -1    0    0  501    0  0.00000000000E+00 -0.00000000000E+00 -0.54712054703E+03  0.54712054703E+03  0.00000000000E+00 0. -1.
         25    2    1    2    0    0  0.89222699957E+02  0.53257228828E+02 -0.20430561256E+03  0.26112426938E+03  0.12509227844E+03 0.  0.
          5    1    3    3  502    0  0.81733760058E+02  0.13790764589E+01 -0.18961624261E+03  0.20652869352E+03  0.41800000000E+01 0. -1.
         -5    1    3    3    0  502  0.74889398996E+01  0.51878152369E+02 -0.14689369951E+02  0.54595575862E+02  0.41800000000E+01 0. -1.
        -11    1    1    2    0    0  0.19740383003E+01  0.10726321368E+02 -0.12318019612E+01  0.10975797619E+02  0.00000000000E+00 0.  1.
         11    1    1    2    0    0 -0.91196738258E+02 -0.63983550196E+02 -0.29823801528E+03  0.31836559727E+03  0.00000000000E+00 0. -1.
</event>
<event>
 7    1  0.2723366E-009  0.1137949E+03  0.7561462E-02  0.1253699E+00
          1   -1    0    0  501    0  0.00000000000E+00  0.00000000000E+00  0.34687513933E+02  0.34687513933E+02  0.00000000000E+00 0. -1.
         -1   -1    0    0    0  501 -0.00000000000E+00 -0.00000000000E+00 -0.50531899508E+03  0.50531899508E+03  0.00000000000E+00 0.  1.
         25    2    1    2    0    0 -0.23216548983E+02 -0.38399886621E+02 -0.13605598274E+03  0.19019053032E+03  0.12509055896E+03 0.  0.
          5    1    3    3  502    0  0.21116459081E+02  0.38433206391E+02 -0.42925202313E+02  0.61506597949E+02  0.41800000000E+01 0. -1.
         -5    1    3    3    0  502 -0.44333008064E+02 -0.76833093012E+02 -0.93130780431E+02  0.12868393237E+03  0.41800000000E+01 0. -1.
        -11    1    1    2    0    0  0.38218805341E+02 -0.13636533643E+02 -0.81893937496E+02  0.91396111133E+02  0.00000000000E+00 0. -1.
         11    1    1    2    0    0 -0.15002256358E+02  0.52036420265E+02 -0.25268156091E+03  0.25841986757E+03  0.00000000000E+00 0.  1.
</event>
<event>
 7    1  0.2723366E-009  0.7833088E+02  0.7561462E-02  0.1333856E+00
         -3   -1    0    0    0  501 -0.00000000000E+00  0.00000000000E+00  0.13550245771E+03  0.13550245771E+03  0.00000000000E+00 0.  1.
          3   -1    0    0  501    0  0.00000000000E+00 -0.00000000000E+00 -0.95344702283E+02  0.95344702283E+02  0.00000000000E+00 0. -1.
         25    2    1    2    0    0 -0.46475058765E+00 -0.25092820611E+02 -0.86829382974E+01  0.12787384644E+03  0.12508581672E+03 0.  0.
          5    1    3    3  502    0 -0.22874174966E+02 -0.61507179450E+02 -0.37921488942E+02  0.75907000520E+02  0.41800000000E+01 0. -1.
         -5    1    3    3    0  502  0.22409424379E+02  0.36414358839E+02  0.29238550645E+02  0.51966845916E+02  0.41800000000E+01 0. -1.
        -11    1    1    2    0    0  0.11413766728E+02 -0.74362150475E+01  0.64013470389E+02  0.65446892641E+02  0.00000000000E+00 0.  1.
         11    1    1    2    0    0 -0.10949016140E+02  0.32529035658E+02 -0.15172776663E+02  0.37526420918E+02  0.00000000000E+00 0. -1.
</event>
<event>
 7    1  0.2723366E-009  0.2193106E+03  0.7561462E-02  0.1134398E+00
         -2   -1    0    0    0  501 -0.00000000000E+00  0.00000000000E+00  0.16661741890E+03  0.16661741890E+03  0.00000000000E+00 0.  1.
          2   -1    0    0  501    0  0.00000000000E+00 -0.00000000000E+00 -0.38699978541E+03  0.38699978541E+03  0.00000000000E+00 0. -1.
         25    2    1    2    0    0 -0.75240109830E+02 -0.20187089036E+03 -0.28493357843E+02  0.25074384884E+03  0.12509067027E+03 0.  0.
          5    1    3    3  502    0 -0.50137659239E+02 -0.18190933754E+03 -0.67161994249E+02  0.20033221865E+03  0.41800000000E+01 0. -1.
         -5    1    3    3    0  502 -0.25102450591E+02 -0.19961552812E+02  0.38668636406E+02  0.50411630184E+02  0.41800000000E+01 0. -1.
        -11    1    1    2    0    0  0.57596166880E+02  0.11187657987E+03 -0.53223082862E+02  0.13662497617E+03  0.00000000000E+00 0.  1.
         11    1    1    2    0    0  0.17643942950E+02  0.89994310481E+02 -0.13866592580E+03  0.16624837930E+03  0.00000000000E+00 0. -1.
</event>
<event>
 7    1  0.2723366E-009  0.8508081E+02  0.7561462E-02  0.1315221E+00
         -2   -1    0    0    0  501 -0.00000000000E+00  0.00000000000E+00  0.42934046805E+02  0.42934046805E+02  0.00000000000E+00 0.  1.
          2   -1    0    0  501    0  0.00000000000E+00 -0.00000000000E+00 -0.33443313065E+03  0.33443313065E+03  0.00000000000E+00 0. -1.
         25    2    1    2    0    0 -0.30712302086E+02  0.18772200410E+02 -0.22024057865E+03  0.25583064318E+03  0.12509102486E+03 0.  0.
          5    1    3    3  502    0 -0.75157141510E+02  0.18912567852E+00 -0.92582250673E+02  0.11932131925E+03  0.41800000000E+01 0.  1.
         -5    1    3    3    0  502  0.44444839424E+02  0.18583074732E+02 -0.12765832798E+03  0.13650932393E+03  0.41800000000E+01 0.  1.
        -11    1    1    2    0    0  0.60020964612E+01 -0.20887853516E+02  0.18421789430E+02  0.28490172204E+02  0.00000000000E+00 0.  1.
         11    1    1    2    0    0  0.24710205625E+02  0.21156531058E+01 -0.89680294620E+02  0.93046362063E+02  0.00000000000E+00 0. -1.
</event>
<event>
 7    1  0.2723366E-009  0.9856397E+02  0.7561462E-02  0.1283345E+00
         -2   -1    0    0    0  501 -0.00000000000E+00  0.00000000000E+00  0.76396053326E+02  0.76396053326E+02  0.00000000000E+00 0.  1.
          2   -1    0    0  501    0  0.00000000000E+00 -0.00000000000E+00 -0.19242587883E+03  0.19242587883E+03  0.00000000000E+00 0. -1.
         25    2    1    2    0    0  0.37338919347E+02  0.10977057220E+02 -0.23820881123E+02  0.13315171473E+03  0.12508898463E+03 0.  0.
          5    1    3    3  502    0  0.15093257398E+02  0.66107240179E+02 -0.27840620473E+02  0.73420338948E+02  0.41800000000E+01 0. -1.
         -5    1    3    3    0  502  0.22245661949E+02 -0.55130182959E+02  0.40197393498E+01  0.59731375784E+02  0.41800000000E+01 0. -1.
        -11    1    1    2    0    0 -0.28924311929E+02 -0.34260580575E+02 -0.51179310273E+01  0.45128665169E+02  0.00000000000E+00 0.  1.
         11    1    1    2    0    0 -0.84146074172E+01  0.23283523355E+02 -0.87091013350E+02  0.90541552252E+02  0.00000000000E+00 0. -1.
</event>
<event>
 7    1  0.2723366E-009  0.7995473E+02  0.7561462E-02  0.1329180E+00
          2   -1    0    0  501    0  0.00000000000E+00  0.00000000000E+00  0.55457638754E+03  0.55457638754E+03  0.00000000000E+00 0.  1.
         -2   -1    0    0    0  501 -0.00000000000E+00 -0.00000000000E+00 -0.30108840968E+02  0.30108840968E+02  0.00000000000E+00 0. -1.
         25    2    1    2    0    0  0.44424604960E+02  0.44302513071E+02  0.30696886300E+03  0.33736189335E+03  0.12508759346E+03 0.  0.
          5    1    3    3  502    0  0.42387653528E+02  0.28707454369E+02  0.29135524935E+02  0.59052369310E+02  0.41800000000E+01 0.  1.
         -5    1    3    3    0  502  0.20369514326E+01  0.15595058702E+02  0.27783333807E+03  0.27830952404E+03  0.41800000000E+01 0.  1.
        -11    1    1    2    0    0 -0.75134804925E+01 -0.53667506110E+02  0.19650273564E+03  0.20383811890E+03  0.00000000000E+00 0.  1.
         11    1    1    2    0    0 -0.36911124468E+02  0.93649930397E+01  0.20995947926E+02  0.43485216263E+02  0.00000000000E+00 0. -1.
</event>
<event>
 7    1  0.2723366E-009  0.1242313E+03  0.7561462E-02  0.1236276E+00
          1   -1    0    0  501    0  0.00000000000E+00  0.00000000000E+00  0.60614841557E+03  0.60614841557E+03  0.00000000000E+00 0. -1.
         -1   -1    0    0    0  501 -0.00000000000E+00 -0.00000000000E+00 -0.28068719473E+02  0.28068719473E+02  0.00000000000E+00 0.  1.
         25    2    1    2    0    0 -0.25859921389E+02  0.63656746139E+02  0.26561423183E+03  0.30152782858E+03  0.12508874608E+03 0.  0.
          5    1    3    3  502    0  0.12397267200E+02  0.89027101396E+02  0.21499309741E+03  0.23306441460E+03  0.41800000000E+01 0.  1.
         -5    1    3    3    0  502 -0.38257188589E+02 -0.25370355257E+02  0.50621134416E+02  0.68463413983E+02  0.41800000000E+01 0.  1.
        -11    1    1    2    0    0  0.82240792559E+01  0.22752831319E+02  0.45471416721E+02  0.51507053412E+02  0.00000000000E+00 0.  1.
         11    1    1    2    0    0  0.17635842133E+02 -0.86409577457E+02  0.26699404755E+03  0.28118225305E+03  0.00000000000E+00 0. -1.
</event>
<event>
 7    1  0.2723366E-009  0.9985034E+02  0.7561462E-02  0.1280611E+00
          1   -1    0    0  501    0  0.00000000000E+00  0.00000000000E+00  0.84832130519E+03  0.84832130519E+03  0.00000000000E+00 0. -1.
         -1   -1    0    0    0  501 -0.00000000000E+00 -0.00000000000E+00 -0.21371315292E+02  0.21371315292E+02  0.00000000000E+00 0.  1.
         25    2    1    2    0    0  0.47251267555E+02 -0.57809682603E+02  0.53305891081E+03  0.55261082562E+03  0.12510907445E+03 0.  0.
          5    1    3    3  502    0  0.45380805962E+02 -0.34775708128E+02  0.52448709183E+03  0.52761060387E+03  0.41800000000E+01 0. -1.
         -5    1    3    3    0  502  0.18704615936E+01 -0.23033974475E+02  0.85718189838E+01  0.25000221747E+02  0.41800000000E+01 0. -1.
        -11    1    1    2    0    0 -0.22373176233E+02 -0.24337402707E+02  0.74911586450E+02  0.81881707175E+02  0.00000000000E+00 0.  1.
         11    1    1    2    0    0 -0.24878091322E+02  0.82147085310E+02  0.21897949264E+03  0.23520008769E+03  0.00000000000E+00 0. -1.
</event>
<event>
 7    1  0.2723366E-009  0.1196962E+03  0.7561462E-02  0.1243599E+00
          1   -1    0    0  501    0  0.00000000000E+00  0.00000000000E+00  0.15633490999E+04  0.15633490999E+04  0.00000000000E+00 0. -1.
         -1   -1    0    0    0  501 -0.00000000000E+00 -0.00000000000E+00 -0.14564265205E+02  0.14564265205E+02  0.00000000000E+00 0.  1.
         25    2    1    2    0    0  0.38095710407E+02  0.95508837400E+02  0.93132934968E+03  0.94530358858E+03  0.12510513914E+03 0.  0.
          5    1    3    3  502    0  0.11548486797E+01  0.34680695446E+02  0.49489465589E+02  0.60586829562E+02  0.41800000000E+01 0.  1.
         -5    1    3    3    0  502  0.36940861727E+02  0.60828141954E+02  0.88183988409E+03  0.88471675902E+03  0.41800000000E+01 0.  1.
        -11    1    1    2    0    0  0.22989454218E+02 -0.43158942264E+01  0.58954314053E+02  0.63425177127E+02  0.00000000000E+00 0.  1.
         11    1    1    2    0    0 -0.61085164624E+02 -0.91192943173E+02  0.55850117097E+03  0.56918459940E+03  0.00000000000E+00 0. -1.
</event>
<event>
 7    1  0.2723366E-009  0.1418910E+03  0.7561462E-02  0.1210807E+00
         -1   -1    0    0    0  501 -0.00000000000E+00  0.00000000000E+00  0.79942768782E+02  0.79942768782E+02  0.00000000000E+00 0.  1.
          1   -1    0    0  501    0  0.00000000000E+00 -0.00000000000E+00 -0.33238855784E+03  0.33238855784E+03  0.00000000000E+00 0. -1.
         25    2    1    2    0    0  0.39476963519E+02  0.11117821439E+03 -0.16840519093E+03  0.24068020612E+03  0.12509047638E+03 0.  0.
          5    1    3    3  502    0  0.58911467857E+01  0.97420868998E+02 -0.37279154418E+02  0.10455973929E+03  0.41800000000E+01 0.  1.
         -5    1    3    3    0  502  0.33585816733E+02  0.13757345396E+02 -0.13112603652E+03  0.13612046683E+03  0.41800000000E+01 0.  1.
        -11    1    1    2    0    0  0.26510699174E+02 -0.61473677074E+02 -0.40913068794E+02  0.78458328697E+02  0.00000000000E+00 0.  1.
         11    1    1    2    0    0 -0.65987662693E+02 -0.49704537320E+02 -0.43127529331E+02  0.93192791803E+02  0.00000000000E+00 0. -1.
</event>
<event>
 7    1  0.2723366E-009  0.1001957E+03  0.7561462E-02  0.1279885E+00
          2   -1    0    0  501    0  0.00000000000E+00  0.00000000000E+00  0.48017787848E+03  0.48017787848E+03  0.00000000000E+00 0. -1.
         -2   -1    0    0    0  501 -0.00000000000E+00 -0.00000000000E+00 -0.32534162325E+02  0.32534162325E+02  0.00000000000E+00 0.  1.
         25    2    1    2    0    0  0.41850179700E+02 -0.40751302777E+02  0.21821068194E+03  0.25821776266E+03  0.12509358506E+03 0.  0.
          5    1    3    3  502    0  0.10425678547E+02 -0.71280846695E+02  0.59529609816E+02  0.93546249116E+02  0.41800000000E+01 0.  1.
         -5    1    3    3    0  502  0.31424501153E+02  0.30529543918E+02  0.15868107212E+03  0.16467151355E+03  0.41800000000E+01 0.  1.
        -11    1    1    2    0    0 -0.23195989490E+02 -0.13508348663E+02  0.11618265206E+02  0.29249162355E+02  0.00000000000E+00 0.  1.
         11    1    1    2    0    0 -0.18654190210E+02  0.54259651440E+02  0.21781476902E+03  0.22524511579E+03  0.00000000000E+00 0. -1.
</event>
<event>
 7    1  0.2723366E-009  0.1382032E+03  0.7561462E-02  0.1215767E+00
         -1   -1    0    0    0  501 -0.00000000000E+00  0.00000000000E+00  0.19933500447E+03  0.19933500447E+03  0.00000000000E+00 0.  1.
          1   -1    0    0  501    0  0.00000000000E+00 -0.00000000000E+00 -0.35346901265E+03  0.35346901265E+03  0.00000000000E+00 0. -1.
         25    2    1    2    0    0 -0.72720747563E+01 -0.12689259818E+03  0.13506334549E+03  0.22370438591E+03  0.12508769099E+03 0.  0.
          5    1    3    3  502    0  0.12863457096E+02 -0.90554940706E+02  0.10296614558E+02  0.92136629448E+02  0.41800000000E+01 0. -1.
         -5    1    3    3    0  502 -0.20135531852E+02 -0.36337657471E+02  0.12476673093E+03  0.13156775646E+03  0.41800000000E+01 0. -1.
        -11    1    1    2    0    0 -0.15005171043E+02  0.77661468082E+00 -0.26797835924E+01  0.15262356584E+02  0.00000000000E+00 0.  1.
         11    1    1    2    0    0  0.22277245799E+02  0.12611598350E+03 -0.28651757008E+03  0.31383727462E+03  0.00000000000E+00 0. -1.
</event>
<event>
 7    1  0.2723366E-009  0.1018697E+03  0.7561462E-02  0.1276413E+00
         -2   -1    0    0    0  501 -0.00000000000E+00  0.00000000000E+00  0.90682429560E+01  0.90682429560E+01  0.00000000000E+00 0.  1.
          2   -1    0    0  501    0  0.00000000000E+00 -0.00000000000E+00 -0.24992569731E+04  0.24992569731E+04  0.00000000000E+00 0. -1.
         25    2    1    2    0    0  0.18546588362E+02 -0.27661150631E+02 -0.21681894287E+04  0.21720501031E+04  0.12508851508E+03 0.  0.
          5    1    3    3  502    0 -0.41168942845E+02 -0.73931794409E-01 -0.31723862880E+03  0.31992609666E+03  0.41800000000E+01 0. -1.
         -5    1    3    3    0  502  0.59715531207E+02 -0.27587218837E+02 -0.18509507999E+04  0.18521240065E+04  0.41800000000E+01 0. -1.
        -11    1    1    2    0    0  0.10285111091E+02 -0.30143598541E+02 -0.90933298013E+02  0.96349804000E+02  0.00000000000E+00 0.  1.
         11    1    1    2    0    0 -0.28831699453E+02  0.57804749172E+02 -0.23106600345E+03  0.23992530894E+03  0.00000000000E+00 0. -1.
</event>
<event>
 7    1  0.2723366E-009  0.1158218E+03  0.7561462E-02  0.1250153E+00
         -1   -1    0    0    0  501 -0.00000000000E+00  0.00000000000E+00  0.61553815205E+02  0.61553815205E+02  0.00000000000E+00 0.  1.
          1   -1    0    0  501    0  0.00000000000E+00 -0.00000000000E+00 -0.30044722452E+03  0.30044722452E+03  0.00000000000E+00 0. -1.
         25    2    1    2    0    0 -0.50760414570E+02  0.63803321264E+02 -0.16459683758E+03  0.22223161964E+03  0.12508912955E+03 0.  0.
          5    1    3    3  502    0  0.41067008857E+02  0.20810054163E+02 -0.67274185114E+02  0.81626257745E+02  0.41800000000E+01 0.  1.
         -5    1    3    3    0  502 -0.91827423426E+02  0.42993267101E+02 -0.97322652469E+02  0.14060536189E+03  0.41800000000E+01 0.  1.
        -11    1    1    2    0    0  0.17193748667E+02 -0.83490797590E+01  0.18482872109E+02  0.26588506679E+02  0.00000000000E+00 0.  1.
         11    1    1    2    0    0  0.33566665902E+02 -0.55454241505E+02 -0.92779443838E+02  0.11318091341E+03  0.00000000000E+00 0. -1.
</event>
<event>
 7    1  0.2723366E-009  0.1136876E+03  0.7561462E-02  0.1253889E+00
          1   -1    0    0  501    0  0.00000000000E+00  0.00000000000E+00  0.37575272894E+03  0.37575272894E+03  0.00000000000E+00 0. -1.
         -1   -1    0    0    0  501 -0.00000000000E+00 -0.00000000000E+00 -0.35464701700E+02  0.35464701700E+02  0.00000000000E+00 0.  1.
         25    2    1    2    0    0 -0.33865918661E+02 -0.15172956672E+02  0.19125767830E+03  0.23152532584E+03  0.12508939978E+03 0.  0.
          5    1    3    3  502    0 -0.70341851589E+02 -0.42033150218E+02  0.14526421347E+03  0.16683502605E+03  0.41800000000E+01 0.  1.
         -5    1    3    3    0  502  0.36475932928E+02  0.26860193546E+02  0.45993464829E+02  0.64690299793E+02  0.41800000000E+01 0.  1.
        -11    1    1    2    0    0  0.61330007227E+02 -0.10519683124E+02  0.10188173636E+03  0.11938141280E+03  0.00000000000E+00 0. -1.
         11    1    1    2    0    0 -0.27464088566E+02  0.25692639796E+02  0.47148612587E+02  0.60310691998E+02  0.00000000000E+00 0.  1.
</event>
<event>
 7    1  0.2723366E-009  0.9847711E+02  0.7561462E-02  0.1283531E+00
          2   -1    0    0  501    0  0.00000000000E+00  0.00000000000E+00  0.78942905713E+03  0.78942905713E+03  0.00000000000E+00 0. -1.
         -2   -1    0    0    0  501 -0.00000000000E+00 -0.00000000000E+00 -0.24351365288E+02  0.24351365288E+02  0.00000000000E+00 0.  1.
         25    2    1    2    0    0  0.69460935115E+02 -0.78221730616E+01  0.49252311431E+03  0.51294810153E+03  0.12510287302E+03 0.  0.
          5    1    3    3  502    0  0.79848550508E+02 -0.12454518907E+02  0.15190751343E+03  0.17211702733E+03  0.41800000000E+01 0. -1.
         -5    1    3    3    0  502 -0.10387615394E+02  0.46323458449E+01  0.34061560088E+03  0.34083107420E+03  0.41800000000E+01 0. -1.
        -11    1    1    2    0    0  0.11143722665E+02  0.19508805009E+02  0.77201937409E+01  0.23756628951E+02  0.00000000000E+00 0.  1.
         11    1    1    2    0    0 -0.80604657780E+02 -0.11686631948E+02  0.26483438380E+03  0.27707569194E+03  0.00000000000E+00 0. -1.
</event>
<event>
 7    1  0.2723366E-009  0.1717706E+03  0.7561462E-02  0.1176014E+00
         -2   -1    0    0    0  501 -0.00000000000E+00  0.00000000000E+00  0.17630147997E+02  0.17630147997E+02  0.00000000000E+00 0.  1.
          2   -1    0    0  501    0  0.00000000000E+00 -0.00000000000E+00 -0.19290100805E+04  0.19290100805E+04  0.00000000000E+00 0. -1.
         25    2    1    2    0    0  0.13450998540E+03  0.58232470183E+01 -0.13386328211E+04  0.13511879687E+04  0.12507697902E+03 0.  0.
          5    1    3    3  502    0  0.13910314145E+03 -0.32525986949E+02 -0.96220726880E+03  0.97276303606E+03  0.41800000000E+01 0. -1.
         -5    1    3    3    0  502 -0.45931560503E+01  0.38349233967E+02 -0.37642555231E+03  0.37842493266E+03  0.41800000000E+01 0. -1.
        -11    1    1    2    0    0  0.90562275372E+01  0.14177567638E+02 -0.41383342958E+02  0.44672136234E+02  0.00000000000E+00 0.  1.
         11    1    1    2    0    0 -0.14356621294E+03 -0.20000814656E+02 -0.53136376845E+03  0.55078012355E+03  0.00000000000E+00 0. -1.
</event>
<event>
 7    1  0.2744338E-009  0.1685809E+03  0.7561462E-02  0.1179336E+00
          2   -1    0    0  501    0  0.00000000000E+00  0.00000000000E+00  0.28942090635E+03  0.28942090635E+03  0.00000000000E+00 0. -1.
         -2   -1    0    0    0  501 -0.00000000000E+00 -0.00000000000E+00 -0.13873553371E+03  0.13873553371E+03  0.00000000000E+00 0.  1.
         25    2    1    2    0    0 -0.13600686538E+03  0.78170090689E+02  0.14266321249E+03  0.24619033390E+03  0.12509379599E+03 0.  0.
          5    1    3    3  502    0 -0.96849889042E+02  0.58440805522E+02  0.16237515081E+03  0.19793531963E+03  0.41800000000E+01 0. -1.
         -5    1    3    3    0  502 -0.39156976342E+02  0.19729285167E+02 -0.19711938316E+02  0.48255014264E+02  0.41800000000E+01 0. -1.
        -11    1    1    2    0    0  0.79245047546E+02 -0.92077448309E+02  0.17582884935E+02  0.12274849038E+03  0.00000000000E+00 0. -1.
         11    1    1    2    0    0  0.56761817838E+02  0.13907357621E+02 -0.95607247897E+01  0.59217615780E+02  0.00000000000E+00 0.  1.
</event>
<event>
 7    1  0.2723366E-009  0.1139522E+03  0.7561462E-02  0.1253421E+00
         -1   -1    0    0    0  501 -0.00000000000E+00  0.00000000000E+00  0.11600783490E+03  0.11600783490E+03  0.00000000000E+00 0.  1.
          1   -1    0    0  501    0  0.00000000000E+00 -0.00000000000E+00 -0.13838144535E+03  0.13838144535E+03  0.00000000000E+00 0. -1.
         25    2    1    2    0    0 -0.21513693863E+02 -0.39506240401E+02  0.35124253739E+02  0.13749438935E+03  0.12508961527E+03 0.  0.
          5    1    3    3  502    0 -0.27950798170E+02  0.41276900065E+02  0.26639298586E+01  0.50095893241E+02  0.41800000000E+01 0. -1.
         -5    1    3    3    0  502  0.64371043073E+01 -0.80783140466E+02  0.32460323880E+02  0.87398496107E+02  0.41800000000E+01 0. -1.
        -11    1    1    2    0    0  0.12853444696E+02 -0.26874042102E+02 -0.35691610312E+02  0.46489958336E+02  0.00000000000E+00 0.  1.
         11    1    1    2    0    0  0.86602491667E+01  0.66380282503E+02 -0.21806253873E+02  0.70404932560E+02  0.00000000000E+00 0. -1.
</event>
<event>
 7    1  0.2723366E-009  0.1060440E+03  0.7561462E-02  0.1268076E+00
          2   -1    0    0  501    0  0.00000000000E+00  0.00000000000E+00  0.13654144354E+03  0.13654144354E+03  0.00000000000E+00 0. -1.
         -2   -1    0    0    0  501 -0.00000000000E+00 -0.00000000000E+00 -0.17313762836E+03  0.17313762836E+03  0.00000000000E+00 0.  1.
         25    2    1    2    0    0 -0.27631806632E+02  0.62930023685E+02 -0.10409901899E+03  0.17665713536E+03  0.12508970022E+03 0.  0.
          5    1    3    3  502    0 -0.60930319884E+02 -0.61520608368E+01 -0.24627665646E+02  0.66138839186E+02  0.41800000000E+01 0.  1.
         -5    1    3    3    0  502  0.33298513252E+02  0.69082084522E+02 -0.79471353349E+02  0.11051829618E+03  0.41800000000E+01 0.  1.
        -11    1    1    2    0    0  0.12596818960E+02 -0.55907115458E+02 -0.60437577251E+01  0.57626490559E+02  0.00000000000E+00 0.  1.
         11    1    1    2    0    0  0.15034987672E+02 -0.70229082272E+01  0.73546591902E+02  0.75395445981E+02  0.00000000000E+00 0. -1.
</event>
<event>
 7    1  0.2723366E-009  0.1443935E+03  0.7561462E-02  0.1207537E+00
          1   -1    0    0  501    0  0.00000000000E+00  0.00000000000E+00  0.17393250344E+03  0.17393250344E+03  0.00000000000E+00 0. -1.
         -1   -1    0    0    0  501 -0.00000000000E+00 -0.00000000000E+00 -0.15819295528E+03  0.15819295528E+03  0.00000000000E+00 0.  1.
         25    2    1    2    0    0 -0.85763411767E+02 -0.91763892888E+02 -0.20587400034E+01  0.17727953486E+03  0.12509124763E+03 0.  0.
          5    1    3    3  502    0  0.36121760254E+01 -0.26301514910E+02  0.48486683856E+02  0.55436886759E+02  0.41800000000E+01 0.  1.
         -5    1    3    3    0  502 -0.89375587792E+02 -0.65462377979E+02 -0.50545423859E+02  0.12184264810E+03  0.41800000000E+01 0.  1.
        -11    1    1    2    0    0  0.60586590916E+01  0.67443440426E+02  0.22568349363E+02  0.71376854788E+02  0.00000000000E+00 0.  1.
         11    1    1    2    0    0  0.79704752675E+02  0.24320452462E+02 -0.47700611979E+01  0.83469069066E+02  0.00000000000E+00 0. -1.
</event>
<event>
 7    1  0.2723366E-009  0.8957857E+02  0.7561462E-02  0.1303875E+00
          2   -1    0    0  501    0  0.00000000000E+00  0.00000000000E+00  0.19865274617E+04  0.19865274617E+04  0.00000000000E+00 0. -1.
         -2   -1    0    0    0  501 -0.00000000000E+00 -0.00000000000E+00 -0.85212818674E+01  0.85212818674E+01  0.00000000000E+00 0.  1.
         25    2    1    2    0    0 -0.32773733136E+02  0.60344704925E+01  0.15775396329E+04  0.15828425880E+04  0.12509529387E+03 0.  0.
          5    1    3    3  502    0  0.17442468984E+01 -0.31420176084E+02  0.11199465601E+03  0.11640680924E+03  0.41800000000E+01 0.  1.
         -5    1    3    3    0  502 -0.34517980034E+02  0.37454646577E+02  0.14655449769E+04  0.14664357788E+04  0.41800000000E+01 0.  1.
        -11    1    1    2    0    0  0.58910310337E+01 -0.46967179541E+02  0.23130802748E+03  0.23610172337E+03  0.00000000000E+00 0.  1.
         11    1    1    2    0    0  0.26882702102E+02  0.40932709049E+02  0.16915851944E+03  0.17610443220E+03  0.00000000000E+00 0. -1.
</event>
<event>
 7    1  0.2723366E-009  0.9712455E+02  0.7561462E-02  0.1286462E+00
          1   -1    0    0  501    0  0.00000000000E+00  0.00000000000E+00  0.18949798506E+03  0.18949798506E+03  0.00000000000E+00 0. -1.
         -1   -1    0    0    0  501 -0.00000000000E+00 -0.00000000000E+00 -0.70437941483E+02  0.70437941483E+02  0.00000000000E+00 0.  1.
         25    2    1    2    0    0  0.25261167190E+02 -0.11769244046E+02  0.39119223541E+02  0.13399180019E+03  0.12508735825E+03 0.  0.
          5    1    3    3  502    0 -0.15883572806E+02 -0.42907883900E+02  0.62185709878E+02  0.77316940568E+02  0.41800000000E+01 0.  1.
         -5    1    3    3    0  502  0.41144739996E+02  0.31138639854E+02 -0.23066486337E+02  0.56674859622E+02  0.41800000000E+01 0.  1.
        -11    1    1    2    0    0 -0.10957083226E+02  0.52362645010E+02  0.52163431305E+02  0.74718992436E+02  0.00000000000E+00 0. -1.
         11    1    1    2    0    0 -0.14304083964E+02 -0.40593400964E+02  0.27777388728E+02  0.51225133912E+02  0.00000000000E+00 0.  1.
</event>
<event>
 7    1  0.2723366E-009  0.1193027E+03  0.7561462E-02  0.1244252E+00
         -2   -1    0    0    0  501 -0.00000000000E+00  0.00000000000E+00  0.10496991703E+03  0.10496991703E+03  0.00000000000E+00 0.  1.
          2   -1    0    0  501    0  0.00000000000E+00 -0.00000000000E+00 -0.19462851688E+03  0.19462851688E+03  0.00000000000E+00 0. -1.
         25    2    1    2    0    0 -0.50285696161E+02  0.21741359086E+02  0.26425676402E+02  0.13909445465E+03  0.12509041933E+03 0.  0.
          5    1    3    3  502    0 -0.66085955460E+02 -0.33601178202E+02  0.32527569923E+02  0.81067304696E+02  0.41800000000E+01 0.  1.
         -5    1    3    3    0  502  0.15800259299E+02  0.55342537288E+02 -0.61018935202E+01  0.58027149955E+02  0.41800000000E+01 0.  1.
        -11    1    1    2    0    0  0.24523483504E+02  0.35918172584E+02 -0.26607670586E+02  0.50985139982E+02  0.00000000000E+00 0.  1.
         11    1    1    2    0    0  0.25762212657E+02 -0.57659531670E+02 -0.89476605674E+02  0.10951883928E+03  0.00000000000E+00 0. -1.
</event>
<event>
 7    1  0.2723366E-009  0.1634749E+03  0.7561462E-02  0.1184829E+00
         -1   -1    0    0    0  501 -0.00000000000E+00  0.00000000000E+00  0.12178694784E+03  0.12178694784E+03  0.00000000000E+00 0.  1.
          1   -1    0    0  501    0  0.00000000000E+00 -0.00000000000E+00 -0.33065949383E+03  0.33065949383E+03  0.00000000000E+00 0. -1.
         25    2    1    2    0    0 -0.14657073913E+03 -0.80513653972E+01 -0.15445818240E+02  0.19347608203E+03  0.12508642997E+03 0.  0.
          5    1    3    3  502    0 -0.12096919655E+03 -0.25430566141E+02  0.39874048457E+02  0.12995257730E+03  0.41800000000E+01 0. -1.
         -5    1    3    3    0  502 -0.25601542585E+02  0.17379200744E+02 -0.55319866697E+02  0.63523504726E+02  0.41800000000E+01 0. -1.
        -11    1    1    2    0    0  0.33156710881E+02 -0.37290921975E+02 -0.51187197216E+02  0.71485029881E+02  0.00000000000E+00 0.  1.
         11    1    1    2    0    0  0.11341402825E+03  0.45342287373E+02 -0.14223953054E+03  0.18748532976E+03  0.00000000000E+00 0. -1.
</event>
<event>
 7    1  0.2723366E-009  0.1106265E+03  0.7561462E-02  0.1259414E+00
          1   -1    0    0  501    0  0.00000000000E+00  0.00000000000E+00  0.45540455280E+02  0.45540455280E+02  0.00000000000E+00 0. -1.
         -1   -1    0    0    0  501 -0.00000000000E+00 -0.00000000000E+00 -0.38234756201E+03  0.38234756201E+03  0.00000000000E+00 0.  1.
         25    2    1    2    0    0 -0.71936956700E+02  0.91837348535E+01 -0.15479492892E+03  0.21181986657E+03  0.12508764579E+03 0.  0.
          5    1    3    3  502    0 -0.31291424062E+02  0.50007511675E+02 -0.14032233058E+03  0.15227518939E+03  0.41800000000E+01 0.  1.
         -5    1    3    3    0  502 -0.40645532638E+02 -0.40823776822E+02 -0.14472598331E+02  0.59544677174E+02  0.41800000000E+01 0.  1.
        -11    1    1    2    0    0 -0.11419409156E+01  0.24048221425E+02 -0.93597907976E+02  0.96644655105E+02  0.00000000000E+00 0.  1.
         11    1    1    2    0    0  0.73078897615E+02 -0.33231956279E+02 -0.88414269837E+02  0.11942349562E+03  0.00000000000E+00 0. -1.
</event>
<event>
 7    1  0.2723366E-009  0.1683993E+03  0.7561462E-02  0.1179528E+00
          1   -1    0    0  501    0  0.00000000000E+00  0.00000000000E+00  0.23159845277E+03  0.23159845277E+03  0.00000000000E+00 0. -1.
         -1   -1    0    0    0  501 -0.00000000000E+00 -0.00000000000E+00 -0.16492048813E+03  0.16492048813E+03  0.00000000000E+00 0.  1.
         25    2    1    2    0    0  0.63688992144E+02  0.14514738348E+03 -0.41651490176E+01  0.20196421214E+03  0.12509254121E+03 0.  0.
          5    1    3    3  502    0  0.96120631995E+01  0.96490140248E+01 -0.47601013785E+02  0.49687263398E+02  0.41800000000E+01 0.  1.
         -5    1    3    3    0  502  0.54076928944E+02  0.13549836946E+03  0.43435864767E+02  0.15227694874E+03  0.41800000000E+01 0.  1.
        -11    1    1    2    0    0  0.10538052014E+02 -0.70669137647E+02  0.76077975638E+01  0.71854409328E+02  0.00000000000E+00 0.  1.
         11    1    1    2    0    0 -0.74227044158E+02 -0.74478245833E+02  0.63235316095E+02  0.12270031943E+03  0.00000000000E+00 0. -1.
</event>
<event>
 7    1  0.2723366E-009  0.1447292E+03  0.7561462E-02  0.1207103E+00
          1   -1    0    0  501    0  0.00000000000E+00  0.00000000000E+00  0.42821619842E+02  0.42821619842E+02  0.00000000000E+00 0. -1.
         -1   -1    0    0    0  501 -0.00000000000E+00 -0.00000000000E+00 -0.83572361650E+03  0.83572361650E+03  0.00000000000E+00 0.  1.
         25    2    1    2    0    0 -0.79482953646E+02 -0.72065565919E+02 -0.15820820580E+03  0.22844862487E+03  0.12509177475E+03 0.  0.
          5    1    3    3  502    0 -0.15237813765E+02  0.33501167384E+02 -0.60134780129E+02  0.70627072469E+02  0.41800000000E+01 0. -1.
         -5    1    3    3    0  502 -0.64245139880E+02 -0.10556673330E+03 -0.98073425672E+02  0.15782155240E+03  0.41800000000E+01 0. -1.
        -11    1    1    2    0    0  0.92972411033E+02  0.65758112803E+02 -0.61474096135E+03  0.62519952669E+03  0.00000000000E+00 0.  1.
         11    1    1    2    0    0 -0.13489457388E+02  0.63074531160E+01 -0.19952829514E+02  0.24897084790E+02  0.00000000000E+00 0. -1.
</event>
<event>
 7    1  0.2723366E-009  0.1046735E+03  0.7561462E-02  0.1270764E+00
          1   -1    0    0  501    0  0.00000000000E+00  0.00000000000E+00  0.28593248213E+03  0.28593248213E+03  0.00000000000E+00 0.  1.
         -1   -1    0    0    0  501 -0.00000000000E+00 -0.00000000000E+00 -0.45199046490E+02  0.45199046490E+02  0.00000000000E+00 0. -1.
         25    2    1    2    0    0 -0.36360091812E+02 -0.11912659396E+02  0.13429673653E+03  0.18747512510E+03  0.12508933352E+03 0.  0.
          5    1    3    3  502    0  0.33962854751E+02 -0.30873740604E+02  0.92625854774E+02  0.10345861363E+03  0.41800000000E+01 0. -1.
         -5    1    3    3    0  502 -0.70322946563E+02  0.18961081207E+02  0.41670881752E+02  0.84016511471E+02  0.41800000000E+01 0. -1.
        -11    1    1    2    0    0 -0.18023620827E+02 -0.20260139574E+02  0.58046729243E+02  0.64068299019E+02  0.00000000000E+00 0.  1.
         11    1    1    2    0    0  0.54383712639E+02  0.32172798970E+02  0.48389969875E+02  0.79588104504E+02  0.00000000000E+00 0. -1.
</event>
<event>
 7    1  0.2723366E-009  0.1010443E+03  0.7561462E-02  0.1278115E+00
         -1   -1    0    0    0  501 -0.00000000000E+00  0.00000000000E+00  0.42011236133E+03  0.42011236133E+03  0.00000000000E+00 0.  1.
          1   -1    0    0  501    0  0.00000000000E+00 -0.00000000000E+00 -0.30384479066E+02  0.30384479066E+02  0.00000000000E+00 0. -1.
         25    2    1    2    0    0  0.49016813009E+01 -0.26574639762E+02  0.18675501095E+03  0.22639965448E+03  0.12509648867E+03 0.  0.
          5    1    3    3  502    0 -0.64253331956E+01  0.48771962472E+02  0.94978702122E+02  0.10704398856E+03  0.41800000000E+01 0.  1.
         -5    1    3    3    0  502  0.11327014497E+02 -0.75346602234E+02  0.91776308823E+02  0.11935566592E+03  0.41800000000E+01 0.  1.
        -11    1    1    2    0    0  0.19297673421E+02  0.43021181012E+02  0.18223009850E+03  0.18823132315E+03  0.00000000000E+00 0.  1.
         11    1    1    2    0    0 -0.24199354722E+02 -0.16446541250E+02  0.20742772822E+02  0.35865862772E+02  0.00000000000E+00 0. -1.
</event>
<event>
 7    1  0.2723366E-009  0.1048876E+03  0.7561462E-02  0.1270341E+00
          2   -1    0    0  501    0  0.00000000000E+00  0.00000000000E+00  0.39954218166E+02  0.39954218166E+02  0.00000000000E+00 0. -1.
         -2   -1    0    0    0  501 -0.00000000000E+00 -0.00000000000E+00 -0.35479147420E+03  0.35479147420E+03  0.00000000000E+00 0.  1.
         25    2    1    2    0    0 -0.30068805499E+02 -0.31534417587E+02 -0.13187724499E+03  0.18691723086E+03  0.12509153005E+03 0.  0.
          5    1    3    3  502    0 -0.34735347561E+02  0.34459070998E+02 -0.12986701516E+02  0.50794672560E+02  0.41800000000E+01 0.  1.
         -5    1    3    3    0  502  0.46665420620E+01 -0.65993488585E+02 -0.11889054348E+03  0.13612255830E+03  0.41800000000E+01 0.  1.
        -11    1    1    2    0    0  0.55374279443E+02  0.39306246010E+02 -0.15552870784E+03  0.16970701447E+03  0.00000000000E+00 0.  1.
         11    1    1    2    0    0 -0.25305473944E+02 -0.77718284231E+01 -0.27431303209E+02  0.38121447038E+02  0.00000000000E+00 0. -1.
</event>
<event>
 7    1  0.2723366E-009  0.1062479E+03  0.7561462E-02  0.1267680E+00
         -2   -1    0    0    0  501 -0.00000000000E+00  0.00000000000E+00  0.10125647432E+02  0.10125647432E+02  0.00000000000E+00 0.  1.
          2   -1    0    0  501    0  0.00000000000E+00 -0.00000000000E+00 -0.15625293251E+04  0.15625293251E+04  0.00000000000E+00 0. -1.
         25    2    1    2    0    0  0.52596609850E+02  0.31573803341E+02 -0.97114324802E+03  0.98108735506E+03  0.12509948704E+03 0.  0.
          5    1    3    3  502    0 -0.19478280562E+02 -0.66779890722E+01 -0.62799517804E+03  0.62834657236E+03  0.41800000000E+01 0.  1.
         -5    1    3    3    0  502  0.72074890412E+02  0.38251792413E+02 -0.34314806999E+03  0.35274078271E+03  0.41800000000E+01 0.  1.
        -11    1    1    2    0    0 -0.55374417408E+02  0.19442982026E+02 -0.32693646456E+03  0.33216232103E+03  0.00000000000E+00 0. -1.
         11    1    1    2    0    0  0.27778075571E+01 -0.51016785367E+02 -0.25432396507E+03  0.25940529642E+03  0.00000000000E+00 0.  1.
</event>
<event>
 7    1  0.2723366E-009  0.1235873E+03  0.7561462E-02  0.1237294E+00
          2   -1    0    0  501    0  0.00000000000E+00  0.00000000000E+00  0.22778029245E+03  0.22778029245E+03  0.00000000000E+00 0. -1.
         -2   -1    0    0    0  501 -0.00000000000E+00 -0.00000000000E+00 -0.84569019956E+02  0.84569019956E+02  0.00000000000E+00 0.  1.
         25    2    1    2    0    0  0.64397543900E+02 -0.23775914789E+02  0.18989358884E+02  0.14394619912E+03  0.12509026623E+03 0.  0.
          5    1    3    3  502    0  0.88265022271E+02  0.16042477227E+02 -0.78651969078E+01  0.90152143372E+02  0.41800000000E+01 0.  1.
         -5    1    3    3    0  502 -0.23867478372E+02 -0.39818392016E+02  0.26854555792E+02  0.53794055744E+02  0.41800000000E+01 0.  1.
        -11    1    1    2    0    0 -0.79309817041E+01 -0.31052117193E+02  0.19910886530E+02  0.37730330709E+02  0.00000000000E+00 0.  1.
         11    1    1    2    0    0 -0.56466562196E+02  0.54828031982E+02  0.10431102708E+03  0.13067278258E+03  0.00000000000E+00 0. -1.
</event>
<event>
 7    1  0.2723366E-009  0.1130629E+03  0.7561462E-02  0.1255001E+00
         -2   -1    0    0    0  501 -0.00000000000E+00  0.00000000000E+00  0.28989906423E+03  0.28989906423E+03  0.00000000000E+00 0.  1.
          2   -1    0    0  501    0  0.00000000000E+00 -0.00000000000E+00 -0.60095909112E+02  0.60095909112E+02  0.00000000000E+00 0. -1.
         25    2    1    2    0    0  0.44487338735E+02  0.46660399008E+02  0.75897656263E+02  0.15989188204E+03  0.12509453854E+03 0.  0.
          5    1    3    3  502    0 -0.29289213498E+02  0.31135544642E+02 -0.11431228050E+02  0.44445759552E+02  0.41800000000E+01 0.  1.
         -5    1    3    3    0  502  0.73776552233E+02  0.15524854366E+02  0.87328884313E+02  0.11544612249E+03  0.41800000000E+01 0.  1.
        -11    1    1    2    0    0 -0.10716581288E+02  0.25683227482E+02  0.20246723612E+02  0.34415158076E+02  0.00000000000E+00 0. -1.
         11    1    1    2    0    0 -0.33770757447E+02 -0.72343626490E+02  0.13365877524E+03  0.15568793322E+03  0.00000000000E+00 0.  1.
</event>
<event>
 7    1  0.2723366E-009  0.1299076E+03  0.7561462E-02  0.1227593E+00
          1   -1    0    0  501    0  0.00000000000E+00  0.00000000000E+00  0.13910228692E+03  0.13910228692E+03  0.00000000000E+00 0. -1.
         -1   -1    0    0    0  501 -0.00000000000E+00 -0.00000000000E+00 -0.21237704057E+03  0.21237704057E+03  0.00000000000E+00 0.  1.
         25    2    1    2    0    0  0.48932532881E+01 -0.96235113967E+02 -0.13291518861E+03  0.20639487897E+03  0.12508899878E+03 0.  0.
          5    1    3    3  502    0  0.50224962984E+02 -0.10664949058E+02 -0.82184690561E+02  0.96995277245E+02  0.41800000000E+01 0. -1.
         -5    1    3    3    0  502 -0.45331709696E+02 -0.85570164909E+02 -0.50730498044E+02  0.10939960173E+03  0.41800000000E+01 0. -1.
        -11    1    1    2    0    0  0.20378569488E+02  0.12495624433E+02 -0.16558253548E+02  0.29079244916E+02  0.00000000000E+00 0.  1.
         11    1    1    2    0    0 -0.25271822776E+02  0.83739489534E+02  0.76198688506E+02  0.11600520361E+03  0.00000000000E+00 0. -1.
</event>
<event>
 7    1  0.2723366E-009  0.1128938E+03  0.7561462E-02  0.1255303E+00
          1   -1    0    0  501    0  0.00000000000E+00  0.00000000000E+00  0.13369325387E+03  0.13369325387E+03  0.00000000000E+00 0. -1.
         -1   -1    0    0    0  501 -0.00000000000E+00 -0.00000000000E+00 -0.98849776434E+02  0.98849776434E+02  0.00000000000E+00 0.  1.
         25    2    1    2    0    0 -0.14509579865E+02  0.35062067518E+02  0.83995127178E+01  0.13099479123E+03  0.12509679064E+03 0.  0.
          5    1    3    3  502    0  0.34065901400E+02 -0.31222928186E+02  0.14153495633E+02  0.48509284899E+02  0.41800000000E+01 0.  1.
         -5    1    3    3    0  502 -0.48575481266E+02  0.66284995705E+02 -0.57539829150E+01  0.82485506334E+02  0.41800000000E+01 0.  1.
        -11    1    1    2    0    0 -0.37057428609E+02 -0.49423667859E+01  0.17069334694E+02  0.41097958483E+02  0.00000000000E+00 0. -1.
         11    1    1    2    0    0  0.51567008474E+02 -0.30119700733E+02  0.93746300240E+01  0.60450280589E+02  0.00000000000E+00 0.  1.
</event>
<event>
 7    1  0.2723366E-009  0.9687800E+02  0.7561462E-02  0.1287002E+00
          3   -1    0    0  501    0  0.00000000000E+00  0.00000000000E+00  0.63555915219E+02  0.63555915219E+02  0.00000000000E+00 0. -1.
         -3   -1    0    0    0  501 -0.00000000000E+00 -0.00000000000E+00 -0.23255469412E+03  0.23255469412E+03  0.00000000000E+00 0.  1.
         25    2    1    2    0    0 -0.22352999495E+02  0.46941576627E+02 -0.91121866781E+02  0.16326167889E+03  0.12509201807E+03 0.  0.
          5    1    3    3  502    0  0.28569235995E+02 -0.18070399400E+02 -0.70111009359E+02  0.77947204011E+02  0.41800000000E+01 0. -1.
         -5    1    3    3    0  502 -0.50922235489E+02  0.65011976027E+02 -0.21010857422E+02  0.85314474878E+02  0.41800000000E+01 0. -1.
        -11    1    1    2    0    0 -0.95089303327E+01 -0.43993351783E+02  0.37590270914E+01  0.45165972167E+02  0.00000000000E+00 0. -1.
         11    1    1    2    0    0  0.31861929827E+02 -0.29482248444E+01 -0.81635939208E+02  0.87682958279E+02  0.00000000000E+00 0.  1.
</event>
<event>
 7    1  0.2723366E-009  0.1338445E+03  0.7561462E-02  0.1221860E+00
          4   -1    0    0  501    0  0.00000000000E+00  0.00000000000E+00  0.45812940463E+03  0.45812940463E+03  0.00000000000E+00 0. -1.
         -4   -1    0    0    0  501 -0.00000000000E+00 -0.00000000000E+00 -0.45562766229E+02  0.45562766229E+02  0.00000000000E+00 0.  1.
         25    2    1    2    0    0 -0.88891746974E+02  0.31785040997E+02  0.22322385318E+03  0.27274369666E+03  0.12509278128E+03 0.  0.
          5    1    3    3  502    0 -0.99399620987E+01  0.64241025009E+02  0.13509747628E+03  0.14998170767E+03  0.41800000000E+01 0. -1.
         -5    1    3    3    0  502 -0.78951784876E+02 -0.32455984012E+02  0.88126376907E+02  0.12276198899E+03  0.41800000000E+01 0. -1.
        -11    1    1    2    0    0  0.35382306080E+02  0.21635915077E+02  0.21178560104E+02  0.46567712129E+02  0.00000000000E+00 0.  1.
         11    1    1    2    0    0  0.53509440894E+02 -0.53420956075E+02  0.16816422511E+03  0.18438076207E+03  0.00000000000E+00 0. -1.
</event>
<event>
 7    1  0.2723366E-009  0.2207778E+03  0.7561462E-02  0.1133304E+00
         -1   -1    0    0    0  501 -0.00000000000E+00  0.00000000000E+00  0.76324632807E+02  0.76324632807E+02  0.00000000000E+00 0.  1.
          1   -1    0    0  501    0  0.00000000000E+00 -0.00000000000E+00 -0.71425955479E+03  0.71425955479E+03  0.00000000000E+00 0. -1.
         25    2    1    2    0    0 -0.12828952941E+01  0.20359982203E+03 -0.38556376251E+03  0.45360889229E+03  0.12508828423E+03 0.  0.
          5    1    3    3  502    0 -0.33834969647E+02  0.48316141050E+01 -0.85665794289E+02  0.92326867038E+02  0.41800000000E+01 0.  1.
         -5    1    3    3    0  502  0.32552074353E+02  0.19876820793E+03 -0.29989796822E+03  0.36128202525E+03  0.41800000000E+01 0.  1.
        -11    1    1    2    0    0 -0.11187367608E+02 -0.15780349117E+03 -0.24080637967E+03  0.28812291042E+03  0.00000000000E+00 0. -1.
         11    1    1    2    0    0  0.12470262902E+02 -0.45796330865E+02 -0.11564779803E+02  0.48852384889E+02  0.00000000000E+00 0.  1.
</event>
<event>
 7    1  0.3358869E-009  0.1237167E+03  0.7561462E-02  0.1237089E+00
          2   -1    0    0  501    0  0.00000000000E+00  0.00000000000E+00  0.62290830161E+03  0.62290830161E+03  0.00000000000E+00 0. -1.
         -2   -1    0    0    0  501 -0.00000000000E+00 -0.00000000000E+00 -0.28565728591E+02  0.28565728591E+02  0.00000000000E+00 0.  1.
         25    2    1    2    0    0  0.18993579927E+02  0.66105240942E+02  0.41465067483E+03  0.43853577540E+03  0.12509110765E+03 0.  0.
          5    1    3    3  502    0 -0.53303893362E+02  0.30634385635E+02  0.19784229360E+03  0.20721683369E+03  0.41800000000E+01 0. -1.
         -5    1    3    3    0  502  0.72297473289E+02  0.35470855307E+02  0.21680838124E+03  0.23131894171E+03  0.41800000000E+01 0. -1.
        -11    1    1    2    0    0  0.18190219424E+02  0.97906943868E+01  0.91298190179E+01  0.22585291111E+02  0.00000000000E+00 0.  1.
         11    1    1    2    0    0 -0.37183799350E+02 -0.75895935329E+02  0.17056207917E+03  0.19035296369E+03  0.00000000000E+00 0. -1.
</event>
<event>
 7    1  0.2723366E-009  0.9416117E+02  0.7561462E-02  0.1293077E+00
         -1   -1    0    0    0  501 -0.00000000000E+00  0.00000000000E+00  0.37591107198E+02  0.37591107198E+02  0.00000000000E+00 0.  1.
          1   -1    0    0  501    0  0.00000000000E+00 -0.00000000000E+00 -0.51835495993E+03  0.51835495993E+03  0.00000000000E+00 0. -1.
         25    2    1    2    0    0  0.37766726637E+01 -0.83884892850E+02 -0.21092414263E+03  0.25920213351E+03  0.12508322656E+03 0.  0.
          5    1    3    3  502    0 -0.79574617122E+01 -0.28121583544E+02 -0.19855897899E+03  0.20074183719E+03  0.41800000000E+01 0. -1.
         -5    1    3    3    0  502  0.11734134376E+02 -0.55763309306E+02 -0.12365163637E+02  0.58460296322E+02  0.41800000000E+01 0. -1.
        -11    1    1    2    0    0 -0.30422375696E+02  0.50381210468E+02 -0.23283822178E+03  0.24016124756E+03  0.00000000000E+00 0. -1.
         11    1    1    2    0    0  0.26645703033E+02  0.33503682382E+02 -0.37001488327E+02  0.56582686059E+02  0.00000000000E+00 0.  1.
</event>
<event>
 7    1  0.2723366E-009  0.9924613E+02  0.7561462E-02  0.1281889E+00
         -1   -1    0    0    0  501 -0.00000000000E+00  0.00000000000E+00  0.16070432774E+03  0.16070432774E+03  0.00000000000E+00 0.  1.
          1   -1    0    0  501    0  0.00000000000E+00 -0.00000000000E+00 -0.10713941935E+03  0.10713941935E+03  0.00000000000E+00 0. -1.
         25    2    1    2    0    0 -0.56100244791E+02 -0.39867695917E+02  0.57013923276E+02  0.15374748941E+03  0.12510408630E+03 0.  0.
          5    1    3    3  502    0  0.11263997463E+02 -0.71274456219E+01  0.75259393213E+02  0.76544933123E+02  0.41800000000E+01 0.  1.
         -5    1    3    3    0  502 -0.67364242254E+02 -0.32740250295E+02 -0.18245469938E+02  0.77202556286E+02  0.41800000000E+01 0.  1.
        -11    1    1    2    0    0  0.45270792082E+02 -0.19404096315E+02  0.14291970648E+02  0.51285709457E+02  0.00000000000E+00 0.  1.
         11    1    1    2    0    0  0.10829452709E+02  0.59271792232E+02 -0.17740985531E+02  0.62810548222E+02  0.00000000000E+00 0. -1.
</event>
<event>
 7    1  0.2723366E-009  0.1712362E+03  0.7561462E-02  0.1176565E+00
          1   -1    0    0  501    0  0.00000000000E+00  0.00000000000E+00  0.48584952459E+03  0.48584952459E+03  0.00000000000E+00 0. -1.
         -1   -1    0    0    0  501 -0.00000000000E+00 -0.00000000000E+00 -0.61451836983E+02  0.61451836983E+02  0.00000000000E+00 0.  1.
         25    2    1    2    0    0  0.55115133841E+02 -0.12317222426E+03  0.21774513949E+03  0.28507355924E+03  0.12507962904E+03 0.  0.
          5    1    3    3  502    0  0.79977690386E+02 -0.13256567816E+03  0.16785940206E+03  0.22839514278E+03  0.41800000000E+01 0.  1.
         -5    1    3    3    0  502 -0.24862556545E+02  0.93934539002E+01  0.49885737424E+02  0.56678416460E+02  0.41800000000E+01 0.  1.
        -11    1    1    2    0    0 -0.67297350529E+02  0.43594203203E+02  0.90608438455E+02  0.12099288021E+03  0.00000000000E+00 0. -1.
         11    1    1    2    0    0  0.12182216689E+02  0.79578021059E+02  0.11604410966E+03  0.14123492212E+03  0.00000000000E+00 0.  1.
</event>
<event>
 7    1  0.2723366E-009  0.1019676E+03  0.7561462E-02  0.1276212E+00
          2   -1    0    0  501    0  0.00000000000E+00  0.00000000000E+00  0.56991013182E+03  0.56991013182E+03  0.00000000000E+00 0. -1.
         -2   -1    0    0    0  501 -0.00000000000E+00 -0.00000000000E+00 -0.27588056648E+02  0.27588056648E+02  0.00000000000E+00 0.  1.
         25    2    1    2    0    0 -0.89888301860E+01  0.14536013462E+02  0.16084194330E+03  0.20447507053E+03  0.12509128262E+03 0.  0.
          5    1    3    3  502    0 -0.10135881545E+02 -0.48979320034E+02  0.28751106765E+02  0.57842963495E+02  0.41800000000E+01 0. -1.
         -5    1    3    3    0  502  0.11470513590E+01  0.63515333495E+02  0.13209083654E+03  0.14663210703E+03  0.41800000000E+01 0. -1.
        -11    1    1    2    0    0  0.11343219233E+01  0.37468809202E+02  0.22065169077E+03  0.22381324131E+03  0.00000000000E+00 0. -1.
         11    1    1    2    0    0  0.78545082626E+01 -0.52004822663E+02  0.16082844111E+03  0.16920987663E+03  0.00000000000E+00 0.  1.
</event>
<event>
 7    1  0.2723366E-009  0.1091726E+03  0.7561462E-02  0.1262110E+00
          2   -1    0    0  501    0  0.00000000000E+00  0.00000000000E+00  0.19078071453E+03  0.19078071453E+03  0.00000000000E+00 0. -1.
         -2   -1    0    0    0  501 -0.00000000000E+00 -0.00000000000E+00 -0.14264449813E+03  0.14264449813E+03  0.00000000000E+00 0.  1.
         25    2    1    2    0    0  0.75867597820E+02 -0.49140019515E+02  0.79650838670E+02  0.17368165467E+03  0.12510166726E+03 0.  0.
          5    1    3    3  502    0  0.81876345529E+02 -0.13263573685E+02  0.10141930619E+03  0.13108396703E+03  0.41800000000E+01 0.  1.
         -5    1    3    3    0  502 -0.60087477094E+01 -0.35876445830E+02 -0.21768467517E+02  0.42597687642E+02  0.41800000000E+01 0.  1.
        -11    1    1    2    0    0 -0.33653203297E+02 -0.32020001527E+00 -0.74530893363E+02  0.81777103676E+02  0.00000000000E+00 0.  1.
         11    1    1    2    0    0 -0.42214394523E+02  0.49460219530E+02  0.43016271092E+02  0.77966454322E+02  0.00000000000E+00 0. -1.
</event>
<event>
 7    1  0.2723366E-009  0.1086162E+03  0.7561462E-02  0.1263154E+00
         -1   -1    0    0    0  501 -0.00000000000E+00  0.00000000000E+00  0.36227372218E+03  0.36227372218E+03  0.00000000000E+00 0.  1.
          1   -1    0    0  501    0  0.00000000000E+00 -0.00000000000E+00 -0.34720449186E+02  0.34720449186E+02  0.00000000000E+00 0. -1.
         25    2    1    2    0    0  0.13751056152E+01  0.21732426176E+02  0.21505164741E+03  0.24973717048E+03  0.12508898433E+03 0.  0.
          5    1    3    3  502    0 -0.14693652015E+02 -0.48086623350E+02  0.12350534882E+03  0.13341390611E+03  0.41800000000E+01 0. -1.
         -5    1    3    3    0  502  0.16068757630E+02  0.69819049526E+02  0.91546298586E+02  0.11632326437E+03  0.41800000000E+01 0. -1.
        -11    1    1    2    0    0  0.16586711917E+01 -0.58297223958E+02  0.68351785622E+02  0.89851455798E+02  0.00000000000E+00 0.  1.
         11    1    1    2    0    0 -0.30337768069E+01  0.36564797782E+02  0.44149839956E+02  0.57405545086E+02  0.00000000000E+00 0. -1.
</event>
<event>
 7    1  0.2723366E-009  0.1027356E+03  0.7561462E-02  0.1274646E+00
         -1   -1    0    0    0  501 -0.00000000000E+00  0.00000000000E+00  0.18593251468E+03  0.18593251468E+03  0.00000000000E+00 0.  1.
          1   -1    0    0  501    0  0.00000000000E+00 -0.00000000000E+00 -0.78205944117E+02  0.78205944117E+02  0.00000000000E+00 0. -1.
         25    2    1    2    0    0 -0.26934281375E+02 -0.17478309539E+02  0.15248122626E+02  0.13002800127E+03  0.12507529353E+03 0.  0.
          5    1    3    3  502    0  0.74386108947E+01 -0.67360652321E+02  0.13806722585E+02  0.69288443493E+02  0.41800000000E+01 0. -1.
         -5    1    3    3    0  502 -0.34372892270E+02  0.49882342782E+02  0.14414000417E+01  0.60739557773E+02  0.41800000000E+01 0. -1.
        -11    1    1    2    0    0 -0.14175792107E+02 -0.17746098627E+02 -0.43969437109E+01  0.23134610702E+02  0.00000000000E+00 0. -1.
         11    1    1    2    0    0  0.41110073482E+02  0.35224408166E+02  0.96875391651E+02  0.11097584683E+03  0.00000000000E+00 0.  1.
</event>
<event>
 7    1  0.2723366E-009  0.1066454E+03  0.7561462E-02  0.1266911E+00
         -2   -1    0    0    0  501 -0.00000000000E+00  0.00000000000E+00  0.31178241944E+02  0.31178241944E+02  0.00000000000E+00 0. -1.
          2   -1    0    0  501    0  0.00000000000E+00 -0.00000000000E+00 -0.51168648365E+03  0.51168648365E+03  0.00000000000E+00 0.  1.
         25    2    1    2    0    0 -0.58586101356E+02  0.24982213413E+02 -0.23787263182E+03  0.27620144904E+03  0.12508960478E+03 0.  0.
          5    1    3    3  502    0 -0.43701997775E+02  0.54221940359E+02 -0.23243830708E+03  0.24268276087E+03  0.41800000000E+01 0.  1.
         -5    1    3    3    0  502 -0.14884103581E+02 -0.29239726947E+02 -0.54343247403E+01  0.33518688171E+02  0.41800000000E+01 0.  1.
        -11    1    1    2    0    0 -0.12001838079E+02  0.22414111408E+02 -0.62340644551E+02  0.67326016298E+02  0.00000000000E+00 0.  1.
         11    1    1    2    0    0  0.70587939436E+02 -0.47396324820E+02 -0.18029496533E+03  0.19933726025E+03  0.00000000000E+00 0. -1.
</event>
<event>
 7    1  0.2723366E-009  0.1320617E+03  0.7561462E-02  0.1224428E+00
         -2   -1    0    0    0  501 -0.00000000000E+00  0.00000000000E+00  0.18974511997E+02  0.18974511997E+02  0.00000000000E+00 0. -1.
          2   -1    0    0  501    0  0.00000000000E+00 -0.00000000000E+00 -0.10169781890E+04  0.10169781890E+04  0.00000000000E+00 0.  1.
         25    2    1    2    0    0 -0.77042368013E+02 -0.30651485460E+02 -0.49122835926E+03  0.51364084690E+03  0.12508628476E+03 0.  0.
          5    1    3    3  502    0 -0.88134664427E+00  0.38702917938E+02 -0.22122448875E+03  0.22462510868E+03  0.41800000000E+01 0.  1.
         -5    1    3    3    0  502 -0.76161021369E+02 -0.69354403398E+02 -0.27000387051E+03  0.28901573822E+03  0.41800000000E+01 0.  1.
        -11    1    1    2    0    0  0.29520885790E+02 -0.31948280313E+02 -0.12022108144E+03  0.12784867514E+03  0.00000000000E+00 0.  1.
         11    1    1    2    0    0  0.47521482223E+02  0.62599765773E+02 -0.38655423631E+03  0.39446317896E+03  0.00000000000E+00 0. -1.
</event>
<event>
 7    1  0.2723366E-009  0.1271486E+03  0.7561462E-02  0.1231749E+00
          1   -1    0    0  501    0  0.00000000000E+00  0.00000000000E+00  0.23715008366E+03  0.23715008366E+03  0.00000000000E+00 0. -1.
         -1   -1    0    0    0  501 -0.00000000000E+00 -0.00000000000E+00 -0.90505347799E+02  0.90505347799E+02  0.00000000000E+00 0.  1.
         25    2    1    2    0    0 -0.82510084837E+02  0.21451814367E+02  0.24622602851E+02  0.15335435105E+03  0.12507273874E+03 0.  0.
          5    1    3    3  502    0 -0.99430461148E+02 -0.24128255075E+02  0.20009147718E+02  0.10433804526E+03  0.41800000000E+01 0. -1.
         -5    1    3    3    0  502  0.16920376312E+02  0.45580069442E+02  0.46134551328E+01  0.49016305789E+02  0.41800000000E+01 0. -1.
        -11    1    1    2    0    0  0.17219917088E+02 -0.32593830026E+02  0.16383086296E+01  0.36899422156E+02  0.00000000000E+00 0.  1.
         11    1    1    2    0    0  0.65290167749E+02  0.11142015659E+02  0.12038382438E+03  0.13740165825E+03  0.00000000000E+00 0. -1.
</event>
<event>
 7    1  0.2723366E-009  0.1074439E+03  0.7561462E-02  0.1265378E+00
          2   -1    0    0  501    0  0.00000000000E+00  0.00000000000E+00  0.60189030260E+03  0.60189030260E+03  0.00000000000E+00 0. -1.
         -2   -1    0    0    0  501 -0.00000000000E+00 -0.00000000000E+00 -0.36372233146E+02  0.36372233146E+02  0.00000000000E+00 0.  1.
         25    2    1    2    0    0  0.61644321996E+02  0.43730363927E+02  0.44839249397E+03  0.47160948941E+03  0.12508922692E+03 0.  0.
          5    1    3    3  502    0 -0.27458759326E+02 -0.12953384642E+02  0.18971514074E+03  0.19217460983E+03  0.41800000000E+01 0. -1.
         -5    1    3    3    0  502  0.89103081323E+02  0.56683748569E+02  0.25867735323E+03  0.27943487958E+03  0.41800000000E+01 0. -1.
        -11    1    1    2    0    0 -0.40926239958E+02 -0.16011096638E+02 -0.59553903964E+00  0.43950733776E+02  0.00000000000E+00 0.  1.
         11    1    1    2    0    0 -0.20718082038E+02 -0.27719267289E+02  0.11772111452E+03  0.12270231255E+03  0.00000000000E+00 0. -1.
</event>
<event>
 7    1  0.2723366E-009  0.6072536E+02  0.7561462E-02  0.1394813E+00
         -1   -1    0    0    0  501 -0.00000000000E+00  0.00000000000E+00  0.10736301216E+03  0.10736301216E+03  0.00000000000E+00 0.  1.
          1   -1    0    0  501    0  0.00000000000E+00 -0.00000000000E+00 -0.12175400040E+03  0.12175400040E+03  0.00000000000E+00 0. -1.
         25    2    1    2    0    0  0.19444375326E+02  0.15640772829E+02  0.28692416264E+02  0.13074796871E+03  0.12509619924E+03 0.  0.
          5    1    3    3  502    0 -0.32914875035E+02 -0.13031533215E+02  0.54868720226E+02  0.65431328244E+02  0.41800000000E+01 0. -1.
         -5    1    3    3    0  502  0.52359250361E+02  0.28672306044E+02 -0.26176303962E+02  0.65316640463E+02  0.41800000000E+01 0. -1.
        -11    1    1    2    0    0 -0.52727223142E+01 -0.87215255799E+01  0.25780787520E+02  0.27722114172E+02  0.00000000000E+00 0.  1.
         11    1    1    2    0    0 -0.14171653012E+02 -0.69192472491E+01 -0.68864192015E+02  0.70646929682E+02  0.00000000000E+00 0. -1.
</event>
<event>
 7    1  0.2723366E-009  0.2080769E+03  0.7561462E-02  0.1143098E+00
         -2   -1    0    0    0  501 -0.00000000000E+00  0.00000000000E+00  0.27477434265E+02  0.27477434265E+02  0.00000000000E+00 0.  1.
          2   -1    0    0  501    0  0.00000000000E+00 -0.00000000000E+00 -0.19047582393E+04  0.19047582393E+04  0.00000000000E+00 0. -1.
         25    2    1    2    0    0 -0.17964812694E+03 -0.46106015044E+02 -0.12955572617E+04  0.13147303520E+04  0.12509222983E+03 0.  0.
          5    1    3    3  502    0 -0.97978189236E+02 -0.76217517570E+02 -0.53660706698E+03  0.55079347517E+03  0.41800000000E+01 0. -1.
         -5    1    3    3    0  502 -0.81669937704E+02  0.30111502526E+02 -0.75895019471E+03  0.76393687682E+03  0.41800000000E+01 0. -1.
        -11    1    1    2    0    0  0.46318041530E+02 -0.26115026307E+02 -0.19490589434E+03  0.20202886729E+03  0.00000000000E+00 0. -1.
         11    1    1    2    0    0  0.13333008541E+03  0.72221041352E+02 -0.38681764896E+03  0.41547645425E+03  0.00000000000E+00 0.  1.
</event>
<event>
 7    1  0.2723366E-009  0.7147676E+02  0.7561462E-02  0.1355142E+00
          2   -1    0    0  501    0  0.00000000000E+00  0.00000000000E+00  0.20195393519E+03  0.20195393519E+03  0.00000000000E+00 0.  1.
         -2   -1    0    0    0  501 -0.00000000000E+00 -0.00000000000E+00 -0.74242358858E+02  0.74242358858E+02  0.00000000000E+00 0. -1.
         25    2    1    2    0    0  0.13472101956E+02  0.39280341026E+02  0.11950962225E+03  0.17791749255E+03  0.12509053371E+03 0.  0.
          5    1    3    3  502    0  0.58161079150E+01 -0.34853830493E+00  0.13447662941E+03  0.13466768301E+03  0.41800000000E+01 0.  1.
         -5    1    3    3    0  502  0.76559940407E+01  0.39628879331E+02 -0.14967007162E+02  0.43249809539E+02  0.41800000000E+01 0.  1.
        -11    1    1    2    0    0 -0.16447552334E+02 -0.66153649033E+02 -0.46823974356E+01  0.68328267239E+02  0.00000000000E+00 0. -1.
         11    1    1    2    0    0  0.29754503782E+01  0.26873308007E+02  0.12884351519E+02  0.29950534256E+02  0.00000000000E+00 0.  1.
</event>
<event>
 7    1  0.2723366E-009  0.2767608E+03  0.7561462E-02  0.1097471E+00
          1   -1    0    0  501    0  0.00000000000E+00  0.00000000000E+00  0.16140305103E+04  0.16140305103E+04  0.00000000000E+00 0. -1.
         -1   -1    0    0    0  501 -0.00000000000E+00 -0.00000000000E+00 -0.52061857227E+02  0.52061857227E+02  0.00000000000E+00 0.  1.
         25    2    1    2    0    0 -0.12776224159E+03 -0.23664494195E+03  0.79188054721E+03  0.84560419173E+03  0.12509048364E+03 0.  0.
          5    1    3    3  502    0 -0.43400652092E+02 -0.11419537090E+03  0.19242352182E+03  0.22796597002E+03  0.41800000000E+01 0.  1.
         -5    1    3    3    0  502 -0.84361589500E+02 -0.12244957105E+03  0.59945702539E+03  0.61763822171E+03  0.41800000000E+01 0.  1.
        -11    1    1    2    0    0  0.17566369912E+02  0.12293997205E+03  0.31209694192E+03  0.33589777497E+03  0.00000000000E+00 0.  1.
         11    1    1    2    0    0  0.11019587168E+03  0.11370496990E+03  0.45799116396E+03  0.48459040084E+03  0.00000000000E+00 0. -1.
</event>
<event>
 7    1  0.2723366E-009  0.1418045E+03  0.7561462E-02  0.1210921E+00
          2   -1    0    0  501    0  0.00000000000E+00  0.00000000000E+00  0.26713222092E+03  0.26713222092E+03  0.00000000000E+00 0. -1.
         -2   -1    0    0    0  501 -0.00000000000E+00 -0.00000000000E+00 -0.80890773263E+02  0.80890773263E+02  0.00000000000E+00 0.  1.
         25    2    1    2    0    0 -0.83658948209E+02  0.51684093142E+02  0.82668863095E+02  0.17931406924E+03  0.12509727976E+03 0.  0.
          5    1    3    3  502    0 -0.31980058671E+02  0.85285733285E+02  0.24402476569E+02  0.94389266960E+02  0.41800000000E+01 0.  1.
         -5    1    3    3    0  502 -0.51678889538E+02 -0.33601640143E+02  0.58266386526E+02  0.84924802284E+02  0.41800000000E+01 0.  1.
        -11    1    1    2    0    0  0.38908104398E+02 -0.71735007838E+02  0.48344638369E+02  0.94852285140E+02  0.00000000000E+00 0.  1.
         11    1    1    2    0    0  0.44750843811E+02  0.20050914696E+02  0.55227946197E+02  0.73856639804E+02  0.00000000000E+00 0. -1.
</event>
<event>
 7    1  0.2723366E-009  0.9242095E+02  0.7561462E-02  0.1297093E+00
          1   -1    0    0  501    0  0.00000000000E+00  0.00000000000E+00  0.38783477206E+02  0.38783477206E+02  0.00000000000E+00 0. -1.
         -1   -1    0    0    0  501 -0.00000000000E+00 -0.00000000000E+00 -0.76810997818E+03  0.76810997818E+03  0.00000000000E+00 0.  1.
         25    2    1    2    0    0 -0.39526425917E+01  0.41962686562E+01 -0.70434632411E+03  0.71539135844E+03  0.12509124427E+03 0.  0.
          5    1    3    3  502    0  0.46867390095E+02 -0.82902426382E+01 -0.55563797959E+03  0.55768836920E+03  0.41800000000E+01 0. -1.
         -5    1    3    3    0  502 -0.50820032687E+02  0.12486511294E+02 -0.14870834452E+03  0.15770298924E+03  0.41800000000E+01 0. -1.
        -11    1    1    2    0    0 -0.26386142739E+02  0.29261068032E+02 -0.24379516643E+02  0.46333567343E+02  0.00000000000E+00 0.  1.
         11    1    1    2    0    0  0.30338785330E+02 -0.33457336688E+02 -0.60066022352E+00  0.45168529601E+02  0.00000000000E+00 0. -1.
</event>
<event>
 7    1  0.2723366E-009  0.1243003E+03  0.7561462E-02  0.1236167E+00
         -1   -1    0    0    0  501 -0.00000000000E+00  0.00000000000E+00  0.19023195309E+03  0.19023195309E+03  0.00000000000E+00 0.  1.
          1   -1    0    0  501    0  0.00000000000E+00 -0.00000000000E+00 -0.11576834361E+03  0.11576834361E+03  0.00000000000E+00 0. -1.
         25    2    1    2    0    0  0.99426464812E+02  0.86600036788E+01  0.25079193064E+02  0.16197826924E+03  0.12508947282E+03 0.  0.
          5    1    3    3  502    0  0.51629507561E+02  0.40126870432E+02  0.64831283643E+02  0.92175590697E+02  0.41800000000E+01 0.  1.
         -5    1    3    3    0  502  0.47796957251E+02 -0.31466866753E+02 -0.39752090579E+02  0.69802678538E+02  0.41800000000E+01 0.  1.
        -11    1    1    2    0    0 -0.32220082691E+02 -0.40152007071E+02 -0.54141893911E+01  0.51765150895E+02  0.00000000000E+00 0. -1.
         11    1    1    2    0    0 -0.67206382121E+02  0.31492003392E+02  0.54798605809E+02  0.92256876568E+02  0.00000000000E+00 0.  1.
</event>
<event>
 7    1  0.5976358E-009  0.1894853E+03  0.7561462E-02  0.1158926E+00
         -1   -1    0    0    0  501 -0.00000000000E+00  0.00000000000E+00  0.21479216727E+02  0.21479216727E+02  0.00000000000E+00 0. -1.
          1   -1    0    0  501    0  0.00000000000E+00 -0.00000000000E+00 -0.19302746376E+04  0.19302746376E+04  0.00000000000E+00 0.  1.
         25    2    1    2    0    0 -0.37042196651E+02 -0.16765095945E+03 -0.10411566971E+04  0.10626060658E+04  0.12508163161E+03 0.  0.
          5    1    3    3  502    0 -0.20878328842E+02 -0.17246436228E+03 -0.10223016793E+04  0.10369657934E+04  0.41800000000E+01 0. -1.
         -5    1    3    3    0  502 -0.16163867809E+02  0.48134028321E+01 -0.18855017834E+02  0.25640272364E+02  0.41800000000E+01 0. -1.
        -11    1    1    2    0    0  0.54868912646E+02  0.72004280690E+02 -0.30471717533E+03  0.31788012041E+03  0.00000000000E+00 0. -1.
         11    1    1    2    0    0 -0.17826715995E+02  0.95646678758E+02 -0.56292154845E+03  0.57126766815E+03  0.00000000000E+00 0.  1.
</event>
<event>
 7    1  0.2723366E-009  0.9838995E+02  0.7561462E-02  0.1283719E+00
         -1   -1    0    0    0  501 -0.00000000000E+00  0.00000000000E+00  0.16436780675E+03  0.16436780675E+03  0.00000000000E+00 0.  1.
          1   -1    0    0  501    0  0.00000000000E+00 -0.00000000000E+00 -0.79156825743E+02  0.79156825743E+02  0.00000000000E+00 0. -1.
         25    2    1    2    0    0 -0.10711449539E+02  0.23400913756E+02  0.77578401304E+02  0.14942504821E+03  0.12508836383E+03 0.  0.
          5    1    3    3  502    0  0.47918943266E+02 -0.14257135390E+01 -0.10883069042E+01  0.48134339039E+02  0.41800000000E+01 0. -1.
         -5    1    3    3    0  502 -0.58630392805E+02  0.24826627295E+02  0.78666708209E+02  0.10129070917E+03  0.41800000000E+01 0. -1.
        -11    1    1    2    0    0  0.38641319812E+02  0.11343655207E+02 -0.16367385165E+02  0.43470926001E+02  0.00000000000E+00 0. -1.
         11    1    1    2    0    0 -0.27929870273E+02 -0.34744568963E+02  0.23999964863E+02  0.50628658281E+02  0.00000000000E+00 0.  1.
</event>
<event>
 7    1  0.2723366E-009  0.1488752E+03  0.7561462E-02  0.1201862E+00
          2   -1    0    0  501    0  0.00000000000E+00  0.00000000000E+00  0.50783594581E+03  0.50783594581E+03  0.00000000000E+00 0. -1.
         -2   -1    0    0    0  501 -0.00000000000E+00 -0.00000000000E+00 -0.54788112803E+02  0.54788112803E+02  0.00000000000E+00 0.  1.
         25    2    1    2    0    0 -0.81704336068E+02  0.73910718014E+02  0.35391802083E+03  0.39120726374E+03  0.12508702954E+03 0.  0.
          5    1    3    3  502    0 -0.61714719711E+02 -0.24153531381E+02  0.14828710173E+03  0.16247657261E+03  0.41800000000E+01 0. -1.
         -5    1    3    3    0  502 -0.19989616357E+02  0.98064249395E+02  0.20563091910E+03  0.22873069113E+03  0.41800000000E+01 0. -1.
        -11    1    1    2    0    0  0.25094295203E+02 -0.70080823664E+02  0.25981202221E+02  0.78842046942E+02  0.00000000000E+00 0.  1.
         11    1    1    2    0    0  0.56610040865E+02 -0.38298943504E+01  0.73148609951E+02  0.92574747935E+02  0.00000000000E+00 0. -1.
</event>
<event>
 7    1  0.2723366E-009  0.1090903E+03  0.7561462E-02  0.1262264E+00
          1   -1    0    0  501    0  0.00000000000E+00  0.00000000000E+00  0.42332809398E+03  0.42332809398E+03  0.00000000000E+00 0.  1.
         -1   -1    0    0    0  501 -0.00000000000E+00 -0.00000000000E+00 -0.42192898933E+02  0.42192898933E+02  0.00000000000E+00 0. -1.
         25    2    1    2    0    0 -0.57850792041E+01  0.58406607740E+02  0.12401689551E+03  0.18566850699E+03  0.12509118732E+03 0.  0.
          5    1    3    3  502    0  0.59568271568E+02  0.29111432534E+02  0.60165233559E+02  0.89628021349E+02  0.41800000000E+01 0.  1.
         -5    1    3    3    0  502 -0.65353350772E+02  0.29295175207E+02  0.63851661949E+02  0.96040485636E+02  0.41800000000E+01 0.  1.
        -11    1    1    2    0    0 -0.24113047733E+02 -0.32348134491E+02  0.22563854365E+03  0.22921734938E+03  0.00000000000E+00 0.  1.
         11    1    1    2    0    0  0.29898126937E+02 -0.26058473249E+02  0.31479755892E+02  0.50635136550E+02  0.00000000000E+00 0. -1.
</event>
<event>
 7    1  0.2723366E-009  0.1008390E+03  0.7561462E-02  0.1278542E+00
         -2   -1    0    0    0  501 -0.00000000000E+00  0.00000000000E+00  0.32003915850E+03  0.32003915850E+03  0.00000000000E+00 0.  1.
          2   -1    0    0  501    0  0.00000000000E+00 -0.00000000000E+00 -0.56658454193E+02  0.56658454193E+02  0.00000000000E+00 0. -1.
         25    2    1    2    0    0 -0.38100688149E+02  0.25872205751E+02  0.23544703482E+03  0.27056292709E+03  0.12509179768E+03 0.  0.
          5    1    3    3  502    0 -0.45166173273E+02 -0.24353143025E+02  0.31485103515E+02  0.60347683690E+02  0.41800000000E+01 0.  1.
         -5    1    3    3    0  502  0.70654851238E+01  0.50225348775E+02  0.20396193130E+03  0.21021524340E+03  0.41800000000E+01 0.  1.
        -11    1    1    2    0    0 -0.10340874553E+02 -0.45777530655E+02  0.26167332464E+02  0.53733093040E+02  0.00000000000E+00 0.  1.
         11    1    1    2    0    0  0.48441562702E+02  0.19905324905E+02  0.17663370311E+01  0.52401592562E+02  0.00000000000E+00 0. -1.
</event>
<event>
 7    1  0.2723366E-009  0.1218567E+03  0.7561462E-02  0.1240065E+00
          2   -1    0    0  501    0  0.00000000000E+00  0.00000000000E+00  0.39849552988E+02  0.39849552988E+02  0.00000000000E+00 0. -1.
         -2   -1    0    0    0  501 -0.00000000000E+00 -0.00000000000E+00 -0.38190024549E+03  0.38190024549E+03  0.00000000000E+00 0.  1.
         25    2    1    2    0    0  0.23216413184E+02 -0.52030381467E+02 -0.17329498136E+03  0.22118763546E+03  0.12508659832E+03 0.  0.
          5    1    3    3  502    0  0.91518767213E+01  0.40754762842E+02 -0.69516043992E+02  0.81207513902E+02  0.41800000000E+01 0.  1.
         -5    1    3    3    0  502  0.14064536462E+02 -0.92785144309E+02 -0.10377893737E+03  0.13998012156E+03  0.41800000000E+01 0.  1.
        -11    1    1    2    0    0  0.33696409293E+02  0.52028629194E+01 -0.63396880047E+02  0.71983902238E+02  0.00000000000E+00 0.  1.
         11    1    1    2    0    0 -0.56912822476E+02  0.46827518547E+02 -0.10535883110E+03  0.12857826078E+03  0.00000000000E+00 0. -1.
</event>
<event>
 7    1  0.2723366E-009  0.1044052E+03  0.7561462E-02  0.1271296E+00
         -2   -1    0    0    0  501 -0.00000000000E+00  0.00000000000E+00  0.87580097197E+02  0.87580097197E+02  0.00000000000E+00 0.  1.
          2   -1    0    0  501    0  0.00000000000E+00 -0.00000000000E+00 -0.18661408178E+03  0.18661408178E+03  0.00000000000E+00 0. -1.
         25    2    1    2    0    0  0.30532937379E+02 -0.53894972954E+02 -0.27151825813E+02  0.14220312441E+03  0.12509028169E+03 0.  0.
          5    1    3    3  502    0  0.63683341241E+02 -0.39866209182E+02 -0.57685983194E+02  0.94815756303E+02  0.41800000000E+01 0. -1.
         -5    1    3    3    0  502 -0.33150403862E+02 -0.14028763772E+02  0.30534157381E+02  0.47387368108E+02  0.41800000000E+01 0. -1.
        -11    1    1    2    0    0  0.22357701815E+02  0.34251513278E+02 -0.62649920511E+02  0.74820087760E+02  0.00000000000E+00 0. -1.
         11    1    1    2    0    0 -0.52890639193E+02  0.19643459676E+02 -0.92322382594E+01  0.57170966807E+02  0.00000000000E+00 0.  1.
</event>
<event>
 7    1  0.2723366E-009  0.1418793E+03  0.7561462E-02  0.1210822E+00
          2   -1    0    0  501    0  0.00000000000E+00  0.00000000000E+00  0.29059039170E+03  0.29059039170E+03  0.00000000000E+00 0. -1.
         -2   -1    0    0    0  501 -0.00000000000E+00 -0.00000000000E+00 -0.91094816062E+02  0.91094816062E+02  0.00000000000E+00 0.  1.
         25    2    1    2    0    0  0.98601080058E+02  0.67632708559E+02  0.12255157177E+03  0.21204466698E+03  0.12509075425E+03 0.  0.
          5    1    3    3  502    0  0.40258619877E+01  0.46681787378E+02 -0.97277448988E+01  0.48036426370E+02  0.41800000000E+01 0.  1.
         -5    1    3    3    0  502  0.94575218071E+02  0.20950921181E+02  0.13227931667E+03  0.16400824061E+03  0.41800000000E+01 0.  1.
        -11    1    1    2    0    0 -0.49153985587E+02  0.75934534624E+01  0.60176058644E+02  0.78070051035E+02  0.00000000000E+00 0.  1.
         11    1    1    2    0    0 -0.49447094471E+02 -0.75226162022E+02  0.16767945220E+02  0.91570489739E+02  0.00000000000E+00 0. -1.
</event>
<event>
 7    1  0.2723366E-009  0.1100231E+03  0.7561462E-02  0.1260527E+00
          4   -1    0    0  501    0  0.00000000000E+00  0.00000000000E+00  0.11913390472E+03  0.11913390472E+03  0.00000000000E+00 0. -1.
         -4   -1    0    0    0  501 -0.00000000000E+00 -0.00000000000E+00 -0.21060015507E+03  0.21060015507E+03  0.00000000000E+00 0.  1.
         25    2    1    2    0    0  0.54200858612E+02  0.65769018656E+02 -0.12866770413E+03  0.19866424363E+03  0.12509519064E+03 0.  0.
          5    1    3    3  502    0  0.31022525722E+01 -0.27659187007E+02  0.40715074524E+01  0.28437724413E+02  0.41800000000E+01 0. -1.
         -5    1    3    3    0  502  0.51098606040E+02  0.93428205662E+02 -0.13273921158E+03  0.17022651922E+03  0.41800000000E+01 0. -1.
        -11    1    1    2    0    0 -0.26935534500E+02 -0.36014490715E+02 -0.29017578009E+02  0.53521831002E+02  0.00000000000E+00 0.  1.
         11    1    1    2    0    0 -0.27265324111E+02 -0.29754527941E+02  0.66219031785E+02  0.77547985160E+02  0.00000000000E+00 0. -1.
</event>
<event>
 7    1  0.2723366E-009  0.3238311E+03  0.7561462E-02  0.1073899E+00
          1   -1    0    0  501    0  0.00000000000E+00  0.00000000000E+00  0.22603089892E+03  0.22603089892E+03  0.00000000000E+00 0. -1.
         -1   -1    0    0    0  501 -0.00000000000E+00 -0.00000000000E+00 -0.57392881227E+03  0.57392881227E+03  0.00000000000E+00 0.  1.
         25    2    1    2    0    0  0.19360271223E+03  0.25374737851E+03 -0.36316747680E+02  0.34472580158E+03  0.12508888772E+03 0.  0.
          5    1    3    3  502    0  0.55766124893E+02  0.13590764182E+03 -0.65682619340E+02  0.16097337256E+03  0.41800000000E+01 0.  1.
         -5    1    3    3    0  502  0.13783658734E+03  0.11783973669E+03  0.29365871659E+02  0.18375242902E+03  0.41800000000E+01 0.  1.
        -11    1    1    2    0    0 -0.13263945401E+03 -0.16655677410E+03 -0.14509124463E+03  0.25765452262E+03  0.00000000000E+00 0. -1.
         11    1    1    2    0    0 -0.60963258222E+02 -0.87190604407E+02 -0.16648992105E+03  0.19757938698E+03  0.00000000000E+00 0.  1.
</event>
<event>
 7    1  0.2723366E-009  0.1307321E+03  0.7561462E-02  0.1226373E+00
          2   -1    0    0  501    0  0.00000000000E+00  0.00000000000E+00  0.99206971582E+02  0.99206971582E+02  0.00000000000E+00 0. -1.
         -2   -1    0    0    0  501 -0.00000000000E+00 -0.00000000000E+00 -0.17424347498E+03  0.17424347498E+03  0.00000000000E+00 0.  1.
         25    2    1    2    0    0 -0.84019345667E+02 -0.25039273967E+02 -0.42559223469E+02  0.15856739091E+03  0.12508442857E+03 0.  0.
          5    1    3    3  502    0  0.17978749974E+02  0.30290129588E+02 -0.18428562820E+02  0.39972637250E+02  0.41800000000E+01 0. -1.
         -5    1    3    3    0  502 -0.10199809564E+03 -0.55329403555E+02 -0.24130660649E+02  0.11859475366E+03  0.41800000000E+01 0. -1.
        -11    1    1    2    0    0  0.25811663480E+02 -0.22873744290E+02 -0.14274635916E+02  0.37325800460E+02  0.00000000000E+00 0. -1.
         11    1    1    2    0    0  0.58207682187E+02  0.47913018257E+02 -0.18202644012E+02  0.77557255193E+02  0.00000000000E+00 0.  1.
</event>
<event>
 7    1  0.2723366E-009  0.1754024E+03  0.7561462E-02  0.1172328E+00
         -1   -1    0    0    0  501 -0.00000000000E+00  0.00000000000E+00  0.21266767190E+02  0.21266767190E+02  0.00000000000E+00 0.  1.
          1   -1    0    0  501    0  0.00000000000E+00 -0.00000000000E+00 -0.16750220850E+04  0.16750220850E+04  0.00000000000E+00 0. -1.
         25    2    1    2    0    0  0.71748253870E+02  0.12130411183E+03 -0.11344626213E+04  0.11500065730E+04  0.12508868569E+03 0.  0.
          5    1    3    3  502    0  0.18680818141E+02  0.12917627246E+03 -0.68519746339E+03  0.69753029939E+03  0.41800000000E+01 0.  1.
         -5    1    3    3    0  502  0.53067435730E+02 -0.78721606262E+01 -0.44926515791E+03  0.45247627359E+03  0.41800000000E+01 0.  1.
        -11    1    1    2    0    0  0.84276738956E+01 -0.71557083559E+02 -0.17395674003E+03  0.18828804874E+03  0.00000000000E+00 0.  1.
         11    1    1    2    0    0 -0.80175927766E+02 -0.49747028275E+02 -0.34533595644E+03  0.35799423044E+03  0.00000000000E+00 0. -1.
</event>
<event>
 7    1  0.2723366E-009  0.1163026E+03  0.7561462E-02  0.1249324E+00
          2   -1    0    0  501    0  0.00000000000E+00  0.00000000000E+00  0.30026567682E+03  0.30026567682E+03  0.00000000000E+00 0. -1.
         -2   -1    0    0    0  501 -0.00000000000E+00 -0.00000000000E+00 -0.57713410038E+02  0.57713410038E+02  0.00000000000E+00 0.  1.
         25    2    1    2    0    0  0.31716773890E+02 -0.66824041612E+02  0.15053916688E+03  0.20924355731E+03  0.12509763877E+03 0.  0.
          5    1    3    3  502    0 -0.45430378267E+02 -0.74846137270E+01  0.63909415932E+02  0.78878543070E+02  0.41800000000E+01 0. -1.
         -5    1    3    3    0  502  0.77147152157E+02 -0.59339427885E+02  0.86629750950E+02  0.13036501424E+03  0.41800000000E+01 0. -1.
        -11    1    1    2    0    0 -0.76692672886E+01  0.64321903023E+02  0.10339671670E+03  0.12201231861E+03  0.00000000000E+00 0. -1.
         11    1    1    2    0    0 -0.24047506601E+02  0.25021385893E+01 -0.11383616801E+02  0.26723210936E+02  0.00000000000E+00 0.  1.
</event>
<event>
 7    1  0.2723366E-009  0.1706945E+03  0.7561462E-02  0.1177126E+00
          3   -1    0    0  501    0  0.00000000000E+00  0.00000000000E+00  0.45345890820E+03  0.45345890820E+03  0.00000000000E+00 0. -1.
         -3   -1    0    0    0  501 -0.00000000000E+00 -0.00000000000E+00 -0.74415850408E+02  0.74415850408E+02  0.00000000000E+00 0.  1.
         25    2    1    2    0    0  0.12540124016E+02 -0.14644997500E+03  0.22070231767E+03  0.29319253270E+03  0.12508996089E+03 0.  0.
          5    1    3    3  502    0 -0.47226351352E+02 -0.11205149777E+03  0.11856825954E+03  0.16988752451E+03  0.41800000000E+01 0.  1.
         -5    1    3    3    0  502  0.59766475368E+02 -0.34398477236E+02  0.10213405813E+03  0.12330500819E+03  0.41800000000E+01 0.  1.
        -11    1    1    2    0    0  0.11347297395E+02  0.49868112031E+02  0.43242173261E+01  0.51325321345E+02  0.00000000000E+00 0.  1.
         11    1    1    2    0    0 -0.23887421411E+02  0.96581862974E+02  0.15401652280E+03  0.18335690456E+03  0.00000000000E+00 0. -1.
</event>
<event>
 7    1  0.2723366E-009  0.2897308E+03  0.7561462E-02  0.1090490E+00
         -2   -1    0    0    0  501 -0.00000000000E+00  0.00000000000E+00  0.58368643042E+03  0.58368643042E+03  0.00000000000E+00 0. -1.
          2   -1    0    0  501    0  0.00000000000E+00 -0.00000000000E+00 -0.15859303786E+03  0.15859303786E+03  0.00000000000E+00 0.  1.
         25    2    1    2    0    0 -0.19382870644E+03  0.19718545498E+03  0.13231117604E+03  0.33106417127E+03  0.12508224134E+03 0.  0.
          5    1    3    3  502    0 -0.15606328976E+03  0.76247198705E+02  0.99100778444E+02  0.20001955506E+03  0.41800000000E+01 0.  1.
         -5    1    3    3    0  502 -0.37765416685E+02  0.12093825628E+03  0.33210397595E+02  0.13104461621E+03  0.41800000000E+01 0.  1.
        -11    1    1    2    0    0  0.11469119557E+03 -0.14170680889E+03  0.13762649252E+03  0.22842053645E+03  0.00000000000E+00 0.  1.
         11    1    1    2    0    0  0.79137510872E+02 -0.55478646090E+02  0.15515572401E+03  0.18279476057E+03  0.00000000000E+00 0. -1.
</event>
<event>
 7    1  0.2723366E-009  0.1150623E+03  0.7561462E-02  0.1251472E+00
          2   -1    0    0  501    0  0.00000000000E+00  0.00000000000E+00  0.39078704477E+03  0.39078704477E+03  0.00000000000E+00 0. -1.
         -2   -1    0    0    0  501 -0.00000000000E+00 -0.00000000000E+00 -0.50194150798E+02  0.50194150798E+02  0.00000000000E+00 0.  1.
         25    2    1    2    0    0  0.32699767221E+02  0.73756128853E+02  0.23984664558E+03  0.28228379829E+03  0.12509391698E+03 0.  0.
          5    1    3    3  502    0  0.50281913051E+02 -0.92706273812E+01  0.15041399387E+03  0.15892154437E+03  0.41800000000E+01 0.  1.
         -5    1    3    3    0  502 -0.17582145830E+02  0.83026756234E+02  0.89432651708E+02  0.12336225393E+03  0.41800000000E+01 0.  1.
        -11    1    1    2    0    0  0.12669261790E+02 -0.16326002480E+02 -0.12284212135E+02  0.24040599391E+02  0.00000000000E+00 0.  1.
         11    1    1    2    0    0 -0.45369029012E+02 -0.57430126372E+02  0.11303046053E+03  0.13465679789E+03  0.00000000000E+00 0. -1.
</event>
<event>
 7    1  0.2723366E-009  0.1534579E+03  0.7561462E-02  0.1196287E+00
          2   -1    0    0  501    0  0.00000000000E+00  0.00000000000E+00  0.29610015478E+03  0.29610015478E+03  0.00000000000E+00 0. -1.
         -2   -1    0    0    0  501 -0.00000000000E+00 -0.00000000000E+00 -0.10405993466E+03  0.10405993466E+03  0.00000000000E+00 0.  1.
         25    2    1    2    0    0 -0.18534881745E+02  0.13124686427E+03  0.57623548973E+02  0.19114701741E+03  0.12508967842E+03 0.  0.
          5    1    3    3  502    0 -0.47586730952E+02  0.71132096220E+02  0.83290192092E+02  0.11949477216E+03  0.41800000000E+01 0.  1.
         -5    1    3    3    0  502  0.29051849207E+02  0.60114768050E+02 -0.25666643119E+02  0.71652245248E+02  0.41800000000E+01 0.  1.
        -11    1    1    2    0    0  0.49456838931E+02 -0.69796470277E+02  0.10153602617E+03  0.13276705461E+03  0.00000000000E+00 0.  1.
         11    1    1    2    0    0 -0.30921957187E+02 -0.61450393993E+02  0.32880644978E+02  0.76246017420E+02  0.00000000000E+00 0. -1.
</event>
<event>
 7    1  0.2723366E-009  0.8271446E+02  0.7561462E-02  0.1321520E+00
         -4   -1    0    0    0  501 -0.00000000000E+00  0.00000000000E+00  0.15740673436E+03  0.15740673436E+03  0.00000000000E+00 0.  1.
          4   -1    0    0  501    0  0.00000000000E+00 -0.00000000000E+00 -0.85065846512E+02  0.85065846512E+02  0.00000000000E+00 0. -1.
         25    2    1    2    0    0  0.22030249203E+02  0.19787287798E+02  0.66196743314E+02  0.14459004541E+03  0.12508958297E+03 0.  0.
          5    1    3    3  502    0  0.28816832002E+02  0.44293723223E+02  0.93227517511E+02  0.10724358323E+03  0.41800000000E+01 0. -1.
         -5    1    3    3    0  502 -0.67865827995E+01 -0.24506435425E+02 -0.27030774197E+02  0.37346462175E+02  0.41800000000E+01 0. -1.
        -11    1    1    2    0    0  0.31164702758E+02 -0.70221817785E+01  0.24414402186E+02  0.40207123362E+02  0.00000000000E+00 0.  1.
         11    1    1    2    0    0 -0.53194951961E+02 -0.12765106020E+02 -0.18270257655E+02  0.57675412097E+02  0.00000000000E+00 0. -1.
</event>
<event>
 7    1  0.2723366E-009  0.1059370E+03  0.7561462E-02  0.1268284E+00
          1   -1    0    0  501    0  0.00000000000E+00  0.00000000000E+00  0.11085583181E+03  0.11085583181E+03  0.00000000000E+00 0. -1.
         -1   -1    0    0    0  501 -0.00000000000E+00 -0.00000000000E+00 -0.12596628905E+03  0.12596628905E+03  0.00000000000E+00 0.  1.
         25    2    1    2    0    0 -0.30885047062E+02 -0.33128973260E+02  0.26947989873E+01  0.13306388455E+03  0.12508924985E+03 0.  0.
          5    1    3    3  502    0 -0.51036782949E+01 -0.66764675282E+02  0.38565422496E+02  0.77384324058E+02  0.41800000000E+01 0. -1.
         -5    1    3    3    0  502 -0.25781368767E+02  0.33635702021E+02 -0.35870623508E+02  0.55679560495E+02  0.41800000000E+01 0. -1.
        -11    1    1    2    0    0  0.54218925944E+02 -0.81040823852E+01 -0.10581567697E+02  0.55833123294E+02  0.00000000000E+00 0. -1.
         11    1    1    2    0    0 -0.23333878882E+02  0.41233055645E+02 -0.72236885355E+01  0.47925113016E+02  0.00000000000E+00 0.  1.
</event>
<event>
 7    1  0.2723366E-009  0.1435687E+03  0.7561462E-02  0.1208606E+00
          1   -1    0    0  501    0  0.00000000000E+00  0.00000000000E+00  0.92091790960E+03  0.92091790960E+03  0.00000000000E+00 0. -1.
         -1   -1    0    0    0  501 -0.00000000000E+00 -0.00000000000E+00 -0.24380218107E+02  0.24380218107E+02  0.00000000000E+00 0.  1.
         25    2    1    2    0    0 -0.10002075443E+03  0.20831514269E+02  0.51184702837E+03  0.53672513605E+03  0.12509351669E+03 0.  0.
          5    1    3    3  502    0 -0.11713750229E+03  0.40660608046E+02  0.32270022237E+03  0.34572732812E+03  0.41800000000E+01 0.  1.
         -5    1    3    3    0  502  0.17116747854E+02 -0.19829093777E+02  0.18914680600E+03  0.19099780794E+03  0.41800000000E+01 0.  1.
        -11    1    1    2    0    0  0.72219347001E+02  0.30321859814E+02  0.24565008380E+03  0.25783524378E+03  0.00000000000E+00 0.  1.
         11    1    1    2    0    0  0.27801407434E+02 -0.51153374083E+02  0.13904057933E+03  0.15073774788E+03  0.00000000000E+00 0. -1.
</event>
<event>
 7    1  0.2723366E-009  0.1198006E+03  0.7561462E-02  0.1243426E+00
          2   -1    0    0  501    0  0.00000000000E+00  0.00000000000E+00  0.26179355492E+03  0.26179355492E+03  0.00000000000E+00 0. -1.
         -2   -1    0    0    0  501 -0.00000000000E+00 -0.00000000000E+00 -0.12250883432E+03  0.12250883432E+03  0.00000000000E+00 0.  1.
         25    2    1    2    0    0 -0.66316764255E+02 -0.47813962098E+02  0.19842489822E+03  0.24840357076E+03  0.12509118889E+03 0.  0.
          5    1    3    3  502    0 -0.19893228543E+02  0.35355352627E+02  0.18505962346E+02  0.44784869584E+02  0.41800000000E+01 0. -1.
         -5    1    3    3    0  502 -0.46423535712E+02 -0.83169314725E+02  0.17991893588E+03  0.20361870117E+03  0.41800000000E+01 0. -1.
        -11    1    1    2    0    0  0.78876077154E+02  0.38072261600E+02 -0.73606637469E+02  0.11440659828E+03  0.00000000000E+00 0.  1.
         11    1    1    2    0    0 -0.12559312898E+02  0.97417004976E+01  0.14466459841E+02  0.21492220207E+02  0.00000000000E+00 0. -1.
</event>
<event>
 7    1  0.2723366E-009  0.1216940E+03  0.7561462E-02  0.1240328E+00
          2   -1    0    0  501    0  0.00000000000E+00  0.00000000000E+00  0.31151740124E+03  0.31151740124E+03  0.00000000000E+00 0. -1.
         -2   -1    0    0    0  501 -0.00000000000E+00 -0.00000000000E+00 -0.69958892506E+02  0.69958892506E+02  0.00000000000E+00 0.  1.
         25    2    1    2    0    0  0.39964006132E+02  0.56962372587E+02  0.51301644635E+02  0.15205677525E+03  0.12509024934E+03 0.  0.
          5    1    3    3  502    0 -0.26299741815E+02  0.58803937867E+02 -0.53274529621E+01  0.64772167505E+02  0.41800000000E+01 0.  1.
         -5    1    3    3    0  502  0.66263747947E+02 -0.18415652800E+01  0.56629097598E+02  0.87284607746E+02  0.41800000000E+01 0.  1.
        -11    1    1    2    0    0  0.14400414587E+02  0.15934810480E+02  0.35835226109E+01  0.21774566807E+02  0.00000000000E+00 0.  1.
         11    1    1    2    0    0 -0.54364420719E+02 -0.72897183067E+02  0.18667334149E+03  0.20764495169E+03  0.00000000000E+00 0. -1.
</event>
<event>
 7    1  0.2723366E-009  0.1126653E+03  0.7561462E-02  0.1255712E+00
         -1   -1    0    0    0  501 -0.00000000000E+00  0.00000000000E+00  0.26526207170E+02  0.26526207170E+02  0.00000000000E+00 0.  1.
          1   -1    0    0  501    0  0.00000000000E+00 -0.00000000000E+00 -0.81058739166E+03  0.81058739166E+03  0.00000000000E+00 0. -1.
         25    2    1    2    0    0  0.87799986601E+02 -0.37922090374E+02 -0.48744332993E+03  0.51224555266E+03  0.12509030234E+03 0.  0.
          5    1    3    3  502    0  0.43925991393E+02 -0.53850966263E+01 -0.35212554838E+02  0.56708803582E+02  0.41800000000E+01 0. -1.
         -5    1    3    3    0  502  0.43873995208E+02 -0.32536993748E+02 -0.45223077509E+03  0.45553674908E+03  0.41800000000E+01 0. -1.
        -11    1    1    2    0    0 -0.62304119790E+02 -0.17818591836E+02 -0.20192334737E+03  0.21206683798E+03  0.00000000000E+00 0. -1.
         11    1    1    2    0    0 -0.25495866812E+02  0.55740682210E+02 -0.94694507190E+02  0.11280120819E+03  0.00000000000E+00 0.  1.
</event>
<event>
 7    1  0.2723366E-009  0.1414218E+03  0.7561462E-02  0.1211429E+00
         -1   -1    0    0    0  501 -0.00000000000E+00  0.00000000000E+00  0.34851932461E+02  0.34851932461E+02  0.00000000000E+00 0.  1.
          1   -1    0    0  501    0  0.00000000000E+00 -0.00000000000E+00 -0.64272261264E+03  0.64272261264E+03  0.00000000000E+00 0. -1.
         25    2    1    2    0    0  0.43895902108E+02 -0.79080961970E+02 -0.43923512257E+03  0.46557047776E+03  0.12509087931E+03 0.  0.
          5    1    3    3  502    0  0.27040530490E+02 -0.11299596855E+03 -0.33122609719E+03  0.35103771743E+03  0.41800000000E+01 0. -1.
         -5    1    3    3    0  502  0.16855371618E+02  0.33915006581E+02 -0.10800902538E+03  0.11453276032E+03  0.41800000000E+01 0. -1.
        -11    1    1    2    0    0 -0.52063340762E+02  0.32015067462E+01 -0.67736673062E+02  0.85493262742E+02  0.00000000000E+00 0.  1.
         11    1    1    2    0    0  0.81674386540E+01  0.75879455224E+02 -0.10089888454E+03  0.12651080460E+03  0.00000000000E+00 0. -1.
</event>
<event>
 7    1  0.2723366E-009  0.2812073E+03  0.7561462E-02  0.1095031E+00
          2   -1    0    0  501    0  0.00000000000E+00  0.00000000000E+00  0.12948827471E+04  0.12948827471E+04  0.00000000000E+00 0. -1.
         -2   -1    0    0    0  501 -0.00000000000E+00 -0.00000000000E+00 -0.84614072334E+02  0.84614072334E+02  0.00000000000E+00 0.  1.
         25    2    1    2    0    0 -0.19855478683E+03  0.18775442671E+03  0.29998881812E+03  0.42463591247E+03  0.12508652621E+03 0.  0.
          5    1    3    3  502    0 -0.10041571725E+03  0.15317147622E+03  0.24775800315E+03  0.30813360401E+03  0.41800000000E+01 0. -1.
         -5    1    3    3    0  502 -0.98139069584E+02  0.34582950482E+02  0.52230814973E+02  0.11650230846E+03  0.41800000000E+01 0. -1.
        -11    1    1    2    0    0  0.15199100967E+03 -0.12416018825E+03  0.50115914310E+03  0.53821696934E+03  0.00000000000E+00 0. -1.
         11    1    1    2    0    0  0.46563777160E+02 -0.63594238461E+02  0.40912071350E+03  0.41664393758E+03  0.00000000000E+00 0.  1.
</event>
<event>
 7    1  0.2723366E-009  0.2207893E+03  0.7561462E-02  0.1133296E+00
         -1   -1    0    0    0  501 -0.00000000000E+00  0.00000000000E+00  0.24789707230E+03  0.24789707230E+03  0.00000000000E+00 0.  1.
          1   -1    0    0  501    0  0.00000000000E+00 -0.00000000000E+00 -0.27952705630E+03  0.27952705630E+03  0.00000000000E+00 0. -1.
         25    2    1    2    0    0 -0.16209086315E+02 -0.20847710286E+03  0.10282198575E+03  0.26447178847E+03  0.12509008452E+03 0.  0.
          5    1    3    3  502    0  0.39643760005E+02 -0.99432657346E+02  0.92351062061E+02  0.14143787370E+03  0.41800000000E+01 0. -1.
         -5    1    3    3    0  502 -0.55852846320E+02 -0.10904444552E+03  0.10470923693E+02  0.12303391477E+03  0.41800000000E+01 0. -1.
        -11    1    1    2    0    0 -0.96973736355E+01  0.30284994959E+02  0.86425232224E+01  0.32953196852E+02  0.00000000000E+00 0.  1.
         11    1    1    2    0    0  0.25906459950E+02  0.17819210790E+03 -0.14309449298E+03  0.22999914328E+03  0.00000000000E+00 0. -1.
</event>
<event>
 7    1  0.2723366E-009  0.8407094E+02  0.7561462E-02  0.1317880E+00
          2   -1    0    0  501    0  0.00000000000E+00  0.00000000000E+00  0.76985995897E+03  0.76985995897E+03  0.00000000000E+00 0. -1.
         -2   -1    0    0    0  501 -0.00000000000E+00 -0.00000000000E+00 -0.25372097477E+02  0.25372097477E+02  0.00000000000E+00 0.  1.
         25    2    1    2    0    0  0.57616465213E+01 -0.50541957736E+02  0.61763445744E+03  0.63222354860E+03  0.12508639545E+03 0.  0.
          5    1    3    3  502    0  0.30448929227E+02 -0.18563492005E+02  0.56301402762E+03  0.56415778664E+03  0.41800000000E+01 0.  1.
         -5    1    3    3    0  502 -0.24687282705E+02 -0.31978465731E+02  0.54620429814E+02  0.68065761958E+02  0.41800000000E+01 0.  1.
        -11    1    1    2    0    0 -0.52656010567E+01 -0.20201434516E+02  0.67526688032E+02  0.70680111118E+02  0.00000000000E+00 0. -1.
         11    1    1    2    0    0 -0.49604546467E+00  0.70743392252E+02  0.59326716019E+02  0.92328396726E+02  0.00000000000E+00 0.  1.
</event>
<event>
 7    1  0.2723366E-009  0.1335967E+03  0.7561462E-02  0.1222214E+00
          2   -1    0    0  501    0  0.00000000000E+00  0.00000000000E+00  0.70891686814E+03  0.70891686814E+03  0.00000000000E+00 0. -1.
         -2   -1    0    0    0  501 -0.00000000000E+00 -0.00000000000E+00 -0.29876931868E+02  0.29876931868E+02  0.00000000000E+00 0.  1.
         25    2    1    2    0    0  0.85345297848E+02 -0.41488609882E+02  0.37352124222E+03  0.40518296993E+03  0.12509994450E+03 0.  0.
          5    1    3    3  502    0 -0.18468615815E+02 -0.22824414945E+02  0.19916834884E+03  0.20136421546E+03  0.41800000000E+01 0.  1.
         -5    1    3    3    0  502  0.10381391366E+03 -0.18664194937E+02  0.17435289338E+03  0.20381875447E+03  0.41800000000E+01 0.  1.
        -11    1    1    2    0    0 -0.45074990330E+02 -0.26987075031E+02  0.94291950583E+02  0.10793993198E+03  0.00000000000E+00 0. -1.
         11    1    1    2    0    0 -0.40270307518E+02  0.68475684913E+02  0.21122674347E+03  0.22567089810E+03  0.00000000000E+00 0.  1.
</event>
<event>
 7    1  0.2723366E-009  0.1496833E+03  0.7561462E-02  0.1200863E+00
          2   -1    0    0  501    0  0.00000000000E+00  0.00000000000E+00  0.45681597142E+03  0.45681597142E+03  0.00000000000E+00 0. -1.
         -2   -1    0    0    0  501 -0.00000000000E+00 -0.00000000000E+00 -0.58837345903E+02  0.58837345903E+02  0.00000000000E+00 0.  1.
         25    2    1    2    0    0  0.10748380728E+03 -0.56414218779E+02  0.24638301835E+03  0.30180865435E+03  0.12509412137E+03 0.  0.
          5    1    3    3  502    0  0.12915247555E+03 -0.32025488613E+02  0.22828354946E+03  0.26426661767E+03  0.41800000000E+01 0. -1.
         -5    1    3    3    0  502 -0.21668668270E+02 -0.24388730166E+02  0.18099468889E+02  0.37542036676E+02  0.41800000000E+01 0. -1.
        -11    1    1    2    0    0 -0.13158319204E+02  0.33909773794E+02  0.94625120753E+02  0.10137518237E+03  0.00000000000E+00 0. -1.
         11    1    1    2    0    0 -0.94325488078E+02  0.22504444985E+02  0.56970486420E+02  0.11246948061E+03  0.00000000000E+00 0.  1.
</event>
<event>
 7    1  0.2723366E-009  0.1147407E+03  0.7561462E-02  0.1252034E+00
          2   -1    0    0  501    0  0.00000000000E+00  0.00000000000E+00  0.48768146499E+03  0.48768146499E+03  0.00000000000E+00 0. -1.
         -2   -1    0    0    0  501 -0.00000000000E+00 -0.00000000000E+00 -0.29365772858E+02  0.29365772858E+02  0.00000000000E+00 0.  1.
         25    2    1    2    0    0 -0.46021890718E+02  0.24647145286E+02  0.25709244625E+03  0.29063529310E+03  0.12508737539E+03 0.  0.
          5    1    3    3  502    0 -0.78959849379E+02  0.48142281676E+02  0.15232199912E+03  0.17824646116E+03  0.41800000000E+01 0. -1.
         -5    1    3    3    0  502  0.32937958661E+02 -0.23495136390E+02  0.10477044713E+03  0.11238883194E+03  0.41800000000E+01 0. -1.
        -11    1    1    2    0    0  0.57515701850E+02  0.11193938806E+02  0.77927136447E+02  0.97498711890E+02  0.00000000000E+00 0. -1.
         11    1    1    2    0    0 -0.11493811132E+02 -0.35841084092E+02  0.12329610943E+03  0.12891323285E+03  0.00000000000E+00 0.  1.
</event>
<event>
 7    1  0.2723366E-009  0.1841245E+03  0.7561462E-02  0.1163870E+00
         -2   -1    0    0    0  501 -0.00000000000E+00  0.00000000000E+00  0.81004040975E+03  0.81004040975E+03  0.00000000000E+00 0.  1.
          2   -1    0    0  501    0  0.00000000000E+00 -0.00000000000E+00 -0.53174537096E+02  0.53174537096E+02  0.00000000000E+00 0. -1.
         25    2    1    2    0    0 -0.27295655579E+02 -0.15782321576E+03  0.55729390659E+03  0.59319188252E+03  0.12508753303E+03 0.  0.
          5    1    3    3  502    0  0.15344729630E+02 -0.15501946449E+03  0.37869624012E+03  0.40950556745E+03  0.41800000000E+01 0. -1.
         -5    1    3    3    0  502 -0.42640385208E+02 -0.28037512656E+01  0.17859766647E+03  0.18368631506E+03  0.41800000000E+01 0. -1.
        -11    1    1    2    0    0  0.44073621108E+02  0.10023311543E+03  0.17225814475E+03  0.20411278731E+03  0.00000000000E+00 0.  1.
         11    1    1    2    0    0 -0.16777965529E+02  0.57590100322E+02  0.27313821309E+02  0.65910277021E+02  0.00000000000E+00 0. -1.
</event>
<event>
 7    1  0.2723366E-009  0.1291720E+03  0.7561462E-02  0.1228690E+00
         -1   -1    0    0    0  501 -0.00000000000E+00  0.00000000000E+00  0.66198208148E+02  0.66198208148E+02  0.00000000000E+00 0.  1.
          1   -1    0    0  501    0  0.00000000000E+00 -0.00000000000E+00 -0.27031086652E+03  0.27031086652E+03  0.00000000000E+00 0. -1.
         25    2    1    2    0    0 -0.50455441327E+02  0.53631392941E+02 -0.12226976393E+03  0.18978724808E+03  0.12508887438E+03 0.  0.
          5    1    3    3  502    0  0.41971907277E+02  0.17194875877E+02 -0.34263974016E+02  0.56998219905E+02  0.41800000000E+01 0.  1.
         -5    1    3    3    0  502 -0.92427348604E+02  0.36436517064E+02 -0.88005789917E+02  0.13278902818E+03  0.41800000000E+01 0.  1.
        -11    1    1    2    0    0  0.74694205308E+02 -0.33564724830E+02 -0.32297134701E+02  0.88027949933E+02  0.00000000000E+00 0.  1.
         11    1    1    2    0    0 -0.24238763981E+02 -0.20066668110E+02 -0.49545759738E+02  0.58693876651E+02  0.00000000000E+00 0. -1.
</event>
<event>
 7    1  0.2723366E-009  0.1563628E+03  0.7561462E-02  0.1192865E+00
         -1   -1    0    0    0  501 -0.00000000000E+00  0.00000000000E+00  0.77690847436E+02  0.77690847436E+02  0.00000000000E+00 0.  1.
          1   -1    0    0  501    0  0.00000000000E+00 -0.00000000000E+00 -0.43851034912E+03  0.43851034912E+03  0.00000000000E+00 0. -1.
         25    2    1    2    0    0 -0.12761534692E+03 -0.11316500430E+02 -0.29544084850E+03  0.34545942513E+03  0.12507269684E+03 0.  0.
          5    1    3    3  502    0 -0.46953445550E+02 -0.56861124648E+02 -0.70284491523E+02  0.10195683250E+03  0.41800000000E+01 0.  1.
         -5    1    3    3    0  502 -0.80661901367E+02  0.45544624218E+02 -0.22515635698E+03  0.24350259263E+03  0.41800000000E+01 0.  1.
        -11    1    1    2    0    0  0.11708199215E+03  0.33331851273E+02 -0.26103376357E+02  0.12450137129E+03  0.00000000000E+00 0.  1.
         11    1    1    2    0    0  0.10533354768E+02 -0.22015350843E+02 -0.39275276824E+02  0.46240400139E+02  0.00000000000E+00 0. -1.
</event>
<event>
 7    1  0.2723366E-009  0.1026027E+03  0.7561462E-02  0.1274916E+00
         -2   -1    0    0    0  501 -0.00000000000E+00  0.00000000000E+00  0.20745202837E+03  0.20745202837E+03  0.00000000000E+00 0.  1.
          2   -1    0    0  501    0  0.00000000000E+00 -0.00000000000E+00 -0.91069054197E+02  0.91069054197E+02  0.00000000000E+00 0. -1.
         25    2    1    2    0    0  0.44760525992E+02  0.18674704949E+02  0.96154852256E+01  0.13450785337E+03  0.12509059026E+03 0.  0.
          5    1    3    3  502    0 -0.31761712626E+02  0.19853394473E+02 -0.30054410799E+02  0.48204809610E+02  0.41800000000E+01 0.  1.
         -5    1    3    3    0  502  0.76522238618E+02 -0.11786895241E+01  0.39669896024E+02  0.86303043763E+02  0.41800000000E+01 0.  1.
        -11    1    1    2    0    0 -0.50834664261E+02  0.17825321918E+02  0.11420398970E+03  0.12627136039E+03  0.00000000000E+00 0.  1.
         11    1    1    2    0    0  0.60741382681E+01 -0.36500026867E+02 -0.74365007556E+01  0.37741868799E+02  0.00000000000E+00 0. -1.
</event>
<event>
 7    1  0.2723366E-009  0.6721946E+02  0.7561462E-02  0.1369812E+00
          1   -1    0    0  501    0  0.00000000000E+00  0.00000000000E+00  0.26545418099E+03  0.26545418099E+03  0.00000000000E+00 0. -1.
         -1   -1    0    0    0  501 -0.00000000000E+00 -0.00000000000E+00 -0.51884890594E+02  0.51884890594E+02  0.00000000000E+00 0.  1.
         25    2    1    2    0    0 -0.29362574123E+02 -0.72031711868E+01  0.16211840378E+03  0.20698883130E+03  0.12509177833E+03 0.  0.
          5    1    3    3  502    0  0.24449698407E+01 -0.11363783398E+01 -0.20694182554E+02  0.21283581109E+02  0.41800000000E+01 0. -1.
         -5    1    3    3    0  502 -0.31807543964E+02 -0.60667928470E+01  0.18281258633E+03  0.18570525019E+03  0.41800000000E+01 0. -1.
        -11    1    1    2    0    0  0.62577741318E+02 -0.10634563674E+01  0.26364607616E+02  0.67913159127E+02  0.00000000000E+00 0.  1.
         11    1    1    2    0    0 -0.33215167195E+02  0.82666275542E+01  0.25086279009E+02  0.42437081160E+02  0.00000000000E+00 0. -1.
</event>
<event>
 7    1  0.2723366E-009  0.1520281E+03  0.7561462E-02  0.1198003E+00
         -3   -1    0    0    0  501 -0.00000000000E+00  0.00000000000E+00  0.92863166982E+02  0.92863166982E+02  0.00000000000E+00 0.  1.
          3   -1    0    0  501    0  0.00000000000E+00 -0.00000000000E+00 -0.41758509475E+03  0.41758509475E+03  0.00000000000E+00 0. -1.
         25    2    1    2    0    0  0.55740020329E+02 -0.12982344581E+03 -0.61724780895E+02  0.19854085184E+03  0.12508974508E+03 0.  0.
          5    1    3    3  502    0  0.26488942828E+02 -0.12632746639E+03 -0.90067313341E+02  0.15744804283E+03  0.41800000000E+01 0.  1.
         -5    1    3    3    0  502  0.29251077501E+02 -0.34959794119E+01  0.28342532446E+02  0.41092809012E+02  0.41800000000E+01 0.  1.
        -11    1    1    2    0    0 -0.34386689848E+02  0.11257568215E+03 -0.12697233722E+03  0.17314070309E+03  0.00000000000E+00 0.  1.
         11    1    1    2    0    0 -0.21353330481E+02  0.17247763659E+02 -0.13602480965E+03  0.13876670680E+03  0.00000000000E+00 0. -1.
</event>
<event>
 7    1  0.3455945E-009  0.1988739E+03  0.7561462E-02  0.1150693E+00
         -1   -1    0    0    0  501 -0.00000000000E+00  0.00000000000E+00  0.63320019737E+02  0.63320019737E+02  0.00000000000E+00 0.  1.
          1   -1    0    0  501    0  0.00000000000E+00 -0.00000000000E+00 -0.76351817031E+03  0.76351817031E+03  0.00000000000E+00 0. -1.
         25    2    1    2    0    0 -0.34756884349E+02 -0.18747623533E+03 -0.38644775435E+03  0.44871456584E+03  0.12509002731E+03 0.  0.
          5    1    3    3  502    0 -0.32895158648E+02 -0.26472311087E+02 -0.18998620852E+03  0.19466665494E+03  0.41800000000E+01 0. -1.
         -5    1    3    3    0  502 -0.18617257008E+01 -0.16100392424E+03 -0.19646154583E+03  0.25404791091E+03  0.41800000000E+01 0. -1.
        -11    1    1    2    0    0  0.30788094918E+02  0.67315369027E+02 -0.19737451875E+03  0.21079840214E+03  0.00000000000E+00 0. -1.
         11    1    1    2    0    0  0.39687894310E+01  0.12016086630E+03 -0.11637587748E+03  0.16732522206E+03  0.00000000000E+00 0.  1.
</event>
<event>
 7    1  0.2723366E-009  0.1135787E+03  0.7561462E-02  0.1254083E+00
          1   -1    0    0  501    0  0.00000000000E+00  0.00000000000E+00  0.20357414655E+03  0.20357414655E+03  0.00000000000E+00 0. -1.
         -1   -1    0    0    0  501 -0.00000000000E+00 -0.00000000000E+00 -0.76217229477E+02  0.76217229477E+02  0.00000000000E+00 0.  1.
         25    2    1    2    0    0 -0.13559039456E+02 -0.35536173244E+02  0.12735785666E+03  0.18252342854E+03  0.12509241045E+03 0.  0.
          5    1    3    3  502    0  0.34128494649E+02 -0.65515745767E+02  0.66338785832E+02  0.99374916332E+02  0.41800000000E+01 0. -1.
         -5    1    3    3    0  502 -0.47687534104E+02  0.29979572524E+02  0.61019070827E+02  0.83148512207E+02  0.41800000000E+01 0. -1.
        -11    1    1    2    0    0  0.48742262170E+02  0.37421053530E+02 -0.51247641161E+01  0.61663656849E+02  0.00000000000E+00 0.  1.
         11    1    1    2    0    0 -0.35183222715E+02 -0.18848802859E+01  0.51238245345E+01  0.35604290642E+02  0.00000000000E+00 0. -1.
</event>
<event>
 7    1  0.2723366E-009  0.1326236E+03  0.7561462E-02  0.1223614E+00
          2   -1    0    0  501    0  0.00000000000E+00  0.00000000000E+00  0.35272975883E+03  0.35272975883E+03  0.00000000000E+00 0. -1.
         -2   -1    0    0    0  501 -0.00000000000E+00 -0.00000000000E+00 -0.63936087344E+02  0.63936087344E+02  0.00000000000E+00 0.  1.
         25    2    1    2    0    0  0.64883731682E+01  0.84437714414E+02  0.73259931573E+02  0.16789396733E+03  0.12509812185E+03 0.  0.
          5    1    3    3  502    0 -0.10407151248E+02  0.10975619834E+03  0.80198309456E+02  0.13639638232E+03  0.41800000000E+01 0.  1.
         -5    1    3    3    0  502  0.16895524416E+02 -0.25318483926E+02 -0.69383778824E+01  0.31497585006E+02  0.41800000000E+01 0.  1.
        -11    1    1    2    0    0  0.32175644623E+02 -0.78808852801E+02  0.15035127416E+03  0.17277619346E+03  0.00000000000E+00 0.  1.
         11    1    1    2    0    0 -0.38664017791E+02 -0.56288616129E+01  0.65182465758E+02  0.75995685385E+02  0.00000000000E+00 0. -1.
</event>
<event>
 7    1  0.2723366E-009  0.1022492E+03  0.7561462E-02  0.1275636E+00
          2   -1    0    0  501    0  0.00000000000E+00  0.00000000000E+00  0.24680981828E+02  0.24680981828E+02  0.00000000000E+00 0. -1.
         -2   -1    0    0    0  501 -0.00000000000E+00 -0.00000000000E+00 -0.68907547339E+03  0.68907547339E+03  0.00000000000E+00 0.  1.
         25    2    1    2    0    0 -0.15081557267E+02 -0.71445423806E+02 -0.40191187499E+03  0.42721782225E+03  0.12510000177E+03 0.  0.
          5    1    3    3  502    0  0.15295131622E+02 -0.50036269480E+01 -0.30662236205E+03  0.30707282955E+03  0.41800000000E+01 0. -1.
         -5    1    3    3    0  502 -0.30376688889E+02 -0.66441796858E+02 -0.95289512932E+02  0.12014499271E+03  0.41800000000E+01 0. -1.
        -11    1    1    2    0    0  0.50769649106E+02  0.56625981537E+02 -0.16536544434E+03  0.18201590381E+03  0.00000000000E+00 0. -1.
         11    1    1    2    0    0 -0.35688091839E+02  0.14819442269E+02 -0.97117172228E+02  0.10452272915E+03  0.00000000000E+00 0.  1.
</event>
<event>
 7    1  0.2723366E-009  0.7443703E+02  0.7561462E-02  0.1345623E+00
         -2   -1    0    0    0  501 -0.00000000000E+00  0.00000000000E+00  0.46129959411E+03  0.46129959411E+03  0.00000000000E+00 0. -1.
          2   -1    0    0  501    0  0.00000000000E+00 -0.00000000000E+00 -0.29855886066E+02  0.29855886066E+02  0.00000000000E+00 0.  1.
         25    2    1    2    0    0 -0.32914049695E+02  0.12727903519E+02  0.19328898127E+03  0.23292435882E+03  0.12509113659E+03 0.  0.
          5    1    3    3  502    0 -0.14200801585E+02 -0.21313931339E+02 -0.85624478890E+01  0.27326440468E+02  0.41800000000E+01 0.  1.
         -5    1    3    3    0  502 -0.18713248109E+02  0.34041834858E+02  0.20185142916E+03  0.20559791835E+03  0.41800000000E+01 0.  1.
        -11    1    1    2    0    0 -0.74979558850E+01 -0.36301767129E+02  0.39612966595E+02  0.54251495478E+02  0.00000000000E+00 0.  1.
         11    1    1    2    0    0  0.40412005580E+02  0.23573863610E+02  0.19854176017E+03  0.20397962588E+03  0.00000000000E+00 0. -1.
</event>
<event>
 7    1  0.2723366E-009  0.1317289E+03  0.7561462E-02  0.1224913E+00
          1   -1    0    0  501    0  0.00000000000E+00  0.00000000000E+00  0.67825415441E+02  0.67825415441E+02  0.00000000000E+00 0. -1.
         -1   -1    0    0    0  501 -0.00000000000E+00 -0.00000000000E+00 -0.33590654451E+03  0.33590654451E+03  0.00000000000E+00 0.  1.
         25    2    1    2    0    0 -0.49732864214E+01 -0.10541104615E+03 -0.15299965151E+03  0.22403700706E+03  0.12508982749E+03 0.  0.
          5    1    3    3  502    0  0.33419824882E+02 -0.51328753739E+02 -0.47524466176E+01  0.61575837829E+02  0.41800000000E+01 0.  1.
         -5    1    3    3    0  502 -0.38393111303E+02 -0.54082292409E+02 -0.14824720490E+03  0.16246116923E+03  0.41800000000E+01 0.  1.
        -11    1    1    2    0    0 -0.59939648285E+01 -0.14243569456E+02 -0.25513403391E+02  0.29828520543E+02  0.00000000000E+00 0.  1.
         11    1    1    2    0    0  0.10967251250E+02  0.11965461560E+03 -0.89568074161E+02  0.14986643235E+03  0.00000000000E+00 0. -1.
</event>
<event>
 7    1  0.2723366E-009  0.1672059E+03  0.7561462E-02  0.1180793E+00
          2   -1    0    0  501    0  0.00000000000E+00  0.00000000000E+00  0.49206005203E+03  0.49206005203E+03  0.00000000000E+00 0. -1.
         -2   -1    0    0    0  501 -0.00000000000E+00 -0.00000000000E+00 -0.13886068282E+03  0.13886068282E+03  0.00000000000E+00 0.  1.
         25    2    1    2    0    0  0.14507629203E+03  0.53667362788E+02  0.39807311168E+03  0.44501308266E+03  0.12508846932E+03 0.  0.
          5    1    3    3  502    0  0.13362359063E+03  0.37478305618E+02  0.18668469050E+03  0.23265539631E+03  0.41800000000E+01 0. -1.
         -5    1    3    3    0  502  0.11452701400E+02  0.16189057169E+02  0.21138842118E+03  0.21235768635E+03  0.41800000000E+01 0. -1.
        -11    1    1    2    0    0 -0.69564472956E+02 -0.69297222546E+02 -0.31719959898E+01  0.98241450054E+02  0.00000000000E+00 0.  1.
         11    1    1    2    0    0 -0.75511819079E+02  0.15629859758E+02 -0.41701746480E+02  0.87666202132E+02  0.00000000000E+00 0. -1.
</event>
<event>
 7    1  0.2723366E-009  0.1171214E+03  0.7561462E-02  0.1247923E+00
         -2   -1    0    0    0  501 -0.00000000000E+00  0.00000000000E+00  0.11529918875E+03  0.11529918875E+03  0.00000000000E+00 0. -1.
          2   -1    0    0  501    0  0.00000000000E+00 -0.00000000000E+00 -0.13326529463E+03  0.13326529463E+03  0.00000000000E+00 0.  1.
         25    2    1    2    0    0  0.61060089289E+01  0.45827916920E+02  0.26851133564E+02  0.13603765591E+03  0.12509108337E+03 0.  0.
          5    1    3    3  502    0  0.64699670784E+02  0.19299980521E+02  0.23070513760E+02  0.71472076035E+02  0.41800000000E+01 0. -1.
         -5    1    3    3    0  502 -0.58593661855E+02  0.26527936399E+02  0.37806198044E+01  0.64565579880E+02  0.41800000000E+01 0. -1.
        -11    1    1    2    0    0  0.16765800421E+02 -0.68150282930E+02 -0.38143816670E+02  0.79878056294E+02  0.00000000000E+00 0.  1.
         11    1    1    2    0    0 -0.22871809350E+02  0.22322366011E+02 -0.66734227686E+01  0.32648771167E+02  0.00000000000E+00 0. -1.
</event>
<event>
 7    1  0.2723366E-009  0.1262318E+03  0.7561462E-02  0.1233157E+00
          1   -1    0    0  501    0  0.00000000000E+00  0.00000000000E+00  0.82703748063E+02  0.82703748063E+02  0.00000000000E+00 0. -1.
         -1   -1    0    0    0  501 -0.00000000000E+00 -0.00000000000E+00 -0.22927972801E+03  0.22927972801E+03  0.00000000000E+00 0.  1.
         25    2    1    2    0    0  0.67875858478E+02  0.50622619587E+02 -0.77899918450E+02  0.16996850683E+03  0.12510441336E+03 0.  0.
          5    1    3    3  502    0  0.86823554160E+02  0.77288623669E+02 -0.71010049970E+02  0.13627824662E+03  0.41800000000E+01 0.  1.
         -5    1    3    3    0  502 -0.18947695682E+02 -0.26666004082E+02 -0.68898684801E+01  0.33690260210E+02  0.41800000000E+01 0.  1.
        -11    1    1    2    0    0 -0.78885775829E+02 -0.44555274862E+02 -0.83060639222E+02  0.12291138244E+03  0.00000000000E+00 0.  1.
         11    1    1    2    0    0  0.11009917351E+02 -0.60673447249E+01  0.14384577727E+02  0.19103586796E+02  0.00000000000E+00 0. -1.
</event>
<event>
 7    1  0.2723366E-009  0.8886856E+02  0.7561462E-02  0.1305615E+00
         -2   -1    0    0    0  501 -0.00000000000E+00  0.00000000000E+00  0.16943369118E+02  0.16943369118E+02  0.00000000000E+00 0.  1.
          2   -1    0    0  501    0  0.00000000000E+00 -0.00000000000E+00 -0.94136175200E+03  0.94136175200E+03  0.00000000000E+00 0. -1.
         25    2    1    2    0    0 -0.18769252727E+02 -0.39138689764E+02 -0.89325868619E+03  0.90301847643E+03  0.12508863435E+03 0.  0.
          5    1    3    3  502    0 -0.64569806489E+02  0.92531794814E+01 -0.47139017205E+03  0.47590025000E+03  0.41800000000E+01 0.  1.
         -5    1    3    3    0  502  0.45800553762E+02 -0.48391869245E+02 -0.42186851414E+03  0.42711822643E+03  0.41800000000E+01 0.  1.
        -11    1    1    2    0    0  0.19803435051E+02  0.27281434867E+02 -0.21811297525E+02  0.40152028939E+02  0.00000000000E+00 0.  1.
         11    1    1    2    0    0 -0.10341823236E+01  0.11857254897E+02 -0.93483991689E+01  0.15134615746E+02  0.00000000000E+00 0. -1.
</event>
<event>
 7    1  0.2723366E-009  0.1815880E+03  0.7561462E-02  0.1166275E+00
         -2   -1    0    0    0  501 -0.00000000000E+00  0.00000000000E+00  0.86564781986E+02  0.86564781986E+02  0.00000000000E+00 0.  1.
          2   -1    0    0  501    0  0.00000000000E+00 -0.00000000000E+00 -0.47906033427E+03  0.47906033427E+03  0.00000000000E+00 0. -1.
         25    2    1    2    0    0 -0.12907978154E+03 -0.11128412742E+03 -0.23642965824E+03  0.31716339864E+03  0.12509153100E+03 0.  0.
          5    1    3    3  502    0 -0.78742386391E+02 -0.36519012106E+02 -0.30094602956E+02  0.91962814153E+02  0.41800000000E+01 0. -1.
         -5    1    3    3    0  502 -0.50337395151E+02 -0.74765115309E+02 -0.20633505528E+03  0.22520058449E+03  0.41800000000E+01 0. -1.
        -11    1    1    2    0    0  0.36868724055E+02 -0.54697343569E+01 -0.62313656362E+02  0.72610003282E+02  0.00000000000E+00 0. -1.
         11    1    1    2    0    0  0.92211057487E+02  0.11675386177E+03 -0.93752237683E+02  0.17585171433E+03  0.00000000000E+00 0.  1.
</event>
<event>
 7    1  0.2723366E-009  0.1033724E+03  0.7561462E-02  0.1273360E+00
          2   -1    0    0  501    0  0.00000000000E+00  0.00000000000E+00  0.10838287941E+04  0.10838287941E+04  0.00000000000E+00 0. -1.
         -2   -1    0    0    0  501 -0.00000000000E+00 -0.00000000000E+00 -0.16373936524E+02  0.16373936524E+02  0.00000000000E+00 0.  1.
         25    2    1    2    0    0 -0.14126640652E+02 -0.50491600598E+01  0.88798427485E+03  0.89687720720E+03  0.12509035306E+03 0.  0.
          5    1    3    3  502    0  0.25327794575E+02  0.51020136659E+02  0.42750312525E+03  0.43130145608E+03  0.41800000000E+01 0. -1.
         -5    1    3    3    0  502 -0.39454435227E+02 -0.56069296719E+02  0.46048114960E+03  0.46557575112E+03  0.41800000000E+01 0. -1.
        -11    1    1    2    0    0 -0.25385267331E+02  0.25901415778E+02  0.29220873992E+02  0.46574183983E+02  0.00000000000E+00 0.  1.
         11    1    1    2    0    0  0.39511907983E+02 -0.20852255718E+02  0.15024970876E+03  0.15675133946E+03  0.00000000000E+00 0. -1.
</event>
<event>
 7    1  0.2784145E-009  0.1744684E+03  0.7561462E-02  0.1173267E+00
          1   -1    0    0  501    0  0.00000000000E+00  0.00000000000E+00  0.46503714823E+03  0.46503714823E+03  0.00000000000E+00 0. -1.
         -1   -1    0    0    0  501 -0.00000000000E+00 -0.00000000000E+00 -0.74033263979E+02  0.74033263979E+02  0.00000000000E+00 0.  1.
         25    2    1    2    0    0 -0.13776060426E+03  0.58423356200E+02  0.21984054467E+03  0.29388612620E+03  0.12509163625E+03 0.  0.
          5    1    3    3  502    0 -0.92824192382E+02 -0.13133748895E+02  0.55439664929E+02  0.10899474712E+03  0.41800000000E+01 0. -1.
         -5    1    3    3    0  502 -0.44936411874E+02  0.71557105095E+02  0.16440087974E+03  0.18489137909E+03  0.41800000000E+01 0. -1.
        -11    1    1    2    0    0  0.97082375248E+02  0.26452639174E+01  0.67878147035E+02  0.11848809160E+03  0.00000000000E+00 0.  1.
         11    1    1    2    0    0  0.40678229007E+02 -0.61068620118E+02  0.10328519254E+03  0.12669619441E+03  0.00000000000E+00 0. -1.
</event>
<event>
 7    1  0.2723366E-009  0.1189481E+03  0.7561462E-02  0.1244843E+00
          1   -1    0    0  501    0  0.00000000000E+00  0.00000000000E+00  0.24091687412E+02  0.24091687412E+02  0.00000000000E+00 0. -1.
         -1   -1    0    0    0  501 -0.00000000000E+00 -0.00000000000E+00 -0.90054822751E+03  0.90054822751E+03  0.00000000000E+00 0.  1.
         25    2    1    2    0    0 -0.49818886624E+02 -0.70156580689E+02 -0.62423162248E+03  0.64242975078E+03  0.12508796467E+03 0.  0.
          5    1    3    3  502    0  0.18579799829E+02 -0.69536735765E+02 -0.19786704309E+03  0.21059298593E+03  0.41800000000E+01 0.  1.
         -5    1    3    3    0  502 -0.68398686453E+02 -0.61984492342E+00 -0.42636457939E+03  0.43183676485E+03  0.41800000000E+01 0.  1.
        -11    1    1    2    0    0 -0.67299465718E+00  0.36684545983E+02 -0.19142622431E+02  0.41384161576E+02  0.00000000000E+00 0. -1.
         11    1    1    2    0    0  0.50491881281E+02  0.33472034706E+02 -0.23308229519E+03  0.24082600257E+03  0.00000000000E+00 0.  1.
</event>
<event>
 7    1  0.2723366E-009  0.1610732E+03  0.7561462E-02  0.1187490E+00
         -2   -1    0    0    0  501 -0.00000000000E+00  0.00000000000E+00  0.46064255795E+02  0.46064255795E+02  0.00000000000E+00 0.  1.
          2   -1    0    0  501    0  0.00000000000E+00 -0.00000000000E+00 -0.77397415662E+03  0.77397415662E+03  0.00000000000E+00 0. -1.
         25    2    1    2    0    0  0.13768152306E+03  0.52647741857E+02 -0.48308059138E+03  0.52032971099E+03  0.12509262111E+03 0.  0.
          5    1    3    3  502    0  0.13903107874E+03  0.51646648407E+02 -0.27729526386E+03  0.31449507612E+03  0.41800000000E+01 0.  1.
         -5    1    3    3    0  502 -0.13495556777E+01  0.10010934503E+01 -0.20578532752E+03  0.20583463487E+03  0.41800000000E+01 0.  1.
        -11    1    1    2    0    0 -0.10337761011E+03  0.35383455436E+01 -0.17819032611E+03  0.20603699299E+03  0.00000000000E+00 0.  1.
         11    1    1    2    0    0 -0.34303912946E+02 -0.56186087401E+02 -0.66638983333E+02  0.93671708431E+02  0.00000000000E+00 0. -1.
</event>
<event>
 7    1  0.2723366E-009  0.1383540E+03  0.7561462E-02  0.1215561E+00
         -1   -1    0    0    0  501 -0.00000000000E+00  0.00000000000E+00  0.51794332717E+02  0.51794332717E+02  0.00000000000E+00 0.  1.
          1   -1    0    0  501    0  0.00000000000E+00 -0.00000000000E+00 -0.38885982581E+03  0.38885982581E+03  0.00000000000E+00 0. -1.
         25    2    1    2    0    0  0.76799969370E+02  0.77864300291E+02 -0.18111940104E+03  0.24578963916E+03  0.12508886732E+03 0.  0.
          5    1    3    3  502    0  0.69333324065E+02 -0.15847285068E+02 -0.90181890505E+02  0.11492820387E+03  0.41800000000E+01 0.  1.
         -5    1    3    3    0  502  0.74666453053E+01  0.93711585359E+02 -0.90937510534E+02  0.13086143528E+03  0.41800000000E+01 0.  1.
        -11    1    1    2    0    0 -0.23606139863E+02 -0.38603058713E+02 -0.93726421191E+02  0.10407731746E+03  0.00000000000E+00 0. -1.
         11    1    1    2    0    0 -0.53193829507E+02 -0.39261241578E+02 -0.62219670862E+02  0.90787201907E+02  0.00000000000E+00 0.  1.
</event>
<event>
 7    1  0.2723366E-009  0.1480752E+03  0.7561462E-02  0.1202858E+00
         -1   -1    0    0    0  501 -0.00000000000E+00  0.00000000000E+00  0.28535426711E+03  0.28535426711E+03  0.00000000000E+00 0.  1.
          1   -1    0    0  501    0  0.00000000000E+00 -0.00000000000E+00 -0.92924565148E+02  0.92924565148E+02  0.00000000000E+00 0. -1.
         25    2    1    2    0    0 -0.85627172856E+02  0.61131150454E+02  0.35787856952E+02  0.16732587966E+03  0.12509256178E+03 0.  0.
          5    1    3    3  502    0 -0.30707140053E+02  0.93092612895E+02  0.33244370458E+02  0.10359451526E+03  0.41800000000E+01 0.  1.
         -5    1    3    3    0  502 -0.54920032803E+02 -0.31961462441E+02  0.25434864942E+01  0.63731364398E+02  0.41800000000E+01 0.  1.
        -11    1    1    2    0    0  0.74156573188E+02 -0.20656786742E+01  0.11820101636E+03  0.13955265904E+03  0.00000000000E+00 0.  1.
         11    1    1    2    0    0  0.11470599668E+02 -0.59065471779E+02  0.38440828651E+02  0.71400293561E+02  0.00000000000E+00 0. -1.
</event>
<event>
 7    1  0.2723366E-009  0.8373348E+02  0.7561462E-02  0.1318778E+00
          1   -1    0    0  501    0  0.00000000000E+00  0.00000000000E+00  0.14741651714E+03  0.14741651714E+03  0.00000000000E+00 0. -1.
         -1   -1    0    0    0  501 -0.00000000000E+00 -0.00000000000E+00 -0.96801142546E+02  0.96801142546E+02  0.00000000000E+00 0.  1.
         25    2    1    2    0    0  0.24062733722E+02  0.21816266230E+01  0.73381743398E+02  0.14702350080E+03  0.12508898782E+03 0.  0.
          5    1    3    3  502    0 -0.70933417429E+01 -0.51100062287E+02  0.67242306785E+02  0.84855949023E+02  0.41800000000E+01 0.  1.
         -5    1    3    3    0  502  0.31156075465E+02  0.53281688910E+02  0.61394366138E+01  0.62167551773E+02  0.41800000000E+01 0.  1.
        -11    1    1    2    0    0  0.14330014499E+02 -0.54071107371E+01 -0.48500998869E+02  0.50861901787E+02  0.00000000000E+00 0.  1.
         11    1    1    2    0    0 -0.38392748220E+02  0.32254841141E+01  0.25734630063E+02  0.46332257102E+02  0.00000000000E+00 0. -1.
</event>
<event>
 7    1  0.2723366E-009  0.1887020E+03  0.7561462E-02  0.1159637E+00
          1   -1    0    0  501    0  0.00000000000E+00  0.00000000000E+00  0.33127852759E+03  0.33127852759E+03  0.00000000000E+00 0. -1.
         -1   -1    0    0    0  501 -0.00000000000E+00 -0.00000000000E+00 -0.16470163030E+03  0.16470163030E+03  0.00000000000E+00 0.  1.
         25    2    1    2    0    0  0.12545800533E+03 -0.10713913525E+03  0.21771112147E+03  0.30043932829E+03  0.12508857729E+03 0.  0.
          5    1    3    3  502    0  0.91247316409E+02 -0.12795844713E+03  0.20473612304E+03  0.25813521539E+03  0.41800000000E+01 0.  1.
         -5    1    3    3    0  502  0.34210688921E+02  0.20819311889E+02  0.12974998429E+02  0.42304112900E+02  0.41800000000E+01 0.  1.
        -11    1    1    2    0    0 -0.12251667567E+03  0.11713564523E+03 -0.30221181976E+02  0.17217553555E+03  0.00000000000E+00 0.  1.
         11    1    1    2    0    0 -0.29413296622E+01 -0.99965099859E+01 -0.20913042205E+02  0.23365294057E+02  0.00000000000E+00 0. -1.
</event>
<event>
 7    1  0.2723366E-009  0.1167978E+03  0.7561462E-02  0.1248475E+00
          1   -1    0    0  501    0  0.00000000000E+00  0.00000000000E+00  0.25045837012E+03  0.25045837012E+03  0.00000000000E+00 0. -1.
         -1   -1    0    0    0  501 -0.00000000000E+00 -0.00000000000E+00 -0.76864731317E+02  0.76864731317E+02  0.00000000000E+00 0.  1.
         25    2    1    2    0    0  0.20903737070E+02 -0.44384053145E+02  0.10388701982E+02  0.13476804653E+03  0.12509033072E+03 0.  0.
          5    1    3    3  502    0 -0.11868456685E+02  0.39602533932E+02  0.15554634068E+02  0.44369358784E+02  0.41800000000E+01 0.  1.
         -5    1    3    3    0  502  0.32772193755E+02 -0.83986587076E+02 -0.51659320860E+01  0.90398687748E+02  0.41800000000E+01 0.  1.
        -11    1    1    2    0    0 -0.47966971882E+02 -0.20887488094E+01  0.68592097774E+02  0.83726155651E+02  0.00000000000E+00 0. -1.
         11    1    1    2    0    0  0.27063234813E+02  0.46472801954E+02  0.94612839044E+02  0.10882889925E+03  0.00000000000E+00 0.  1.
</event>
<event>
 7    1  0.2723366E-009  0.1323711E+03  0.7561462E-02  0.1223979E+00
         -1   -1    0    0    0  501 -0.00000000000E+00  0.00000000000E+00  0.85945229409E+02  0.85945229409E+02  0.00000000000E+00 0.  1.
          1   -1    0    0  501    0  0.00000000000E+00 -0.00000000000E+00 -0.21460336765E+03  0.21460336765E+03  0.00000000000E+00 0. -1.
         25    2    1    2    0    0  0.15816891376E+02  0.82182361392E+02 -0.72820654359E+02  0.16719580887E+03  0.12508987260E+03 0.  0.
          5    1    3    3  502    0 -0.42798101002E+02 -0.23907506818E+01 -0.38300095227E+01  0.43238114103E+02  0.41800000000E+01 0. -1.
         -5    1    3    3    0  502  0.58614992378E+02  0.84573112074E+02 -0.68990644836E+02  0.12395769477E+03  0.41800000000E+01 0. -1.
        -11    1    1    2    0    0  0.30078381200E+02 -0.61269105363E+02 -0.18852625501E+02  0.70809842366E+02  0.00000000000E+00 0.  1.
         11    1    1    2    0    0 -0.45895272576E+02 -0.20913256029E+02 -0.36984858379E+02  0.62542945820E+02  0.00000000000E+00 0. -1.
</event>
<event>
 7    1  0.2723366E-009  0.1123309E+03  0.7561462E-02  0.1256313E+00
          1   -1    0    0  501    0  0.00000000000E+00  0.00000000000E+00  0.36564762411E+03  0.36564762411E+03  0.00000000000E+00 0. -1.
         -1   -1    0    0    0  501 -0.00000000000E+00 -0.00000000000E+00 -0.42124367227E+02  0.42124367227E+02  0.00000000000E+00 0.  1.
         25    2    1    2    0    0  0.34454653548E+02 -0.50316580468E+02  0.17344976097E+03  0.22237631801E+03  0.12509007078E+03 0.  0.
          5    1    3    3  502    0 -0.14232431438E+02  0.36374618329E+02  0.56543780156E+02  0.68850173838E+02  0.41800000000E+01 0.  1.
         -5    1    3    3    0  502  0.48687084986E+02 -0.86691198797E+02  0.11690598081E+03  0.15352614417E+03  0.41800000000E+01 0.  1.
        -11    1    1    2    0    0  0.52097312434E+01  0.45626473755E+02  0.13518171734E+03  0.14276909018E+03  0.00000000000E+00 0. -1.
         11    1    1    2    0    0 -0.39664384792E+02  0.46901067130E+01  0.14891778567E+02  0.42626583147E+02  0.00000000000E+00 0.  1.
</event>
<event>
 7    1  0.2723366E-009  0.4310229E+03  0.7561462E-02  0.1033537E+00
          2   -1    0    0  501    0  0.00000000000E+00  0.00000000000E+00  0.14501910087E+04  0.14501910087E+04  0.00000000000E+00 0. -1.
         -2   -1    0    0    0  501 -0.00000000000E+00 -0.00000000000E+00 -0.23714986651E+03  0.23714986651E+03  0.00000000000E+00 0.  1.
         25    2    1    2    0    0 -0.40157204121E+03  0.15384220529E+03  0.11601635547E+04  0.12436050362E+04  0.12508590610E+03 0.  0.
          5    1    3    3  502    0 -0.34419675291E+03  0.14596946468E+03  0.85821456412E+03  0.93612403014E+03  0.41800000000E+01 0.  1.
         -5    1    3    3    0  502 -0.57375288296E+02  0.78727406096E+01  0.30194899063E+03  0.30748100607E+03  0.41800000000E+01 0.  1.
        -11    1    1    2    0    0  0.20015964374E+03 -0.72924318892E+02 -0.21910158801E+02  0.21415390337E+03  0.00000000000E+00 0. -1.
         11    1    1    2    0    0  0.20141239746E+03 -0.80917886397E+02  0.74787746271E+02  0.22958193566E+03  0.00000000000E+00 0.  1.
</event>
<event>
 7    1  0.2723366E-009  0.1071847E+03  0.7561462E-02  0.1265874E+00
         -2   -1    0    0    0  501 -0.00000000000E+00  0.00000000000E+00  0.57202103332E+02  0.57202103332E+02  0.00000000000E+00 0.  1.
          2   -1    0    0  501    0  0.00000000000E+00 -0.00000000000E+00 -0.26977963402E+03  0.26977963402E+03  0.00000000000E+00 0. -1.
         25    2    1    2    0    0 -0.30541799350E+02  0.60068243568E+02 -0.12754599311E+03  0.19093458297E+03  0.12508812582E+03 0.  0.
          5    1    3    3  502    0  0.31125333605E+02  0.40182102564E+02 -0.37396900120E+01  0.51135559446E+02  0.41800000000E+01 0. -1.
         -5    1    3    3    0  502 -0.61667132956E+02  0.19886141005E+02 -0.12380630310E+03  0.13979902352E+03  0.41800000000E+01 0. -1.
        -11    1    1    2    0    0 -0.16697094448E+02 -0.46328379128E+02 -0.17012082142E+02  0.52101080741E+02  0.00000000000E+00 0.  1.
         11    1    1    2    0    0  0.47238893798E+02 -0.13739864441E+02 -0.68019455442E+02  0.83946073647E+02  0.00000000000E+00 0. -1.
</event>
<event>
 7    1  0.2723366E-009  0.1033140E+03  0.7561462E-02  0.1273477E+00
         -1   -1    0    0    0  501 -0.00000000000E+00  0.00000000000E+00  0.23247791268E+03  0.23247791268E+03  0.00000000000E+00 0.  1.
          1   -1    0    0  501    0  0.00000000000E+00 -0.00000000000E+00 -0.84229757542E+02  0.84229757542E+02  0.00000000000E+00 0. -1.
         25    2    1    2    0    0 -0.26855790768E+02  0.45357960900E+02  0.13973544108E+01  0.13575031234E+03  0.12509043363E+03 0.  0.
          5    1    3    3  502    0 -0.72671924187E+02  0.22140041178E+02 -0.21931891621E+02  0.79182512328E+02  0.41800000000E+01 0.  1.
         -5    1    3    3    0  502  0.45816133419E+02  0.23217919722E+02  0.23329246032E+02  0.56567800011E+02  0.41800000000E+01 0.  1.
        -11    1    1    2    0    0  0.21869846870E+02  0.95588951922E+01  0.11463560424E+03  0.11709391291E+03  0.00000000000E+00 0.  1.
         11    1    1    2    0    0  0.49859438977E+01 -0.54916856092E+02  0.32215196481E+02  0.63863444973E+02  0.00000000000E+00 0. -1.
</event>
<event>
 7    1  0.2723366E-009  0.1037981E+03  0.7561462E-02  0.1272506E+00
         -1   -1    0    0    0  501 -0.00000000000E+00  0.00000000000E+00  0.63680620558E+02  0.63680620558E+02  0.00000000000E+00 0.  1.
          1   -1    0    0  501    0  0.00000000000E+00 -0.00000000000E+00 -0.40484850987E+03  0.40484850987E+03  0.00000000000E+00 0. -1.
         25    2    1    2    0    0 -0.53727219235E+02 -0.50354777922E+02 -0.31853749677E+03  0.35004842731E+03  0.12508216047E+03 0.  0.
          5    1    3    3  502    0  0.20274820389E+02 -0.36929217710E+02 -0.22972675773E+03  0.23359514353E+03  0.41800000000E+01 0.  1.
         -5    1    3    3    0  502 -0.74002039623E+02 -0.13425560212E+02 -0.88810739040E+02  0.11645328378E+03  0.41800000000E+01 0.  1.
        -11    1    1    2    0    0 -0.19806810790E+01  0.30845636604E+02  0.27246737320E+02  0.41203896535E+02  0.00000000000E+00 0.  1.
         11    1    1    2    0    0  0.55707900314E+02  0.19509141318E+02 -0.49877129865E+02  0.77276806584E+02  0.00000000000E+00 0. -1.
</event>
<event>
 7    1  0.2723366E-009  0.1794540E+03  0.7561462E-02  0.1168333E+00
          1   -1    0    0  501    0  0.00000000000E+00  0.00000000000E+00  0.92293893940E+03  0.92293893940E+03  0.00000000000E+00 0. -1.
         -1   -1    0    0    0  501 -0.00000000000E+00 -0.00000000000E+00 -0.56202585510E+02  0.56202585510E+02  0.00000000000E+00 0.  1.
         25    2    1    2    0    0  0.11955725587E+03 -0.89966079355E+02  0.73349098621E+03  0.75897570037E+03  0.12508898446E+03 0.  0.
          5    1    3    3  502    0  0.66571920190E+02 -0.11612728552E+03  0.55420917161E+03  0.57016019266E+03  0.41800000000E+01 0. -1.
         -5    1    3    3    0  502  0.52985335675E+02  0.26161206161E+02  0.17928181460E+03  0.18881550770E+03  0.41800000000E+01 0. -1.
        -11    1    1    2    0    0 -0.10843461520E+03  0.41635156560E+02  0.12365477588E+03  0.16965275014E+03  0.00000000000E+00 0. -1.
         11    1    1    2    0    0 -0.11122640670E+02  0.48330922796E+02  0.95905918022E+01  0.50513074395E+02  0.00000000000E+00 0.  1.
</event>
<event>
 7    1  0.2723366E-009  0.1126676E+03  0.7561462E-02  0.1255708E+00
          1   -1    0    0  501    0  0.00000000000E+00  0.00000000000E+00  0.70171188708E+02  0.70171188708E+02  0.00000000000E+00 0.  1.
         -1   -1    0    0    0  501 -0.00000000000E+00 -0.00000000000E+00 -0.19536435216E+03  0.19536435216E+03  0.00000000000E+00 0. -1.
         25    2    1    2    0    0  0.42907710827E+02 -0.65868699019E+01 -0.48824833466E+02  0.14112390214E+03  0.12509049880E+03 0.  0.
          5    1    3    3  502    0  0.53380606622E+02 -0.58416772607E+02 -0.26254835287E+02  0.83479322356E+02  0.41800000000E+01 0.  1.
         -5    1    3    3    0  502 -0.10472895795E+02  0.51829902705E+02 -0.22569998179E+02  0.57644579785E+02  0.41800000000E+01 0.  1.
        -11    1    1    2    0    0 -0.45598556317E+02 -0.31146344964E+02 -0.64182625820E+02  0.84668368356E+02  0.00000000000E+00 0. -1.
         11    1    1    2    0    0  0.26908454901E+01  0.37733214866E+02 -0.12185704163E+02  0.39743270368E+02  0.00000000000E+00 0.  1.
</event>
<event>
 7    1  0.2723366E-009  0.9879366E+02  0.7561462E-02  0.1282853E+00
         -2   -1    0    0    0  501 -0.00000000000E+00  0.00000000000E+00  0.60614173688E+02  0.60614173688E+02  0.00000000000E+00 0. -1.
          2   -1    0    0  501    0  0.00000000000E+00 -0.00000000000E+00 -0.49862298099E+03  0.49862298099E+03  0.00000000000E+00 0.  1.
         25    2    1    2    0    0  0.88267805642E+02 -0.17624001918E+02 -0.39656598259E+03  0.42545758779E+03  0.12509104487E+03 0.  0.
          5    1    3    3  502    0  0.72844525636E+02  0.11017968913E+02 -0.86659118364E+02  0.11382001471E+03  0.41800000000E+01 0. -1.
         -5    1    3    3    0  502  0.15423280006E+02 -0.28641970831E+02 -0.30990686422E+03  0.31163757307E+03  0.41800000000E+01 0. -1.
        -11    1    1    2    0    0 -0.41632246113E+02  0.15201170838E+01  0.26825121922E+02  0.49549387872E+02  0.00000000000E+00 0. -1.
         11    1    1    2    0    0 -0.46635559529E+02  0.16103884835E+02 -0.68267946640E+02  0.84230179020E+02  0.00000000000E+00 0.  1.
</event>
<event>
 7    1  0.2723366E-009  0.1083659E+03  0.7561462E-02  0.1263626E+00
         -2   -1    0    0    0  501 -0.00000000000E+00  0.00000000000E+00  0.24722209142E+02  0.24722209142E+02  0.00000000000E+00 0.  1.
          2   -1    0    0  501    0  0.00000000000E+00 -0.00000000000E+00 -0.58642589404E+03  0.58642589404E+03  0.00000000000E+00 0. -1.
         25    2    1    2    0    0  0.34465163409E+02  0.16127782831E+02 -0.40280416597E+03  0.42349041936E+03  0.12507991966E+03 0.  0.
          5    1    3    3  502    0 -0.46701685131E+02  0.17330743753E+01 -0.17551133522E+03  0.18167485277E+03  0.41800000000E+01 0. -1.
         -5    1    3    3    0  502  0.81166848540E+02  0.14394708455E+02 -0.22729283075E+03  0.24181556659E+03  0.41800000000E+01 0. -1.
        -11    1    1    2    0    0 -0.59918979217E+02 -0.74533869974E+01 -0.14567015826E+03  0.15768840178E+03  0.00000000000E+00 0.  1.
         11    1    1    2    0    0  0.25453815808E+02 -0.86743958332E+01 -0.13229360668E+02  0.29969282039E+02  0.00000000000E+00 0. -1.
</event>
<event>
 7    1  0.2723366E-009  0.1790637E+03  0.7561462E-02  0.1168712E+00
          2   -1    0    0  501    0  0.00000000000E+00  0.00000000000E+00  0.67524750738E+03  0.67524750738E+03  0.00000000000E+00 0.  1.
         -2   -1    0    0    0  501 -0.00000000000E+00 -0.00000000000E+00 -0.70851713248E+02  0.70851713248E+02  0.00000000000E+00 0. -1.
         25    2    1    2    0    0  0.11973796832E+03  0.97268286791E+02  0.50288518126E+03  0.54068424051E+03  0.12509053417E+03 0.  0.
          5    1    3    3  502    0  0.10579010151E+03  0.11718570836E+03  0.48539677248E+03  0.51044248938E+03  0.41800000000E+01 0. -1.
         -5    1    3    3    0  502  0.13947866809E+02 -0.19917421569E+02  0.17488408771E+02  0.30241751137E+02  0.41800000000E+01 0. -1.
        -11    1    1    2    0    0 -0.32760893579E+02 -0.80549674089E+02  0.69217283018E+02  0.11114206410E+03  0.00000000000E+00 0.  1.
         11    1    1    2    0    0 -0.86977074738E+02 -0.16718612702E+02  0.32293329857E+02  0.94272916015E+02  0.00000000000E+00 0. -1.
</event>
<event>
 7    1  0.2723366E-009  0.1324337E+03  0.7561462E-02  0.1223889E+00
         -3   -1    0    0    0  501 -0.00000000000E+00  0.00000000000E+00  0.52666610201E+02  0.52666610201E+02  0.00000000000E+00 0.  1.
          3   -1    0    0  501    0  0.00000000000E+00 -0.00000000000E+00 -0.54833642959E+03  0.54833642959E+03  0.00000000000E+00 0. -1.
         25    2    1    2    0    0 -0.91995831876E+02  0.61587605656E+02 -0.14173419928E+03  0.21907351836E+03  0.12509339291E+03 0.  0.
          5    1    3    3  502    0 -0.97588827990E+02  0.57873235399E+02 -0.45178343575E+02  0.12219429550E+03  0.41800000000E+01 0.  1.
         -5    1    3    3    0  502  0.55929961140E+01  0.37143702573E+01 -0.96555855702E+02  0.96879222861E+02  0.41800000000E+01 0.  1.
        -11    1    1    2    0    0  0.45436618240E+02  0.19875195953E+02 -0.11557350742E+03  0.12576464252E+03  0.00000000000E+00 0.  1.
         11    1    1    2    0    0  0.46559213636E+02 -0.81462801609E+02 -0.23836211270E+03  0.25616487892E+03  0.00000000000E+00 0. -1.
</event>
<event>
 7    1  0.2723366E-009  0.1040507E+03  0.7561462E-02  0.1272001E+00
          2   -1    0    0  501    0  0.00000000000E+00  0.00000000000E+00  0.60147931274E+02  0.60147931274E+02  0.00000000000E+00 0. -1.
         -2   -1    0    0    0  501 -0.00000000000E+00 -0.00000000000E+00 -0.19720744125E+03  0.19720744125E+03  0.00000000000E+00 0.  1.
         25    2    1    2    0    0  0.71181121006E+01  0.68546426414E+01 -0.69920887738E+02  0.14364765991E+03  0.12509223001E+03 0.  0.
          5    1    3    3  502    0 -0.34770733998E+02  0.46704029528E+02 -0.81572290376E+01  0.58943049654E+02  0.41800000000E+01 0. -1.
         -5    1    3    3    0  502  0.41888846099E+02 -0.39849386886E+02 -0.61763658701E+02  0.84704610257E+02  0.41800000000E+01 0. -1.
        -11    1    1    2    0    0  0.30394650968E+02  0.27427983654E+02 -0.29053298793E+02  0.50201825320E+02  0.00000000000E+00 0.  1.
         11    1    1    2    0    0 -0.37512763068E+02 -0.34282626296E+02 -0.38085323441E+02  0.63505887289E+02  0.00000000000E+00 0. -1.
</event>
<event>
 7    1  0.2723366E-009  0.1182700E+03  0.7561462E-02  0.1245979E+00
         -1   -1    0    0    0  501 -0.00000000000E+00  0.00000000000E+00  0.74289274026E+03  0.74289274026E+03  0.00000000000E+00 0.  1.
          1   -1    0    0  501    0  0.00000000000E+00 -0.00000000000E+00 -0.23475686317E+02  0.23475686317E+02  0.00000000000E+00 0. -1.
         25    2    1    2    0    0  0.23032122863E+02 -0.94889082187E+02  0.39545963623E+03  0.42611027378E+03  0.12508886815E+03 0.  0.
          5    1    3    3  502    0 -0.21219346222E+02  0.58294469407E+01  0.87701546567E+01  0.24054752512E+02  0.41800000000E+01 0.  1.
         -5    1    3    3    0  502  0.44251469086E+02 -0.10071852913E+03  0.38668948157E+03  0.40205552127E+03  0.41800000000E+01 0.  1.
        -11    1    1    2    0    0  0.98299665882E+01  0.21903513054E+02  0.75864020555E+02  0.79572242283E+02  0.00000000000E+00 0.  1.
         11    1    1    2    0    0 -0.32862089452E+02  0.72985569133E+02  0.24809339716E+03  0.26068591051E+03  0.00000000000E+00 0. -1.
</event>
<event>
 7    1  0.2723366E-009  0.1140371E+03  0.7561462E-02  0.1253271E+00
         -2   -1    0    0    0  501 -0.00000000000E+00  0.00000000000E+00  0.13649178208E+02  0.13649178208E+02  0.00000000000E+00 0.  1.
          2   -1    0    0  501    0  0.00000000000E+00 -0.00000000000E+00 -0.11377519631E+04  0.11377519631E+04  0.00000000000E+00 0. -1.
         25    2    1    2    0    0  0.38236674966E+01 -0.54716446641E+02 -0.79498815627E+03  0.80663730539E+03  0.12509621851E+03 0.  0.
          5    1    3    3  502    0  0.52883131517E+02  0.54424314662E+01 -0.44106471823E+03  0.44427671977E+03  0.41800000000E+01 0. -1.
         -5    1    3    3    0  502 -0.49059464020E+02 -0.60158878108E+02 -0.35392343803E+03  0.36236058563E+03  0.41800000000E+01 0. -1.
        -11    1    1    2    0    0 -0.27210470575E+02 -0.93774679671E+01 -0.52630702226E+02  0.59986143660E+02  0.00000000000E+00 0.  1.
         11    1    1    2    0    0  0.23386803078E+02  0.64093914608E+02 -0.27648392643E+03  0.28477769228E+03  0.00000000000E+00 0. -1.
</event>
<event>
 7    1  0.2723366E-009  0.1400335E+03  0.7561462E-02  0.1213284E+00
         -2   -1    0    0    0  501 -0.00000000000E+00  0.00000000000E+00  0.36352021438E+02  0.36352021438E+02  0.00000000000E+00 0.  1.
          2   -1    0    0  501    0  0.00000000000E+00 -0.00000000000E+00 -0.71035660784E+03  0.71035660784E+03  0.00000000000E+00 0. -1.
         25    2    1    2    0    0  0.10671125944E+03 -0.39181714218E+02 -0.28531155524E+03  0.33162120297E+03  0.12508972415E+03 0.  0.
          5    1    3    3  502    0  0.23846809247E+02 -0.58289676448E+02 -0.47401334948E+02  0.78934882318E+02  0.41800000000E+01 0.  1.
         -5    1    3    3    0  502  0.82864450192E+02  0.19107962230E+02 -0.23791022029E+03  0.25268632065E+03  0.41800000000E+01 0.  1.
        -11    1    1    2    0    0 -0.30359475644E+02  0.46039752171E+02 -0.81020576414E+02  0.98008623824E+02  0.00000000000E+00 0.  1.
         11    1    1    2    0    0 -0.76351783795E+02 -0.68580379523E+01 -0.30767245475E+03  0.31707880248E+03  0.00000000000E+00 0. -1.
</event>
<event>
 7    1  0.2723366E-009  0.2210105E+03  0.7561462E-02  0.1133132E+00
          1   -1    0    0  501    0  0.00000000000E+00  0.00000000000E+00  0.58034628644E+03  0.58034628644E+03  0.00000000000E+00 0. -1.
         -1   -1    0    0    0  501 -0.00000000000E+00 -0.00000000000E+00 -0.96718937631E+02  0.96718937631E+02  0.00000000000E+00 0.  1.
         25    2    1    2    0    0  0.14187010836E+03 -0.15131799391E+03  0.29963539152E+03  0.38529507264E+03  0.12508661889E+03 0.  0.
          5    1    3    3  502    0  0.73893661910E+02 -0.22564351898E+02  0.38828372501E+02  0.86571000676E+02  0.41800000000E+01 0.  1.
         -5    1    3    3    0  502  0.67976446453E+02 -0.12875364201E+03  0.26080701902E+03  0.29872407197E+03  0.41800000000E+01 0.  1.
        -11    1    1    2    0    0 -0.71875145597E+02  0.12503768489E+03  0.83951876052E+02  0.16687832900E+03  0.00000000000E+00 0.  1.
         11    1    1    2    0    0 -0.69994962766E+02  0.26280309013E+02  0.10004008124E+03  0.12489182242E+03  0.00000000000E+00 0. -1.
</event>
<event>
 7    1  0.2723366E-009  0.1055732E+03  0.7561462E-02  0.1268994E+00
          4   -1    0    0  501    0  0.00000000000E+00  0.00000000000E+00  0.21619565004E+03  0.21619565004E+03  0.00000000000E+00 0. -1.
         -4   -1    0    0    0  501 -0.00000000000E+00 -0.00000000000E+00 -0.11131059555E+03  0.11131059555E+03  0.00000000000E+00 0.  1.
         25    2    1    2    0    0 -0.73872870504E+02  0.36063654778E+02 -0.21673232107E+02  0.15124357502E+03  0.12508837597E+03 0.  0.
          5    1    3    3  502    0 -0.16775587552E+02 -0.13366102017E+02  0.45250059971E+02  0.50250505950E+02  0.41800000000E+01 0.  1.
         -5    1    3    3    0  502 -0.57097282952E+02  0.49429756795E+02 -0.66923292078E+02  0.10099306907E+03  0.41800000000E+01 0.  1.
        -11    1    1    2    0    0  0.43297752317E+02 -0.60583086682E+02  0.48353048417E+02  0.88786389942E+02  0.00000000000E+00 0.  1.
         11    1    1    2    0    0  0.30575118187E+02  0.24519431904E+02  0.78205238179E+02  0.87476280623E+02  0.00000000000E+00 0. -1.
</event>
<event>
 7    1  0.2723366E-009  0.1379756E+03  0.7561462E-02  0.1216079E+00
         -2   -1    0    0    0  501 -0.00000000000E+00  0.00000000000E+00  0.77433760042E+02  0.77433760042E+02  0.00000000000E+00 0. -1.
          2   -1    0    0  501    0  0.00000000000E+00 -0.00000000000E+00 -0.27643793340E+03  0.27643793340E+03  0.00000000000E+00 0.  1.
         25    2    1    2    0    0  0.80828697628E+02 -0.51151273056E+02 -0.85908233187E+02  0.17938099073E+03  0.12509030422E+03 0.  0.
          5    1    3    3  502    0 -0.21678540542E+02 -0.41410773025E+02 -0.28365888505E+01  0.47014145519E+02  0.41800000000E+01 0.  1.
         -5    1    3    3    0  502  0.10250723817E+03 -0.97405000304E+01 -0.83071644337E+02  0.13236684521E+03  0.41800000000E+01 0.  1.
        -11    1    1    2    0    0 -0.23666852334E+02 -0.22555999407E+02 -0.56818096033E+02  0.65552948412E+02  0.00000000000E+00 0.  1.
         11    1    1    2    0    0 -0.57161845293E+02  0.73707272463E+02 -0.56277844133E+02  0.10893775430E+03  0.00000000000E+00 0. -1.
</event>
<event>
 7    1  0.2723366E-009  0.1264527E+03  0.7561462E-02  0.1232816E+00
          1   -1    0    0  501    0  0.00000000000E+00  0.00000000000E+00  0.25161170948E+03  0.25161170948E+03  0.00000000000E+00 0.  1.
         -1   -1    0    0    0  501 -0.00000000000E+00 -0.00000000000E+00 -0.12357977699E+03  0.12357977699E+03  0.00000000000E+00 0. -1.
         25    2    1    2    0    0  0.33527428349E+02  0.10760147394E+03 -0.18778913264E+02  0.16941338261E+03  0.12508429549E+03 0.  0.
          5    1    3    3  502    0  0.59244382515E+02  0.81601451716E+02  0.32733210925E+02  0.10610197585E+03  0.41800000000E+01 0. -1.
         -5    1    3    3    0  502 -0.25716954165E+02  0.26000022228E+02 -0.51512124190E+02  0.63311406760E+02  0.41800000000E+01 0. -1.
        -11    1    1    2    0    0 -0.21886546708E+02 -0.32562968362E+02 -0.13857911419E+01  0.39259244166E+02  0.00000000000E+00 0. -1.
         11    1    1    2    0    0 -0.11640881641E+02 -0.75038505582E+02  0.14819663689E+03  0.16651885969E+03  0.00000000000E+00 0.  1.
</event>
<event>
 7    1  0.2723366E-009  0.1002081E+03  0.7561462E-02  0.1279859E+00
          1   -1    0    0  501    0  0.00000000000E+00  0.00000000000E+00  0.51734382562E+02  0.51734382562E+02  0.00000000000E+00 0. -1.
         -1   -1    0    0    0  501 -0.00000000000E+00 -0.00000000000E+00 -0.25299604963E+03  0.25299604963E+03  0.00000000000E+00 0.  1.
         25    2    1    2    0    0 -0.16750081449E+02  0.32440082598E+02 -0.12768873815E+03  0.18244191850E+03  0.12509082936E+03 0.  0.
          5    1    3    3  502    0 -0.99106378204E+01  0.66722703152E+02 -0.13066548557E+03  0.14710907986E+03  0.41800000000E+01 0. -1.
         -5    1    3    3    0  502 -0.68394436288E+01 -0.34282620554E+02  0.29767474226E+01  0.35332838641E+02  0.41800000000E+01 0. -1.
        -11    1    1    2    0    0  0.12118323499E+02  0.31379132409E+02 -0.23400681028E+02  0.40976768879E+02  0.00000000000E+00 0.  1.
         11    1    1    2    0    0  0.46317579501E+01 -0.63819215007E+02 -0.50172247894E+02  0.81311744814E+02  0.00000000000E+00 0. -1.
</event>
<event>
 7    1  0.2723366E-009  0.1065857E+03  0.7561462E-02  0.1267026E+00
         -2   -1    0    0    0  501 -0.00000000000E+00  0.00000000000E+00  0.10006166742E+04  0.10006166742E+04  0.00000000000E+00 0. -1.
          2   -1    0    0  501    0  0.00000000000E+00 -0.00000000000E+00 -0.11857074052E+02  0.11857074052E+02  0.00000000000E+00 0.  1.
         25    2    1    2    0    0 -0.11773385470E+02 -0.69186160260E+01  0.62966799232E+03  0.64211834422E+03  0.12509079732E+03 0.  0.
          5    1    3    3  502    0  0.55872429053E+02  0.73796631771E+01  0.27350872668E+03  0.27928602494E+03  0.41800000000E+01 0. -1.
         -5    1    3    3    0  502 -0.67645814523E+02 -0.14298279203E+02  0.35615926564E+03  0.36283231927E+03  0.41800000000E+01 0. -1.
        -11    1    1    2    0    0 -0.15487613944E+02 -0.34494584164E+02  0.20580942459E+03  0.20925406035E+03  0.00000000000E+00 0.  1.
         11    1    1    2    0    0  0.27260999414E+02  0.41413200190E+02  0.15328218321E+03  0.16110134366E+03  0.00000000000E+00 0. -1.
</event>
<event>
 7    1  0.2723366E-009  0.1527022E+03  0.7561462E-02  0.1197191E+00
          3   -1    0    0  501    0  0.00000000000E+00  0.00000000000E+00  0.47740662096E+02  0.47740662096E+02  0.00000000000E+00 0. -1.
         -3   -1    0    0    0  501 -0.00000000000E+00 -0.00000000000E+00 -0.48858098355E+03  0.48858098355E+03  0.00000000000E+00 0.  1.
         25    2    1    2    0    0 -0.99273984939E+02  0.39831385420E+02 -0.23947452751E+03  0.29058102950E+03  0.12508965597E+03 0.  0.
          5    1    3    3  502    0 -0.11046594393E+03 -0.12153103642E+02 -0.15892442144E+03  0.19397130413E+03  0.41800000000E+01 0.  1.
         -5    1    3    3    0  502  0.11191958987E+02  0.51984489062E+02 -0.80550106066E+02  0.96609725371E+02  0.41800000000E+01 0.  1.
        -11    1    1    2    0    0  0.79666193475E+02  0.16369538693E+02 -0.11686958753E+03  0.14238386380E+03  0.00000000000E+00 0.  1.
         11    1    1    2    0    0  0.19607791464E+02 -0.56200924113E+02 -0.84496206409E+02  0.10335675234E+03  0.00000000000E+00 0. -1.
</event>
<event>
 7    1  0.2723366E-009  0.8670426E+02  0.7561462E-02  0.1311035E+00
          1   -1    0    0  501    0  0.00000000000E+00  0.00000000000E+00  0.45446839394E+03  0.45446839394E+03  0.00000000000E+00 0. -1.
         -1   -1    0    0    0  501 -0.00000000000E+00 -0.00000000000E+00 -0.43906017636E+02  0.43906017636E+02  0.00000000000E+00 0.  1.
         25    2    1    2    0    0  0.18637707750E+02 -0.46006356584E+02  0.93223189916E+02  0.16371700297E+03  0.12509494365E+03 0.  0.
          5    1    3    3  502    0  0.24717787354E+02  0.36812847349E+01  0.10833666756E+03  0.11126017620E+03  0.41800000000E+01 0. -1.
         -5    1    3    3    0  502 -0.60800796046E+01 -0.49687641319E+02 -0.15113477648E+02  0.52456826767E+02  0.41800000000E+01 0. -1.
        -11    1    1    2    0    0 -0.51086351016E+01  0.70057380171E+02  0.27710444558E+03  0.28586886579E+03  0.00000000000E+00 0. -1.
         11    1    1    2    0    0 -0.13529072648E+02 -0.24051023587E+02  0.40234740804E+02  0.48788542814E+02  0.00000000000E+00 0.  1.
</event>
<event>
 7    1  0.2723366E-009  0.1802973E+03  0.7561462E-02  0.1167516E+00
         -3   -1    0    0    0  501 -0.00000000000E+00  0.00000000000E+00  0.49754213370E+03  0.49754213370E+03  0.00000000000E+00 0.  1.
          3   -1    0    0  501    0  0.00000000000E+00 -0.00000000000E+00 -0.88288262301E+02  0.88288262301E+02  0.00000000000E+00 0. -1.
         25    2    1    2    0    0 -0.56167112405E+02 -0.15288920251E+03  0.10772995428E+03  0.23191174133E+03  0.12508980757E+03 0.  0.
          5    1    3    3  502    0 -0.66076733309E+02 -0.27754393998E+02  0.94019893125E+01  0.72403804279E+02  0.41800000000E+01 0. -1.
         -5    1    3    3    0  502  0.99096209042E+01 -0.12513480851E+03  0.98327964966E+02  0.15950793705E+03  0.41800000000E+01 0. -1.
        -11    1    1    2    0    0  0.34438645646E+02  0.78775903218E+02  0.73298496486E+02  0.11297934691E+03  0.00000000000E+00 0. -1.
         11    1    1    2    0    0  0.21728466759E+02  0.74113299291E+02  0.22822542063E+03  0.24093930776E+03  0.00000000000E+00 0.  1.
</event>
<event>
 7    1  0.2723366E-009  0.1324231E+03  0.7561462E-02  0.1223904E+00
          1   -1    0    0  501    0  0.00000000000E+00  0.00000000000E+00  0.25232719005E+03  0.25232719005E+03  0.00000000000E+00 0. -1.
         -1   -1    0    0    0  501 -0.00000000000E+00 -0.00000000000E+00 -0.10251859783E+03  0.10251859783E+03  0.00000000000E+00 0.  1.
         25    2    1    2    0    0 -0.10972851722E+03 -0.19356412039E+02  0.30445805073E+02  0.17025126136E+03  0.12507408513E+03 0.  0.
          5    1    3    3  502    0 -0.56337882634E+02 -0.59570025296E+02 -0.22221049706E+02  0.85051704178E+02  0.41800000000E+01 0. -1.
         -5    1    3    3    0  502 -0.53390634584E+02  0.40213613257E+02  0.52666854779E+02  0.85199557187E+02  0.41800000000E+01 0. -1.
        -11    1    1    2    0    0  0.27733896422E+02 -0.87782981317E+01 -0.83278828154E+01  0.30258571695E+02  0.00000000000E+00 0.  1.
         11    1    1    2    0    0  0.81994620796E+02  0.28134710170E+02  0.12769066996E+03  0.15433595483E+03  0.00000000000E+00 0. -1.
</event>
<event>
 7    1  0.2723366E-009  0.2368046E+03  0.7561462E-02  0.1121940E+00
         -2   -1    0    0    0  501 -0.00000000000E+00  0.00000000000E+00  0.46762785123E+02  0.46762785123E+02  0.00000000000E+00 0. -1.
          2   -1    0    0  501    0  0.00000000000E+00 -0.00000000000E+00 -0.12245322702E+04  0.12245322702E+04  0.00000000000E+00 0.  1.
         25    2    1    2    0    0 -0.15213015950E+03 -0.14491042250E+03 -0.54693956541E+03  0.59910959323E+03  0.12508717162E+03 0.  0.
          5    1    3    3  502    0 -0.17159955488E+03 -0.11726826359E+03 -0.49627372255E+03  0.53805513935E+03  0.41800000000E+01 0. -1.
         -5    1    3    3    0  502  0.19469395381E+02 -0.27642158914E+02 -0.50665842858E+02  0.61054453879E+02  0.41800000000E+01 0. -1.
        -11    1    1    2    0    0  0.77570967034E+01 -0.14587740852E+02 -0.34942937303E+02  0.38652084029E+02  0.00000000000E+00 0.  1.
         11    1    1    2    0    0  0.14437306280E+03  0.15949816335E+03 -0.59588698236E+03  0.63353337806E+03  0.00000000000E+00 0. -1.
</event>
<event>
 7    1  0.2723366E-009  0.8730731E+02  0.7561462E-02  0.1309507E+00
          1   -1    0    0  501    0  0.00000000000E+00  0.00000000000E+00  0.61052627697E+02  0.61052627697E+02  0.00000000000E+00 0. -1.
         -1   -1    0    0    0  501 -0.00000000000E+00 -0.00000000000E+00 -0.35261259915E+03  0.35261259915E+03  0.00000000000E+00 0.  1.
         25    2    1    2    0    0 -0.44002377954E+02  0.27754455597E+02 -0.40177890462E+02  0.14130645180E+03  0.12508689526E+03 0.  0.
          5    1    3    3  502    0 -0.73665580005E+02  0.25917162653E+02 -0.65522235173E+02  0.10202427505E+03  0.41800000000E+01 0.  1.
         -5    1    3    3    0  502  0.29663202051E+02  0.18372929439E+01  0.25344344711E+02  0.39282176749E+02  0.41800000000E+01 0.  1.
        -11    1    1    2    0    0 -0.57642346589E+01 -0.13424817145E+02  0.10702830400E+01  0.14649150910E+02  0.00000000000E+00 0. -1.
         11    1    1    2    0    0  0.49766612613E+02 -0.14329638452E+02 -0.25245236403E+03  0.25770962414E+03  0.00000000000E+00 0.  1.
</event>
<event>
 7    1  0.2723366E-009  0.1491593E+03  0.7561462E-02  0.1201510E+00
          1   -1    0    0  501    0  0.00000000000E+00  0.00000000000E+00  0.76832223914E+03  0.76832223914E+03  0.00000000000E+00 0. -1.
         -1   -1    0    0    0  501 -0.00000000000E+00 -0.00000000000E+00 -0.46299645763E+02  0.46299645763E+02  0.00000000000E+00 0.  1.
         25    2    1    2    0    0  0.63580244636E+02 -0.10516897334E+03  0.58464652130E+03  0.61037912273E+03  0.12509259828E+03 0.  0.
          5    1    3    3  502    0  0.60931893512E+02 -0.11751740700E+02  0.10790618743E+03  0.12454724703E+03  0.41800000000E+01 0. -1.
         -5    1    3    3    0  502  0.26483511237E+01 -0.93417232641E+02  0.47674033387E+03  0.48583187571E+03  0.41800000000E+01 0. -1.
        -11    1    1    2    0    0 -0.30248834517E+02  0.10497149845E+03  0.71929473165E+02  0.13079700527E+03  0.00000000000E+00 0.  1.
         11    1    1    2    0    0 -0.33331410119E+02  0.19747488695E+00  0.65446598921E+02  0.73445756904E+02  0.00000000000E+00 0. -1.
</event>
<event>
 7    1  0.2723366E-009  0.1342898E+03  0.7561462E-02  0.1221226E+00
          2   -1    0    0  501    0  0.00000000000E+00  0.00000000000E+00  0.89570268178E+03  0.89570268178E+03  0.00000000000E+00 0. -1.
         -2   -1    0    0    0  501 -0.00000000000E+00 -0.00000000000E+00 -0.21473897608E+02  0.21473897608E+02  0.00000000000E+00 0.  1.
         25    2    1    2    0    0  0.24081700911E+02 -0.83623483732E+02  0.47979388115E+03  0.50341130120E+03  0.12509178406E+03 0.  0.
          5    1    3    3  502    0 -0.47465917457E+02 -0.10537262034E+02  0.18600921240E+03  0.19230430756E+03  0.41800000000E+01 0.  1.
         -5    1    3    3    0  502  0.71547618368E+02 -0.73086221697E+02  0.29378466875E+03  0.31110699364E+03  0.41800000000E+01 0.  1.
        -11    1    1    2    0    0 -0.52830049216E+02  0.45882645059E+02  0.16084649805E+03  0.17540760290E+03  0.00000000000E+00 0.  1.
         11    1    1    2    0    0  0.28748348305E+02  0.37740838673E+02  0.23358840496E+03  0.23835767529E+03  0.00000000000E+00 0. -1.
</event>
<event>
 7    1  0.2723366E-009  0.1709464E+03  0.7561462E-02  0.1176864E+00
          1   -1    0    0  501    0  0.00000000000E+00  0.00000000000E+00  0.44773578448E+02  0.44773578448E+02  0.00000000000E+00 0. -1.
         -1   -1    0    0    0  501 -0.00000000000E+00 -0.00000000000E+00 -0.66636202618E+03  0.66636202618E+03  0.00000000000E+00 0.  1.
         25    2    1    2    0    0 -0.53541787394E+02 -0.12143272816E+03 -0.29254512348E+03  0.34473562867E+03  0.12508946373E+03 0.  0.
          5    1    3    3  502    0 -0.92405751015E+02 -0.62825443900E+02 -0.18522685730E+03  0.21636154993E+03  0.41800000000E+01 0. -1.
         -5    1    3    3    0  502  0.38863963621E+02 -0.58607284255E+02 -0.10731826618E+03  0.12837407874E+03  0.41800000000E+01 0. -1.
        -11    1    1    2    0    0  0.29992687102E+01 -0.14393650555E+02 -0.17930127976E+02  0.23187545760E+02  0.00000000000E+00 0. -1.
         11    1    1    2    0    0  0.50542518684E+02  0.13582637871E+03 -0.31111319628E+03  0.34321243020E+03  0.00000000000E+00 0.  1.
</event>
<event>
 7    1  0.2723366E-009  0.1535915E+03  0.7561462E-02  0.1196128E+00
          2   -1    0    0  501    0  0.00000000000E+00  0.00000000000E+00  0.13887143495E+02  0.13887143495E+02  0.00000000000E+00 0. -1.
         -2   -1    0    0    0  501 -0.00000000000E+00 -0.00000000000E+00 -0.21451916205E+04  0.21451916205E+04  0.00000000000E+00 0.  1.
         25    2    1    2    0    0  0.10600920930E+03  0.24229707526E+02 -0.16128408424E+04  0.16213352394E+04  0.12508934573E+03 0.  0.
          5    1    3    3  502    0  0.25859095520E+02  0.69000722235E+02 -0.70059501930E+03  0.70447189153E+03  0.41800000000E+01 0.  1.
         -5    1    3    3    0  502  0.80150113782E+02 -0.44771014708E+02 -0.91224582313E+03  0.91686334790E+03  0.41800000000E+01 0.  1.
        -11    1    1    2    0    0 -0.62637352249E+02  0.32099472979E+02 -0.22279479514E+03  0.23364788637E+03  0.00000000000E+00 0.  1.
         11    1    1    2    0    0 -0.43371857053E+02 -0.56329180505E+02 -0.29566883945E+03  0.30409563822E+03  0.00000000000E+00 0. -1.
</event>
<event>
 7    1  0.2723366E-009  0.2050020E+03  0.7561462E-02  0.1145586E+00
          2   -1    0    0  501    0  0.00000000000E+00  0.00000000000E+00  0.38260128615E+03  0.38260128615E+03  0.00000000000E+00 0. -1.
         -2   -1    0    0    0  501 -0.00000000000E+00 -0.00000000000E+00 -0.12556254442E+03  0.12556254442E+03  0.00000000000E+00 0.  1.
         25    2    1    2    0    0  0.17598374554E+03 -0.14945607455E+02  0.21533851736E+03  0.30531103001E+03  0.12510195089E+03 0.  0.
          5    1    3    3  502    0  0.10235782908E+03  0.52439329810E+02  0.13280597041E+03  0.17573248608E+03  0.41800000000E+01 0. -1.
         -5    1    3    3    0  502  0.73625916453E+02 -0.67384937265E+02  0.82532546942E+02  0.12957854394E+03  0.41800000000E+01 0. -1.
        -11    1    1    2    0    0 -0.13074205368E+03  0.47698665843E+02  0.12245760368E+02  0.13970900462E+03  0.00000000000E+00 0.  1.
         11    1    1    2    0    0 -0.45241691854E+02 -0.32753058388E+02  0.29454464012E+02  0.63143795941E+02  0.00000000000E+00 0. -1.
</event>
<event>
 7    1  0.2723366E-009  0.9632049E+02  0.7561462E-02  0.1288229E+00
          1   -1    0    0  501    0  0.00000000000E+00  0.00000000000E+00  0.51069572240E+03  0.51069572240E+03  0.00000000000E+00 0. -1.
         -1   -1    0    0    0  501 -0.00000000000E+00 -0.00000000000E+00 -0.33456451858E+02  0.33456451858E+02  0.00000000000E+00 0.  1.
         25    2    1    2    0    0  0.47280351176E+02  0.12246879413E+02  0.37205365567E+03  0.39554620459E+03  0.12508980615E+03 0.  0.
          5    1    3    3  502    0 -0.40330060197E+02  0.15518199537E+02  0.86112456957E+02  0.96437315990E+02  0.41800000000E+01 0.  1.
         -5    1    3    3    0  502  0.87610411373E+02 -0.32713201237E+01  0.28594119871E+03  0.29910888859E+03  0.41800000000E+01 0.  1.
        -11    1    1    2    0    0 -0.41542232312E+02  0.63218666842E+01  0.38889370835E+00  0.42022307197E+02  0.00000000000E+00 0.  1.
         11    1    1    2    0    0 -0.57381188636E+01 -0.18568746097E+02  0.10479672116E+03  0.10658366247E+03  0.00000000000E+00 0. -1.
</event>
<event>
 7    1  0.2723366E-009  0.1063469E+03  0.7561462E-02  0.1267488E+00
         -1   -1    0    0    0  501 -0.00000000000E+00  0.00000000000E+00  0.34740788737E+02  0.34740788737E+02  0.00000000000E+00 0.  1.
          1   -1    0    0  501    0  0.00000000000E+00 -0.00000000000E+00 -0.43771461883E+03  0.43771461883E+03  0.00000000000E+00 0. -1.
         25    2    1    2    0    0 -0.56789891882E+00  0.70048012168E+02 -0.21018997468E+03  0.25442902946E+03  0.12508900455E+03 0.  0.
          5    1    3    3  502    0 -0.43151643555E+02  0.38053480778E+02 -0.18787002358E+03  0.19652671549E+03  0.41800000000E+01 0.  1.
         -5    1    3    3    0  502  0.42583744636E+02  0.31994531391E+02 -0.22319951096E+02  0.57902313970E+02  0.41800000000E+01 0.  1.
        -11    1    1    2    0    0  0.16201524497E+02  0.10646147576E+02 -0.43115383205E+02  0.47273313012E+02  0.00000000000E+00 0. -1.
         11    1    1    2    0    0 -0.15633625578E+02 -0.80694159744E+02 -0.14966847221E+03  0.17075306510E+03  0.00000000000E+00 0.  1.
</event>
<event>
 7    1  0.2723366E-009  0.2362117E+03  0.7561462E-02  0.1122342E+00
         -3   -1    0    0    0  501 -0.00000000000E+00  0.00000000000E+00  0.24183045646E+03  0.24183045646E+03  0.00000000000E+00 0.  1.
          3   -1    0    0  501    0  0.00000000000E+00 -0.00000000000E+00 -0.27803913840E+03  0.27803913840E+03  0.00000000000E+00 0. -1.
         25    2    1    2    0    0 -0.25297085160E+02 -0.21839628817E+03 -0.10203205181E+03  0.27275413638E+03  0.12508956036E+03 0.  0.
          5    1    3    3  502    0  0.13564500143E+02 -0.17600304501E+03 -0.27786633426E+02  0.17874741093E+03  0.41800000000E+01 0. -1.
         -5    1    3    3    0  502 -0.38861585302E+02 -0.42393243159E+02 -0.74245418388E+02  0.94006725448E+02  0.41800000000E+01 0. -1.
        -11    1    1    2    0    0 -0.26565797650E+02  0.20354471208E+02  0.90892378805E+01  0.34679393711E+02  0.00000000000E+00 0.  1.
         11    1    1    2    0    0  0.51862882809E+02  0.19804181696E+03  0.56734131999E+02  0.21243606477E+03  0.00000000000E+00 0. -1.
</event>
<event>
 7    1  0.2723366E-009  0.2133030E+03  0.7561462E-02  0.1138977E+00
          2   -1    0    0  501    0  0.00000000000E+00  0.00000000000E+00  0.31326026093E+03  0.31326026093E+03  0.00000000000E+00 0. -1.
         -2   -1    0    0    0  501 -0.00000000000E+00 -0.00000000000E+00 -0.25352734539E+03  0.25352734539E+03  0.00000000000E+00 0.  1.
         25    2    1    2    0    0 -0.16110771232E+03  0.11751888600E+03  0.19923932427E+03  0.30840482507E+03  0.12510333430E+03 0.  0.
          5    1    3    3  502    0 -0.72398326909E+02 -0.80871154662E+01  0.27843697357E+02  0.78100339681E+02  0.41800000000E+01 0.  1.
         -5    1    3    3    0  502 -0.88709385410E+02  0.12560600147E+03  0.17139562692E+03  0.23030448539E+03  0.41800000000E+01 0.  1.
        -11    1    1    2    0    0  0.75524477916E+02 -0.47390208593E+02 -0.12653088228E+02  0.90054868146E+02  0.00000000000E+00 0. -1.
         11    1    1    2    0    0  0.85583234403E+02 -0.70128677409E+02 -0.12685332051E+03  0.16832791311E+03  0.00000000000E+00 0.  1.
</event>
<event>
 7    1  0.2723366E-009  0.1411766E+03  0.7561462E-02  0.1211755E+00
         -1   -1    0    0    0  501 -0.00000000000E+00  0.00000000000E+00  0.41685504542E+02  0.41685504542E+02  0.00000000000E+00 0.  1.
          1   -1    0    0  501    0  0.00000000000E+00 -0.00000000000E+00 -0.68865053573E+03  0.68865053573E+03  0.00000000000E+00 0. -1.
         25    2    1    2    0    0  0.68171260084E+02 -0.10937962860E+03 -0.39585978073E+03  0.43469946272E+03  0.12508969998E+03 0.  0.
          5    1    3    3  502    0  0.29516384187E+02 -0.92211902652E+01 -0.25818306891E+03  0.26006194792E+03  0.41800000000E+01 0.  1.
         -5    1    3    3    0  502  0.38654875897E+02 -0.10015843833E+03 -0.13767671182E+03  0.17463751481E+03  0.41800000000E+01 0.  1.
        -11    1    1    2    0    0 -0.10102819408E+02  0.76124090659E+02 -0.75400518868E+02  0.10762054815E+03  0.00000000000E+00 0.  1.
         11    1    1    2    0    0 -0.58068440676E+02  0.33255537939E+02 -0.17570473160E+03  0.18801602940E+03  0.00000000000E+00 0. -1.
</event>
<event>
 7    1  0.2723366E-009  0.1129430E+03  0.7561462E-02  0.1255215E+00
         -2   -1    0    0    0  501 -0.00000000000E+00  0.00000000000E+00  0.85239025565E+02  0.85239025565E+02  0.00000000000E+00 0.  1.
          2   -1    0    0  501    0  0.00000000000E+00 -0.00000000000E+00 -0.22757740018E+03  0.22757740018E+03  0.00000000000E+00 0. -1.
         25    2    1    2    0    0  0.21586225279E+02  0.85291656809E+02 -0.71301251690E+02  0.16873864802E+03  0.12509288949E+03 0.  0.
          5    1    3    3  502    0  0.45249347833E+02  0.16971414267E+02  0.19769486700E+02  0.52381651233E+02  0.41800000000E+01 0.  1.
         -5    1    3    3    0  502 -0.23663122554E+02  0.68320242542E+02 -0.91070738391E+02  0.11635699679E+03  0.41800000000E+01 0.  1.
        -11    1    1    2    0    0  0.19288102399E+02 -0.36687375615E+02  0.84858906071E+01  0.42308447892E+02  0.00000000000E+00 0.  1.
         11    1    1    2    0    0 -0.40874327679E+02 -0.48604281195E+02 -0.79523013531E+02  0.10176932983E+03  0.00000000000E+00 0. -1.
</event>
<event>
 7    1  0.2723366E-009  0.1118145E+03  0.7561462E-02  0.1257246E+00
         -2   -1    0    0    0  501 -0.00000000000E+00  0.00000000000E+00  0.16782060335E+03  0.16782060335E+03  0.00000000000E+00 0.  1.
          2   -1    0    0  501    0  0.00000000000E+00 -0.00000000000E+00 -0.75145676643E+02  0.75145676643E+02  0.00000000000E+00 0. -1.
         25    2    1    2    0    0 -0.25210553111E+02 -0.17844470697E+02  0.59773597009E+02  0.14204694851E+03  0.12510178080E+03 0.  0.
          5    1    3    3  502    0  0.49868419373E+02 -0.18612461546E+02  0.20338759053E+02  0.57135107380E+02  0.41800000000E+01 0.  1.
         -5    1    3    3    0  502 -0.75078972484E+02  0.76799084820E+00  0.39434837956E+02  0.84911841129E+02  0.41800000000E+01 0.  1.
        -11    1    1    2    0    0 -0.26535095843E+02 -0.18022361980E+02  0.15336090416E+02  0.35554359957E+02  0.00000000000E+00 0. -1.
         11    1    1    2    0    0  0.51745648954E+02  0.35866832677E+02  0.17565239284E+02  0.65364971530E+02  0.00000000000E+00 0.  1.
</event>
