<event>
 7    1  0.6008063E-006  0.1262880E+03  0.7546771E-02  0.1248785E+00
         -3   -1    0    0    0  501 -0.00000000000E+00  0.00000000000E+00  0.47977248648E+02  0.47977248648E+02  0.00000000000E+00 0.  1.
          3   -1    0    0  501    0  0.00000000000E+00 -0.00000000000E+00 -0.31322647345E+03  0.31322647345E+03  0.00000000000E+00 0. -1.
         23    2    1    2    0    0  0.41339318580E+01  0.17494107597E+02 -0.23087115390E+03  0.26315425376E+03  0.12500215350E+03 0.  0.
          5    1    3    3  502    0 -0.52140829703E+02 -0.11473161214E+00 -0.48263524691E+02  0.71204895204E+02  0.47000000000E+01 0. -1.
         -5    1    3    3    0  502  0.56274761561E+02  0.17608839209E+02 -0.18260762921E+03  0.19194935856E+03  0.47000000000E+01 0. -1.
        -11    1    1    2    0    0  0.51818889868E+01 -0.49491740908E+02 -0.40506719212E+02  0.64164465968E+02  0.00000000000E+00 0. -1.
         11    1    1    2    0    0 -0.93158208448E+01  0.31997633311E+02  0.61286483037E+01  0.33885002369E+02  0.00000000000E+00 0.  1.
<mgrwt>
<rscale>  0 0.11661704E+03</rscale>
<asrwt>0</asrwt>
<pdfrwt beam="2">  1        3 0.48188689E-01 0.12628805E+03</pdfrwt>
<pdfrwt beam="1">  1       -3 0.73811151E-02 0.12628805E+03</pdfrwt>
<totfact> 0.11918979E+03</totfact>
</mgrwt>
</event>
<event>
 7    1  0.6008063E-006  0.1331283E+03  0.7546771E-02  0.1236345E+00
         -2   -1    0    0    0  501 -0.00000000000E+00  0.00000000000E+00  0.35301270298E+02  0.35301270298E+02  0.00000000000E+00 0.  1.
          2   -1    0    0  501    0  0.00000000000E+00 -0.00000000000E+00 -0.38816855074E+03  0.38816855074E+03  0.00000000000E+00 0. -1.
         23    2    1    2    0    0 -0.45686820336E+02  0.32415346827E+01 -0.20901917635E+03  0.24781474613E+03  0.12500135687E+03 0.  0.
          5    1    3    3  502    0  0.25766570136E+02  0.37409132813E+02 -0.12091180165E+03  0.12924826162E+03  0.47000000000E+01 0. -1.
         -5    1    3    3    0  502 -0.71453390473E+02 -0.34167598130E+02 -0.88107374702E+02  0.11856648451E+03  0.47000000000E+01 0. -1.
        -11    1    1    2    0    0  0.33855210775E+02 -0.42764875693E+02 -0.53831208597E+02  0.76634254147E+02  0.00000000000E+00 0.  1.
         11    1    1    2    0    0  0.11831609562E+02  0.39523341011E+02 -0.90016895491E+02  0.99020820757E+02  0.00000000000E+00 0. -1.
<mgrwt>
<rscale>  0 0.12418735E+03</rscale>
<asrwt>0</asrwt>
<pdfrwt beam="2">  1        2 0.59718240E-01 0.13312826E+03</pdfrwt>
<pdfrwt beam="1">  1       -2 0.54309646E-02 0.13312826E+03</pdfrwt>
<totfact> 0.13417426E+04</totfact>
</mgrwt>
</event>
<event>
 7    1  0.6008063E-006  0.2168956E+03  0.7546771E-02  0.1139683E+00
          1   -1    0    0  501    0  0.00000000000E+00  0.00000000000E+00  0.12074273248E+04  0.12074273248E+04  0.00000000000E+00 0. -1.
         -1   -1    0    0    0  501 -0.00000000000E+00 -0.00000000000E+00 -0.48235445362E+02  0.48235445362E+02  0.00000000000E+00 0.  1.
         23    2    1    2    0    0  0.16393993309E+03 -0.67391766047E+02  0.91508377826E+03  0.94043715540E+03  0.12500308091E+03 0.  0.
          5    1    3    3  502    0  0.25646756165E+02  0.26816634325E+02  0.74672198329E+02  0.83515957646E+02  0.47000000000E+01 0. -1.
         -5    1    3    3    0  502  0.13829317692E+03 -0.94208400372E+02  0.84041157993E+03  0.85692119776E+03  0.47000000000E+01 0. -1.
        -11    1    1    2    0    0 -0.15510080292E+03  0.28752641811E+02  0.21181034248E+03  0.26409580583E+03  0.00000000000E+00 0. -1.
         11    1    1    2    0    0 -0.88391301706E+01  0.38639124236E+02  0.32297758698E+02  0.51129808926E+02  0.00000000000E+00 0.  1.
<mgrwt>
<rscale>  0 0.21239489E+03</rscale>
<asrwt>0</asrwt>
<pdfrwt beam="1">  1        1 0.18575803E+00 0.21689565E+03</pdfrwt>
<pdfrwt beam="2">  1       -1 0.74208386E-02 0.21689565E+03</pdfrwt>
<totfact> 0.10966950E+03</totfact>
</mgrwt>
</event>
<event>
 7    1  0.6008063E-006  0.1580696E+03  0.7546771E-02  0.1199457E+00
         -2   -1    0    0    0  501 -0.00000000000E+00  0.00000000000E+00  0.15418583168E+02  0.15418583168E+02  0.00000000000E+00 0.  1.
          2   -1    0    0  501    0  0.00000000000E+00 -0.00000000000E+00 -0.17216971804E+04  0.17216971804E+04  0.00000000000E+00 0. -1.
         23    2    1    2    0    0  0.14677239135E+01 -0.96747799884E+02 -0.13152505896E+04  0.13247151074E+04  0.12499484589E+03 0.  0.
          5    1    3    3  502    0  0.52923222405E+01 -0.98705201384E+01 -0.91582940238E+03  0.91590994104E+03  0.47000000000E+01 0.  1.
         -5    1    3    3    0  502 -0.38245983271E+01 -0.86877279745E+02 -0.39942118718E+03  0.40880516637E+03  0.47000000000E+01 0.  1.
        -11    1    1    2    0    0 -0.21116696234E+02  0.27349593311E+02 -0.35157796242E+02  0.49294885645E+02  0.00000000000E+00 0.  1.
         11    1    1    2    0    0  0.19648972321E+02  0.69398206572E+02 -0.35587021148E+03  0.36310577056E+03  0.00000000000E+00 0. -1.
<mgrwt>
<rscale>  0 0.15082975E+03</rscale>
<asrwt>0</asrwt>
<pdfrwt beam="2">  1        2 0.26487645E+00 0.15806961E+03</pdfrwt>
<pdfrwt beam="1">  1       -2 0.23720901E-02 0.15806961E+03</pdfrwt>
<totfact> 0.61864233E+03</totfact>
</mgrwt>
</event>
<event>
 7    1  0.6008063E-006  0.1784941E+03  0.7546771E-02  0.1174996E+00
         -1   -1    0    0    0  501 -0.00000000000E+00  0.00000000000E+00  0.21870136193E+02  0.21870136193E+02  0.00000000000E+00 0.  1.
          1   -1    0    0  501    0  0.00000000000E+00 -0.00000000000E+00 -0.17582985186E+04  0.17582985186E+04  0.00000000000E+00 0. -1.
         23    2    1    2    0    0  0.40448743952E+00  0.12742241496E+03 -0.13711169153E+04  0.13826864248E+04  0.12499407363E+03 0.  0.
          5    1    3    3  502    0  0.36124528504E+02  0.48739100058E+02 -0.21818028584E+03  0.22650653095E+03  0.47000000000E+01 0. -1.
         -5    1    3    3    0  502 -0.35720041065E+02  0.78683314905E+02 -0.11529366294E+04  0.11561798938E+04  0.47000000000E+01 0. -1.
        -11    1    1    2    0    0 -0.21308896748E+01 -0.79231919452E+02 -0.98899243292E+02  0.12674106704E+03  0.00000000000E+00 0.  1.
         11    1    1    2    0    0  0.17264022352E+01 -0.48190495511E+02 -0.26641222384E+03  0.27074116298E+03  0.00000000000E+00 0. -1.
<mgrwt>
<rscale>  0 0.17276331E+03</rscale>
<asrwt>0</asrwt>
<pdfrwt beam="2">  1        1 0.27050747E+00 0.17849413E+03</pdfrwt>
<pdfrwt beam="1">  1       -1 0.33646363E-02 0.17849413E+03</pdfrwt>
<totfact> 0.15471982E+03</totfact>
</mgrwt>
</event>
<event>
 7    1  0.6008063E-006  0.1379062E+03  0.7546771E-02  0.1228002E+00
          2   -1    0    0  501    0  0.00000000000E+00  0.00000000000E+00  0.16877918690E+03  0.16877918690E+03  0.00000000000E+00 0. -1.
         -2   -1    0    0    0  501 -0.00000000000E+00 -0.00000000000E+00 -0.90672901373E+02  0.90672901373E+02  0.00000000000E+00 0.  1.
         23    2    1    2    0    0  0.45634128702E+02 -0.36188993738E+02  0.59456438408E+02  0.15017721785E+03  0.12500404682E+03 0.  0.
          5    1    3    3  502    0  0.72793542703E+02  0.14972453332E+02  0.12595486127E+02  0.75523575715E+02  0.47000000000E+01 0. -1.
         -5    1    3    3    0  502 -0.27159414001E+02 -0.51161447070E+02  0.46860952281E+02  0.74653642134E+02  0.47000000000E+01 0. -1.
        -11    1    1    2    0    0 -0.53446922412E+02 -0.75481426724E+01 -0.12005024271E+02  0.55296189569E+02  0.00000000000E+00 0.  1.
         11    1    1    2    0    0  0.78127937100E+01  0.43737136410E+02  0.30654871387E+02  0.53978680854E+02  0.00000000000E+00 0. -1.
<mgrwt>
<rscale>  0 0.12963230E+03</rscale>
<asrwt>0</asrwt>
<pdfrwt beam="1">  1        2 0.25966029E-01 0.13790623E+03</pdfrwt>
<pdfrwt beam="2">  1       -2 0.13949677E-01 0.13790623E+03</pdfrwt>
<totfact> 0.75482765E+03</totfact>
</mgrwt>
</event>
<event>
 7    1  0.6008063E-006  0.1509412E+03  0.7546771E-02  0.1208479E+00
         -1   -1    0    0    0  501 -0.00000000000E+00  0.00000000000E+00  0.36564366828E+02  0.36564366828E+02  0.00000000000E+00 0.  1.
          1   -1    0    0  501    0  0.00000000000E+00 -0.00000000000E+00 -0.61737749406E+03  0.61737749406E+03  0.00000000000E+00 0. -1.
         23    2    1    2    0    0  0.81735688998E+02  0.21858411906E+02 -0.44602519450E+03  0.47087336438E+03  0.12499895252E+03 0.  0.
          5    1    3    3  502    0  0.89688061545E+02  0.28643865683E+02 -0.44919605997E+03  0.45898105594E+03  0.47000000000E+01 0.  1.
         -5    1    3    3    0  502 -0.79523725464E+01 -0.67854537769E+01  0.31708654729E+01  0.11892308435E+02  0.47000000000E+01 0.  1.
        -11    1    1    2    0    0 -0.28538238469E+02  0.31125867907E+02 -0.78828021517E+02  0.89426549101E+02  0.00000000000E+00 0. -1.
         11    1    1    2    0    0 -0.53197450529E+02 -0.52984279814E+02 -0.55959911218E+02  0.93641947405E+02  0.00000000000E+00 0.  1.
<mgrwt>
<rscale>  0 0.14366676E+03</rscale>
<asrwt>0</asrwt>
<pdfrwt beam="2">  1        1 0.94981148E-01 0.15094122E+03</pdfrwt>
<pdfrwt beam="1">  1       -1 0.56252875E-02 0.15094122E+03</pdfrwt>
<totfact> 0.48422998E+03</totfact>
</mgrwt>
</event>
<event>
 7    1  0.6008063E-006  0.2161786E+03  0.7546771E-02  0.1140548E+00
          3   -1    0    0  501    0  0.00000000000E+00  0.00000000000E+00  0.26943839725E+03  0.26943839725E+03  0.00000000000E+00 0. -1.
         -3   -1    0    0    0  501 -0.00000000000E+00 -0.00000000000E+00 -0.15931936721E+03  0.15931936721E+03  0.00000000000E+00 0.  1.
         23    2    1    2    0    0 -0.17169634296E+03  0.40347996047E+02  0.43340425744E+02  0.22048030702E+03  0.12500231322E+03 0.  0.
          5    1    3    3  502    0 -0.35134711054E+02  0.17888193343E+01 -0.41873751800E+02  0.54892156864E+02  0.47000000000E+01 0. -1.
         -5    1    3    3    0  502 -0.13656163191E+03  0.38559176713E+02  0.85214177543E+02  0.16558815016E+03  0.47000000000E+01 0. -1.
        -11    1    1    2    0    0  0.72245098473E+02  0.18433849302E+02  0.53974725805E+02  0.92045815110E+02  0.00000000000E+00 0. -1.
         11    1    1    2    0    0  0.99451244489E+02 -0.58781845348E+02  0.12803878485E+02  0.11623164232E+03  0.00000000000E+00 0.  1.
<mgrwt>
<rscale>  0 0.21129112E+03</rscale>
<asrwt>0</asrwt>
<pdfrwt beam="1">  1        3 0.41452061E-01 0.21617857E+03</pdfrwt>
<pdfrwt beam="2">  1       -3 0.24510672E-01 0.21617857E+03</pdfrwt>
<totfact> 0.22217227E+02</totfact>
</mgrwt>
</event>
<event>
 7    1  0.6008063E-006  0.1633386E+03  0.7546771E-02  0.1192541E+00
         -2   -1    0    0    0  501 -0.00000000000E+00  0.00000000000E+00  0.63916747503E+02  0.63916747503E+02  0.00000000000E+00 0. -1.
          2   -1    0    0  501    0  0.00000000000E+00 -0.00000000000E+00 -0.35778419733E+03  0.35778419733E+03  0.00000000000E+00 0.  1.
         23    2    1    2    0    0  0.11326696202E+02 -0.10452492622E+03 -0.14245775527E+03  0.21673417914E+03  0.12500295244E+03 0.  0.
          5    1    3    3  502    0  0.26639093984E+02  0.93372240639E+01 -0.81948703137E+02  0.86801526642E+02  0.47000000000E+01 0. -1.
         -5    1    3    3    0  502 -0.15312397782E+02 -0.11386215029E+03 -0.60509052135E+02  0.12993265249E+03  0.47000000000E+01 0. -1.
        -11    1    1    2    0    0  0.26870600693E+02  0.45143477711E+02 -0.20817309636E+02  0.56509496033E+02  0.00000000000E+00 0. -1.
         11    1    1    2    0    0 -0.38197296896E+02  0.59381448512E+02 -0.13059238492E+03  0.14845726967E+03  0.00000000000E+00 0.  1.
<mgrwt>
<rscale>  0 0.15664167E+03</rscale>
<asrwt>0</asrwt>
<pdfrwt beam="2">  1        2 0.55043722E-01 0.16333858E+03</pdfrwt>
<pdfrwt beam="1">  1       -2 0.98333458E-02 0.16333858E+03</pdfrwt>
<totfact> 0.59517039E+03</totfact>
</mgrwt>
</event>
<event>
 7    1  0.6008063E-006  0.1274912E+03  0.7546771E-02  0.1245171E+00
         -1   -1    0    0    0  501 -0.00000000000E+00  0.00000000000E+00  0.10582564706E+03  0.10582564706E+03  0.00000000000E+00 0.  1.
          1   -1    0    0  501    0  0.00000000000E+00 -0.00000000000E+00 -0.11835638105E+03  0.11835638105E+03  0.00000000000E+00 0. -1.
         23    2    1    2    0    0 -0.50671972808E+01 -0.24482246765E+02 -0.73544514580E+00  0.12749327398E+03  0.12501574755E+03 0.  0.
          5    1    3    3  502    0  0.41813157958E+02 -0.44056438380E+01 -0.43567525330E+02  0.60728651717E+02  0.47000000000E+01 0.  1.
         -5    1    3    3    0  502 -0.46880355239E+02 -0.20076602927E+02  0.42832080184E+02  0.66764622258E+02  0.47000000000E+01 0.  1.
        -11    1    1    2    0    0 -0.23445513302E+02 -0.22024974938E+02  0.15479130309E+02  0.35698670706E+02  0.00000000000E+00 0. -1.
         11    1    1    2    0    0  0.28512710583E+02  0.46507221704E+02 -0.27274419154E+02  0.60990083420E+02  0.00000000000E+00 0.  1.
<mgrwt>
<rscale>  0 0.11875176E+03</rscale>
<asrwt>0</asrwt>
<pdfrwt beam="2">  1        1 0.18208674E-01 0.12749115E+03</pdfrwt>
<pdfrwt beam="1">  1       -1 0.16280869E-01 0.12749115E+03</pdfrwt>
<totfact> 0.76545361E+03</totfact>
</mgrwt>
</event>
<event>
 7    1  0.6008063E-006  0.1833426E+03  0.7546771E-02  0.1169767E+00
         -2   -1    0    0    0  501 -0.00000000000E+00  0.00000000000E+00  0.16407730190E+03  0.16407730190E+03  0.00000000000E+00 0.  1.
          2   -1    0    0  501    0  0.00000000000E+00 -0.00000000000E+00 -0.18482627263E+03  0.18482627263E+03  0.00000000000E+00 0. -1.
         23    2    1    2    0    0  0.11189574233E+02 -0.13365935249E+03  0.81556956426E+01  0.18352386593E+03  0.12499785963E+03 0.  0.
          5    1    3    3  502    0  0.52961909521E+02 -0.12059315737E+03 -0.16898821648E+02  0.13287337445E+03  0.47000000000E+01 0.  1.
         -5    1    3    3    0  502 -0.41772335288E+02 -0.13066195125E+02  0.25054517291E+02  0.50650491480E+02  0.47000000000E+01 0.  1.
        -11    1    1    2    0    0 -0.50363778721E+02  0.89547617702E+02 -0.90668616794E+01  0.10313822775E+03  0.00000000000E+00 0.  1.
         11    1    1    2    0    0  0.39174204488E+02  0.44111734789E+02 -0.19837804701E+02  0.62241480852E+02  0.00000000000E+00 0. -1.
<mgrwt>
<rscale>  0 0.17798519E+03</rscale>
<asrwt>0</asrwt>
<pdfrwt beam="2">  1        2 0.28434811E-01 0.18334256E+03</pdfrwt>
<pdfrwt beam="1">  1       -2 0.25242662E-01 0.18334256E+03</pdfrwt>
<totfact> 0.25530491E+03</totfact>
</mgrwt>
</event>
<event>
 7    1  0.6008063E-006  0.1282064E+03  0.7546771E-02  0.1244433E+00
         -2   -1    0    0    0  501 -0.00000000000E+00  0.00000000000E+00  0.32729509455E+03  0.32729509455E+03  0.00000000000E+00 0.  1.
          2   -1    0    0  501    0  0.00000000000E+00 -0.00000000000E+00 -0.54126801190E+02  0.54126801190E+02  0.00000000000E+00 0. -1.
         23    2    1    2    0    0 -0.36977720457E+01  0.28278086345E+02  0.48297773961E+02  0.13700207556E+03  0.12499428008E+03 0.  0.
          5    1    3    3  502    0  0.20242283787E+02 -0.13328285762E+02  0.77010397880E+02  0.80870789757E+02  0.47000000000E+01 0. -1.
         -5    1    3    3    0  502 -0.23940055832E+02  0.41606372107E+02 -0.28712623918E+02  0.56131285799E+02  0.47000000000E+01 0. -1.
        -11    1    1    2    0    0  0.34016335099E+02  0.14108276990E+02  0.14055361846E+03  0.14529788091E+03  0.00000000000E+00 0.  1.
         11    1    1    2    0    0 -0.30318563053E+02 -0.42386363336E+02  0.84316900931E+02  0.99121939272E+02  0.00000000000E+00 0. -1.
<mgrwt>
<rscale>  0 0.11919389E+03</rscale>
<asrwt>0</asrwt>
<pdfrwt beam="2">  1        2 0.83272003E-02 0.12820645E+03</pdfrwt>
<pdfrwt beam="1">  1       -2 0.50353091E-01 0.12820645E+03</pdfrwt>
<totfact> 0.29235963E+03</totfact>
</mgrwt>
</event>
<event>
 7    1  0.6008063E-006  0.1318174E+03  0.7546771E-02  0.1234118E+00
          2   -1    0    0  501    0  0.00000000000E+00  0.00000000000E+00  0.31161406539E+03  0.31161406539E+03  0.00000000000E+00 0. -1.
         -2   -1    0    0    0  501 -0.00000000000E+00 -0.00000000000E+00 -0.47149659701E+02  0.47149659701E+02  0.00000000000E+00 0.  1.
         23    2    1    2    0    0 -0.27309520483E+02 -0.31604655662E+02  0.16717193978E+03  0.21289034151E+03  0.12502470112E+03 0.  0.
          5    1    3    3  502    0  0.41523690615E+02  0.75610225887E+01  0.10105779334E+03  0.10961821719E+03  0.47000000000E+01 0.  1.
         -5    1    3    3    0  502 -0.68833211098E+02 -0.39165678250E+02  0.66114146448E+02  0.10327212433E+03  0.47000000000E+01 0.  1.
        -11    1    1    2    0    0  0.46045488015E+02 -0.10325577342E+02  0.86748458369E+02  0.98752719170E+02  0.00000000000E+00 0. -1.
         11    1    1    2    0    0 -0.18735967532E+02  0.41930233004E+02  0.10544007535E+02  0.47120664406E+02  0.00000000000E+00 0.  1.
<mgrwt>
<rscale>  0 0.12561043E+03</rscale>
<asrwt>0</asrwt>
<pdfrwt beam="1">  1        2 0.47940624E-01 0.13181745E+03</pdfrwt>
<pdfrwt beam="2">  1       -2 0.72537940E-02 0.13181745E+03</pdfrwt>
<totfact> 0.10904648E+04</totfact>
</mgrwt>
</event>
<event>
 7    1  0.6008063E-006  0.1319493E+03  0.7546771E-02  0.1237835E+00
         -2   -1    0    0    0  501 -0.00000000000E+00  0.00000000000E+00  0.53544278648E+02  0.53544278648E+02  0.00000000000E+00 0.  1.
          2   -1    0    0  501    0  0.00000000000E+00 -0.00000000000E+00 -0.26091518966E+03  0.26091518966E+03  0.00000000000E+00 0. -1.
         23    2    1    2    0    0 -0.39324513306E+01 -0.42072631219E+02 -0.88692245028E+02  0.15898721017E+03  0.12500019279E+03 0.  0.
          5    1    3    3  502    0  0.52676152562E+01  0.14681737862E+02 -0.99047398293E+02  0.10037817644E+03  0.47000000000E+01 0.  1.
         -5    1    3    3    0  502 -0.92000665868E+01 -0.56754369081E+02  0.10355153265E+02  0.58609033724E+02  0.47000000000E+01 0.  1.
        -11    1    1    2    0    0 -0.25197275837E+02  0.32992215250E+02 -0.11785083231E+03  0.12494882014E+03  0.00000000000E+00 0. -1.
         11    1    1    2    0    0  0.29129727168E+02  0.90804159690E+01 -0.82783366911E+00  0.30523438005E+02  0.00000000000E+00 0.  1.
<mgrwt>
<rscale>  0 0.12324678E+03</rscale>
<asrwt>0</asrwt>
<pdfrwt beam="2">  1        2 0.40140798E-01 0.13194930E+03</pdfrwt>
<pdfrwt beam="1">  1       -2 0.82375814E-02 0.13194930E+03</pdfrwt>
<totfact> 0.10821442E+04</totfact>
</mgrwt>
</event>
<event>
 6    1  0.6008063E-006  0.1967697E+03  0.7546771E-02  0.1175550E+00
         -2   -1    0    0    0  501 -0.00000000000E+00  0.00000000000E+00  0.10760998585E+03  0.10760998585E+03  0.00000000000E+00 0.  1.
          2   -1    0    0  501    0  0.00000000000E+00 -0.00000000000E+00 -0.23032620275E+03  0.23032620275E+03  0.00000000000E+00 0. -1.
          5    1    1    2  502    0 -0.26383444478E+02 -0.15985479668E+02 -0.12046689695E+03  0.12444269751E+03  0.47000000000E+01 0. -1.
         -5    1    1    2    0  502  0.91818898570E+02 -0.12385232342E+02  0.22363137402E+02  0.95426956512E+02  0.47000000000E+01 0.  1.
        -11    1    1    2    0    0 -0.64507393824E+02  0.57377823609E+02 -0.16096293972E+02  0.87820892615E+02  0.00000000000E+00 0. -1.
         11    1    1    2    0    0 -0.92806026784E+00 -0.29007111599E+02 -0.85161633724E+01  0.30245641963E+02  0.00000000000E+00 0.  1.
<mgrwt>
<rscale>  0 0.17222193E+03</rscale>
<asrwt>0</asrwt>
<pdfrwt beam="2">  1        2 0.35434800E-01 0.19676971E+03</pdfrwt>
<pdfrwt beam="1">  1       -2 0.16555383E-01 0.19676971E+03</pdfrwt>
<totfact> 0.41468193E+03</totfact>
</mgrwt>
</event>
<event>
 7    1  0.6008063E-006  0.1741488E+03  0.7546771E-02  0.1179396E+00
         -2   -1    0    0    0  501 -0.00000000000E+00  0.00000000000E+00  0.72290632685E+02  0.72290632685E+02  0.00000000000E+00 0.  1.
          2   -1    0    0  501    0  0.00000000000E+00 -0.00000000000E+00 -0.36990932775E+03  0.36990932775E+03  0.00000000000E+00 0. -1.
         23    2    1    2    0    0 -0.10176424732E+02  0.12083568339E+03 -0.16603790005E+03  0.24061669307E+03  0.12499194668E+03 0.  0.
          5    1    3    3  502    0  0.31432161538E+02  0.49849772515E+02 -0.14346045004E+03  0.15516433651E+03  0.47000000000E+01 0. -1.
         -5    1    3    3    0  502 -0.41608586270E+02  0.70985910875E+02 -0.22577450009E+02  0.85452356568E+02  0.47000000000E+01 0. -1.
        -11    1    1    2    0    0  0.34956708642E+02 -0.14473634187E+02 -0.12126113176E+02  0.39730343397E+02  0.00000000000E+00 0.  1.
         11    1    1    2    0    0 -0.24780283910E+02 -0.10636204920E+03 -0.11945468184E+03  0.16185292396E+03  0.00000000000E+00 0. -1.
<mgrwt>
<rscale>  0 0.16852403E+03</rscale>
<asrwt>0</asrwt>
<pdfrwt beam="2">  1        2 0.56909128E-01 0.17414881E+03</pdfrwt>
<pdfrwt beam="1">  1       -2 0.11121636E-01 0.17414881E+03</pdfrwt>
<totfact> 0.47401360E+03</totfact>
</mgrwt>
</event>
<event>
 7    1  0.6008063E-006  0.1682281E+03  0.7546771E-02  0.1184210E+00
         -2   -1    0    0    0  501 -0.00000000000E+00  0.00000000000E+00  0.21152389059E+02  0.21152389059E+02  0.00000000000E+00 0.  1.
          2   -1    0    0  501    0  0.00000000000E+00 -0.00000000000E+00 -0.23309344221E+04  0.23309344221E+04  0.00000000000E+00 0. -1.
         23    2    1    2    0    0  0.18197214208E+01  0.11257504036E+03 -0.19991916160E+04  0.20062571690E+04  0.12499703710E+03 0.  0.
          5    1    3    3  502    0  0.51857977574E+02  0.73658763123E+02 -0.74255502318E+03  0.74801398093E+03  0.47000000000E+01 0. -1.
         -5    1    3    3    0  502 -0.50038256154E+02  0.38916277237E+02 -0.12566365929E+04  0.12582431880E+04  0.47000000000E+01 0. -1.
        -11    1    1    2    0    0 -0.31071245498E+02 -0.65085502708E+02 -0.76299512630E+02  0.10499124053E+03  0.00000000000E+00 0.  1.
         11    1    1    2    0    0  0.29251524077E+02 -0.47489537652E+02 -0.23429090438E+03  0.24083840168E+03  0.00000000000E+00 0. -1.
<mgrwt>
<rscale>  0 0.16404010E+03</rscale>
<asrwt>0</asrwt>
<pdfrwt beam="2">  1        2 0.35860507E+00 0.16822815E+03</pdfrwt>
<pdfrwt beam="1">  1       -2 0.32542157E-02 0.16822815E+03</pdfrwt>
<totfact> 0.18772059E+03</totfact>
</mgrwt>
</event>
<event>
 7    1  0.6008063E-006  0.1400881E+03  0.7546771E-02  0.1224831E+00
         -1   -1    0    0    0  501 -0.00000000000E+00  0.00000000000E+00  0.30577192013E+02  0.30577192013E+02  0.00000000000E+00 0.  1.
          1   -1    0    0  501    0  0.00000000000E+00 -0.00000000000E+00 -0.59693274299E+03  0.59693274299E+03  0.00000000000E+00 0. -1.
         23    2    1    2    0    0 -0.62584559447E+02 -0.90857981916E+01 -0.43145131736E+03  0.45362419424E+03  0.12500116617E+03 0.  0.
          5    1    3    3  502    0  0.53298894279E+01 -0.52411696033E+02 -0.24183885680E+03  0.24755507722E+03  0.47000000000E+01 0. -1.
         -5    1    3    3    0  502 -0.67914448875E+02  0.43325897841E+02 -0.18961246056E+03  0.20606911702E+03  0.47000000000E+01 0. -1.
        -11    1    1    2    0    0  0.96596276075E+01 -0.37492151875E+02 -0.55894411478E+02  0.67993787159E+02  0.00000000000E+00 0. -1.
         11    1    1    2    0    0  0.52924931840E+02  0.46577950067E+02 -0.79009822148E+02  0.10589195361E+03  0.00000000000E+00 0.  1.
<mgrwt>
<rscale>  0 0.13178504E+03</rscale>
<asrwt>0</asrwt>
<pdfrwt beam="2">  1        1 0.91835802E-01 0.14008808E+03</pdfrwt>
<pdfrwt beam="1">  1       -1 0.47041836E-02 0.14008808E+03</pdfrwt>
<totfact> 0.65862661E+03</totfact>
</mgrwt>
</event>
<event>
 7    1  0.6008063E-006  0.1342087E+03  0.7546771E-02  0.1234105E+00
          2   -1    0    0  501    0  0.00000000000E+00  0.00000000000E+00  0.46990384206E+02  0.46990384206E+02  0.00000000000E+00 0.  1.
         -2   -1    0    0    0  501 -0.00000000000E+00 -0.00000000000E+00 -0.32546818803E+03  0.32546818803E+03  0.00000000000E+00 0. -1.
         23    2    1    2    0    0 -0.41699200236E+02  0.25431977537E+02 -0.10378456484E+03  0.16965613556E+03  0.12500543849E+03 0.  0.
          5    1    3    3  502    0 -0.30200241875E+02  0.98702386773E+01  0.24148019149E+02  0.40183243394E+02  0.47000000000E+01 0. -1.
         -5    1    3    3    0  502 -0.11498958362E+02  0.15561738860E+02 -0.12793258399E+03  0.12947289216E+03  0.47000000000E+01 0. -1.
        -11    1    1    2    0    0 -0.25324302874E+02 -0.12428379198E+02 -0.22802769313E+02  0.36273285127E+02  0.00000000000E+00 0.  1.
         11    1    1    2    0    0  0.67023503110E+02 -0.13003598339E+02 -0.15189046968E+03  0.16652915156E+03  0.00000000000E+00 0. -1.
<mgrwt>
<rscale>  0 0.12561905E+03</rscale>
<asrwt>0</asrwt>
<pdfrwt beam="1">  1        2 0.72292899E-02 0.13420867E+03</pdfrwt>
<pdfrwt beam="2">  1       -2 0.50072029E-01 0.13420867E+03</pdfrwt>
<totfact> 0.35420573E+03</totfact>
</mgrwt>
</event>
<event>
 7    1  0.6008063E-006  0.1374184E+03  0.7546771E-02  0.1228778E+00
          2   -1    0    0  501    0  0.00000000000E+00  0.00000000000E+00  0.40615343540E+03  0.40615343540E+03  0.00000000000E+00 0. -1.
         -2   -1    0    0    0  501 -0.00000000000E+00 -0.00000000000E+00 -0.37178150881E+02  0.37178150881E+02  0.00000000000E+00 0.  1.
         23    2    1    2    0    0  0.98781109581E+01 -0.56221590338E+02  0.18491807191E+03  0.23038775090E+03  0.12500151260E+03 0.  0.
          5    1    3    3  502    0 -0.28475806107E+01 -0.19779730609E+02 -0.15820507340E+02  0.25917656353E+02  0.47000000000E+01 0.  1.
         -5    1    3    3    0  502  0.12725691569E+02 -0.36441859729E+02  0.20073857925E+03  0.20447009455E+03  0.47000000000E+01 0.  1.
        -11    1    1    2    0    0  0.35708591330E+02  0.33260111416E+01  0.46965339330E+02  0.59092376355E+02  0.00000000000E+00 0.  1.
         11    1    1    2    0    0 -0.45586702288E+02  0.52895579197E+02  0.13709187329E+03  0.15385145903E+03  0.00000000000E+00 0. -1.
<mgrwt>
<rscale>  0 0.12911294E+03</rscale>
<asrwt>0</asrwt>
<pdfrwt beam="1">  1        2 0.62485141E-01 0.13741842E+03</pdfrwt>
<pdfrwt beam="2">  1       -2 0.57197158E-02 0.13741842E+03</pdfrwt>
<totfact> 0.11850768E+04</totfact>
</mgrwt>
</event>
<event>
 7    1  0.6008063E-006  0.1689135E+03  0.7546771E-02  0.1184269E+00
         -1   -1    0    0    0  501 -0.00000000000E+00  0.00000000000E+00  0.35728918963E+03  0.35728918963E+03  0.00000000000E+00 0.  1.
          1   -1    0    0  501    0  0.00000000000E+00 -0.00000000000E+00 -0.78336050786E+02  0.78336050786E+02  0.00000000000E+00 0. -1.
         23    2    1    2    0    0 -0.11342152099E+03  0.65406832185E+01  0.81274953533E+02  0.18744971572E+03  0.12499822355E+03 0.  0.
          5    1    3    3  502    0 -0.68667391802E+02 -0.55909372966E+02  0.61692215511E+02  0.10802355362E+03  0.47000000000E+01 0. -1.
         -5    1    3    3    0  502 -0.44754129185E+02  0.62450056184E+02  0.19582738023E+02  0.79426162094E+02  0.47000000000E+01 0. -1.
        -11    1    1    2    0    0  0.12173549816E+03  0.77242728287E+01  0.19693002244E+03  0.23164764113E+03  0.00000000000E+00 0.  1.
         11    1    1    2    0    0 -0.83139771738E+01 -0.14264956047E+02  0.74816286490E+00  0.16527883565E+02  0.00000000000E+00 0. -1.
<mgrwt>
<rscale>  0 0.16398568E+03</rscale>
<asrwt>0</asrwt>
<pdfrwt beam="2">  1        1 0.12051700E-01 0.16891352E+03</pdfrwt>
<pdfrwt beam="1">  1       -1 0.54967567E-01 0.16891352E+03</pdfrwt>
<totfact> 0.16874315E+03</totfact>
</mgrwt>
</event>
<event>
 7    1  0.6008063E-006  0.1309329E+03  0.7546771E-02  0.1239908E+00
          1   -1    0    0  501    0  0.00000000000E+00  0.00000000000E+00  0.32762062354E+03  0.32762062354E+03  0.00000000000E+00 0. -1.
         -1   -1    0    0    0  501 -0.00000000000E+00 -0.00000000000E+00 -0.40207733084E+02  0.40207733084E+02  0.00000000000E+00 0.  1.
         23    2    1    2    0    0 -0.25117311379E+02  0.29818726311E+02  0.16837430041E+03  0.21329162727E+03  0.12499350966E+03 0.  0.
          5    1    3    3  502    0 -0.14433402339E+02  0.60380732071E+02  0.26449083574E+02  0.67644659290E+02  0.47000000000E+01 0.  1.
         -5    1    3    3    0  502 -0.10683909040E+02 -0.30562005760E+02  0.14192521684E+03  0.14564696799E+03  0.47000000000E+01 0.  1.
        -11    1    1    2    0    0  0.38141105136E+02  0.18803913594E+02  0.29289159783E+02  0.51635123204E+02  0.00000000000E+00 0.  1.
         11    1    1    2    0    0 -0.13023793757E+02 -0.48622639906E+02  0.89749430258E+02  0.10290160614E+03  0.00000000000E+00 0. -1.
<mgrwt>
<rscale>  0 0.12195421E+03</rscale>
<asrwt>0</asrwt>
<pdfrwt beam="1">  1        1 0.50403171E-01 0.13093286E+03</pdfrwt>
<pdfrwt beam="2">  1       -1 0.61858053E-02 0.13093286E+03</pdfrwt>
<totfact> 0.94438692E+03</totfact>
</mgrwt>
</event>
<event>
 7    1  0.6008063E-006  0.1353595E+03  0.7546771E-02  0.1231954E+00
         -2   -1    0    0    0  501 -0.00000000000E+00  0.00000000000E+00  0.70355430970E+02  0.70355430970E+02  0.00000000000E+00 0.  1.
          2   -1    0    0  501    0  0.00000000000E+00 -0.00000000000E+00 -0.21067661925E+03  0.21067661925E+03  0.00000000000E+00 0. -1.
         23    2    1    2    0    0 -0.50280915623E+02 -0.12983920224E+02 -0.56307508722E+02  0.14660394424E+03  0.12500171306E+03 0.  0.
          5    1    3    3  502    0  0.65529569146E+01 -0.52972465927E+02 -0.55220797505E+02  0.76944459631E+02  0.47000000000E+01 0. -1.
         -5    1    3    3    0  502 -0.56833872538E+02  0.39988545704E+02 -0.10867112164E+01  0.69659484612E+02  0.47000000000E+01 0. -1.
        -11    1    1    2    0    0  0.39823222902E+02  0.44504342569E+02 -0.21192807598E+02  0.63369240832E+02  0.00000000000E+00 0.  1.
         11    1    1    2    0    0  0.10457692721E+02 -0.31520422345E+02 -0.62820871957E+02  0.71058865142E+02  0.00000000000E+00 0. -1.
<mgrwt>
<rscale>  0 0.12701434E+03</rscale>
<asrwt>0</asrwt>
<pdfrwt beam="2">  1        2 0.32411787E-01 0.13535945E+03</pdfrwt>
<pdfrwt beam="1">  1       -2 0.10823913E-01 0.13535945E+03</pdfrwt>
<totfact> 0.88919095E+03</totfact>
</mgrwt>
</event>
<event>
 7    1  0.6008063E-006  0.2146341E+03  0.7546771E-02  0.1141484E+00
          2   -1    0    0  501    0  0.00000000000E+00  0.00000000000E+00  0.19250405307E+03  0.19250405307E+03  0.00000000000E+00 0. -1.
         -2   -1    0    0    0  501 -0.00000000000E+00 -0.00000000000E+00 -0.22017333017E+03  0.22017333017E+03  0.00000000000E+00 0.  1.
         23    2    1    2    0    0 -0.80595534773E+02  0.15474591872E+03 -0.11682916031E+02  0.21495180514E+03  0.12500339364E+03 0.  0.
          5    1    3    3  502    0 -0.42863436255E+02  0.10129730810E+03  0.53564883252E+02  0.12243245286E+03  0.47000000000E+01 0. -1.
         -5    1    3    3    0  502 -0.37732098518E+02  0.53448610619E+02 -0.65247799283E+02  0.92519352284E+02  0.47000000000E+01 0. -1.
        -11    1    1    2    0    0  0.77910155293E+02 -0.91199230313E+02 -0.44615453502E+02  0.12797589851E+03  0.00000000000E+00 0.  1.
         11    1    1    2    0    0  0.26853794800E+01 -0.63546688404E+02  0.28629092433E+02  0.69749679595E+02  0.00000000000E+00 0. -1.
<mgrwt>
<rscale>  0 0.21010369E+03</rscale>
<asrwt>0</asrwt>
<pdfrwt beam="1">  1        2 0.29616008E-01 0.21463408E+03</pdfrwt>
<pdfrwt beam="2">  1       -2 0.33872820E-01 0.21463408E+03</pdfrwt>
<totfact> 0.14432909E+03</totfact>
</mgrwt>
</event>
<event>
 7    1  0.6008063E-006  0.1587892E+03  0.7546771E-02  0.1197626E+00
          1   -1    0    0  501    0  0.00000000000E+00  0.00000000000E+00  0.31723666928E+03  0.31723666928E+03  0.00000000000E+00 0. -1.
         -1   -1    0    0    0  501 -0.00000000000E+00 -0.00000000000E+00 -0.11098194016E+03  0.11098194016E+03  0.00000000000E+00 0.  1.
         23    2    1    2    0    0  0.84646743661E+02 -0.49223065801E+02  0.24161766312E+03  0.28912470210E+03  0.12500406720E+03 0.  0.
          5    1    3    3  502    0  0.24143113357E+02  0.24809307453E+02  0.15863822137E+03  0.16243942545E+03  0.47000000000E+01 0. -1.
         -5    1    3    3    0  502  0.60503630304E+02 -0.74032373254E+02  0.82979441743E+02  0.12668527666E+03  0.47000000000E+01 0. -1.
        -11    1    1    2    0    0 -0.85950542841E+02  0.18572558700E+01 -0.31473950972E+02  0.91550831803E+02  0.00000000000E+00 0. -1.
         11    1    1    2    0    0  0.13037991803E+01  0.47365809931E+02 -0.38889830184E+01  0.47543075538E+02  0.00000000000E+00 0.  1.
<mgrwt>
<rscale>  0 0.15234044E+03</rscale>
<asrwt>0</asrwt>
<pdfrwt beam="1">  1        1 0.48805641E-01 0.15878916E+03</pdfrwt>
<pdfrwt beam="2">  1       -1 0.17074145E-01 0.15878916E+03</pdfrwt>
<totfact> 0.20924289E+03</totfact>
</mgrwt>
</event>
<event>
 7    1  0.6008063E-006  0.1767443E+03  0.7546771E-02  0.1176735E+00
         -1   -1    0    0    0  501 -0.00000000000E+00  0.00000000000E+00  0.60056241647E+03  0.60056241647E+03  0.00000000000E+00 0.  1.
          1   -1    0    0  501    0  0.00000000000E+00 -0.00000000000E+00 -0.82242620949E+02  0.82242620949E+02  0.00000000000E+00 0. -1.
         23    2    1    2    0    0  0.12349404863E+03  0.19040132056E+02  0.41727053287E+02  0.18160314057E+03  0.12500098805E+03 0.  0.
          5    1    3    3  502    0  0.76950806359E+02  0.28425457226E+02  0.84255517421E+02  0.11768821281E+03  0.47000000000E+01 0. -1.
         -5    1    3    3    0  502  0.46543242273E+02 -0.93853251696E+01 -0.42528464134E+02  0.63914927767E+02  0.47000000000E+01 0. -1.
        -11    1    1    2    0    0 -0.57763897646E+02 -0.35548685921E+02  0.11665828096E+03  0.13494269694E+03  0.00000000000E+00 0. -1.
         11    1    1    2    0    0 -0.65730150987E+02  0.16508553865E+02  0.35993446128E+03  0.36625919990E+03  0.00000000000E+00 0.  1.
<mgrwt>
<rscale>  0 0.17107129E+03</rscale>
<asrwt>0</asrwt>
<pdfrwt beam="2">  1        1 0.12652711E-01 0.17674432E+03</pdfrwt>
<pdfrwt beam="1">  1       -1 0.92394215E-01 0.17674432E+03</pdfrwt>
<totfact> 0.56062513E+02</totfact>
</mgrwt>
</event>
<event>
 7    1  0.6008063E-006  0.1307608E+03  0.7546771E-02  0.1240321E+00
         -1   -1    0    0    0  501 -0.00000000000E+00  0.00000000000E+00  0.94320034336E+02  0.94320034336E+02  0.00000000000E+00 0.  1.
          1   -1    0    0  501    0  0.00000000000E+00 -0.00000000000E+00 -0.19583684060E+03  0.19583684060E+03  0.00000000000E+00 0. -1.
         23    2    1    2    0    0 -0.20769625512E+02 -0.32283578575E+02 -0.13359381043E+03  0.18693764361E+03  0.12499907849E+03 0.  0.
          5    1    3    3  502    0  0.16615116301E+01 -0.65502601106E+02 -0.23648103358E+02  0.69818866827E+02  0.47000000000E+01 0.  1.
         -5    1    3    3    0  502 -0.22431137142E+02  0.33219022531E+02 -0.10994570707E+03  0.11711877678E+03  0.47000000000E+01 0.  1.
        -11    1    1    2    0    0  0.35776428043E+02 -0.21244876297E+02  0.20705053764E+02  0.46475765983E+02  0.00000000000E+00 0.  1.
         11    1    1    2    0    0 -0.15006802531E+02  0.53528454872E+02  0.11371950402E+02  0.56743465343E+02  0.00000000000E+00 0. -1.
<mgrwt>
<rscale>  0 0.12169836E+03</rscale>
<asrwt>0</asrwt>
<pdfrwt beam="2">  1        1 0.30128744E-01 0.13076076E+03</pdfrwt>
<pdfrwt beam="1">  1       -1 0.14510775E-01 0.13076076E+03</pdfrwt>
<totfact> 0.48743466E+03</totfact>
</mgrwt>
</event>
<event>
 7    1  0.6008063E-006  0.1444158E+03  0.7546771E-02  0.1217706E+00
         -1   -1    0    0    0  501 -0.00000000000E+00  0.00000000000E+00  0.69072527671E+03  0.69072527671E+03  0.00000000000E+00 0.  1.
          1   -1    0    0  501    0  0.00000000000E+00 -0.00000000000E+00 -0.24996507138E+02  0.24996507138E+02  0.00000000000E+00 0. -1.
         23    2    1    2    0    0 -0.65684661356E+02 -0.30071591068E+02  0.32317219476E+03  0.35397203782E+03  0.12504863361E+03 0.  0.
          5    1    3    3  502    0 -0.47513528662E+02 -0.78472429427E+02  0.18999565852E+03  0.21103529999E+03  0.47000000000E+01 0. -1.
         -5    1    3    3    0  502 -0.18171132693E+02  0.48400838359E+02  0.13317653624E+03  0.14293673783E+03  0.47000000000E+01 0. -1.
        -11    1    1    2    0    0  0.59275886900E+02 -0.14812732446E+02  0.26464190896E+03  0.27160336483E+03  0.00000000000E+00 0.  1.
         11    1    1    2    0    0  0.64087744560E+01  0.44884323514E+02  0.77914665863E+02  0.90146381202E+02  0.00000000000E+00 0. -1.
<mgrwt>
<rscale>  0 0.13679640E+03</rscale>
<asrwt>0</asrwt>
<pdfrwt beam="2">  1        1 0.38456170E-02 0.14441584E+03</pdfrwt>
<pdfrwt beam="1">  1       -1 0.10626541E+00 0.14441584E+03</pdfrwt>
<totfact> 0.20540099E+03</totfact>
</mgrwt>
</event>
<event>
 7    1  0.6008063E-006  0.1369396E+03  0.7546771E-02  0.1229725E+00
          1   -1    0    0  501    0  0.00000000000E+00  0.00000000000E+00  0.94315388817E+03  0.94315388817E+03  0.00000000000E+00 0. -1.
         -1   -1    0    0    0  501 -0.00000000000E+00 -0.00000000000E+00 -0.16542041033E+02  0.16542041033E+02  0.00000000000E+00 0.  1.
         23    2    1    2    0    0 -0.54037936160E+02 -0.14393234075E+02  0.62891149602E+03  0.64364751503E+03  0.12500076018E+03 0.  0.
          5    1    3    3  502    0  0.26225379684E+02 -0.14940843225E+02  0.46009527713E+02  0.55226497048E+02  0.47000000000E+01 0. -1.
         -5    1    3    3    0  502 -0.80263315843E+02  0.54760915087E+00  0.58290196831E+03  0.58842101798E+03  0.47000000000E+01 0. -1.
        -11    1    1    2    0    0  0.39643217882E+02  0.45099827206E+02  0.11012149299E+03  0.12542855479E+03  0.00000000000E+00 0.  1.
         11    1    1    2    0    0  0.14394718278E+02 -0.30706593131E+02  0.18757885813E+03  0.19061985939E+03  0.00000000000E+00 0. -1.
<mgrwt>
<rscale>  0 0.12848262E+03</rscale>
<asrwt>0</asrwt>
<pdfrwt beam="1">  1        1 0.14510056E+00 0.13693960E+03</pdfrwt>
<pdfrwt beam="2">  1       -1 0.25449301E-02 0.13693960E+03</pdfrwt>
<totfact> 0.82208012E+03</totfact>
</mgrwt>
</event>
<event>
 7    1  0.6008063E-006  0.1525963E+03  0.7546771E-02  0.1206496E+00
         -1   -1    0    0    0  501 -0.00000000000E+00  0.00000000000E+00  0.27142728843E+02  0.27142728843E+02  0.00000000000E+00 0.  1.
          1   -1    0    0  501    0  0.00000000000E+00 -0.00000000000E+00 -0.72199824304E+03  0.72199824304E+03  0.00000000000E+00 0. -1.
         23    2    1    2    0    0 -0.54099285920E+02 -0.68804001206E+02 -0.42877203189E+03  0.45511657344E+03  0.12499966710E+03 0.  0.
          5    1    3    3  502    0 -0.38766309468E+02 -0.20557321997E+02 -0.30576566804E+02  0.53688422169E+02  0.47000000000E+01 0.  1.
         -5    1    3    3    0  502 -0.15332976452E+02 -0.48246679209E+02 -0.39819546509E+03  0.40142815128E+03  0.47000000000E+01 0.  1.
        -11    1    1    2    0    0  0.11553713994E+02  0.11247757444E+02  0.22757847539E+01  0.16284334521E+02  0.00000000000E+00 0.  1.
         11    1    1    2    0    0  0.42545571927E+02  0.57556243763E+02 -0.26835926706E+03  0.27774006391E+03  0.00000000000E+00 0. -1.
<mgrwt>
<rscale>  0 0.14520184E+03</rscale>
<asrwt>0</asrwt>
<pdfrwt beam="2">  1        1 0.11107666E+00 0.15259633E+03</pdfrwt>
<pdfrwt beam="1">  1       -1 0.41758043E-02 0.15259633E+03</pdfrwt>
<totfact> 0.60393965E+03</totfact>
</mgrwt>
</event>
<event>
 7    1  0.6008063E-006  0.1690731E+03  0.7546771E-02  0.1186347E+00
          1   -1    0    0  501    0  0.00000000000E+00  0.00000000000E+00  0.50963391631E+03  0.50963391631E+03  0.00000000000E+00 0. -1.
         -1   -1    0    0    0  501 -0.00000000000E+00 -0.00000000000E+00 -0.48219348612E+02  0.48219348612E+02  0.00000000000E+00 0.  1.
         23    2    1    2    0    0 -0.10339889349E+03 -0.47637021912E+02  0.27788563720E+03  0.32527857287E+03  0.12500042229E+03 0.  0.
          5    1    3    3  502    0 -0.42198786551E+02 -0.85919213503E+02  0.17470214785E+03  0.19926309066E+03  0.47000000000E+01 0.  1.
         -5    1    3    3    0  502 -0.61200106938E+02  0.38282191590E+02  0.10318348935E+03  0.12601548221E+03  0.47000000000E+01 0.  1.
        -11    1    1    2    0    0  0.93955097155E+02  0.65496179881E+01  0.91324761893E+02  0.13118944284E+03  0.00000000000E+00 0.  1.
         11    1    1    2    0    0  0.94437963337E+01  0.41087403924E+02  0.92204168601E+02  0.10138524921E+03  0.00000000000E+00 0. -1.
<mgrwt>
<rscale>  0 0.16209936E+03</rscale>
<asrwt>0</asrwt>
<pdfrwt beam="1">  1        1 0.78405214E-01 0.16907313E+03</pdfrwt>
<pdfrwt beam="2">  1       -1 0.74183617E-02 0.16907313E+03</pdfrwt>
<totfact> 0.41599276E+03</totfact>
</mgrwt>
</event>
<event>
 7    1  0.6008063E-006  0.1444227E+03  0.7546771E-02  0.1219779E+00
         -2   -1    0    0    0  501 -0.00000000000E+00  0.00000000000E+00  0.14598433174E+03  0.14598433174E+03  0.00000000000E+00 0.  1.
          2   -1    0    0  501    0  0.00000000000E+00 -0.00000000000E+00 -0.11211666013E+03  0.11211666013E+03  0.00000000000E+00 0. -1.
         23    2    1    2    0    0  0.41842069373E+02 -0.59020248798E+02  0.14631468934E+02  0.14516192893E+03  0.12499502866E+03 0.  0.
          5    1    3    3  502    0  0.39769207468E+02  0.22585102986E+02 -0.27092825084E+02  0.53364669122E+02  0.47000000000E+01 0.  1.
         -5    1    3    3    0  502  0.20728619053E+01 -0.81605351784E+02  0.41724294017E+02  0.91797259804E+02  0.47000000000E+01 0.  1.
        -11    1    1    2    0    0  0.25339493084E+01  0.44474341931E+02  0.41788728202E+02  0.61079340157E+02  0.00000000000E+00 0.  1.
         11    1    1    2    0    0 -0.44376018682E+02  0.14545906867E+02 -0.22552525521E+02  0.51859722792E+02  0.00000000000E+00 0. -1.
<mgrwt>
<rscale>  0 0.13531296E+03</rscale>
<asrwt>0</asrwt>
<pdfrwt beam="2">  1        2 0.17248717E-01 0.14442266E+03</pdfrwt>
<pdfrwt beam="1">  1       -2 0.22459128E-01 0.14442266E+03</pdfrwt>
<totfact> 0.54194882E+03</totfact>
</mgrwt>
</event>
<event>
 7    1  0.6008063E-006  0.1346954E+03  0.7546771E-02  0.1233667E+00
          4   -1    0    0  501    0  0.00000000000E+00  0.00000000000E+00  0.14998248182E+03  0.14998248182E+03  0.00000000000E+00 0. -1.
         -4   -1    0    0    0  501 -0.00000000000E+00 -0.00000000000E+00 -0.14595972115E+03  0.14595972115E+03  0.00000000000E+00 0.  1.
         23    2    1    2    0    0  0.50080624705E+02 -0.32344204303E+01  0.89931651194E+02  0.16195852231E+03  0.12499732243E+03 0.  0.
          5    1    3    3  502    0  0.58268105610E+02  0.29973288873E+01  0.11798691283E+03  0.13170860910E+03  0.47000000000E+01 0.  1.
         -5    1    3    3    0  502 -0.81874809058E+01 -0.62317493176E+01 -0.28055261640E+02  0.30249913204E+02  0.47000000000E+01 0.  1.
        -11    1    1    2    0    0 -0.35904842560E+02 -0.66021926199E+01 -0.10325421921E+03  0.10951794580E+03  0.00000000000E+00 0.  1.
         11    1    1    2    0    0 -0.14175782144E+02  0.98366130502E+01  0.17345328685E+02  0.24465734874E+02  0.00000000000E+00 0. -1.
<mgrwt>
<rscale>  0 0.12590143E+03</rscale>
<asrwt>0</asrwt>
<pdfrwt beam="1">  1        4 0.23074228E-01 0.13469544E+03</pdfrwt>
<pdfrwt beam="2">  1       -4 0.22455342E-01 0.13469544E+03</pdfrwt>
<totfact> 0.52558503E+02</totfact>
</mgrwt>
</event>
<event>
 7    1  0.6008063E-006  0.1455736E+03  0.7546771E-02  0.1215772E+00
          2   -1    0    0  501    0  0.00000000000E+00  0.00000000000E+00  0.36268361065E+03  0.36268361065E+03  0.00000000000E+00 0. -1.
         -2   -1    0    0    0  501 -0.00000000000E+00 -0.00000000000E+00 -0.57185404089E+02  0.57185404089E+02  0.00000000000E+00 0.  1.
         23    2    1    2    0    0  0.67148740343E+02 -0.32515455652E+02  0.24989249251E+03  0.28920224365E+03  0.12500188692E+03 0.  0.
          5    1    3    3  502    0 -0.24465998398E+01 -0.67381719112E+02  0.11667491573E+03  0.13483845105E+03  0.47000000000E+01 0.  1.
         -5    1    3    3    0  502  0.69595340183E+02  0.34866263460E+02  0.13321757678E+03  0.15436379260E+03  0.47000000000E+01 0.  1.
        -11    1    1    2    0    0 -0.56291518432E+02  0.25755734349E+02  0.81170038756E+02  0.10208167363E+03  0.00000000000E+00 0. -1.
         11    1    1    2    0    0 -0.10857221911E+02  0.67597213025E+01 -0.25564324699E+02  0.28585097464E+02  0.00000000000E+00 0.  1.
<mgrwt>
<rscale>  0 0.13819981E+03</rscale>
<asrwt>0</asrwt>
<pdfrwt beam="1">  1        2 0.55797477E-01 0.14557362E+03</pdfrwt>
<pdfrwt beam="2">  1       -2 0.87977547E-02 0.14557362E+03</pdfrwt>
<totfact> 0.69357958E+03</totfact>
</mgrwt>
</event>
<event>
 7    1  0.6008063E-006  0.1311828E+03  0.7546771E-02  0.1239233E+00
          2   -1    0    0  501    0  0.00000000000E+00  0.00000000000E+00  0.11921310725E+03  0.11921310725E+03  0.00000000000E+00 0. -1.
         -2   -1    0    0    0  501 -0.00000000000E+00 -0.00000000000E+00 -0.11518416240E+03  0.11518416240E+03  0.00000000000E+00 0.  1.
         23    2    1    2    0    0 -0.42836307320E+00  0.39795835985E+02  0.23223001074E+02  0.13322246226E+03  0.12500009846E+03 0.  0.
          5    1    3    3  502    0 -0.15968248105E+02 -0.43364870595E+02  0.85995649655E+01  0.47239173012E+02  0.47000000000E+01 0.  1.
         -5    1    3    3    0  502  0.15539885032E+02  0.83160706580E+02  0.14623436108E+02  0.85983289244E+02  0.47000000000E+01 0.  1.
        -11    1    1    2    0    0 -0.21804484824E+02 -0.16277536486E+02  0.31127882452E+02  0.41344150958E+02  0.00000000000E+00 0. -1.
         11    1    1    2    0    0  0.22232847897E+02 -0.23518299499E+02 -0.50321938680E+02  0.59830656435E+02  0.00000000000E+00 0.  1.
<mgrwt>
<rscale>  0 0.12237306E+03</rscale>
<asrwt>0</asrwt>
<pdfrwt beam="1">  1        2 0.18340478E-01 0.13118276E+03</pdfrwt>
<pdfrwt beam="2">  1       -2 0.17720640E-01 0.13118276E+03</pdfrwt>
<totfact> 0.74926854E+03</totfact>
</mgrwt>
</event>
<event>
 7    1  0.6008063E-006  0.1291006E+03  0.7546771E-02  0.1243335E+00
          1   -1    0    0  501    0  0.00000000000E+00  0.00000000000E+00  0.70946936759E+03  0.70946936759E+03  0.00000000000E+00 0. -1.
         -1   -1    0    0    0  501 -0.00000000000E+00 -0.00000000000E+00 -0.20424929222E+02  0.20424929222E+02  0.00000000000E+00 0.  1.
         23    2    1    2    0    0  0.22395950274E+02 -0.14544782672E+02  0.51749294956E+03  0.53335347405E+03  0.12630853552E+03 0.  0.
          5    1    3    3  502    0  0.24616958863E+01 -0.58641192685E+02  0.12866879913E+03  0.14150123426E+03  0.47000000000E+01 0. -1.
         -5    1    3    3    0  502  0.19934254388E+02  0.44096410013E+02  0.38882415043E+03  0.39185223979E+03  0.47000000000E+01 0.  1.
        -11    1    1    2    0    0 -0.40961417689E+02  0.43080187055E+02  0.86769751990E+02  0.10517951377E+03  0.00000000000E+00 0.  1.
         11    1    1    2    0    0  0.18565467415E+02 -0.28535404383E+02  0.84781736817E+02  0.91361308995E+02  0.00000000000E+00 0. -1.
<mgrwt>
<rscale>  0 0.11985612E+03</rscale>
<asrwt>0</asrwt>
<pdfrwt beam="1">  1        1 0.10914911E+00 0.12910064E+03</pdfrwt>
<pdfrwt beam="2">  1       -1 0.31422973E-02 0.12910064E+03</pdfrwt>
<totfact> 0.93072539E+03</totfact>
</mgrwt>
</event>
<event>
 7    1  0.6008063E-006  0.1432238E+03  0.7546771E-02  0.1219596E+00
         -2   -1    0    0    0  501 -0.00000000000E+00  0.00000000000E+00  0.19039224040E+02  0.19039224040E+02  0.00000000000E+00 0. -1.
          2   -1    0    0  501    0  0.00000000000E+00 -0.00000000000E+00 -0.89497301041E+03  0.89497301041E+03  0.00000000000E+00 0.  1.
         23    2    1    2    0    0 -0.67680870925E+02 -0.17502961937E+02 -0.55750384808E+03  0.57560716367E+03  0.12500404906E+03 0.  0.
          5    1    3    3  502    0 -0.77025505709E+02 -0.48053132179E+02 -0.24296207534E+03  0.25941220499E+03  0.47000000000E+01 0. -1.
         -5    1    3    3    0  502  0.93446347844E+01  0.30550170242E+02 -0.31454177274E+03  0.31619495869E+03  0.47000000000E+01 0. -1.
        -11    1    1    2    0    0 -0.18756357596E+02 -0.38907837807E+01 -0.11144013692E+03  0.11307450317E+03  0.00000000000E+00 0.  1.
         11    1    1    2    0    0  0.86437228521E+02  0.21393745718E+02 -0.20698980136E+03  0.22533056761E+03  0.00000000000E+00 0. -1.
<mgrwt>
<rscale>  0 0.13544242E+03</rscale>
<asrwt>0</asrwt>
<pdfrwt beam="2">  1        2 0.13768816E+00 0.14322383E+03</pdfrwt>
<pdfrwt beam="1">  1       -2 0.29291113E-02 0.14322383E+03</pdfrwt>
<totfact> 0.12916029E+04</totfact>
</mgrwt>
</event>
<event>
 7    1  0.6008063E-006  0.1266154E+03  0.7546771E-02  0.1247813E+00
          2   -1    0    0  501    0  0.00000000000E+00  0.00000000000E+00  0.93861869498E+02  0.93861869498E+02  0.00000000000E+00 0. -1.
         -2   -1    0    0    0  501 -0.00000000000E+00 -0.00000000000E+00 -0.13011141267E+03  0.13011141267E+03  0.00000000000E+00 0.  1.
         23    2    1    2    0    0  0.19894172873E+02  0.29720961386E+01 -0.79997280525E+01  0.12686790363E+03  0.12500743119E+03 0.  0.
          5    1    3    3  502    0  0.10966469507E+02 -0.54140262682E+02  0.24246389568E+02  0.60509576960E+02  0.47000000000E+01 0. -1.
         -5    1    3    3    0  502  0.89277033651E+01  0.57112358821E+02 -0.32246117621E+02  0.66358326674E+02  0.47000000000E+01 0. -1.
        -11    1    1    2    0    0  0.28497525955E+02 -0.25808003539E+02 -0.50269736075E+01  0.38774121472E+02  0.00000000000E+00 0. -1.
         11    1    1    2    0    0 -0.48391698828E+02  0.22835907401E+02 -0.23222841509E+02  0.58331257058E+02  0.00000000000E+00 0.  1.
<mgrwt>
<rscale>  0 0.11718585E+03</rscale>
<asrwt>0</asrwt>
<pdfrwt beam="1">  1        2 0.14440288E-01 0.12661544E+03</pdfrwt>
<pdfrwt beam="2">  1       -2 0.20017140E-01 0.12661544E+03</pdfrwt>
<totfact> 0.80330099E+03</totfact>
</mgrwt>
</event>
<event>
 7    1  0.6008063E-006  0.1756655E+03  0.7546771E-02  0.1177767E+00
         -1   -1    0    0    0  501 -0.00000000000E+00  0.00000000000E+00  0.30299741816E+02  0.30299741816E+02  0.00000000000E+00 0.  1.
          1   -1    0    0  501    0  0.00000000000E+00 -0.00000000000E+00 -0.92680950038E+03  0.92680950038E+03  0.00000000000E+00 0. -1.
         23    2    1    2    0    0  0.68775120721E+02 -0.10248755249E+03 -0.55956436759E+03  0.58649012510E+03  0.12499867886E+03 0.  0.
          5    1    3    3  502    0  0.27895619379E+02 -0.10519680346E+03 -0.51234885860E+03  0.52380146616E+03  0.47000000000E+01 0.  1.
         -5    1    3    3    0  502  0.40879501341E+02  0.27092509695E+01 -0.47215508983E+02  0.62688658937E+02  0.47000000000E+01 0.  1.
        -11    1    1    2    0    0 -0.28559016443E+02  0.20515218540E+02 -0.19301617897E+02  0.40112891511E+02  0.00000000000E+00 0.  1.
         11    1    1    2    0    0 -0.40216104278E+02  0.81972333951E+02 -0.31764377308E+03  0.33050622559E+03  0.00000000000E+00 0. -1.
<mgrwt>
<rscale>  0 0.17007759E+03</rscale>
<asrwt>0</asrwt>
<pdfrwt beam="2">  1        1 0.14258605E+00 0.17566555E+03</pdfrwt>
<pdfrwt beam="1">  1       -1 0.46614998E-02 0.17566555E+03</pdfrwt>
<totfact> 0.35160408E+03</totfact>
</mgrwt>
</event>
<event>
 7    1  0.6008063E-006  0.1350530E+03  0.7546771E-02  0.1232119E+00
          3   -1    0    0  501    0  0.00000000000E+00  0.00000000000E+00  0.30305744768E+02  0.30305744768E+02  0.00000000000E+00 0. -1.
         -3   -1    0    0    0  501 -0.00000000000E+00 -0.00000000000E+00 -0.47996726350E+03  0.47996726350E+03  0.00000000000E+00 0.  1.
         23    2    1    2    0    0  0.51127970940E+02  0.16187857125E+01 -0.23112925167E+03  0.26769392491E+03  0.12499046595E+03 0.  0.
          5    1    3    3  502    0 -0.30236002820E+02 -0.75896393298E+00 -0.10302675761E+02  0.32295928855E+02  0.47000000000E+01 0.  1.
         -5    1    3    3    0  502  0.81363973760E+02  0.23777496455E+01 -0.22082657591E+03  0.23539799605E+03  0.47000000000E+01 0.  1.
        -11    1    1    2    0    0  0.24738870245E+02 -0.13975028513E+02 -0.56843738523E+02  0.63549380267E+02  0.00000000000E+00 0.  1.
         11    1    1    2    0    0 -0.75866841185E+02  0.12356242801E+02 -0.16168852854E+03  0.17902970309E+03  0.00000000000E+00 0. -1.
<mgrwt>
<rscale>  0 0.12690714E+03</rscale>
<asrwt>0</asrwt>
<pdfrwt beam="1">  1        3 0.46624223E-02 0.13505298E+03</pdfrwt>
<pdfrwt beam="2">  1       -3 0.73841116E-01 0.13505298E+03</pdfrwt>
<totfact> 0.10418626E+03</totfact>
</mgrwt>
</event>
<event>
 7    1  0.6008063E-006  0.4142846E+03  0.7546771E-02  0.1039694E+00
         -1   -1    0    0    0  501 -0.00000000000E+00  0.00000000000E+00  0.46172482351E+03  0.46172482351E+03  0.00000000000E+00 0.  1.
          1   -1    0    0  501    0  0.00000000000E+00 -0.00000000000E+00 -0.37163686265E+03  0.37163686265E+03  0.00000000000E+00 0. -1.
         23    2    1    2    0    0 -0.38911179170E+03 -0.67805065882E+02 -0.15313132643E+02  0.41456747648E+03  0.12500474839E+03 0.  0.
          5    1    3    3  502    0 -0.35852413699E+02  0.21171743386E+02  0.23736975625E+02  0.48157785433E+02  0.47000000000E+01 0.  1.
         -5    1    3    3    0  502 -0.35325937801E+03 -0.88976809268E+02 -0.39050108268E+02  0.36640969105E+03  0.47000000000E+01 0.  1.
        -11    1    1    2    0    0  0.19691198132E+03  0.50102654056E+02  0.98508669983E+01  0.20342478687E+03  0.00000000000E+00 0.  1.
         11    1    1    2    0    0  0.19219981038E+03  0.17702411826E+02  0.95550226509E+02  0.21536942281E+03  0.00000000000E+00 0. -1.
<mgrwt>
<rscale>  0 0.41202340E+03</rscale>
<asrwt>0</asrwt>
<pdfrwt beam="2">  1        1 0.57174902E-01 0.41428456E+03</pdfrwt>
<pdfrwt beam="1">  1       -1 0.71034588E-01 0.41428456E+03</pdfrwt>
<totfact> 0.13780755E+02</totfact>
</mgrwt>
</event>
<event>
 6    1  0.6008063E-006  0.1641170E+03  0.7546771E-02  0.1196685E+00
          1   -1    0    0  501    0  0.00000000000E+00  0.00000000000E+00  0.45017150173E+03  0.45017150173E+03  0.00000000000E+00 0. -1.
         -1   -1    0    0    0  501 -0.00000000000E+00 -0.00000000000E+00 -0.82289468694E+02  0.82289468694E+02  0.00000000000E+00 0.  1.
          5    1    1    2  502    0  0.70687744795E+02  0.89851862760E+02  0.30849232176E+03  0.32902844420E+03  0.47000000000E+01 0. -1.
         -5    1    1    2    0  502 -0.43427213361E+02 -0.98553198407E+01  0.65002451222E+02  0.78933255693E+02  0.47000000000E+01 0.  1.
        -11    1    1    2    0    0  0.22867537860E+01 -0.90191319999E+02 -0.15864227346E+02  0.91604460346E+02  0.00000000000E+00 0.  1.
         11    1    1    2    0    0 -0.29547285220E+02  0.10194777080E+02  0.10251487405E+02  0.32894810193E+02  0.00000000000E+00 0. -1.
<mgrwt>
<rscale>  0 0.15312515E+03</rscale>
<asrwt>0</asrwt>
<pdfrwt beam="1">  1        1 0.69257153E-01 0.16411704E+03</pdfrwt>
<pdfrwt beam="2">  1       -1 0.12659919E-01 0.16411704E+03</pdfrwt>
<totfact> 0.21538631E+03</totfact>
</mgrwt>
</event>
<event>
 7    1  0.6008063E-006  0.1280782E+03  0.7546771E-02  0.1245170E+00
          1   -1    0    0  501    0  0.00000000000E+00  0.00000000000E+00  0.11529739548E+03  0.11529739548E+03  0.00000000000E+00 0. -1.
         -1   -1    0    0    0  501 -0.00000000000E+00 -0.00000000000E+00 -0.12062795330E+03  0.12062795330E+03  0.00000000000E+00 0.  1.
         23    2    1    2    0    0  0.23453634522E+02 -0.14996116071E+02  0.35400014639E+02  0.13288030723E+03  0.12501623312E+03 0.  0.
          5    1    3    3  502    0 -0.51204207095E+02  0.12523163563E+01  0.16720693835E+02  0.54084292755E+02  0.47000000000E+01 0.  1.
         -5    1    3    3    0  502  0.74657841617E+02 -0.16248432427E+02  0.18679320804E+02  0.78796014474E+02  0.47000000000E+01 0.  1.
        -11    1    1    2    0    0  0.17126330512E+02  0.38824069622E+02 -0.36185629469E+02  0.55767547543E+02  0.00000000000E+00 0.  1.
         11    1    1    2    0    0 -0.40579965034E+02 -0.23827953552E+02 -0.45449429860E+01  0.47277494004E+02  0.00000000000E+00 0. -1.
<mgrwt>
<rscale>  0 0.11875190E+03</rscale>
<asrwt>0</asrwt>
<pdfrwt beam="1">  1        1 0.17738061E-01 0.12807816E+03</pdfrwt>
<pdfrwt beam="2">  1       -1 0.18558147E-01 0.12807816E+03</pdfrwt>
<totfact> 0.64356377E+03</totfact>
</mgrwt>
</event>
<event>
 7    1  0.6008063E-006  0.1363068E+03  0.7546771E-02  0.1230222E+00
          3   -1    0    0  501    0  0.00000000000E+00  0.00000000000E+00  0.86666812306E+02  0.86666812306E+02  0.00000000000E+00 0. -1.
         -3   -1    0    0    0  501 -0.00000000000E+00 -0.00000000000E+00 -0.21985223339E+03  0.21985223339E+03  0.00000000000E+00 0.  1.
         23    2    1    2    0    0  0.75219408588E+01 -0.53876458443E+02 -0.41105702020E+00  0.13630739309E+03  0.12498113488E+03 0.  0.
          5    1    3    3  502    0  0.87336875065E+01 -0.92391341613E+02  0.15769413827E+02  0.94250738538E+02  0.47000000000E+01 0. -1.
         -5    1    3    3    0  502 -0.12117466477E+01  0.38514883170E+02 -0.16180470848E+02  0.42056654555E+02  0.47000000000E+01 0. -1.
        -11    1    1    2    0    0 -0.47786206475E+02  0.19909775544E+02 -0.49183145228E+02  0.71406599597E+02  0.00000000000E+00 0. -1.
         11    1    1    2    0    0  0.40264265616E+02  0.33966682899E+02 -0.83591218833E+02  0.98805053002E+02  0.00000000000E+00 0.  1.
<mgrwt>
<rscale>  0 0.12815305E+03</rscale>
<asrwt>0</asrwt>
<pdfrwt beam="1">  1        3 0.13333356E-01 0.13630677E+03</pdfrwt>
<pdfrwt beam="2">  1       -3 0.33823420E-01 0.13630677E+03</pdfrwt>
<totfact> 0.89898982E+02</totfact>
</mgrwt>
</event>
<event>
 7    1  0.6008063E-006  0.1888807E+03  0.7546771E-02  0.1164570E+00
         -2   -1    0    0    0  501 -0.00000000000E+00  0.00000000000E+00  0.85464256265E+02  0.85464256265E+02  0.00000000000E+00 0.  1.
          2   -1    0    0  501    0  0.00000000000E+00 -0.00000000000E+00 -0.37318933531E+03  0.37318933531E+03  0.00000000000E+00 0. -1.
         23    2    1    2    0    0 -0.16577263433E+02 -0.14063348713E+03 -0.16409521914E+03  0.25020625928E+03  0.12499339131E+03 0.  0.
          5    1    3    3  502    0  0.28303634179E+02 -0.25873528131E+02  0.70407651374E+01  0.39270823004E+02  0.47000000000E+01 0.  1.
         -5    1    3    3    0  502 -0.44880897613E+02 -0.11475995900E+03 -0.17113598428E+03  0.21093543628E+03  0.47000000000E+01 0.  1.
        -11    1    1    2    0    0 -0.18526035002E+01  0.39584349068E+02 -0.93268751367E+02  0.10133811135E+03  0.00000000000E+00 0. -1.
         11    1    1    2    0    0  0.18429866933E+02  0.10104913807E+03 -0.30361108532E+02  0.10710922094E+03  0.00000000000E+00 0.  1.
<mgrwt>
<rscale>  0 0.18338183E+03</rscale>
<asrwt>0</asrwt>
<pdfrwt beam="2">  1        2 0.57413742E-01 0.18888073E+03</pdfrwt>
<pdfrwt beam="1">  1       -2 0.13148347E-01 0.18888073E+03</pdfrwt>
<totfact> 0.35999422E+03</totfact>
</mgrwt>
</event>
<event>
 7    1  0.6008063E-006  0.1844875E+03  0.7546771E-02  0.1168753E+00
         -2   -1    0    0    0  501 -0.00000000000E+00  0.00000000000E+00  0.23428634146E+02  0.23428634146E+02  0.00000000000E+00 0.  1.
          2   -1    0    0  501    0  0.00000000000E+00 -0.00000000000E+00 -0.12951828363E+04  0.12951828363E+04  0.00000000000E+00 0. -1.
         23    2    1    2    0    0  0.12904586353E+03  0.41921305181E+02 -0.64554985966E+03  0.67139425882E+03  0.12500159499E+03 0.  0.
          5    1    3    3  502    0  0.31575073808E+02 -0.36558200112E+02 -0.93806887570E+02  0.10561869833E+03  0.47000000000E+01 0. -1.
         -5    1    3    3    0  502  0.97470789721E+02  0.78479505293E+02 -0.55174297209E+03  0.56577556049E+03  0.47000000000E+01 0. -1.
        -11    1    1    2    0    0 -0.10069869409E+03  0.53967989644E+01 -0.30301947465E+03  0.31935897427E+03  0.00000000000E+00 0.  1.
         11    1    1    2    0    0 -0.28347169436E+02 -0.47318104145E+02 -0.32318486784E+03  0.32785823735E+03  0.00000000000E+00 0. -1.
<mgrwt>
<rscale>  0 0.17902240E+03</rscale>
<asrwt>0</asrwt>
<pdfrwt beam="2">  1        2 0.19925893E+00 0.18448748E+03</pdfrwt>
<pdfrwt beam="1">  1       -2 0.36044047E-02 0.18448748E+03</pdfrwt>
<totfact> 0.56191160E+03</totfact>
</mgrwt>
</event>
<event>
 7    1  0.6008063E-006  0.1446866E+03  0.7546771E-02  0.1217262E+00
         -4   -1    0    0    0  501 -0.00000000000E+00  0.00000000000E+00  0.38417027135E+03  0.38417027135E+03  0.00000000000E+00 0.  1.
          4   -1    0    0  501    0  0.00000000000E+00 -0.00000000000E+00 -0.44638208196E+02  0.44638208196E+02  0.00000000000E+00 0. -1.
         23    2    1    2    0    0 -0.40437815840E+02 -0.60614846616E+02  0.17446725912E+03  0.22665617796E+03  0.12499928768E+03 0.  0.
          5    1    3    3  502    0  0.26540791840E+02  0.24138969764E+02  0.51062301211E+02  0.62582362513E+02  0.47000000000E+01 0.  1.
         -5    1    3    3    0  502 -0.66978607680E+02 -0.84753816380E+02  0.12340495791E+03  0.16407381545E+03  0.47000000000E+01 0.  1.
        -11    1    1    2    0    0 -0.21195811869E+02  0.26909728999E+02  0.16940949791E+02  0.38215072097E+02  0.00000000000E+00 0. -1.
         11    1    1    2    0    0  0.61633627709E+02  0.33705117617E+02  0.14812385424E+03  0.16393722950E+03  0.00000000000E+00 0.  1.
<mgrwt>
<rscale>  0 0.13711657E+03</rscale>
<asrwt>0</asrwt>
<pdfrwt beam="2">  1        4 0.68674169E-02 0.14468655E+03</pdfrwt>
<pdfrwt beam="1">  1       -4 0.59103116E-01 0.14468655E+03</pdfrwt>
<totfact> 0.65375794E+02</totfact>
</mgrwt>
</event>
<event>
 7    1  0.6008063E-006  0.1315061E+03  0.7546771E-02  0.1238934E+00
          1   -1    0    0  501    0  0.00000000000E+00  0.00000000000E+00  0.21382869838E+03  0.21382869838E+03  0.00000000000E+00 0. -1.
         -1   -1    0    0    0  501 -0.00000000000E+00 -0.00000000000E+00 -0.87154754347E+02  0.87154754347E+02  0.00000000000E+00 0.  1.
         23    2    1    2    0    0  0.92054067154E+00 -0.40827045344E+02  0.14957707503E+03  0.19916616226E+03  0.12500465507E+03 0.  0.
          5    1    3    3  502    0  0.94993752294E+01 -0.83269348328E+02  0.12028098104E+03  0.14667524297E+03  0.47000000000E+01 0. -1.
         -5    1    3    3    0  502 -0.85788345578E+01  0.42442302984E+02  0.29296093984E+02  0.52490919288E+02  0.47000000000E+01 0. -1.
        -11    1    1    2    0    0 -0.15456059495E+02  0.18295480099E+02 -0.55003477693E+02  0.59991640464E+02  0.00000000000E+00 0.  1.
         11    1    1    2    0    0  0.14535518823E+02  0.22531565245E+02  0.32100346695E+02  0.41825649998E+02  0.00000000000E+00 0. -1.
<mgrwt>
<rscale>  0 0.12255923E+03</rscale>
<asrwt>0</asrwt>
<pdfrwt beam="1">  1        1 0.32896723E-01 0.13150612E+03</pdfrwt>
<pdfrwt beam="2">  1       -1 0.13408424E-01 0.13150612E+03</pdfrwt>
<totfact> 0.49449220E+03</totfact>
</mgrwt>
</event>
<event>
 7    1  0.6008063E-006  0.1985830E+03  0.7546771E-02  0.1155401E+00
          2   -1    0    0  501    0  0.00000000000E+00  0.00000000000E+00  0.22482185015E+04  0.22482185015E+04  0.00000000000E+00 0. -1.
         -2   -1    0    0    0  501 -0.00000000000E+00 -0.00000000000E+00 -0.17829453222E+02  0.17829453222E+02  0.00000000000E+00 0.  1.
         23    2    1    2    0    0 -0.34735381486E+02 -0.15034490568E+03  0.15457646999E+04  0.15584683889E+04  0.12500029806E+03 0.  0.
          5    1    3    3  502    0  0.46734965899E+02 -0.65464571429E+02  0.66790308660E+03  0.67274541265E+03  0.47000000000E+01 0. -1.
         -5    1    3    3    0  502 -0.81470347385E+02 -0.84880334252E+02  0.87786161327E+03  0.88572297628E+03  0.47000000000E+01 0. -1.
        -11    1    1    2    0    0  0.56643046922E+02  0.76066715232E+02  0.46841494707E+03  0.47791959843E+03  0.00000000000E+00 0. -1.
         11    1    1    2    0    0 -0.21907665436E+02  0.74278190450E+02  0.21620940131E+03  0.22965996733E+03  0.00000000000E+00 0.  1.
<mgrwt>
<rscale>  0 0.19343257E+03</rscale>
<asrwt>0</asrwt>
<pdfrwt beam="1">  1        2 0.34587955E+00 0.19858301E+03</pdfrwt>
<pdfrwt beam="2">  1       -2 0.27429946E-02 0.19858301E+03</pdfrwt>
<totfact> 0.26662644E+03</totfact>
</mgrwt>
</event>
<event>
 7    1  0.6008063E-006  0.1368180E+03  0.7546771E-02  0.1230768E+00
          1   -1    0    0  501    0  0.00000000000E+00  0.00000000000E+00  0.36436872643E+03  0.36436872643E+03  0.00000000000E+00 0. -1.
         -1   -1    0    0    0  501 -0.00000000000E+00 -0.00000000000E+00 -0.40518496744E+02  0.40518496744E+02  0.00000000000E+00 0.  1.
         23    2    1    2    0    0 -0.46293518924E+02  0.30851735944E+02  0.20957187730E+03  0.25027894468E+03  0.12499703552E+03 0.  0.
          5    1    3    3  502    0 -0.30472275831E+02  0.25647924593E+02  0.11244634983E+00  0.40105838408E+02  0.47000000000E+01 0. -1.
         -5    1    3    3    0  502 -0.15821243092E+02  0.52038113515E+01  0.20945943095E+03  0.21017310628E+03  0.47000000000E+01 0. -1.
        -11    1    1    2    0    0  0.43956386575E+02  0.16796223195E+02  0.24761730896E+02  0.53173492939E+02  0.00000000000E+00 0.  1.
         11    1    1    2    0    0  0.23371323487E+01 -0.47647959140E+02  0.89516621487E+02  0.10143478555E+03  0.00000000000E+00 0. -1.
<mgrwt>
<rscale>  0 0.12779302E+03</rscale>
<asrwt>0</asrwt>
<pdfrwt beam="1">  1        1 0.56056725E-01 0.13681805E+03</pdfrwt>
<pdfrwt beam="2">  1       -1 0.62336151E-02 0.13681805E+03</pdfrwt>
<totfact> 0.82033067E+03</totfact>
</mgrwt>
</event>
<event>
 7    1  0.6008063E-006  0.1182003E+03  0.7546771E-02  0.1257219E+00
          2   -1    0    0  501    0  0.00000000000E+00  0.00000000000E+00  0.61672018118E+03  0.61672018118E+03  0.00000000000E+00 0. -1.
         -2   -1    0    0    0  501 -0.00000000000E+00 -0.00000000000E+00 -0.15145748921E+03  0.15145748921E+03  0.00000000000E+00 0.  1.
         23    2    1    2    0    0  0.15956332845E+02 -0.22181449990E+02  0.59551715657E+03  0.60713425600E+03  0.11499869457E+03 0.  0.
          5    1    3    3  502    0 -0.30625472255E+02 -0.35067387644E+02  0.47354311968E+03  0.47584957436E+03  0.47000000000E+01 0. -1.
         -5    1    3    3    0  502  0.46581805100E+02  0.12885937655E+02  0.12197403690E+03  0.13128468164E+03  0.47000000000E+01 0.  1.
        -11    1    1    2    0    0 -0.22192271665E+02  0.54498561356E+02 -0.63237043960E+02  0.86380054645E+02  0.00000000000E+00 0. -1.
         11    1    1    2    0    0  0.62359388196E+01 -0.32317111367E+02 -0.67017420636E+02  0.74663359747E+02  0.00000000000E+00 0.  1.
<mgrwt>
<rscale>  0 0.11182929E+03</rscale>
<asrwt>0</asrwt>
<pdfrwt beam="1">  1        2 0.94880027E-01 0.11820034E+03</pdfrwt>
<pdfrwt beam="2">  1       -2 0.23301152E-01 0.11820034E+03</pdfrwt>
<totfact> 0.78851077E+02</totfact>
</mgrwt>
</event>
<event>
 7    1  0.6008063E-006  0.1434103E+03  0.7546771E-02  0.1219131E+00
          1   -1    0    0  501    0  0.00000000000E+00  0.00000000000E+00  0.47916358087E+03  0.47916358087E+03  0.00000000000E+00 0. -1.
         -1   -1    0    0    0  501 -0.00000000000E+00 -0.00000000000E+00 -0.35892051748E+02  0.35892051748E+02  0.00000000000E+00 0.  1.
         23    2    1    2    0    0 -0.90698454223E-02  0.70298324828E+02  0.20254475059E+03  0.24817513153E+03  0.12499866144E+03 0.  0.
          5    1    3    3  502    0 -0.49777764438E+02  0.43161725846E+02  0.43053516839E+02  0.78844503440E+02  0.47000000000E+01 0. -1.
         -5    1    3    3    0  502  0.49768694593E+02  0.27136598981E+02  0.15949123375E+03  0.16933062809E+03  0.47000000000E+01 0. -1.
        -11    1    1    2    0    0  0.23259587351E+02 -0.26475811304E+02  0.19888327087E+03  0.20198151505E+03  0.00000000000E+00 0. -1.
         11    1    1    2    0    0 -0.23250517505E+02 -0.43822513523E+02  0.41843507659E+02  0.64898986039E+02  0.00000000000E+00 0.  1.
<mgrwt>
<rscale>  0 0.13577443E+03</rscale>
<asrwt>0</asrwt>
<pdfrwt beam="1">  1        1 0.73717469E-01 0.14341032E+03</pdfrwt>
<pdfrwt beam="2">  1       -1 0.55218545E-02 0.14341032E+03</pdfrwt>
<totfact> 0.69603219E+03</totfact>
</mgrwt>
</event>
<event>
 7    1  0.6008063E-006  0.1829282E+03  0.7546771E-02  0.1170246E+00
          1   -1    0    0  501    0  0.00000000000E+00  0.00000000000E+00  0.62099699746E+02  0.62099699746E+02  0.00000000000E+00 0. -1.
         -1   -1    0    0    0  501 -0.00000000000E+00 -0.00000000000E+00 -0.49456220726E+03  0.49456220726E+03  0.00000000000E+00 0.  1.
         23    2    1    2    0    0 -0.21726453642E+01  0.13354368358E+03 -0.27747466096E+03  0.33234756460E+03  0.12499632157E+03 0.  0.
          5    1    3    3  502    0 -0.18553978350E+02 -0.19391256430E+02 -0.60421859936E+02  0.66280933131E+02  0.47000000000E+01 0. -1.
         -5    1    3    3    0  502  0.16381332986E+02  0.15293494001E+03 -0.21705280103E+03  0.26606663147E+03  0.47000000000E+01 0. -1.
        -11    1    1    2    0    0  0.56374180839E+01 -0.45616016774E+02 -0.12194420324E+03  0.13031880207E+03  0.00000000000E+00 0.  1.
         11    1    1    2    0    0 -0.34647727197E+01 -0.87927666807E+02 -0.33043643309E+02  0.93995540336E+02  0.00000000000E+00 0. -1.
<mgrwt>
<rscale>  0 0.17749905E+03</rscale>
<asrwt>0</asrwt>
<pdfrwt beam="1">  1        1 0.95538001E-02 0.18292817E+03</pdfrwt>
<pdfrwt beam="2">  1       -1 0.76086492E-01 0.18292817E+03</pdfrwt>
<totfact> 0.12228537E+03</totfact>
</mgrwt>
</event>
<event>
 7    1  0.6008063E-006  0.2649224E+03  0.7546771E-02  0.1106700E+00
          2   -1    0    0  501    0  0.00000000000E+00  0.00000000000E+00  0.12195422970E+04  0.12195422970E+04  0.00000000000E+00 0. -1.
         -2   -1    0    0    0  501 -0.00000000000E+00 -0.00000000000E+00 -0.11462500990E+03  0.11462500990E+03  0.00000000000E+00 0.  1.
         23    2    1    2    0    0  0.15842229232E+03  0.17159082118E+03  0.10455567462E+04  0.10785975923E+04  0.12507127517E+03 0.  0.
          5    1    3    3  502    0  0.53068972093E+02 -0.43761574753E+01  0.32656353560E+03  0.33090980544E+03  0.47000000000E+01 0.  1.
         -5    1    3    3    0  502  0.10535332023E+03  0.17596697866E+03  0.71899321063E+03  0.74768778684E+03  0.47000000000E+01 0.  1.
        -11    1    1    2    0    0 -0.52551543775E+02 -0.45503301612E+02 -0.20650482509E+02  0.72516602503E+02  0.00000000000E+00 0.  1.
         11    1    1    2    0    0 -0.10587074855E+03 -0.12608751957E+03  0.80011023380E+02  0.18305311211E+03  0.00000000000E+00 0. -1.
<mgrwt>
<rscale>  0 0.26073881E+03</rscale>
<asrwt>0</asrwt>
<pdfrwt beam="1">  1        2 0.18762188E+00 0.26492236E+03</pdfrwt>
<pdfrwt beam="2">  1       -2 0.17634618E-01 0.26492236E+03</pdfrwt>
<totfact> 0.51062873E+02</totfact>
</mgrwt>
</event>
<event>
 7    1  0.6008063E-006  0.1428804E+03  0.7546771E-02  0.1228308E+00
         -1   -1    0    0    0  501 -0.00000000000E+00  0.00000000000E+00  0.45472939381E+02  0.45472939381E+02  0.00000000000E+00 0.  1.
          1   -1    0    0  501    0  0.00000000000E+00 -0.00000000000E+00 -0.31818011525E+03  0.31818011525E+03  0.00000000000E+00 0. -1.
         23    2    1    2    0    0 -0.69208016486E+02  0.52283770681E+00 -0.18244899391E+03  0.23173788260E+03  0.12499915178E+03 0.  0.
          5    1    3    3  502    0 -0.75913858168E+02  0.47899895322E+02 -0.14580980007E+03  0.17128894194E+03  0.47000000000E+01 0. -1.
         -5    1    3    3    0  502  0.67058416819E+01 -0.47377057615E+02 -0.36639193839E+02  0.60448940653E+02  0.47000000000E+01 0. -1.
        -11    1    1    2    0    0 -0.83679029568E+01 -0.68845555355E+01  0.21985815394E+01  0.11056792736E+02  0.00000000000E+00 0.  1.
         11    1    1    2    0    0  0.77575919443E+02  0.63617178287E+01 -0.92456763493E+02  0.12085837930E+03  0.00000000000E+00 0. -1.
<mgrwt>
<rscale>  0 0.12942763E+03</rscale>
<asrwt>0</asrwt>
<pdfrwt beam="2">  1        1 0.48950788E-01 0.14288041E+03</pdfrwt>
<pdfrwt beam="1">  1       -1 0.69958367E-02 0.14288041E+03</pdfrwt>
<totfact> 0.81971195E+03</totfact>
</mgrwt>
</event>
<event>
 7    1  0.6008063E-006  0.1602639E+03  0.7546771E-02  0.1196466E+00
          3   -1    0    0  501    0  0.00000000000E+00  0.00000000000E+00  0.77933324803E+02  0.77933324803E+02  0.00000000000E+00 0. -1.
         -3   -1    0    0    0  501 -0.00000000000E+00 -0.00000000000E+00 -0.27816541060E+03  0.27816541060E+03  0.00000000000E+00 0.  1.
         23    2    1    2    0    0 -0.29974524526E+02  0.95722233515E+02 -0.11017992673E+03  0.19448427387E+03  0.12499319348E+03 0.  0.
          5    1    3    3  502    0 -0.89199260342E+01  0.12353197736E+03 -0.75804690426E+02  0.14528646049E+03  0.47000000000E+01 0.  1.
         -5    1    3    3    0  502 -0.21054598492E+02 -0.27809743842E+02 -0.34375236305E+02  0.49197813379E+02  0.47000000000E+01 0.  1.
        -11    1    1    2    0    0  0.11204229489E+02 -0.92316785786E+02 -0.10283813787E+03  0.13864922033E+03  0.00000000000E+00 0.  1.
         11    1    1    2    0    0  0.18770295037E+02 -0.34054477291E+01  0.12785978803E+02  0.22965241213E+02  0.00000000000E+00 0. -1.
<mgrwt>
<rscale>  0 0.15330825E+03</rscale>
<asrwt>0</asrwt>
<pdfrwt beam="1">  1        3 0.11989742E-01 0.16026390E+03</pdfrwt>
<pdfrwt beam="2">  1       -3 0.42794678E-01 0.16026390E+03</pdfrwt>
<totfact> 0.70188728E+02</totfact>
</mgrwt>
</event>
<event>
 7    1  0.6008063E-006  0.1260188E+03  0.7546771E-02  0.1243421E+00
         -4   -1    0    0    0  501 -0.00000000000E+00  0.00000000000E+00  0.57123196693E+02  0.57123196693E+02  0.00000000000E+00 0.  1.
          4   -1    0    0  501    0  0.00000000000E+00 -0.00000000000E+00 -0.22979280307E+03  0.22979280307E+03  0.00000000000E+00 0. -1.
         23    2    1    2    0    0 -0.50160626816E-01  0.15988533853E+02 -0.89284258882E+02  0.15444225156E+03  0.12500037781E+03 0.  0.
          5    1    3    3  502    0 -0.49367961647E+02  0.24325287549E+02 -0.88350167158E+02  0.10419576425E+03  0.47000000000E+01 0. -1.
         -5    1    3    3    0  502  0.49317801020E+02 -0.83367536959E+01 -0.93409172493E+00  0.50246487310E+02  0.47000000000E+01 0. -1.
        -11    1    1    2    0    0 -0.10008977311E+02  0.27884212411E+02 -0.82277655228E+02  0.87448964994E+02  0.00000000000E+00 0. -1.
         11    1    1    2    0    0  0.10059137938E+02 -0.43872746263E+02 -0.11076922676E+01  0.45024783208E+02  0.00000000000E+00 0.  1.
<mgrwt>
<rscale>  0 0.11980366E+03</rscale>
<asrwt>0</asrwt>
<pdfrwt beam="2">  1        4 0.35352738E-01 0.12601877E+03</pdfrwt>
<pdfrwt beam="1">  1       -4 0.87881842E-02 0.12601877E+03</pdfrwt>
<totfact> 0.11871032E+03</totfact>
</mgrwt>
</event>
<event>
 7    1  0.6008063E-006  0.3047184E+03  0.7546771E-02  0.1084307E+00
         -1   -1    0    0    0  501 -0.00000000000E+00  0.00000000000E+00  0.93322372881E+02  0.93322372881E+02  0.00000000000E+00 0.  1.
          1   -1    0    0  501    0  0.00000000000E+00 -0.00000000000E+00 -0.10004751072E+04  0.10004751072E+04  0.00000000000E+00 0. -1.
         23    2    1    2    0    0 -0.10091175268E+03 -0.25894499028E+03 -0.57348756983E+03  0.64941614084E+03  0.12497056215E+03 0.  0.
          5    1    3    3  502    0  0.12502467351E+02 -0.13831587634E+03 -0.25256266594E+03  0.28826651482E+03  0.47000000000E+01 0.  1.
         -5    1    3    3    0  502 -0.11341422003E+03 -0.12062911394E+03 -0.32092490389E+03  0.36114962602E+03  0.47000000000E+01 0.  1.
        -11    1    1    2    0    0  0.11737467558E+03  0.20959547208E+03 -0.25760838556E+03  0.35223451946E+03  0.00000000000E+00 0. -1.
         11    1    1    2    0    0 -0.16462922901E+02  0.49349518197E+02 -0.76056778922E+02  0.92146819786E+02  0.00000000000E+00 0.  1.
<mgrwt>
<rscale>  0 0.30187430E+03</rscale>
<asrwt>0</asrwt>
<pdfrwt beam="2">  1        1 0.15391925E+00 0.30471845E+03</pdfrwt>
<pdfrwt beam="1">  1       -1 0.14357288E-01 0.30471845E+03</pdfrwt>
<totfact> 0.55155776E+02</totfact>
</mgrwt>
</event>
<event>
 7    1  0.6008063E-006  0.1189453E+03  0.7546771E-02  0.1257891E+00
          2   -1    0    0  501    0  0.00000000000E+00  0.00000000000E+00  0.51838215938E+03  0.51838215938E+03  0.00000000000E+00 0. -1.
         -2   -1    0    0    0  501 -0.00000000000E+00 -0.00000000000E+00 -0.21923118479E+02  0.21923118479E+02  0.00000000000E+00 0.  1.
         23    2    1    2    0    0 -0.22687604623E+01  0.89187833639E+00  0.32089178685E+03  0.34222731160E+03  0.11892035659E+03 0.  0.
          5    1    3    3  502    0  0.49067340362E+02 -0.13263964749E+02  0.75882809205E+02  0.91453963194E+02  0.47000000000E+01 0. -1.
         -5    1    3    3    0  502 -0.51336100824E+02  0.14155843085E+02  0.24500897765E+03  0.25077334840E+03  0.47000000000E+01 0.  1.
        -11    1    1    2    0    0 -0.17408051214E+02  0.35964582148E+02  0.13113794774E+03  0.13708994403E+03  0.00000000000E+00 0.  1.
         11    1    1    2    0    0  0.19676811676E+02 -0.36856460484E+02  0.44429306314E+02  0.60988022240E+02  0.00000000000E+00 0. -1.
<mgrwt>
<rscale>  0 0.11145939E+03</rscale>
<asrwt>0</asrwt>
<pdfrwt beam="1">  1        2 0.79751092E-01 0.11894534E+03</pdfrwt>
<pdfrwt beam="2">  1       -2 0.33727879E-02 0.11894534E+03</pdfrwt>
<totfact> 0.19756575E+04</totfact>
</mgrwt>
</event>
<event>
 7    1  0.6008063E-006  0.1805813E+03  0.7546771E-02  0.1172994E+00
         -2   -1    0    0    0  501 -0.00000000000E+00  0.00000000000E+00  0.19201102814E+02  0.19201102814E+02  0.00000000000E+00 0.  1.
          2   -1    0    0  501    0  0.00000000000E+00 -0.00000000000E+00 -0.17237393236E+04  0.17237393236E+04  0.00000000000E+00 0. -1.
         23    2    1    2    0    0  0.10230022354E+03 -0.80741147093E+02 -0.12173914355E+04  0.12307117934E+04  0.12500057079E+03 0.  0.
          5    1    3    3  502    0  0.58776964844E+02 -0.10011762179E+03 -0.57992086527E+03  0.59144616810E+03  0.47000000000E+01 0. -1.
         -5    1    3    3    0  502  0.43523258700E+02  0.19376474700E+02 -0.63747057020E+03  0.63926562530E+03  0.47000000000E+01 0. -1.
        -11    1    1    2    0    0 -0.77419958693E+02  0.73898028335E+02 -0.46803887727E+03  0.48011994255E+03  0.00000000000E+00 0. -1.
         11    1    1    2    0    0 -0.24880264851E+02  0.68431187582E+01 -0.19107908050E+02  0.32108690466E+02  0.00000000000E+00 0.  1.
<mgrwt>
<rscale>  0 0.17473932E+03</rscale>
<asrwt>0</asrwt>
<pdfrwt beam="2">  1        2 0.26519072E+00 0.18058131E+03</pdfrwt>
<pdfrwt beam="1">  1       -2 0.29540152E-02 0.18058131E+03</pdfrwt>
<totfact> 0.44788281E+03</totfact>
</mgrwt>
</event>
<event>
 7    1  0.6008063E-006  0.1683331E+03  0.7546771E-02  0.1186596E+00
         -1   -1    0    0    0  501 -0.00000000000E+00  0.00000000000E+00  0.19689456502E+02  0.19689456502E+02  0.00000000000E+00 0.  1.
          1   -1    0    0  501    0  0.00000000000E+00 -0.00000000000E+00 -0.13512318203E+04  0.13512318203E+04  0.00000000000E+00 0. -1.
         23    2    1    2    0    0  0.11089453981E+03  0.20354959489E+02 -0.91108922607E+03  0.92650937705E+03  0.12499649822E+03 0.  0.
          5    1    3    3  502    0  0.10444064637E+03 -0.33475424639E+02 -0.50524760507E+03  0.51703547760E+03  0.47000000000E+01 0. -1.
         -5    1    3    3    0  502  0.64538934434E+01  0.53830384127E+02 -0.40584162100E+03  0.40947389945E+03  0.47000000000E+01 0. -1.
        -11    1    1    2    0    0 -0.80700384358E+02 -0.54882556272E+02 -0.30254492275E+03  0.31789633105E+03  0.00000000000E+00 0. -1.
         11    1    1    2    0    0 -0.30194155452E+02  0.34527596784E+02 -0.11790821502E+03  0.12651556874E+03  0.00000000000E+00 0.  1.
<mgrwt>
<rscale>  0 0.16187464E+03</rscale>
<asrwt>0</asrwt>
<pdfrwt beam="2">  1        1 0.20788180E+00 0.16833315E+03</pdfrwt>
<pdfrwt beam="1">  1       -1 0.30291474E-02 0.16833315E+03</pdfrwt>
<totfact> 0.33245281E+03</totfact>
</mgrwt>
</event>
<event>
 7    1  0.6008063E-006  0.1280307E+03  0.7546771E-02  0.1244663E+00
          2   -1    0    0  501    0  0.00000000000E+00  0.00000000000E+00  0.15217713303E+03  0.15217713303E+03  0.00000000000E+00 0. -1.
         -2   -1    0    0    0  501 -0.00000000000E+00 -0.00000000000E+00 -0.86375793443E+02  0.86375793443E+02  0.00000000000E+00 0.  1.
         23    2    1    2    0    0 -0.24147453547E+02  0.13579866328E+02  0.63213573867E+02  0.14278586817E+03  0.12499734375E+03 0.  0.
          5    1    3    3  502    0  0.36917343608E+02 -0.23940600777E+02 -0.39815154569E+01  0.44429551989E+02  0.47000000000E+01 0. -1.
         -5    1    3    3    0  502 -0.61064797155E+02  0.37520467106E+02  0.67195089324E+02  0.98356316181E+02  0.47000000000E+01 0. -1.
        -11    1    1    2    0    0 -0.99344451618E+01  0.15448982397E+02  0.35656517560E+02  0.40109244599E+02  0.00000000000E+00 0. -1.
         11    1    1    2    0    0  0.34081898709E+02 -0.29028848725E+02 -0.33068751840E+02  0.55657813703E+02  0.00000000000E+00 0.  1.
<mgrwt>
<rscale>  0 0.11905561E+03</rscale>
<asrwt>0</asrwt>
<pdfrwt beam="1">  1        2 0.23411867E-01 0.12803065E+03</pdfrwt>
<pdfrwt beam="2">  1       -2 0.13288584E-01 0.12803065E+03</pdfrwt>
<totfact> 0.91023773E+03</totfact>
</mgrwt>
</event>
<event>
 7    1  0.6008063E-006  0.1255405E+03  0.7546771E-02  0.1239014E+00
         -1   -1    0    0    0  501 -0.00000000000E+00  0.00000000000E+00  0.84062276992E+02  0.84062276992E+02  0.00000000000E+00 0.  1.
          1   -1    0    0  501    0  0.00000000000E+00 -0.00000000000E+00 -0.18588543845E+03  0.18588543845E+03  0.00000000000E+00 0. -1.
         23    2    1    2    0    0 -0.10407910247E+02  0.51271456773E+01 -0.92069480905E+02  0.15568303272E+03  0.12500322054E+03 0.  0.
          5    1    3    3  502    0  0.48235569548E+02 -0.27594209635E+02 -0.57128245926E+02  0.79836314153E+02  0.47000000000E+01 0. -1.
         -5    1    3    3    0  502 -0.58643479794E+02  0.32721355312E+02 -0.34941234979E+02  0.75846718569E+02  0.47000000000E+01 0. -1.
        -11    1    1    2    0    0  0.41838719727E+02 -0.37551936577E+02 -0.31173631585E+02  0.64283914903E+02  0.00000000000E+00 0. -1.
         11    1    1    2    0    0 -0.31430809480E+02  0.32424790900E+02  0.21419951032E+02  0.49980767818E+02  0.00000000000E+00 0.  1.
<mgrwt>
<rscale>  0 0.12250925E+03</rscale>
<asrwt>0</asrwt>
<pdfrwt beam="2">  1        1 0.28597759E-01 0.12554050E+03</pdfrwt>
<pdfrwt beam="1">  1       -1 0.12932658E-01 0.12554050E+03</pdfrwt>
<totfact> 0.62033982E+03</totfact>
</mgrwt>
</event>
<event>
 7    1  0.6008063E-006  0.1322203E+03  0.7546771E-02  0.1239230E+00
          1   -1    0    0  501    0  0.00000000000E+00  0.00000000000E+00  0.14889057271E+04  0.14889057271E+04  0.00000000000E+00 0. -1.
         -1   -1    0    0    0  501 -0.00000000000E+00 -0.00000000000E+00 -0.11652685906E+02  0.11652685906E+02  0.00000000000E+00 0.  1.
         23    2    1    2    0    0  0.19786509886E+02  0.38274868637E+02  0.11908542607E+04  0.11981719687E+04  0.12500289883E+03 0.  0.
          5    1    3    3  502    0  0.16672682791E+02  0.22594309284E+02  0.11744295723E+04  0.11747746130E+04  0.47000000000E+01 0.  1.
         -5    1    3    3    0  502  0.31138270953E+01  0.15680559354E+02  0.16424688402E+02  0.23397355618E+02  0.47000000000E+01 0.  1.
        -11    1    1    2    0    0  0.28572154741E+02 -0.38997277571E+02  0.15532357542E+03  0.16267319621E+03  0.00000000000E+00 0.  1.
         11    1    1    2    0    0 -0.48358664627E+02  0.72240893398E+00  0.13107520509E+03  0.13971324815E+03  0.00000000000E+00 0. -1.
<mgrwt>
<rscale>  0 0.12237459E+03</rscale>
<asrwt>0</asrwt>
<pdfrwt beam="1">  1        1 0.22906227E+00 0.13222026E+03</pdfrwt>
<pdfrwt beam="2">  1       -1 0.17927221E-02 0.13222026E+03</pdfrwt>
<totfact> 0.57414293E+03</totfact>
</mgrwt>
</event>
<event>
 7    1  0.6008063E-006  0.1346089E+03  0.7546771E-02  0.1238151E+00
          1   -1    0    0  501    0  0.00000000000E+00  0.00000000000E+00  0.17385608947E+03  0.17385608947E+03  0.00000000000E+00 0.  1.
         -1   -1    0    0    0  501 -0.00000000000E+00 -0.00000000000E+00 -0.75751961455E+02  0.75751961455E+02  0.00000000000E+00 0. -1.
         23    2    1    2    0    0 -0.36691669759E+02  0.33903850837E+02  0.46702351399E+02  0.14248038192E+03  0.12499519940E+03 0.  0.
          5    1    3    3  502    0 -0.16394172663E+02  0.78601980831E+02  0.10092846869E+02  0.81061679268E+02  0.47000000000E+01 0. -1.
         -5    1    3    3    0  502 -0.20297497096E+02 -0.44698129993E+02  0.36609504530E+02  0.61418702650E+02  0.47000000000E+01 0. -1.
        -11    1    1    2    0    0  0.15697203898E+02  0.20861427926E+02 -0.40416172786E+01  0.26418479433E+02  0.00000000000E+00 0. -1.
         11    1    1    2    0    0  0.20994465861E+02 -0.54765278763E+02  0.55443393891E+02  0.80709189570E+02  0.00000000000E+00 0.  1.
<mgrwt>
<rscale>  0 0.12304845E+03</rscale>
<asrwt>0</asrwt>
<pdfrwt beam="1">  1        1 0.26747091E-01 0.13460888E+03</pdfrwt>
<pdfrwt beam="2">  1       -1 0.11654148E-01 0.13460888E+03</pdfrwt>
<totfact> 0.79576714E+03</totfact>
</mgrwt>
</event>
<event>
 7    1  0.6008063E-006  0.1327338E+03  0.7546771E-02  0.1235908E+00
         -1   -1    0    0    0  501 -0.00000000000E+00  0.00000000000E+00  0.12305552750E+03  0.12305552750E+03  0.00000000000E+00 0.  1.
          1   -1    0    0  501    0  0.00000000000E+00 -0.00000000000E+00 -0.16604191099E+03  0.16604191099E+03  0.00000000000E+00 0. -1.
         23    2    1    2    0    0  0.44267016262E+02  0.58182349810E+01 -0.10495619272E+03  0.16921602267E+03  0.12499935740E+03 0.  0.
          5    1    3    3  502    0  0.26766860416E+02 -0.51236784048E+02 -0.90733578299E+02  0.10768632730E+03  0.47000000000E+01 0. -1.
         -5    1    3    3    0  502  0.17500155846E+02  0.57055019029E+02 -0.14222614420E+02  0.61529695367E+02  0.47000000000E+01 0. -1.
        -11    1    1    2    0    0  0.44972438340E+01  0.28227974721E+02  0.52335512554E+02  0.59632622224E+02  0.00000000000E+00 0.  1.
         11    1    1    2    0    0 -0.48764260096E+02 -0.34046209702E+02  0.96342966679E+01  0.60248793598E+02  0.00000000000E+00 0. -1.
<mgrwt>
<rscale>  0 0.12446475E+03</rscale>
<asrwt>0</asrwt>
<pdfrwt beam="2">  1        1 0.25544909E-01 0.13273379E+03</pdfrwt>
<pdfrwt beam="1">  1       -1 0.18931620E-01 0.13273379E+03</pdfrwt>
<totfact> 0.39391643E+03</totfact>
</mgrwt>
</event>
<event>
 7    1  0.6008063E-006  0.1275514E+03  0.7546771E-02  0.1245716E+00
         -1   -1    0    0    0  501 -0.00000000000E+00  0.00000000000E+00  0.12767599624E+03  0.12767599624E+03  0.00000000000E+00 0.  1.
          1   -1    0    0  501    0  0.00000000000E+00 -0.00000000000E+00 -0.11585552597E+03  0.11585552597E+03  0.00000000000E+00 0. -1.
         23    2    1    2    0    0 -0.25372337162E+02 -0.99577292451E+00 -0.42303006071E+02  0.13438344019E+03  0.12499847046E+03 0.  0.
          5    1    3    3  502    0 -0.55289598926E+02  0.44382719565E+02 -0.12268895896E+02  0.72106735829E+02  0.47000000000E+01 0. -1.
         -5    1    3    3    0  502  0.29917261764E+02 -0.45378492489E+02 -0.30034110175E+02  0.62276704361E+02  0.47000000000E+01 0. -1.
        -11    1    1    2    0    0  0.84929970484E+01 -0.42116500768E+02  0.44506911430E+02  0.61861100870E+02  0.00000000000E+00 0.  1.
         11    1    1    2    0    0  0.16879340113E+02  0.43112273693E+02  0.96165649079E+01  0.47286981149E+02  0.00000000000E+00 0. -1.
<mgrwt>
<rscale>  0 0.11842609E+03</rscale>
<asrwt>0</asrwt>
<pdfrwt beam="2">  1        1 0.17823927E-01 0.12755142E+03</pdfrwt>
<pdfrwt beam="1">  1       -1 0.19642461E-01 0.12755142E+03</pdfrwt>
<totfact> 0.58400579E+03</totfact>
</mgrwt>
</event>
<event>
 7    1  0.6008063E-006  0.1962805E+03  0.7546771E-02  0.1156864E+00
         -1   -1    0    0    0  501 -0.00000000000E+00  0.00000000000E+00  0.91177444043E+02  0.91177444043E+02  0.00000000000E+00 0.  1.
          1   -1    0    0  501    0  0.00000000000E+00 -0.00000000000E+00 -0.44265279877E+03  0.44265279877E+03  0.00000000000E+00 0. -1.
         23    2    1    2    0    0  0.13425132202E+03 -0.69834771972E+02 -0.87390866955E+02  0.21485624232E+03  0.12500291356E+03 0.  0.
          5    1    3    3  502    0  0.33702812981E+02 -0.14177441287E+02 -0.92650530847E+02  0.99715045557E+02  0.47000000000E+01 0.  1.
         -5    1    3    3    0  502  0.10054850904E+03 -0.55657330685E+02  0.52596638924E+01  0.11514119677E+03  0.47000000000E+01 0.  1.
        -11    1    1    2    0    0 -0.82844069465E+02  0.76873939751E+02 -0.23174442961E+03  0.25783371213E+03  0.00000000000E+00 0. -1.
         11    1    1    2    0    0 -0.51407252552E+02 -0.70391677798E+01 -0.32340058163E+02  0.61140288354E+02  0.00000000000E+00 0.  1.
<mgrwt>
<rscale>  0 0.19178211E+03</rscale>
<asrwt>0</asrwt>
<pdfrwt beam="2">  1        1 0.68100431E-01 0.19628052E+03</pdfrwt>
<pdfrwt beam="1">  1       -1 0.14027299E-01 0.19628052E+03</pdfrwt>
<totfact> 0.18834159E+03</totfact>
</mgrwt>
</event>
<event>
 6    1  0.6008063E-006  0.2425892E+03  0.7546771E-02  0.1134494E+00
          2   -1    0    0  501    0  0.00000000000E+00  0.00000000000E+00  0.32983550500E+03  0.32983550500E+03  0.00000000000E+00 0. -1.
         -2   -1    0    0    0  501 -0.00000000000E+00 -0.00000000000E+00 -0.13932083418E+03  0.13932083418E+03  0.00000000000E+00 0.  1.
          5    1    1    2  502    0  0.16206880862E+03 -0.31265850427E+02  0.20091164704E+03  0.26006043922E+03  0.47000000000E+01 0. -1.
         -5    1    1    2    0  502 -0.29248118792E+02  0.35044560212E+02 -0.11974479679E+02  0.47424169122E+02  0.47000000000E+01 0.  1.
        -11    1    1    2    0    0 -0.12027549357E+03  0.12672324527E+02 -0.29360173594E+02  0.12445401543E+03  0.00000000000E+00 0.  1.
         11    1    1    2    0    0 -0.12545196253E+02 -0.16451034312E+02  0.30937677049E+02  0.37217715408E+02  0.00000000000E+00 0. -1.
<mgrwt>
<rscale>  0 0.21918306E+03</rscale>
<asrwt>0</asrwt>
<pdfrwt beam="1">  1        2 0.50743924E-01 0.24258922E+03</pdfrwt>
<pdfrwt beam="2">  1       -2 0.21433974E-01 0.24258922E+03</pdfrwt>
<totfact> 0.18299840E+03</totfact>
</mgrwt>
</event>
<event>
 7    1  0.6008063E-006  0.1373031E+03  0.7546771E-02  0.1231226E+00
         -2   -1    0    0    0  501 -0.00000000000E+00  0.00000000000E+00  0.76811759230E+02  0.76811759230E+02  0.00000000000E+00 0.  1.
          2   -1    0    0  501    0  0.00000000000E+00 -0.00000000000E+00 -0.18853986901E+03  0.18853986901E+03  0.00000000000E+00 0. -1.
         23    2    1    2    0    0 -0.63831486415E+02 -0.16274797392E+02 -0.77691454452E+02  0.15775966689E+03  0.12046917745E+03 0.  0.
          5    1    3    3  502    0 -0.96776749940E+02 -0.77843603464E+01 -0.35793072285E+02  0.10358363586E+03  0.47000000000E+01 0. -1.
         -5    1    3    3    0  502  0.32945263525E+02 -0.84904370459E+01 -0.41898382167E+02  0.54176031030E+02  0.47000000000E+01 0.  1.
        -11    1    1    2    0    0  0.38639367638E+02 -0.30280134713E+02 -0.17915487283E+02  0.52257554231E+02  0.00000000000E+00 0. -1.
         11    1    1    2    0    0  0.25192118777E+02  0.46554932105E+02 -0.16121168045E+02  0.55334407116E+02  0.00000000000E+00 0.  1.
<mgrwt>
<rscale>  0 0.12749142E+03</rscale>
<asrwt>0</asrwt>
<pdfrwt beam="2">  1        2 0.29006133E-01 0.13730313E+03</pdfrwt>
<pdfrwt beam="1">  1       -2 0.11817194E-01 0.13730313E+03</pdfrwt>
<totfact> 0.87302118E+03</totfact>
</mgrwt>
</event>
<event>
 7    1  0.6008063E-006  0.1261518E+03  0.7546771E-02  0.1248267E+00
          3   -1    0    0  501    0  0.00000000000E+00  0.00000000000E+00  0.32209220351E+03  0.32209220351E+03  0.00000000000E+00 0. -1.
         -3   -1    0    0    0  501 -0.00000000000E+00 -0.00000000000E+00 -0.37980104769E+02  0.37980104769E+02  0.00000000000E+00 0.  1.
         23    2    1    2    0    0 -0.81650453285E+01  0.14920000957E+02  0.13938483741E+03  0.18799579244E+03  0.12500004273E+03 0.  0.
          5    1    3    3  502    0  0.33616443101E+02  0.47948145458E+02  0.29375361024E+02  0.65681745827E+02  0.47000000000E+01 0. -1.
         -5    1    3    3    0  502 -0.41781488429E+02 -0.33028144501E+02  0.11000947638E+03  0.12231404661E+03  0.47000000000E+01 0. -1.
        -11    1    1    2    0    0  0.44694761935E+02  0.36129455750E+00  0.39512459169E+02  0.59657243548E+02  0.00000000000E+00 0.  1.
         11    1    1    2    0    0 -0.36529716606E+02 -0.15281295514E+02  0.10521480216E+03  0.11241927229E+03  0.00000000000E+00 0. -1.
<mgrwt>
<rscale>  0 0.11691956E+03</rscale>
<asrwt>0</asrwt>
<pdfrwt beam="1">  1        3 0.49552645E-01 0.12615183E+03</pdfrwt>
<pdfrwt beam="2">  1       -3 0.58430932E-02 0.12615183E+03</pdfrwt>
<totfact> 0.16400524E+03</totfact>
</mgrwt>
</event>
<event>
 7    1  0.6008063E-006  0.1594432E+03  0.7546771E-02  0.1197549E+00
          2   -1    0    0  501    0  0.00000000000E+00  0.00000000000E+00  0.14683619472E+04  0.14683619472E+04  0.00000000000E+00 0. -1.
         -2   -1    0    0    0  501 -0.00000000000E+00 -0.00000000000E+00 -0.25886966477E+02  0.25886966477E+02  0.00000000000E+00 0.  1.
         23    2    1    2    0    0 -0.98746516510E+02  0.68737638428E+01  0.12506380229E+04  0.12607607189E+04  0.12499601153E+03 0.  0.
          5    1    3    3  502    0 -0.24742834272E+02  0.51897005455E+02  0.78457080957E+03  0.78668859929E+03  0.47000000000E+01 0.  1.
         -5    1    3    3    0  502 -0.74003682238E+02 -0.45023241612E+02  0.46606721328E+03  0.47407211958E+03  0.47000000000E+01 0.  1.
        -11    1    1    2    0    0  0.29429664953E+02  0.31126749114E+02  0.11715009057E+03  0.12473621531E+03  0.00000000000E+00 0. -1.
         11    1    1    2    0    0  0.69316851557E+02 -0.38000512956E+02  0.74686867277E+02  0.10875197947E+03  0.00000000000E+00 0.  1.
<mgrwt>
<rscale>  0 0.15240460E+03</rscale>
<asrwt>0</asrwt>
<pdfrwt beam="1">  1        2 0.22590177E+00 0.15944317E+03</pdfrwt>
<pdfrwt beam="2">  1       -2 0.39826114E-02 0.15944317E+03</pdfrwt>
<totfact> 0.38977176E+03</totfact>
</mgrwt>
</event>
<event>
 7    1  0.6008063E-006  0.1540305E+03  0.7546771E-02  0.1203564E+00
         -2   -1    0    0    0  501 -0.00000000000E+00  0.00000000000E+00  0.23927600121E+03  0.23927600121E+03  0.00000000000E+00 0.  1.
          2   -1    0    0  501    0  0.00000000000E+00 -0.00000000000E+00 -0.11031896667E+03  0.11031896667E+03  0.00000000000E+00 0. -1.
         23    2    1    2    0    0 -0.28298482000E+02  0.85439422522E+02 -0.16369350239E+02  0.15489785455E+03  0.12499876285E+03 0.  0.
          5    1    3    3  502    0 -0.15538030310E+02  0.72071988557E+02 -0.67659150765E+02  0.10017810441E+03  0.47000000000E+01 0. -1.
         -5    1    3    3    0  502 -0.12760451690E+02  0.13367433964E+02  0.51289800526E+02  0.54719750147E+02  0.47000000000E+01 0. -1.
        -11    1    1    2    0    0 -0.20765230610E+02 -0.65130772854E+02  0.47034056621E+02  0.82978399943E+02  0.00000000000E+00 0. -1.
         11    1    1    2    0    0  0.49063712610E+02 -0.20308649667E+02  0.98292328158E+02  0.11171871339E+03  0.00000000000E+00 0.  1.
<mgrwt>
<rscale>  0 0.14751199E+03</rscale>
<asrwt>0</asrwt>
<pdfrwt beam="2">  1        2 0.16972149E-01 0.15403048E+03</pdfrwt>
<pdfrwt beam="1">  1       -2 0.36811692E-01 0.15403048E+03</pdfrwt>
<totfact> 0.22873085E+03</totfact>
</mgrwt>
</event>
<event>
 7    1  0.6008063E-006  0.2073732E+03  0.7546771E-02  0.1147175E+00
          1   -1    0    0  501    0  0.00000000000E+00  0.00000000000E+00  0.76095284544E+02  0.76095284544E+02  0.00000000000E+00 0. -1.
         -1   -1    0    0    0  501 -0.00000000000E+00 -0.00000000000E+00 -0.54795418596E+03  0.54795418596E+03  0.00000000000E+00 0.  1.
         23    2    1    2    0    0  0.94549142051E+02  0.13578919082E+03 -0.17562650699E+03  0.27175048380E+03  0.12500164352E+03 0.  0.
          5    1    3    3  502    0 -0.28413303184E+02  0.48848339192E+02 -0.48193544291E+02  0.74418974401E+02  0.47000000000E+01 0.  1.
         -5    1    3    3    0  502  0.12296244523E+03  0.86940851633E+02 -0.12743296269E+03  0.19733150940E+03  0.47000000000E+01 0.  1.
        -11    1    1    2    0    0 -0.73938804057E+02 -0.85371905139E+02 -0.10771182574E+03  0.15606776200E+03  0.00000000000E+00 0. -1.
         11    1    1    2    0    0 -0.20610337993E+02 -0.50417285686E+02 -0.18852056869E+03  0.19623122470E+03  0.00000000000E+00 0.  1.
<mgrwt>
<rscale>  0 0.20306913E+03</rscale>
<asrwt>0</asrwt>
<pdfrwt beam="1">  1        1 0.11706967E-01 0.20737323E+03</pdfrwt>
<pdfrwt beam="2">  1       -1 0.84300645E-01 0.20737323E+03</pdfrwt>
<totfact> 0.75613122E+02</totfact>
</mgrwt>
</event>
<event>
 7    1  0.6008063E-006  0.1362990E+03  0.7546771E-02  0.1230117E+00
         -2   -1    0    0    0  501 -0.00000000000E+00  0.00000000000E+00  0.39917483144E+02  0.39917483144E+02  0.00000000000E+00 0.  1.
          2   -1    0    0  501    0  0.00000000000E+00 -0.00000000000E+00 -0.38405816274E+03  0.38405816274E+03  0.00000000000E+00 0. -1.
         23    2    1    2    0    0 -0.39646285853E+02  0.37281237992E+02 -0.23252296344E+03  0.26952613697E+03  0.12496275963E+03 0.  0.
          5    1    3    3  502    0 -0.41630282872E+02 -0.36762590617E+02 -0.60975329578E+02  0.82611435879E+02  0.47000000000E+01 0. -1.
         -5    1    3    3    0  502  0.19839970190E+01  0.74043828609E+02 -0.17154763387E+03  0.18691470109E+03  0.47000000000E+01 0. -1.
        -11    1    1    2    0    0  0.61393016487E+02  0.10836315585E+01 -0.53119367698E+02  0.81190787380E+02  0.00000000000E+00 0.  1.
         11    1    1    2    0    0 -0.21746730634E+02 -0.38364869550E+02 -0.58498348453E+02  0.73258721533E+02  0.00000000000E+00 0. -1.
<mgrwt>
<rscale>  0 0.12822247E+03</rscale>
<asrwt>0</asrwt>
<pdfrwt beam="2">  1        2 0.59085872E-01 0.13629897E+03</pdfrwt>
<pdfrwt beam="1">  1       -2 0.61411512E-02 0.13629897E+03</pdfrwt>
<totfact> 0.11288673E+04</totfact>
</mgrwt>
</event>
<event>
 7    1  0.3245568E-005  0.2502750E+03  0.7546771E-02  0.1115666E+00
         -1   -1    0    0    0  501 -0.00000000000E+00  0.00000000000E+00  0.29699662640E+03  0.29699662640E+03  0.00000000000E+00 0.  1.
          1   -1    0    0  501    0  0.00000000000E+00 -0.00000000000E+00 -0.20694604138E+03  0.20694604138E+03  0.00000000000E+00 0. -1.
         23    2    1    2    0    0 -0.16534887684E+03 -0.14025772409E+03 -0.58879090412E+01  0.25034423932E+03  0.12500036180E+03 0.  0.
          5    1    3    3  502    0 -0.35809930878E+02 -0.11168635972E+03  0.16809860373E+01  0.11739297172E+03  0.47000000000E+01 0. -1.
         -5    1    3    3    0  502 -0.12953894596E+03 -0.28571364372E+02 -0.75688950785E+01  0.13295126760E+03  0.47000000000E+01 0. -1.
        -11    1    1    2    0    0  0.89801349668E+02  0.18943935339E+02  0.40295384794E+02  0.10023409163E+03  0.00000000000E+00 0.  1.
         11    1    1    2    0    0  0.75547527172E+02  0.12131378875E+03  0.55643109266E+02  0.15336433683E+03  0.00000000000E+00 0. -1.
<mgrwt>
<rscale>  0 0.24630027E+03</rscale>
<asrwt>0</asrwt>
<pdfrwt beam="2">  1        1 0.31837852E-01 0.25027499E+03</pdfrwt>
<pdfrwt beam="1">  1       -1 0.45691789E-01 0.25027499E+03</pdfrwt>
<totfact> 0.68306382E+02</totfact>
</mgrwt>
</event>
<event>
 7    1  0.6008063E-006  0.1266397E+03  0.7546771E-02  0.1248158E+00
          2   -1    0    0  501    0  0.00000000000E+00  0.00000000000E+00  0.77024006766E+03  0.77024006766E+03  0.00000000000E+00 0. -1.
         -2   -1    0    0    0  501 -0.00000000000E+00 -0.00000000000E+00 -0.15760739786E+02  0.15760739786E+02  0.00000000000E+00 0.  1.
         23    2    1    2    0    0 -0.80181485306E+01 -0.18691867629E+02  0.48109448547E+03  0.49748317068E+03  0.12499569807E+03 0.  0.
          5    1    3    3  502    0 -0.56493871848E+02  0.21720733149E+02  0.18518544922E+03  0.19488224241E+03  0.47000000000E+01 0. -1.
         -5    1    3    3    0  502  0.48475723317E+02 -0.40412600779E+02  0.29590903625E+03  0.30260092826E+03  0.47000000000E+01 0. -1.
        -11    1    1    2    0    0  0.36553978201E+02 -0.73195354982E+01  0.53132013678E+02  0.64905930390E+02  0.00000000000E+00 0.  1.
         11    1    1    2    0    0 -0.28535829671E+02  0.26011403127E+02  0.22025282873E+03  0.22361170638E+03  0.00000000000E+00 0. -1.
<mgrwt>
<rscale>  0 0.11698355E+03</rscale>
<asrwt>0</asrwt>
<pdfrwt beam="1">  1        2 0.11849844E+00 0.12663965E+03</pdfrwt>
<pdfrwt beam="2">  1       -2 0.24247298E-02 0.12663965E+03</pdfrwt>
<totfact> 0.20402949E+04</totfact>
</mgrwt>
</event>
<event>
 6    1  0.6008063E-006  0.5577925E+03  0.7546771E-02  0.1055685E+00
         -2   -1    0    0    0  501 -0.00000000000E+00  0.00000000000E+00  0.36844721062E+02  0.36844721062E+02  0.00000000000E+00 0.  1.
          2   -1    0    0  501    0  0.00000000000E+00 -0.00000000000E+00 -0.31107442873E+04  0.31107442873E+04  0.00000000000E+00 0. -1.
          5    1    1    2  502    0  0.17973087634E+03  0.20173161495E+03 -0.21856466512E+04  0.22022879481E+04  0.47000000000E+01 0. -1.
         -5    1    1    2    0  502 -0.14135105925E+03 -0.16642627473E+03 -0.59655664959E+03  0.63527927170E+03  0.47000000000E+01 0.  1.
        -11    1    1    2    0    0 -0.47788859898E+02 -0.60636790096E+02 -0.23160737270E+03  0.24413637691E+03  0.00000000000E+00 0.  1.
         11    1    1    2    0    0  0.94090428150E+01  0.25331449875E+02 -0.60088892754E+02  0.65885411677E+02  0.00000000000E+00 0. -1.
<mgrwt>
<rscale>  0 0.36741823E+03</rscale>
<asrwt>0</asrwt>
<pdfrwt beam="2">  1        2 0.47857598E+00 0.55779254E+03</pdfrwt>
<pdfrwt beam="1">  1       -2 0.56684193E-02 0.55779254E+03</pdfrwt>
<totfact> 0.27289165E+02</totfact>
</mgrwt>
</event>
<event>
 7    1  0.6008063E-006  0.1311228E+03  0.7546771E-02  0.1238195E+00
         -1   -1    0    0    0  501 -0.00000000000E+00  0.00000000000E+00  0.29887444961E+02  0.29887444961E+02  0.00000000000E+00 0.  1.
          1   -1    0    0  501    0  0.00000000000E+00 -0.00000000000E+00 -0.45647939391E+03  0.45647939391E+03  0.00000000000E+00 0. -1.
         23    2    1    2    0    0 -0.10136945159E+02 -0.38298313346E+02 -0.26114598481E+03  0.29221637540E+03  0.12499466472E+03 0.  0.
          5    1    3    3  502    0 -0.18354704644E+02  0.40935088314E+02 -0.14054435227E+03  0.14760549310E+03  0.47000000000E+01 0.  1.
         -5    1    3    3    0  502  0.82177594854E+01 -0.79233401660E+02 -0.12060163254E+03  0.14461088230E+03  0.47000000000E+01 0.  1.
        -11    1    1    2    0    0 -0.98213208799E+01  0.55614871553E+02 -0.15629812004E+03  0.16618837086E+03  0.00000000000E+00 0. -1.
         11    1    1    2    0    0  0.19958266039E+02 -0.17316558207E+02 -0.91478441041E+01  0.27962092611E+02  0.00000000000E+00 0.  1.
<mgrwt>
<rscale>  0 0.12302101E+03</rscale>
<asrwt>0</asrwt>
<pdfrwt beam="2">  1        1 0.70227603E-01 0.13112278E+03</pdfrwt>
<pdfrwt beam="1">  1       -1 0.45980682E-02 0.13112278E+03</pdfrwt>
<totfact> 0.96591436E+03</totfact>
</mgrwt>
</event>
<event>
 7    1  0.6008063E-006  0.1791702E+03  0.7546771E-02  0.1177450E+00
          1   -1    0    0  501    0  0.00000000000E+00  0.00000000000E+00  0.15561157879E+04  0.15561157879E+04  0.00000000000E+00 0. -1.
         -1   -1    0    0    0  501 -0.00000000000E+00 -0.00000000000E+00 -0.19204185073E+02  0.19204185073E+02  0.00000000000E+00 0.  1.
         23    2    1    2    0    0  0.10907277970E+03 -0.67682649260E+02  0.10999519221E+04  0.11144488313E+04  0.12499661784E+03 0.  0.
          5    1    3    3  502    0  0.58339188749E+02 -0.90442278485E+02  0.47754185714E+03  0.48954221677E+03  0.47000000000E+01 0. -1.
         -5    1    3    3    0  502  0.50733590948E+02  0.22759629225E+02  0.62241006495E+03  0.62490661456E+03  0.47000000000E+01 0. -1.
        -11    1    1    2    0    0 -0.66975819658E+02  0.60270457509E+02  0.19051343768E+03  0.21074548252E+03  0.00000000000E+00 0.  1.
         11    1    1    2    0    0 -0.42096960039E+02  0.74121917508E+01  0.24644624308E+03  0.25012565914E+03  0.00000000000E+00 0. -1.
<mgrwt>
<rscale>  0 0.17038229E+03</rscale>
<asrwt>0</asrwt>
<pdfrwt beam="1">  1        1 0.23940233E+00 0.17917022E+03</pdfrwt>
<pdfrwt beam="2">  1       -1 0.29544912E-02 0.17917022E+03</pdfrwt>
<totfact> 0.25299461E+03</totfact>
</mgrwt>
</event>
<event>
 7    1  0.6008063E-006  0.1962875E+03  0.7546771E-02  0.1157813E+00
          2   -1    0    0  501    0  0.00000000000E+00  0.00000000000E+00  0.11956847368E+04  0.11956847368E+04  0.00000000000E+00 0. -1.
         -2   -1    0    0    0  501 -0.00000000000E+00 -0.00000000000E+00 -0.28879443065E+02  0.28879443065E+02  0.00000000000E+00 0.  1.
         23    2    1    2    0    0  0.14136149156E+03 -0.54049580182E+02  0.64565513680E+03  0.67483283277E+03  0.12499747236E+03 0.  0.
          5    1    3    3  502    0 -0.24789252038E+01 -0.82393501732E+00  0.25595512523E+03  0.25601160143E+03  0.47000000000E+01 0.  1.
         -5    1    3    3    0  502  0.14384041677E+03 -0.53225645165E+02  0.38970001157E+03  0.41882123134E+03  0.47000000000E+01 0.  1.
        -11    1    1    2    0    0 -0.91769618828E+02  0.61691314453E+01  0.18520151819E+03  0.20678327655E+03  0.00000000000E+00 0.  1.
         11    1    1    2    0    0 -0.49591872734E+02  0.47880448737E+02  0.33594863873E+03  0.34294807053E+03  0.00000000000E+00 0. -1.
<mgrwt>
<rscale>  0 0.19072045E+03</rscale>
<asrwt>0</asrwt>
<pdfrwt beam="1">  1        2 0.18395146E+00 0.19628754E+03</pdfrwt>
<pdfrwt beam="2">  1       -2 0.44429922E-02 0.19628754E+03</pdfrwt>
<totfact> 0.46712604E+03</totfact>
</mgrwt>
</event>
<event>
 7    1  0.6008063E-006  0.1267560E+03  0.7546771E-02  0.1239588E+00
         -1   -1    0    0    0  501 -0.00000000000E+00  0.00000000000E+00  0.10824299134E+03  0.10824299134E+03  0.00000000000E+00 0.  1.
          1   -1    0    0  501    0  0.00000000000E+00 -0.00000000000E+00 -0.12884358345E+03  0.12884358345E+03  0.00000000000E+00 0. -1.
         23    2    1    2    0    0  0.37252381810E+02 -0.45930466363E+02 -0.73900371308E+01  0.12697126506E+03  0.11211485990E+03 0.  0.
          5    1    3    3  502    0  0.17536504912E+02  0.35966197888E+02 -0.13220814740E+02  0.42402551072E+02  0.47000000000E+01 0. -1.
         -5    1    3    3    0  502  0.19715876899E+02 -0.81896664251E+02  0.58307776089E+01  0.84568713984E+02  0.47000000000E+01 0.  1.
        -11    1    1    2    0    0 -0.56510677799E+01  0.15151248179E+02  0.38729629907E+02  0.41969978808E+02  0.00000000000E+00 0.  1.
         11    1    1    2    0    0 -0.31601314031E+02  0.30779218184E+02 -0.51940184887E+02  0.68145330923E+02  0.00000000000E+00 0. -1.
<mgrwt>
<rscale>  0 0.12215222E+03</rscale>
<asrwt>0</asrwt>
<pdfrwt beam="2">  1        1 0.19822090E-01 0.12675602E+03</pdfrwt>
<pdfrwt beam="1">  1       -1 0.16652768E-01 0.12675602E+03</pdfrwt>
<totfact> 0.66274961E+03</totfact>
</mgrwt>
</event>
<event>
 6    1  0.6008063E-006  0.4934267E+03  0.7546771E-02  0.1070670E+00
          1   -1    0    0  501    0  0.00000000000E+00  0.00000000000E+00  0.48591306009E+03  0.48591306009E+03  0.00000000000E+00 0. -1.
         -1   -1    0    0    0  501 -0.00000000000E+00 -0.00000000000E+00 -0.21980528740E+03  0.21980528740E+03  0.00000000000E+00 0.  1.
          5    1    1    2  502    0  0.15426957717E+03  0.13373170851E+02  0.41064076737E+03  0.43889164263E+03  0.47000000000E+01 0. -1.
         -5    1    1    2    0  502 -0.11826216806E+03 -0.37028995755E+02 -0.86748503432E+02  0.15134226035E+03  0.47000000000E+01 0.  1.
        -11    1    1    2    0    0 -0.62692970558E+02  0.31186187526E+02 -0.29829022869E+02  0.76110166568E+02  0.00000000000E+00 0.  1.
         11    1    1    2    0    0  0.26685561441E+02 -0.75303626223E+01 -0.27955468383E+02  0.39374277939E+02  0.00000000000E+00 0. -1.
<mgrwt>
<rscale>  0 0.33105791E+03</rscale>
<asrwt>0</asrwt>
<pdfrwt beam="1">  1        1 0.74755855E-01 0.49342665E+03</pdfrwt>
<pdfrwt beam="2">  1       -1 0.33816198E-01 0.49342665E+03</pdfrwt>
<totfact> 0.38753247E+02</totfact>
</mgrwt>
</event>
<event>
 6    1  0.6008063E-006  0.1981670E+03  0.7546771E-02  0.1168515E+00
          1   -1    0    0  501    0  0.00000000000E+00  0.00000000000E+00  0.77042540211E+03  0.77042540211E+03  0.00000000000E+00 0. -1.
         -1   -1    0    0    0  501 -0.00000000000E+00 -0.00000000000E+00 -0.44660499529E+02  0.44660499529E+02  0.00000000000E+00 0.  1.
          5    1    1    2  502    0  0.33762114465E+01 -0.12906003087E+03  0.56789511434E+03  0.58240436233E+03  0.47000000000E+01 0. -1.
         -5    1    1    2    0  502 -0.18500920581E+02  0.33083712689E+02  0.33521640862E+02  0.50819351764E+02  0.47000000000E+01 0.  1.
        -11    1    1    2    0    0  0.39398658459E+02  0.65551514568E+01  0.34093444095E+02  0.52512733972E+02  0.00000000000E+00 0.  1.
         11    1    1    2    0    0 -0.24273949324E+02  0.89421166721E+02  0.90254703278E+02  0.12934945356E+03  0.00000000000E+00 0. -1.
<mgrwt>
<rscale>  0 0.17926591E+03</rscale>
<asrwt>0</asrwt>
<pdfrwt beam="1">  1        1 0.11852698E+00 0.19816700E+03</pdfrwt>
<pdfrwt beam="2">  1       -1 0.68708466E-02 0.19816700E+03</pdfrwt>
<totfact> 0.26334168E+03</totfact>
</mgrwt>
</event>
<event>
 7    1  0.6008063E-006  0.1507167E+03  0.7546771E-02  0.1207049E+00
          4   -1    0    0  501    0  0.00000000000E+00  0.00000000000E+00  0.42374057368E+02  0.42374057368E+02  0.00000000000E+00 0. -1.
         -4   -1    0    0    0  501 -0.00000000000E+00 -0.00000000000E+00 -0.69338050002E+03  0.69338050002E+03  0.00000000000E+00 0.  1.
         23    2    1    2    0    0 -0.79632580823E+02 -0.27406349835E+02 -0.12954348019E+03  0.19873859699E+03  0.12499224270E+03 0.  0.
          5    1    3    3  502    0 -0.18889508325E+02 -0.66702156600E+02 -0.30222320364E+02  0.75772487540E+02  0.47000000000E+01 0. -1.
         -5    1    3    3    0  502 -0.60743072498E+02  0.39295806764E+02 -0.99321159822E+02  0.12296610945E+03  0.47000000000E+01 0. -1.
        -11    1    1    2    0    0  0.65625649484E+02  0.50639109167E+02 -0.48232016935E+03  0.48939124533E+03  0.00000000000E+00 0.  1.
         11    1    1    2    0    0  0.14006931338E+02 -0.23232759332E+02 -0.39142793119E+02  0.47624715063E+02  0.00000000000E+00 0. -1.
<mgrwt>
<rscale>  0 0.14477148E+03</rscale>
<asrwt>0</asrwt>
<pdfrwt beam="1">  1        4 0.65190855E-02 0.15071668E+03</pdfrwt>
<pdfrwt beam="2">  1       -4 0.10667393E+00 0.15071668E+03</pdfrwt>
<totfact> 0.19385345E+02</totfact>
</mgrwt>
</event>
<event>
 7    1  0.6008063E-006  0.1256153E+03  0.7546771E-02  0.1249746E+00
         -1   -1    0    0    0  501 -0.00000000000E+00  0.00000000000E+00  0.10572436869E+03  0.10572436869E+03  0.00000000000E+00 0.  1.
          1   -1    0    0  501    0  0.00000000000E+00 -0.00000000000E+00 -0.11649365433E+03  0.11649365433E+03  0.00000000000E+00 0. -1.
         23    2    1    2    0    0  0.92385766058E+01  0.82671419030E+01 -0.28927131867E+02  0.12890303536E+03  0.12500206652E+03 0.  0.
          5    1    3    3  502    0 -0.16346262734E+02 -0.54108370092E+02 -0.39616517939E+01  0.56856843953E+02  0.47000000000E+01 0. -1.
         -5    1    3    3    0  502  0.25584839340E+02  0.62375511995E+02 -0.24965480073E+02  0.72046191404E+02  0.47000000000E+01 0. -1.
        -11    1    1    2    0    0  0.28346418181E+02 -0.32132727411E+02  0.22825136793E+02  0.48549134536E+02  0.00000000000E+00 0.  1.
         11    1    1    2    0    0 -0.37584994787E+02  0.23865585508E+02 -0.46672905728E+01  0.44765853126E+02  0.00000000000E+00 0. -1.
<mgrwt>
<rscale>  0 0.11605782E+03</rscale>
<asrwt>0</asrwt>
<pdfrwt beam="2">  1        1 0.17922101E-01 0.12561534E+03</pdfrwt>
<pdfrwt beam="1">  1       -1 0.16265287E-01 0.12561534E+03</pdfrwt>
<totfact> 0.78140011E+03</totfact>
</mgrwt>
</event>
<event>
 6    1  0.6008063E-006  0.2563232E+03  0.7546771E-02  0.1150186E+00
          3   -1    0    0  501    0  0.00000000000E+00  0.00000000000E+00  0.18983428634E+03  0.18983428634E+03  0.00000000000E+00 0. -1.
         -3   -1    0    0    0  501 -0.00000000000E+00 -0.00000000000E+00 -0.16904807707E+03  0.16904807707E+03  0.00000000000E+00 0.  1.
          5    1    1    2  502    0  0.12376023511E+03  0.49802932901E+02  0.56000202807E+02  0.14475855979E+03  0.47000000000E+01 0. -1.
         -5    1    1    2    0  502 -0.10311031293E+03 -0.52656912954E+02 -0.74889115140E+01  0.11611486085E+03  0.47000000000E+01 0.  1.
        -11    1    1    2    0    0 -0.46018718689E+02 -0.20898017244E+02 -0.36285045680E+02  0.62217795964E+02  0.00000000000E+00 0.  1.
         11    1    1    2    0    0  0.25368796510E+02  0.23751997297E+02  0.85599636561E+01  0.35791146807E+02  0.00000000000E+00 0. -1.
<mgrwt>
<rscale>  0 0.19947089E+03</rscale>
<asrwt>0</asrwt>
<pdfrwt beam="1">  1        3 0.29205275E-01 0.25632323E+03</pdfrwt>
<pdfrwt beam="2">  1       -3 0.26007397E-01 0.25632323E+03</pdfrwt>
<totfact> 0.39594685E+02</totfact>
</mgrwt>
</event>
<event>
 7    1  0.6008063E-006  0.1495994E+03  0.7546771E-02  0.1210375E+00
         -2   -1    0    0    0  501 -0.00000000000E+00  0.00000000000E+00  0.16750337434E+02  0.16750337434E+02  0.00000000000E+00 0.  1.
          2   -1    0    0  501    0  0.00000000000E+00 -0.00000000000E+00 -0.12089899400E+04  0.12089899400E+04  0.00000000000E+00 0. -1.
         23    2    1    2    0    0  0.20293904660E+02 -0.79640608569E+02 -0.83199149562E+03  0.84533415544E+03  0.12500206590E+03 0.  0.
          5    1    3    3  502    0 -0.15403489393E+02 -0.89891305511E+02 -0.74571144123E+03  0.75128247542E+03  0.47000000000E+01 0. -1.
         -5    1    3    3    0  502  0.35697394053E+02  0.10250696942E+02 -0.86280054388E+02  0.94051680023E+02  0.47000000000E+01 0. -1.
        -11    1    1    2    0    0 -0.41210262862E+02  0.16230437908E+02 -0.22795167980E+03  0.23221473081E+03  0.00000000000E+00 0. -1.
         11    1    1    2    0    0  0.20916358202E+02  0.63410170661E+02 -0.13229642711E+03  0.14819139115E+03  0.00000000000E+00 0.  1.
<mgrwt>
<rscale>  0 0.14221825E+03</rscale>
<asrwt>0</asrwt>
<pdfrwt beam="2">  1        2 0.18599847E+00 0.14959942E+03</pdfrwt>
<pdfrwt beam="1">  1       -2 0.25769747E-02 0.14959942E+03</pdfrwt>
<totfact> 0.10211819E+04</totfact>
</mgrwt>
</event>
<event>
 7    1  0.6008063E-006  0.1332022E+03  0.7546771E-02  0.1236989E+00
          2   -1    0    0  501    0  0.00000000000E+00  0.00000000000E+00  0.34893063453E+03  0.34893063453E+03  0.00000000000E+00 0. -1.
         -2   -1    0    0    0  501 -0.00000000000E+00 -0.00000000000E+00 -0.43748626543E+02  0.43748626543E+02  0.00000000000E+00 0.  1.
         23    2    1    2    0    0 -0.28526340736E+02  0.36042087759E+02  0.23808493950E+03  0.27281362283E+03  0.12502019908E+03 0.  0.
          5    1    3    3  502    0 -0.22623758456E+01 -0.46291249296E+02  0.79145029985E+02  0.91836941789E+02  0.47000000000E+01 0. -1.
         -5    1    3    3    0  502 -0.26263964891E+02  0.82333337055E+02  0.15893990951E+03  0.18097668104E+03  0.47000000000E+01 0. -1.
        -11    1    1    2    0    0  0.11894513415E+02 -0.22507723935E+01 -0.20897078386E+02  0.24150223825E+02  0.00000000000E+00 0.  1.
         11    1    1    2    0    0  0.16631827321E+02 -0.33791315366E+02  0.87994146871E+02  0.95715414421E+02  0.00000000000E+00 0. -1.
<mgrwt>
<rscale>  0 0.12377984E+03</rscale>
<asrwt>0</asrwt>
<pdfrwt beam="1">  1        2 0.53681634E-01 0.13320223E+03</pdfrwt>
<pdfrwt beam="2">  1       -2 0.67305582E-02 0.13320223E+03</pdfrwt>
<totfact> 0.10855036E+04</totfact>
</mgrwt>
</event>
<event>
 7    1  0.6008063E-006  0.1664568E+03  0.7546771E-02  0.1188989E+00
         -2   -1    0    0    0  501 -0.00000000000E+00  0.00000000000E+00  0.51586879167E+02  0.51586879167E+02  0.00000000000E+00 0.  1.
          2   -1    0    0  501    0  0.00000000000E+00 -0.00000000000E+00 -0.47816443864E+03  0.47816443864E+03  0.00000000000E+00 0. -1.
         23    2    1    2    0    0  0.99310927258E+02 -0.47118106881E+02 -0.28345613656E+03  0.32871756891E+03  0.12500032994E+03 0.  0.
          5    1    3    3  502    0  0.92591423613E+02  0.20840489026E+02 -0.19451726540E+03  0.21648684544E+03  0.47000000000E+01 0. -1.
         -5    1    3    3    0  502  0.67195036452E+01 -0.67958595907E+02 -0.88938871155E+02  0.11223072346E+03  0.47000000000E+01 0. -1.
        -11    1    1    2    0    0 -0.59806504784E+02  0.17388459940E+02 -0.13790561956E+03  0.15131799780E+03  0.00000000000E+00 0. -1.
         11    1    1    2    0    0 -0.39504422475E+02  0.29729646941E+02 -0.52158033531E+01  0.49715751095E+02  0.00000000000E+00 0.  1.
<mgrwt>
<rscale>  0 0.15974114E+03</rscale>
<asrwt>0</asrwt>
<pdfrwt beam="2">  1        2 0.73563757E-01 0.16645678E+03</pdfrwt>
<pdfrwt beam="1">  1       -2 0.79364432E-02 0.16645678E+03</pdfrwt>
<totfact> 0.60871981E+03</totfact>
</mgrwt>
</event>
<event>
 7    1  0.6008063E-006  0.1452760E+03  0.7546771E-02  0.1216239E+00
          4   -1    0    0  501    0  0.00000000000E+00  0.00000000000E+00  0.14518476899E+04  0.14518476899E+04  0.00000000000E+00 0. -1.
         -4   -1    0    0    0  501 -0.00000000000E+00 -0.00000000000E+00 -0.17649608132E+02  0.17649608132E+02  0.00000000000E+00 0.  1.
         23    2    1    2    0    0 -0.59718446014E+02  0.43745176218E+02  0.11848323667E+04  0.11937055193E+04  0.12500078548E+03 0.  0.
          5    1    3    3  502    0 -0.89969562110E+02  0.49455629039E+02  0.10629723338E+04  0.10679291427E+04  0.47000000000E+01 0.  1.
         -5    1    3    3    0  502  0.30251116096E+02 -0.57104528213E+01  0.12186003292E+03  0.12577637663E+03  0.47000000000E+01 0.  1.
        -11    1    1    2    0    0 -0.15447952470E+02 -0.94053212515E+01  0.64459895555E+01  0.19200262621E+02  0.00000000000E+00 0.  1.
         11    1    1    2    0    0  0.75166398483E+02 -0.34339854967E+02  0.24291972545E+03  0.25659151605E+03  0.00000000000E+00 0. -1.
<mgrwt>
<rscale>  0 0.13785920E+03</rscale>
<asrwt>0</asrwt>
<pdfrwt beam="1">  1        4 0.22336109E+00 0.14527605E+03</pdfrwt>
<pdfrwt beam="2">  1       -4 0.27153255E-02 0.14527605E+03</pdfrwt>
<totfact> 0.11273641E+02</totfact>
</mgrwt>
</event>
<event>
 7    1  0.6008063E-006  0.1587650E+03  0.7546771E-02  0.1198048E+00
          1   -1    0    0  501    0  0.00000000000E+00  0.00000000000E+00  0.37124132432E+03  0.37124132432E+03  0.00000000000E+00 0. -1.
         -1   -1    0    0    0  501 -0.00000000000E+00 -0.00000000000E+00 -0.65530898172E+02  0.65530898172E+02  0.00000000000E+00 0.  1.
         23    2    1    2    0    0  0.75442814268E+02  0.62368462099E+02  0.24088264616E+03  0.28849743035E+03  0.12499949923E+03 0.  0.
          5    1    3    3  502    0  0.33617682025E+02  0.43059750907E+02  0.13527500023E+02  0.56474542493E+02  0.47000000000E+01 0.  1.
         -5    1    3    3    0  502  0.41825132243E+02  0.19308711192E+02  0.22735514614E+03  0.23202288786E+03  0.47000000000E+01 0.  1.
        -11    1    1    2    0    0 -0.13673946258E+02 -0.23637172247E+02 -0.21877740019E+02  0.34990401918E+02  0.00000000000E+00 0.  1.
         11    1    1    2    0    0 -0.61768868010E+02 -0.38731289852E+02  0.86705520010E+02  0.11328439023E+03  0.00000000000E+00 0. -1.
<mgrwt>
<rscale>  0 0.15199033E+03</rscale>
<asrwt>0</asrwt>
<pdfrwt beam="1">  1        1 0.57114049E-01 0.15876498E+03</pdfrwt>
<pdfrwt beam="2">  1       -1 0.10081677E-01 0.15876498E+03</pdfrwt>
<totfact> 0.39073891E+03</totfact>
</mgrwt>
</event>
<event>
 6    1  0.6008063E-006  0.1637334E+03  0.7546771E-02  0.1204511E+00
         -2   -1    0    0    0  501 -0.00000000000E+00  0.00000000000E+00  0.13749653366E+02  0.13749653366E+02  0.00000000000E+00 0.  1.
          2   -1    0    0  501    0  0.00000000000E+00 -0.00000000000E+00 -0.14165638105E+04  0.14165638105E+04  0.00000000000E+00 0. -1.
          5    1    1    2  502    0  0.64014576728E+02  0.40159950430E+02 -0.30422118151E+03  0.31350168251E+03  0.47000000000E+01 0. -1.
         -5    1    1    2    0  502 -0.71714755988E+02  0.14252192166E+02 -0.72080158109E+03  0.72451579728E+03  0.47000000000E+01 0.  1.
        -11    1    1    2    0    0 -0.33863257515E+01 -0.78117830200E+02 -0.25374457895E+03  0.26551868850E+03  0.00000000000E+00 0.  1.
         11    1    1    2    0    0  0.11086505011E+02  0.23705687604E+02 -0.12404681556E+03  0.12677729555E+03  0.00000000000E+00 0. -1.
<mgrwt>
<rscale>  0 0.14676031E+03</rscale>
<asrwt>0</asrwt>
<pdfrwt beam="2">  1        2 0.21793291E+00 0.16373339E+03</pdfrwt>
<pdfrwt beam="1">  1       -2 0.21153312E-02 0.16373339E+03</pdfrwt>
<totfact> 0.10565450E+04</totfact>
</mgrwt>
</event>
<event>
 7    1  0.6008063E-006  0.2275231E+03  0.7546771E-02  0.1131709E+00
          2   -1    0    0  501    0  0.00000000000E+00  0.00000000000E+00  0.24037856840E+04  0.24037856840E+04  0.00000000000E+00 0. -1.
         -2   -1    0    0    0  501 -0.00000000000E+00 -0.00000000000E+00 -0.27100445242E+02  0.27100445242E+02  0.00000000000E+00 0.  1.
         23    2    1    2    0    0 -0.17067119473E+03 -0.83761748305E+02  0.18505760740E+04  0.18645102813E+04  0.12498838552E+03 0.  0.
          5    1    3    3  502    0 -0.12217834196E+03 -0.79759479077E+02  0.16986917524E+04  0.17049530437E+04  0.47000000000E+01 0.  1.
         -5    1    3    3    0  502 -0.48492852774E+02 -0.40022692274E+01  0.15188432157E+03  0.15955723759E+03  0.47000000000E+01 0.  1.
        -11    1    1    2    0    0  0.74333920403E+02 -0.10340394298E+02  0.18455988060E+03  0.19923555155E+03  0.00000000000E+00 0.  1.
         11    1    1    2    0    0  0.96337274331E+02  0.94102142602E+02  0.34154928424E+03  0.36714029639E+03  0.00000000000E+00 0. -1.
<mgrwt>
<rscale>  0 0.22294070E+03</rscale>
<asrwt>0</asrwt>
<pdfrwt beam="1">  1        2 0.36981301E+00 0.22752315E+03</pdfrwt>
<pdfrwt beam="2">  1       -2 0.41693012E-02 0.22752315E+03</pdfrwt>
<totfact> 0.11753100E+03</totfact>
</mgrwt>
</event>
<event>
 7    1  0.6008063E-006  0.1260666E+03  0.7546771E-02  0.1248559E+00
         -2   -1    0    0    0  501 -0.00000000000E+00  0.00000000000E+00  0.17414852688E+02  0.17414852688E+02  0.00000000000E+00 0. -1.
          2   -1    0    0  501    0  0.00000000000E+00 -0.00000000000E+00 -0.71551189880E+03  0.71551189880E+03  0.00000000000E+00 0.  1.
         23    2    1    2    0    0  0.27941122440E+02  0.20716852678E+02 -0.47219682425E+03  0.48873574555E+03  0.12117299140E+03 0.  0.
          5    1    3    3  502    0  0.19461151739E+02  0.71540519289E+02 -0.28416554744E+03  0.29371573107E+03  0.47000000000E+01 0.  1.
         -5    1    3    3    0  502  0.84799707014E+01 -0.50823666611E+02 -0.18803127681E+03  0.19502001448E+03  0.47000000000E+01 0. -1.
        -11    1    1    2    0    0  0.23557625158E+02  0.16310356708E+02 -0.57547728230E+02  0.64286316300E+02  0.00000000000E+00 0.  1.
         11    1    1    2    0    0 -0.51498747598E+02 -0.37027209386E+02 -0.16835249363E+03  0.17990468963E+03  0.00000000000E+00 0. -1.
<mgrwt>
<rscale>  0 0.11674864E+03</rscale>
<asrwt>0</asrwt>
<pdfrwt beam="2">  1        2 0.11007873E+00 0.12606660E+03</pdfrwt>
<pdfrwt beam="1">  1       -2 0.26792086E-02 0.12606660E+03</pdfrwt>
<totfact> 0.19271300E+04</totfact>
</mgrwt>
</event>
<event>
 7    1  0.6207601E-006  0.1542081E+03  0.7546771E-02  0.1203857E+00
         -1   -1    0    0    0  501 -0.00000000000E+00  0.00000000000E+00  0.41627504500E+02  0.41627504500E+02  0.00000000000E+00 0.  1.
          1   -1    0    0  501    0  0.00000000000E+00 -0.00000000000E+00 -0.51046782935E+03  0.51046782935E+03  0.00000000000E+00 0. -1.
         23    2    1    2    0    0  0.82195233204E+01  0.89930427775E+02 -0.32251458368E+03  0.35748537590E+03  0.12500037957E+03 0.  0.
          5    1    3    3  502    0 -0.48099484855E+02  0.32238742005E+02 -0.21682035806E+03  0.22446838218E+03  0.47000000000E+01 0.  1.
         -5    1    3    3    0  502  0.56319008175E+02  0.57691685770E+02 -0.10569422562E+03  0.13301699372E+03  0.47000000000E+01 0.  1.
        -11    1    1    2    0    0 -0.14047205315E+01 -0.34334745604E+02  0.36109586389E+01  0.34552670198E+02  0.00000000000E+00 0.  1.
         11    1    1    2    0    0 -0.68148027889E+01 -0.55595682170E+02 -0.14993669981E+03  0.16005728776E+03  0.00000000000E+00 0. -1.
<mgrwt>
<rscale>  0 0.14727875E+03</rscale>
<asrwt>0</asrwt>
<pdfrwt beam="2">  1        1 0.78533513E-01 0.15420810E+03</pdfrwt>
<pdfrwt beam="1">  1       -1 0.64042314E-02 0.15420810E+03</pdfrwt>
<totfact> 0.51569038E+03</totfact>
</mgrwt>
</event>
<event>
 7    1  0.6008063E-006  0.1529140E+03  0.7546771E-02  0.1206076E+00
         -1   -1    0    0    0  501 -0.00000000000E+00  0.00000000000E+00  0.59942576007E+02  0.59942576007E+02  0.00000000000E+00 0.  1.
          1   -1    0    0  501    0  0.00000000000E+00 -0.00000000000E+00 -0.33463746546E+03  0.33463746546E+03  0.00000000000E+00 0. -1.
         23    2    1    2    0    0  0.91733748671E+01  0.87592371324E+02 -0.18679066401E+03  0.24139890779E+03  0.12500442471E+03 0.  0.
          5    1    3    3  502    0 -0.33860354767E+02 -0.15651335584E+02 -0.70983307651E+02  0.80325636602E+02  0.47000000000E+01 0. -1.
         -5    1    3    3    0  502  0.43033729634E+02  0.10324370691E+03 -0.11580735636E+03  0.16107327118E+03  0.47000000000E+01 0. -1.
        -11    1    1    2    0    0 -0.13378638963E+02 -0.10463637896E+03 -0.63524576010E+02  0.12313866793E+03  0.00000000000E+00 0.  1.
         11    1    1    2    0    0  0.42052640955E+01  0.17044007631E+02 -0.24379649425E+02  0.30042465750E+02  0.00000000000E+00 0. -1.
<mgrwt>
<rscale>  0 0.14552971E+03</rscale>
<asrwt>0</asrwt>
<pdfrwt beam="2">  1        1 0.51482688E-01 0.15291396E+03</pdfrwt>
<pdfrwt beam="1">  1       -1 0.92219345E-02 0.15291396E+03</pdfrwt>
<totfact> 0.50903611E+03</totfact>
</mgrwt>
</event>
<event>
 7    1  0.6008063E-006  0.1287564E+03  0.7546771E-02  0.1243470E+00
          1   -1    0    0  501    0  0.00000000000E+00  0.00000000000E+00  0.18702677892E+03  0.18702677892E+03  0.00000000000E+00 0. -1.
         -1   -1    0    0    0  501 -0.00000000000E+00 -0.00000000000E+00 -0.70828238256E+02  0.70828238256E+02  0.00000000000E+00 0.  1.
         23    2    1    2    0    0 -0.61843684141E+01 -0.30435685011E+02  0.92590917172E+02  0.15859160511E+03  0.12495455947E+03 0.  0.
          5    1    3    3  502    0  0.50641243237E+01  0.41206486432E+01 -0.29782393067E+02  0.30849733179E+02  0.47000000000E+01 0.  1.
         -5    1    3    3    0  502 -0.11248492738E+02 -0.34556333654E+02  0.12237331024E+03  0.12774187193E+03  0.47000000000E+01 0.  1.
        -11    1    1    2    0    0 -0.36210624713E+02  0.15961232718E+02 -0.12742214192E+02  0.41573240366E+02  0.00000000000E+00 0.  1.
         11    1    1    2    0    0  0.42394993127E+02  0.14474452293E+02  0.36349837679E+02  0.57690171700E+02  0.00000000000E+00 0. -1.
<mgrwt>
<rscale>  0 0.11977417E+03</rscale>
<asrwt>0</asrwt>
<pdfrwt beam="1">  1        1 0.28773350E-01 0.12875643E+03</pdfrwt>
<pdfrwt beam="2">  1       -1 0.10896652E-01 0.12875643E+03</pdfrwt>
<totfact> 0.80284312E+03</totfact>
</mgrwt>
</event>
<event>
 7    1  0.1282023E-005  0.2016729E+03  0.7546771E-02  0.1152620E+00
          1   -1    0    0  501    0  0.00000000000E+00  0.00000000000E+00  0.92245322091E+03  0.92245322091E+03  0.00000000000E+00 0. -1.
         -1   -1    0    0    0  501 -0.00000000000E+00 -0.00000000000E+00 -0.41154670898E+02  0.41154670898E+02  0.00000000000E+00 0.  1.
         23    2    1    2    0    0 -0.12934624663E+03  0.91196447868E+02  0.54496581021E+03  0.58108493842E+03  0.12499891096E+03 0.  0.
          5    1    3    3  502    0 -0.10004871208E+03  0.20859751840E+02  0.16987035561E+03  0.19830002963E+03  0.47000000000E+01 0.  1.
         -5    1    3    3    0  502 -0.29297534553E+02  0.70336696027E+02  0.37509545460E+03  0.38278490879E+03  0.47000000000E+01 0.  1.
        -11    1    1    2    0    0  0.67745447787E+02 -0.98923043677E+02  0.21214923712E+03  0.24368527464E+03  0.00000000000E+00 0.  1.
         11    1    1    2    0    0  0.61600798844E+02  0.77265958098E+01  0.12418350268E+03  0.13883767874E+03  0.00000000000E+00 0. -1.
<mgrwt>
<rscale>  0 0.19662316E+03</rscale>
<asrwt>0</asrwt>
<pdfrwt beam="1">  1        1 0.14191586E+00 0.20167293E+03</pdfrwt>
<pdfrwt beam="2">  1       -1 0.63314885E-02 0.20167293E+03</pdfrwt>
<totfact> 0.22475303E+03</totfact>
</mgrwt>
</event>
<event>
 7    1  0.6008063E-006  0.1365203E+03  0.7546771E-02  0.1226565E+00
          3   -1    0    0  501    0  0.00000000000E+00  0.00000000000E+00  0.19408833013E+03  0.19408833013E+03  0.00000000000E+00 0. -1.
         -3   -1    0    0    0  501 -0.00000000000E+00 -0.00000000000E+00 -0.12208476131E+03  0.12208476131E+03  0.00000000000E+00 0.  1.
         23    2    1    2    0    0 -0.39537023733E+02 -0.38054594878E+02  0.12951573377E+03  0.18818109143E+03  0.12500587763E+03 0.  0.
          5    1    3    3  502    0  0.22511476203E+02  0.73854680083E+01  0.10437298948E+03  0.10713133357E+03  0.47000000000E+01 0. -1.
         -5    1    3    3    0  502 -0.62048499936E+02 -0.45440062886E+02  0.25142744284E+02  0.81049757862E+02  0.47000000000E+01 0. -1.
        -11    1    1    2    0    0  0.25535949797E+02  0.36422835364E+02 -0.85654806449E+02  0.96516597204E+02  0.00000000000E+00 0.  1.
         11    1    1    2    0    0  0.14001073936E+02  0.16317595137E+01  0.28142641503E+02  0.31475402797E+02  0.00000000000E+00 0. -1.
<mgrwt>
<rscale>  0 0.13060214E+03</rscale>
<asrwt>0</asrwt>
<pdfrwt beam="1">  1        3 0.29859743E-01 0.13652032E+03</pdfrwt>
<pdfrwt beam="2">  1       -3 0.18782271E-01 0.13652032E+03</pdfrwt>
<totfact> 0.62941256E+02</totfact>
</mgrwt>
</event>
<event>
 7    1  0.6008063E-006  0.1306370E+03  0.7546771E-02  0.1239812E+00
         -4   -1    0    0    0  501 -0.00000000000E+00  0.00000000000E+00  0.74655990075E+02  0.74655990075E+02  0.00000000000E+00 0.  1.
          4   -1    0    0  501    0  0.00000000000E+00 -0.00000000000E+00 -0.17756933589E+03  0.17756933589E+03  0.00000000000E+00 0. -1.
         23    2    1    2    0    0  0.37893189986E+02 -0.20195289144E+01 -0.63990333130E+02  0.14546750026E+03  0.12500423414E+03 0.  0.
          5    1    3    3  502    0  0.16262734348E+02  0.47092875861E+02  0.12811018818E+02  0.51656826156E+02  0.47000000000E+01 0.  1.
         -5    1    3    3    0  502  0.21630455639E+02 -0.49112404775E+02 -0.76801351948E+02  0.93810674100E+02  0.47000000000E+01 0.  1.
        -11    1    1    2    0    0 -0.45300841148E+02 -0.19890514266E+02 -0.58386429771E+02  0.76529562574E+02  0.00000000000E+00 0. -1.
         11    1    1    2    0    0  0.74076511613E+01  0.21910043181E+02  0.19463417081E+02  0.30228263139E+02  0.00000000000E+00 0.  1.
<mgrwt>
<rscale>  0 0.12201313E+03</rscale>
<asrwt>0</asrwt>
<pdfrwt beam="2">  1        4 0.27318359E-01 0.13063702E+03</pdfrwt>
<pdfrwt beam="1">  1       -4 0.11485537E-01 0.13063702E+03</pdfrwt>
<totfact> 0.12434009E+03</totfact>
</mgrwt>
</event>
<event>
 7    1  0.6008063E-006  0.1297264E+03  0.7546771E-02  0.1241789E+00
          3   -1    0    0  501    0  0.00000000000E+00  0.00000000000E+00  0.27293091795E+03  0.27293091795E+03  0.00000000000E+00 0. -1.
         -3   -1    0    0    0  501 -0.00000000000E+00 -0.00000000000E+00 -0.52702013669E+02  0.52702013669E+02  0.00000000000E+00 0.  1.
         23    2    1    2    0    0 -0.27977468440E+02  0.20542184725E+02  0.17574792617E+03  0.21844057561E+03  0.12499692567E+03 0.  0.
          5    1    3    3  502    0 -0.64871144006E+02 -0.24741537889E+02  0.78514067859E+02  0.10491404993E+03  0.47000000000E+01 0.  1.
         -5    1    3    3    0  502  0.36893675566E+02  0.45283722614E+02  0.97233858307E+02  0.11352652568E+03  0.47000000000E+01 0.  1.
        -11    1    1    2    0    0  0.24642345663E+02  0.28137770333E+02 -0.49574041901E+01  0.37730030154E+02  0.00000000000E+00 0.  1.
         11    1    1    2    0    0  0.33351227771E+01 -0.48679955059E+02  0.49438382303E+02  0.69462325855E+02  0.00000000000E+00 0. -1.
<mgrwt>
<rscale>  0 0.12079622E+03</rscale>
<asrwt>0</asrwt>
<pdfrwt beam="1">  1        3 0.41989371E-01 0.12972645E+03</pdfrwt>
<pdfrwt beam="2">  1       -3 0.81080023E-02 0.12972645E+03</pdfrwt>
<totfact> 0.13466042E+03</totfact>
</mgrwt>
</event>
<event>
 7    1  0.6008063E-006  0.1509929E+03  0.7546771E-02  0.1207135E+00
          2   -1    0    0  501    0  0.00000000000E+00  0.00000000000E+00  0.50638346865E+03  0.50638346865E+03  0.00000000000E+00 0. -1.
         -2   -1    0    0    0  501 -0.00000000000E+00 -0.00000000000E+00 -0.38326427420E+02  0.38326427420E+02  0.00000000000E+00 0.  1.
         23    2    1    2    0    0 -0.77507006577E+02  0.34144795629E+02  0.24206345512E+03  0.28529556240E+03  0.12500255389E+03 0.  0.
          5    1    3    3  502    0 -0.89238936267E+01 -0.17394100090E+02  0.17539848281E+03  0.17654718453E+03  0.47000000000E+01 0.  1.
         -5    1    3    3    0  502 -0.68583112950E+02  0.51538895719E+02  0.66664972316E+02  0.10874837786E+03  0.47000000000E+01 0.  1.
        -11    1    1    2    0    0 -0.21824227143E+02 -0.14682201151E+01  0.52046693190E+02  0.56456273634E+02  0.00000000000E+00 0. -1.
         11    1    1    2    0    0  0.99331233720E+02 -0.32676575514E+02  0.17394689291E+03  0.20295806004E+03  0.00000000000E+00 0.  1.
<mgrwt>
<rscale>  0 0.14470471E+03</rscale>
<asrwt>0</asrwt>
<pdfrwt beam="1">  1        2 0.77905144E-01 0.15099285E+03</pdfrwt>
<pdfrwt beam="2">  1       -2 0.58963738E-02 0.15099285E+03</pdfrwt>
<totfact> 0.89645627E+03</totfact>
</mgrwt>
</event>
<event>
 7    1  0.6008063E-006  0.1438333E+03  0.7546771E-02  0.1218721E+00
         -3   -1    0    0    0  501 -0.00000000000E+00  0.00000000000E+00  0.91611201174E+02  0.91611201174E+02  0.00000000000E+00 0.  1.
          3   -1    0    0  501    0  0.00000000000E+00 -0.00000000000E+00 -0.21089714278E+03  0.21089714278E+03  0.00000000000E+00 0. -1.
         23    2    1    2    0    0 -0.66003536759E+02 -0.26581785616E+02 -0.11999036057E+03  0.18731182022E+03  0.12499989269E+03 0.  0.
          5    1    3    3  502    0 -0.82298067850E+02 -0.23466317064E+02 -0.13795522871E+03  0.16241112996E+03  0.47000000000E+01 0. -1.
         -5    1    3    3    0  502  0.16294531091E+02 -0.31154685515E+01  0.17964868141E+02  0.24900690254E+02  0.47000000000E+01 0. -1.
        -11    1    1    2    0    0  0.10863033205E+02  0.22505729264E+02  0.40139584135E+02  0.47283184692E+02  0.00000000000E+00 0.  1.
         11    1    1    2    0    0  0.55140503554E+02  0.40760563519E+01 -0.39435165170E+02  0.67913339040E+02  0.00000000000E+00 0. -1.
<mgrwt>
<rscale>  0 0.13606690E+03</rscale>
<asrwt>0</asrwt>
<pdfrwt beam="2">  1        3 0.32445714E-01 0.14383335E+03</pdfrwt>
<pdfrwt beam="1">  1       -3 0.14094031E-01 0.14383335E+03</pdfrwt>
<totfact> 0.89196944E+02</totfact>
</mgrwt>
</event>
<event>
 7    1  0.6008063E-006  0.1558733E+03  0.7546771E-02  0.1201981E+00
         -1   -1    0    0    0  501 -0.00000000000E+00  0.00000000000E+00  0.39758281249E+02  0.39758281249E+02  0.00000000000E+00 0.  1.
          1   -1    0    0  501    0  0.00000000000E+00 -0.00000000000E+00 -0.51171754414E+03  0.51171754414E+03  0.00000000000E+00 0. -1.
         23    2    1    2    0    0 -0.92911725928E+02  0.63223963102E+01 -0.25443774712E+03  0.29838743727E+03  0.12499573613E+03 0.  0.
          5    1    3    3  502    0 -0.79642087349E+02 -0.51526631028E+02 -0.13671868289E+03  0.16646904828E+03  0.47000000000E+01 0. -1.
         -5    1    3    3    0  502 -0.13269638579E+02  0.57849027338E+02 -0.11771906422E+03  0.13191838899E+03  0.47000000000E+01 0. -1.
        -11    1    1    2    0    0  0.10430915430E+03 -0.19675944421E+02 -0.15296765592E+03  0.18618981234E+03  0.00000000000E+00 0.  1.
         11    1    1    2    0    0 -0.11397428368E+02  0.13353548111E+02 -0.64553859849E+02  0.66898575784E+02  0.00000000000E+00 0. -1.
<mgrwt>
<rscale>  0 0.14877920E+03</rscale>
<asrwt>0</asrwt>
<pdfrwt beam="2">  1        1 0.78725770E-01 0.15587333E+03</pdfrwt>
<pdfrwt beam="1">  1       -1 0.61166591E-02 0.15587333E+03</pdfrwt>
<totfact> 0.55094225E+03</totfact>
</mgrwt>
</event>
<event>
 7    1  0.6008063E-006  0.1538535E+03  0.7546771E-02  0.1204530E+00
         -2   -1    0    0    0  501 -0.00000000000E+00  0.00000000000E+00  0.47159905182E+02  0.47159905182E+02  0.00000000000E+00 0.  1.
          2   -1    0    0  501    0  0.00000000000E+00 -0.00000000000E+00 -0.43397120945E+03  0.43397120945E+03  0.00000000000E+00 0. -1.
         23    2    1    2    0    0  0.56363012690E+02 -0.69770162557E+02 -0.25530842575E+03  0.29808268792E+03  0.12500492707E+03 0.  0.
          5    1    3    3  502    0  0.57578176787E+02 -0.89552642158E+02 -0.25641926375E+03  0.27768300449E+03  0.47000000000E+01 0. -1.
         -5    1    3    3    0  502 -0.12151640971E+01  0.19782479601E+02  0.11108379973E+01  0.20399683429E+02  0.47000000000E+01 0. -1.
        -11    1    1    2    0    0 -0.55412415824E+02  0.45823237805E+02 -0.14019152798E+03  0.15755624224E+03  0.00000000000E+00 0. -1.
         11    1    1    2    0    0 -0.95059686567E+00  0.23946924752E+02  0.86886494715E+01  0.25492184471E+02  0.00000000000E+00 0.  1.
<mgrwt>
<rscale>  0 0.14674586E+03</rscale>
<asrwt>0</asrwt>
<pdfrwt beam="2">  1        2 0.66764803E-01 0.15385349E+03</pdfrwt>
<pdfrwt beam="1">  1       -2 0.72553699E-02 0.15385349E+03</pdfrwt>
<totfact> 0.77371676E+03</totfact>
</mgrwt>
</event>
<event>
 7    1  0.6008063E-006  0.1353142E+03  0.7546771E-02  0.1232231E+00
          1   -1    0    0  501    0  0.00000000000E+00  0.00000000000E+00  0.64764380873E+03  0.64764380873E+03  0.00000000000E+00 0. -1.
         -1   -1    0    0    0  501 -0.00000000000E+00 -0.00000000000E+00 -0.22500114265E+02  0.22500114265E+02  0.00000000000E+00 0.  1.
         23    2    1    2    0    0 -0.51531292966E+02  0.54092612541E+01  0.39123022833E+03  0.41396983959E+03  0.12500080907E+03 0.  0.
          5    1    3    3  502    0 -0.58619290696E+02 -0.44044634645E+02  0.14357944466E+03  0.16128638507E+03  0.47000000000E+01 0. -1.
         -5    1    3    3    0  502  0.70879977297E+01  0.49453895899E+02  0.24765078368E+03  0.25268345452E+03  0.47000000000E+01 0. -1.
        -11    1    1    2    0    0  0.77875551725E+02 -0.59026423987E+01  0.17549292927E+03  0.19208646742E+03  0.00000000000E+00 0.  1.
         11    1    1    2    0    0 -0.26344258759E+02  0.49338114463E+00  0.58420536869E+02  0.64087615985E+02  0.00000000000E+00 0. -1.
<mgrwt>
<rscale>  0 0.12683348E+03</rscale>
<asrwt>0</asrwt>
<pdfrwt beam="1">  1        1 0.99637495E-01 0.13531421E+03</pdfrwt>
<pdfrwt beam="2">  1       -1 0.34615565E-02 0.13531421E+03</pdfrwt>
<totfact> 0.92204005E+03</totfact>
</mgrwt>
</event>
<event>
 7    1  0.6008063E-006  0.1272706E+03  0.7546771E-02  0.1247386E+00
          1   -1    0    0  501    0  0.00000000000E+00  0.00000000000E+00  0.12915350310E+04  0.12915350310E+04  0.00000000000E+00 0. -1.
         -1   -1    0    0    0  501 -0.00000000000E+00 -0.00000000000E+00 -0.11137755966E+02  0.11137755966E+02  0.00000000000E+00 0.  1.
         23    2    1    2    0    0  0.22499214174E+02 -0.80850254632E+01  0.98535759312E+03  0.99354285298E+03  0.12500492835E+03 0.  0.
          5    1    3    3  502    0 -0.47184126392E+02 -0.26103184061E+02  0.48552071500E+03  0.48852857920E+03  0.47000000000E+01 0.  1.
         -5    1    3    3    0  502  0.69683340566E+02  0.18018158598E+02  0.49983687812E+03  0.50501427378E+03  0.47000000000E+01 0.  1.
        -11    1    1    2    0    0  0.10292164797E+02 -0.27889012060E+02  0.42031143879E+02  0.51481479249E+02  0.00000000000E+00 0.  1.
         11    1    1    2    0    0 -0.32791378971E+02  0.35974037523E+02  0.25300853805E+03  0.25764845475E+03  0.00000000000E+00 0. -1.
<mgrwt>
<rscale>  0 0.11743725E+03</rscale>
<asrwt>0</asrwt>
<pdfrwt beam="1">  1        1 0.19869758E+00 0.12727063E+03</pdfrwt>
<pdfrwt beam="2">  1       -1 0.17135019E-02 0.12727063E+03</pdfrwt>
<totfact> 0.82459115E+03</totfact>
</mgrwt>
</event>
<event>
 7    1  0.6008063E-006  0.1547715E+03  0.7546771E-02  0.1202158E+00
          2   -1    0    0  501    0  0.00000000000E+00  0.00000000000E+00  0.11776029625E+04  0.11776029625E+04  0.00000000000E+00 0. -1.
         -2   -1    0    0    0  501 -0.00000000000E+00 -0.00000000000E+00 -0.20518428723E+02  0.20518428723E+02  0.00000000000E+00 0.  1.
         23    2    1    2    0    0 -0.80560872107E+02  0.42974296050E+02  0.85044624781E+03  0.86441485008E+03  0.12496946983E+03 0.  0.
          5    1    3    3  502    0 -0.88460917724E+02 -0.10045363759E+02  0.35371703008E+03  0.36477948225E+03  0.47000000000E+01 0.  1.
         -5    1    3    3    0  502  0.79000456168E+01  0.53019659809E+02  0.49672921773E+03  0.49963536783E+03  0.47000000000E+01 0.  1.
        -11    1    1    2    0    0  0.10104399836E+03 -0.24450573679E+02  0.23749543094E+03  0.25925238644E+03  0.00000000000E+00 0. -1.
         11    1    1    2    0    0 -0.20483126249E+02 -0.18523722371E+02  0.69142855031E+02  0.74454154708E+02  0.00000000000E+00 0.  1.
<mgrwt>
<rscale>  0 0.14863719E+03</rscale>
<asrwt>0</asrwt>
<pdfrwt beam="1">  1        2 0.18116963E+00 0.15477149E+03</pdfrwt>
<pdfrwt beam="2">  1       -2 0.31566823E-02 0.15477149E+03</pdfrwt>
<totfact> 0.78994720E+03</totfact>
</mgrwt>
</event>
<event>
 6    1  0.6008063E-006  0.1397227E+03  0.7546771E-02  0.1227200E+00
          1   -1    0    0  501    0  0.00000000000E+00  0.00000000000E+00  0.13306635133E+04  0.13306635133E+04  0.00000000000E+00 0. -1.
         -1   -1    0    0    0  501 -0.00000000000E+00 -0.00000000000E+00 -0.16141021973E+02  0.16141021973E+02  0.00000000000E+00 0.  1.
          5    1    1    2  502    0 -0.52303338211E+02  0.41748092101E+02  0.97933455685E+03  0.98162966878E+03  0.47000000000E+01 0. -1.
         -5    1    1    2    0  502  0.37477954835E+02  0.84640863998E+01  0.10964755395E+03  0.11627946485E+03  0.47000000000E+01 0.  1.
        -11    1    1    2    0    0  0.24961810142E+02 -0.69737077059E+02  0.11947437655E+03  0.14057196923E+03  0.00000000000E+00 0.  1.
         11    1    1    2    0    0 -0.10136426766E+02  0.19524898559E+02  0.10606600397E+03  0.10832343242E+03  0.00000000000E+00 0. -1.
<mgrwt>
<rscale>  0 0.13017270E+03</rscale>
<asrwt>0</asrwt>
<pdfrwt beam="1">  1        1 0.20471738E+00 0.13972268E+03</pdfrwt>
<pdfrwt beam="2">  1       -1 0.24832352E-02 0.13972268E+03</pdfrwt>
<totfact> 0.45630342E+03</totfact>
</mgrwt>
</event>
<event>
 7    1  0.6008063E-006  0.1447814E+03  0.7546771E-02  0.1216567E+00
         -4   -1    0    0    0  501 -0.00000000000E+00  0.00000000000E+00  0.18576619338E+03  0.18576619338E+03  0.00000000000E+00 0.  1.
          4   -1    0    0  501    0  0.00000000000E+00 -0.00000000000E+00 -0.93857784120E+02  0.93857784120E+02  0.00000000000E+00 0. -1.
         23    2    1    2    0    0  0.54297080454E+02 -0.48925200234E+02  0.37810939851E+02  0.14963727627E+03  0.12497919472E+03 0.  0.
          5    1    3    3  502    0  0.12322206171E+02 -0.86679357315E+02  0.17165624148E+02  0.89341459591E+02  0.47000000000E+01 0.  1.
         -5    1    3    3    0  502  0.41974874284E+02  0.37754157081E+02  0.20645315703E+02  0.60295816675E+02  0.47000000000E+01 0.  1.
        -11    1    1    2    0    0 -0.24042705525E+02  0.29134781678E+01  0.68843507000E+02  0.72979233348E+02  0.00000000000E+00 0.  1.
         11    1    1    2    0    0 -0.30254374930E+02  0.46011722066E+02 -0.14746037592E+02  0.57007467884E+02  0.00000000000E+00 0. -1.
<mgrwt>
<rscale>  0 0.13762081E+03</rscale>
<asrwt>0</asrwt>
<pdfrwt beam="2">  1        4 0.14439659E-01 0.14478138E+03</pdfrwt>
<pdfrwt beam="1">  1       -4 0.28579414E-01 0.14478138E+03</pdfrwt>
<totfact> 0.78694944E+02</totfact>
</mgrwt>
</event>
<event>
 7    1  0.6008063E-006  0.1261319E+03  0.7546771E-02  0.1247491E+00
          1   -1    0    0  501    0  0.00000000000E+00  0.00000000000E+00  0.29913276604E+03  0.29913276604E+03  0.00000000000E+00 0. -1.
         -1   -1    0    0    0  501 -0.00000000000E+00 -0.00000000000E+00 -0.51112492078E+02  0.51112492078E+02  0.00000000000E+00 0.  1.
         23    2    1    2    0    0  0.16651367519E+02 -0.26267331546E+01  0.21646645642E+03  0.25053340711E+03  0.12500037423E+03 0.  0.
          5    1    3    3  502    0  0.50248155157E+02  0.28212318026E+01  0.20945370461E+03  0.21546642621E+03  0.47000000000E+01 0. -1.
         -5    1    3    3    0  502 -0.33596787638E+02 -0.54479649572E+01  0.70127518033E+01  0.35066980903E+02  0.47000000000E+01 0. -1.
        -11    1    1    2    0    0  0.11622212894E+02 -0.40971433242E+02  0.12841029982E+02  0.44481751600E+02  0.00000000000E+00 0. -1.
         11    1    1    2    0    0 -0.28273580412E+02  0.43598166396E+02  0.18712787564E+02  0.55230099410E+02  0.00000000000E+00 0.  1.
<mgrwt>
<rscale>  0 0.11737545E+03</rscale>
<asrwt>0</asrwt>
<pdfrwt beam="1">  1        1 0.46020425E-01 0.12613192E+03</pdfrwt>
<pdfrwt beam="2">  1       -1 0.78634605E-02 0.12613192E+03</pdfrwt>
<totfact> 0.73594381E+03</totfact>
</mgrwt>
</event>
<event>
 6    1  0.6008063E-006  0.2447488E+03  0.7546771E-02  0.1132989E+00
         -1   -1    0    0    0  501 -0.00000000000E+00  0.00000000000E+00  0.33411663236E+02  0.33411663236E+02  0.00000000000E+00 0.  1.
          1   -1    0    0  501    0  0.00000000000E+00 -0.00000000000E+00 -0.16407173684E+04  0.16407173684E+04  0.00000000000E+00 0. -1.
          5    1    1    2  502    0  0.79860854236E+02  0.12034217791E+02 -0.10793342147E+04  0.10823617766E+04  0.47000000000E+01 0. -1.
         -5    1    1    2    0  502 -0.61260923741E+01  0.99927355397E+02 -0.25047985426E+03  0.26978742141E+03  0.47000000000E+01 0.  1.
        -11    1    1    2    0    0 -0.87674380804E+02 -0.67427803188E+02 -0.15114790743E+03  0.18729387500E+03  0.00000000000E+00 0.  1.
         11    1    1    2    0    0  0.13939618943E+02 -0.44533770000E+02 -0.12634372876E+03  0.13468595860E+03  0.00000000000E+00 0. -1.
<mgrwt>
<rscale>  0 0.22120358E+03</rscale>
<asrwt>0</asrwt>
<pdfrwt beam="2">  1        1 0.25241806E+00 0.24474884E+03</pdfrwt>
<pdfrwt beam="1">  1       -1 0.51402557E-02 0.24474884E+03</pdfrwt>
<totfact> 0.97787323E+02</totfact>
</mgrwt>
</event>
<event>
 7    1  0.6008063E-006  0.1320280E+03  0.7546771E-02  0.1237139E+00
          2   -1    0    0  501    0  0.00000000000E+00  0.00000000000E+00  0.15198215734E+03  0.15198215734E+03  0.00000000000E+00 0. -1.
         -2   -1    0    0    0  501 -0.00000000000E+00 -0.00000000000E+00 -0.92530725245E+02  0.92530725245E+02  0.00000000000E+00 0.  1.
         23    2    1    2    0    0 -0.20389352776E+02 -0.37269095592E+02  0.54108431961E+02  0.14268533839E+03  0.12500668857E+03 0.  0.
          5    1    3    3  502    0 -0.57069631737E+02 -0.23434642161E+02  0.75632473349E+02  0.97716356587E+02  0.47000000000E+01 0.  1.
         -5    1    3    3    0  502  0.36680278961E+02 -0.13834453431E+02 -0.21524041388E+02  0.44968981800E+02  0.47000000000E+01 0.  1.
        -11    1    1    2    0    0 -0.16057978183E+02  0.66841182692E+00 -0.33528995948E+02  0.37181971531E+02  0.00000000000E+00 0.  1.
         11    1    1    2    0    0  0.36447330959E+02  0.36600683766E+02  0.38871996083E+02  0.64645572668E+02  0.00000000000E+00 0. -1.
<mgrwt>
<rscale>  0 0.12368473E+03</rscale>
<asrwt>0</asrwt>
<pdfrwt beam="1">  1        2 0.23381870E-01 0.13202796E+03</pdfrwt>
<pdfrwt beam="2">  1       -2 0.14235496E-01 0.13202796E+03</pdfrwt>
<totfact> 0.81748048E+03</totfact>
</mgrwt>
</event>
<event>
 7    1  0.6008063E-006  0.1338323E+03  0.7546771E-02  0.1234791E+00
          1   -1    0    0  501    0  0.00000000000E+00  0.00000000000E+00  0.21636899815E+03  0.21636899815E+03  0.00000000000E+00 0.  1.
         -1   -1    0    0    0  501 -0.00000000000E+00 -0.00000000000E+00 -0.65620177202E+02  0.65620177202E+02  0.00000000000E+00 0. -1.
         23    2    1    2    0    0 -0.39029073598E+02  0.27594706452E+02  0.10351041390E+03  0.16919069837E+03  0.12500540076E+03 0.  0.
          5    1    3    3  502    0 -0.71750354953E+02  0.59143754587E+01  0.17069218659E+02  0.74138663993E+02  0.47000000000E+01 0. -1.
         -5    1    3    3    0  502  0.32721281355E+02  0.21680330993E+02  0.86441195237E+02  0.95052034379E+02  0.47000000000E+01 0. -1.
        -11    1    1    2    0    0  0.22720533808E+02 -0.28320228092E+02  0.73441471388E+02  0.81926233255E+02  0.00000000000E+00 0.  1.
         11    1    1    2    0    0  0.16308539790E+02  0.72552164012E+00 -0.26203064339E+02  0.30872243723E+02  0.00000000000E+00 0. -1.
<mgrwt>
<rscale>  0 0.12517804E+03</rscale>
<asrwt>0</asrwt>
<pdfrwt beam="1">  1        1 0.33287538E-01 0.13383231E+03</pdfrwt>
<pdfrwt beam="2">  1       -1 0.10095412E-01 0.13383231E+03</pdfrwt>
<totfact> 0.75512210E+03</totfact>
</mgrwt>
</event>
<event>
 7    1  0.6008063E-006  0.1392150E+03  0.7546771E-02  0.1225522E+00
         -2   -1    0    0    0  501 -0.00000000000E+00  0.00000000000E+00  0.34524145925E+02  0.34524145925E+02  0.00000000000E+00 0.  1.
          2   -1    0    0  501    0  0.00000000000E+00 -0.00000000000E+00 -0.48012405936E+03  0.48012405936E+03  0.00000000000E+00 0. -1.
         23    2    1    2    0    0 -0.45990096149E+02  0.40496202674E+02 -0.31069804861E+03  0.34046160912E+03  0.12500319396E+03 0.  0.
          5    1    3    3  502    0 -0.80644045361E+02  0.20747376258E+02 -0.12363835086E+03  0.14913902064E+03  0.47000000000E+01 0. -1.
         -5    1    3    3    0  502  0.34653949212E+02  0.19748826416E+02 -0.18705969775E+03  0.19132258848E+03  0.47000000000E+01 0. -1.
        -11    1    1    2    0    0 -0.16842613886E+02 -0.31285885398E+02 -0.88998527414E+02  0.95829109093E+02  0.00000000000E+00 0. -1.
         11    1    1    2    0    0  0.62832710035E+02 -0.92103172758E+01 -0.45903337407E+02  0.78357487069E+02  0.00000000000E+00 0.  1.
<mgrwt>
<rscale>  0 0.13131156E+03</rscale>
<asrwt>0</asrwt>
<pdfrwt beam="2">  1        2 0.73865237E-01 0.13921505E+03</pdfrwt>
<pdfrwt beam="1">  1       -2 0.53114073E-02 0.13921505E+03</pdfrwt>
<totfact> 0.11071417E+04</totfact>
</mgrwt>
</event>
<event>
 7    1  0.6008063E-006  0.1849387E+03  0.7546771E-02  0.1168365E+00
          2   -1    0    0  501    0  0.00000000000E+00  0.00000000000E+00  0.16773310523E+03  0.16773310523E+03  0.00000000000E+00 0. -1.
         -2   -1    0    0    0  501 -0.00000000000E+00 -0.00000000000E+00 -0.18132924788E+03  0.18132924788E+03  0.00000000000E+00 0.  1.
         23    2    1    2    0    0  0.20206633322E+02 -0.13478574973E+03 -0.93100864445E+01  0.18517293859E+03  0.12500733225E+03 0.  0.
          5    1    3    3  502    0  0.21515314357E+02 -0.15658560410E+03 -0.21730962044E+02  0.15961292201E+03  0.47000000000E+01 0.  1.
         -5    1    3    3    0  502 -0.13086810358E+01  0.21799854370E+02  0.12420875599E+02  0.25560016574E+02  0.47000000000E+01 0.  1.
        -11    1    1    2    0    0 -0.13127369358E+02  0.11143815772E+03 -0.41291774195E+02  0.11956505108E+03  0.00000000000E+00 0.  1.
         11    1    1    2    0    0 -0.70792639633E+01  0.23347592004E+02  0.37005717990E+02  0.44324363443E+02  0.00000000000E+00 0. -1.
<mgrwt>
<rscale>  0 0.17942027E+03</rscale>
<asrwt>0</asrwt>
<pdfrwt beam="1">  1        2 0.25805093E-01 0.18493875E+03</pdfrwt>
<pdfrwt beam="2">  1       -2 0.27896807E-01 0.18493875E+03</pdfrwt>
<totfact> 0.23806766E+03</totfact>
</mgrwt>
</event>
<event>
 7    1  0.6008063E-006  0.1280378E+03  0.7546771E-02  0.1243625E+00
         -2   -1    0    0    0  501 -0.00000000000E+00  0.00000000000E+00  0.12914829278E+03  0.12914829278E+03  0.00000000000E+00 0.  1.
          2   -1    0    0  501    0  0.00000000000E+00 -0.00000000000E+00 -0.10628080521E+03  0.10628080521E+03  0.00000000000E+00 0. -1.
         23    2    1    2    0    0 -0.27285564736E+02 -0.48979676934E+01 -0.18363005213E+02  0.12934793013E+03  0.12500077975E+03 0.  0.
          5    1    3    3  502    0 -0.14886497898E+02  0.55089511069E+02  0.15336085395E+02  0.59276872090E+02  0.47000000000E+01 0.  1.
         -5    1    3    3    0  502 -0.12399066838E+02 -0.59987478763E+02 -0.33699090608E+02  0.70071058038E+02  0.47000000000E+01 0.  1.
        -11    1    1    2    0    0 -0.56466932758E+01  0.10589137984E+02  0.64339616729E+02  0.65449226650E+02  0.00000000000E+00 0.  1.
         11    1    1    2    0    0  0.32932258012E+02 -0.56911702910E+01 -0.23109123951E+02  0.40631941214E+02  0.00000000000E+00 0. -1.
<mgrwt>
<rscale>  0 0.11968031E+03</rscale>
<asrwt>0</asrwt>
<pdfrwt beam="2">  1        2 0.16350893E-01 0.12803783E+03</pdfrwt>
<pdfrwt beam="1">  1       -2 0.19868968E-01 0.12803783E+03</pdfrwt>
<totfact> 0.70442615E+03</totfact>
</mgrwt>
</event>
<event>
 7    1  0.6008063E-006  0.3838866E+03  0.7546771E-02  0.1050400E+00
         -1   -1    0    0    0  501 -0.00000000000E+00  0.00000000000E+00  0.75643991380E+03  0.75643991380E+03  0.00000000000E+00 0.  1.
          1   -1    0    0  501    0  0.00000000000E+00 -0.00000000000E+00 -0.24966416383E+03  0.24966416383E+03  0.00000000000E+00 0. -1.
         23    2    1    2    0    0 -0.31527111547E+03  0.17985638380E+03  0.98316758876E+01  0.38401249599E+03  0.12499896072E+03 0.  0.
          5    1    3    3  502    0 -0.68265369203E+02  0.90902078565E+02  0.37935506257E+02  0.11993557085E+03  0.47000000000E+01 0. -1.
         -5    1    3    3    0  502 -0.24700574627E+03  0.88954305235E+02 -0.28103830370E+02  0.26407692514E+03  0.47000000000E+01 0. -1.
        -11    1    1    2    0    0  0.71263386453E+02 -0.24500363009E+01  0.11592451476E+03  0.13609910378E+03  0.00000000000E+00 0.  1.
         11    1    1    2    0    0  0.24400772902E+03 -0.17740634750E+03  0.38101955932E+03  0.48599247786E+03  0.00000000000E+00 0. -1.
<mgrwt>
<rscale>  0 0.38144813E+03</rscale>
<asrwt>0</asrwt>
<pdfrwt beam="2">  1        1 0.38409872E-01 0.38388662E+03</pdfrwt>
<pdfrwt beam="1">  1       -1 0.11637537E+00 0.38388662E+03</pdfrwt>
<totfact> 0.78127012E+01</totfact>
</mgrwt>
</event>
<event>
 7    1  0.6008063E-006  0.1137665E+03  0.7546771E-02  0.1262133E+00
          1   -1    0    0  501    0  0.00000000000E+00  0.00000000000E+00  0.60465479298E+03  0.60465479298E+03  0.00000000000E+00 0. -1.
         -1   -1    0    0    0  501 -0.00000000000E+00 -0.00000000000E+00 -0.23244663411E+02  0.23244663411E+02  0.00000000000E+00 0.  1.
         23    2    1    2    0    0  0.17707992346E+02 -0.84378261275E+01  0.45442714537E+03  0.46845152996E+03  0.11206264128E+03 0.  0.
          5    1    3    3  502    0  0.58624042539E+02 -0.22408045155E+02  0.18199430911E+03  0.19256925352E+03  0.47000000000E+01 0. -1.
         -5    1    3    3    0  502 -0.40916050193E+02  0.13970219028E+02  0.27243283626E+03  0.27588227644E+03  0.47000000000E+01 0.  1.
        -11    1    1    2    0    0 -0.48485353766E+02 -0.17307167737E+02  0.95321180016E+02  0.10833510486E+03  0.00000000000E+00 0.  1.
         11    1    1    2    0    0  0.30777361419E+02  0.25744993864E+02  0.31661804184E+02  0.51112821573E+02  0.00000000000E+00 0. -1.
<mgrwt>
<rscale>  0 0.10916036E+03</rscale>
<asrwt>0</asrwt>
<pdfrwt beam="1">  1        1 0.93023803E-01 0.11376645E+03</pdfrwt>
<pdfrwt beam="2">  1       -1 0.35761025E-02 0.11376645E+03</pdfrwt>
<totfact> 0.95498894E+03</totfact>
</mgrwt>
</event>
<event>
 7    1  0.6008063E-006  0.1216513E+03  0.7546771E-02  0.1252377E+00
          1   -1    0    0  501    0  0.00000000000E+00  0.00000000000E+00  0.10629140733E+03  0.10629140733E+03  0.00000000000E+00 0. -1.
         -1   -1    0    0    0  501 -0.00000000000E+00 -0.00000000000E+00 -0.15236713625E+03  0.15236713625E+03  0.00000000000E+00 0.  1.
         23    2    1    2    0    0  0.55391590728E+01 -0.24940916935E+02  0.41957580565E+02  0.12868363833E+03  0.11893825535E+03 0.  0.
          5    1    3    3  502    0 -0.16224618822E+02  0.20182155328E+02  0.67359113303E+02  0.72318032292E+02  0.47000000000E+01 0. -1.
         -5    1    3    3    0  502  0.21763777895E+02 -0.45123072262E+02 -0.25401532738E+02  0.56365606039E+02  0.47000000000E+01 0.  1.
        -11    1    1    2    0    0 -0.36151234613E+02 -0.34255994373E+01 -0.79466547511E+02  0.87370353490E+02  0.00000000000E+00 0. -1.
         11    1    1    2    0    0  0.30612075540E+02  0.28366516372E+02 -0.85667619723E+01  0.42604551760E+02  0.00000000000E+00 0.  1.
<mgrwt>
<rscale>  0 0.11454531E+03</rscale>
<asrwt>0</asrwt>
<pdfrwt beam="1">  1        1 0.16352524E-01 0.12165131E+03</pdfrwt>
<pdfrwt beam="2">  1       -1 0.23441098E-01 0.12165131E+03</pdfrwt>
<totfact> 0.48874985E+03</totfact>
</mgrwt>
</event>
<event>
 7    1  0.6008063E-006  0.2430321E+03  0.7546771E-02  0.1120455E+00
          2   -1    0    0  501    0  0.00000000000E+00  0.00000000000E+00  0.86950067817E+03  0.86950067817E+03  0.00000000000E+00 0. -1.
         -2   -1    0    0    0  501 -0.00000000000E+00 -0.00000000000E+00 -0.66504601635E+02  0.66504601635E+02  0.00000000000E+00 0.  1.
         23    2    1    2    0    0 -0.11834906169E+03 -0.17155693178E+03  0.51186852350E+03  0.56663390731E+03  0.12500527319E+03 0.  0.
          5    1    3    3  502    0 -0.96887804309E+02 -0.80386434814E+02  0.40650894195E+03  0.42558293600E+03  0.47000000000E+01 0.  1.
         -5    1    3    3    0  502 -0.21461257381E+02 -0.91170496966E+02  0.10535958155E+03  0.14105097132E+03  0.47000000000E+01 0.  1.
        -11    1    1    2    0    0  0.33485813166E+01  0.79490156519E+02  0.11344847579E+03  0.13856570513E+03  0.00000000000E+00 0. -1.
         11    1    1    2    0    0  0.11500048037E+03  0.92066775262E+02  0.17767907725E+03  0.23080566736E+03  0.00000000000E+00 0.  1.
<mgrwt>
<rscale>  0 0.23900831E+03</rscale>
<asrwt>0</asrwt>
<pdfrwt beam="1">  1        2 0.13376933E+00 0.24303210E+03</pdfrwt>
<pdfrwt beam="2">  1       -2 0.10231478E-01 0.24303210E+03</pdfrwt>
<totfact> 0.20311057E+03</totfact>
</mgrwt>
</event>
<event>
 7    1  0.6008063E-006  0.1522004E+03  0.7546771E-02  0.1207730E+00
         -1   -1    0    0    0  501 -0.00000000000E+00  0.00000000000E+00  0.14846378642E+03  0.14846378642E+03  0.00000000000E+00 0.  1.
          1   -1    0    0  501    0  0.00000000000E+00 -0.00000000000E+00 -0.17804599611E+03  0.17804599611E+03  0.00000000000E+00 0. -1.
         23    2    1    2    0    0 -0.65198045951E+02  0.57344575813E+02 -0.10269449466E+03  0.18360585613E+03  0.12500306236E+03 0.  0.
          5    1    3    3  502    0  0.21918264247E+02 -0.23965526556E+02 -0.19132370949E+02  0.37985449699E+02  0.47000000000E+01 0. -1.
         -5    1    3    3    0  502 -0.87116310198E+02  0.81310102369E+02 -0.83562123713E+02  0.14562040643E+03  0.47000000000E+01 0. -1.
        -11    1    1    2    0    0  0.33511065033E+02  0.13210492089E+02  0.51042674244E+02  0.62472899523E+02  0.00000000000E+00 0.  1.
         11    1    1    2    0    0  0.31686980918E+02 -0.70555067902E+02  0.22069610732E+02  0.80431026875E+02  0.00000000000E+00 0. -1.
<mgrwt>
<rscale>  0 0.14424408E+03</rscale>
<asrwt>0</asrwt>
<pdfrwt beam="2">  1        1 0.27391692E-01 0.15220037E+03</pdfrwt>
<pdfrwt beam="1">  1       -1 0.22840583E-01 0.15220037E+03</pdfrwt>
<totfact> 0.26838518E+03</totfact>
</mgrwt>
</event>
<event>
 7    1  0.6008063E-006  0.1444247E+03  0.7546771E-02  0.1217562E+00
         -4   -1    0    0    0  501 -0.00000000000E+00  0.00000000000E+00  0.89235222240E+03  0.89235222240E+03  0.00000000000E+00 0.  1.
          4   -1    0    0  501    0  0.00000000000E+00 -0.00000000000E+00 -0.19464941779E+02  0.19464941779E+02  0.00000000000E+00 0. -1.
         23    2    1    2    0    0  0.68352211948E+02 -0.23654443567E+02  0.41896783495E+03  0.44316198281E+03  0.12500775457E+03 0.  0.
          5    1    3    3  502    0  0.91799164803E+02 -0.52326437740E+02  0.33415587736E+03  0.35049591027E+03  0.47000000000E+01 0.  1.
         -5    1    3    3    0  502 -0.23446952855E+02  0.28671994173E+02  0.84811957591E+02  0.92666072532E+02  0.47000000000E+01 0.  1.
        -11    1    1    2    0    0 -0.84640060054E+02  0.23623075190E+02  0.43455766216E+03  0.44335352845E+03  0.00000000000E+00 0.  1.
         11    1    1    2    0    0  0.16287848106E+02  0.31368377371E-01  0.19361783508E+02  0.25301652920E+02  0.00000000000E+00 0. -1.
<mgrwt>
<rscale>  0 0.13689979E+03</rscale>
<asrwt>0</asrwt>
<pdfrwt beam="2">  1        4 0.29946071E-02 0.14442471E+03</pdfrwt>
<pdfrwt beam="1">  1       -4 0.13728493E+00 0.14442471E+03</pdfrwt>
<totfact> 0.36361249E+02</totfact>
</mgrwt>
</event>
<event>
 7    1  0.6008063E-006  0.1435339E+03  0.7546771E-02  0.1220870E+00
          2   -1    0    0  501    0  0.00000000000E+00  0.00000000000E+00  0.85744853565E+03  0.85744853565E+03  0.00000000000E+00 0. -1.
         -2   -1    0    0    0  501 -0.00000000000E+00 -0.00000000000E+00 -0.18986253481E+02  0.18986253481E+02  0.00000000000E+00 0.  1.
         23    2    1    2    0    0  0.59673412391E+02  0.37645726878E+02  0.50822999551E+03  0.52810957051E+03  0.12499549284E+03 0.  0.
          5    1    3    3  502    0  0.44601310383E+02 -0.40805752360E+02  0.16836452652E+03  0.17894996537E+03  0.47000000000E+01 0. -1.
         -5    1    3    3    0  502  0.15072102007E+02  0.78451479238E+02  0.33986546898E+03  0.34915960514E+03  0.47000000000E+01 0. -1.
        -11    1    1    2    0    0  0.18729555127E+01  0.12198783339E+02  0.45534807587E+01  0.13154940682E+02  0.00000000000E+00 0.  1.
         11    1    1    2    0    0 -0.61546367903E+02 -0.49844510217E+02  0.32567880590E+03  0.33517027794E+03  0.00000000000E+00 0. -1.
<mgrwt>
<rscale>  0 0.13454045E+03</rscale>
<asrwt>0</asrwt>
<pdfrwt beam="1">  1        2 0.13191513E+00 0.14353393E+03</pdfrwt>
<pdfrwt beam="2">  1       -2 0.29209628E-02 0.14353393E+03</pdfrwt>
<totfact> 0.13710124E+04</totfact>
</mgrwt>
</event>
<event>
 7    1  0.6008063E-006  0.2220660E+03  0.7546771E-02  0.1135619E+00
          3   -1    0    0  501    0  0.00000000000E+00  0.00000000000E+00  0.18880422336E+03  0.18880422336E+03  0.00000000000E+00 0. -1.
         -3   -1    0    0    0  501 -0.00000000000E+00 -0.00000000000E+00 -0.24604698766E+03  0.24604698766E+03  0.00000000000E+00 0.  1.
         23    2    1    2    0    0 -0.79350430671E+02  0.16543900115E+03 -0.44025659829E+00  0.22206644717E+03  0.12508700647E+03 0.  0.
          5    1    3    3  502    0 -0.13442886240E+02  0.11595860894E+02 -0.45171382848E+02  0.48761860186E+02  0.47000000000E+01 0. -1.
         -5    1    3    3    0  502 -0.65907544431E+02  0.15384314025E+03  0.44731126250E+02  0.17330458699E+03  0.47000000000E+01 0. -1.
        -11    1    1    2    0    0  0.14598535246E+02 -0.68377306523E+02 -0.65469337174E+02  0.95785214875E+02  0.00000000000E+00 0.  1.
         11    1    1    2    0    0  0.64751895424E+02 -0.97061694625E+02  0.86668294699E+01  0.11699954896E+03  0.00000000000E+00 0. -1.
<mgrwt>
<rscale>  0 0.21768745E+03</rscale>
<asrwt>0</asrwt>
<pdfrwt beam="1">  1        3 0.29046804E-01 0.22206601E+03</pdfrwt>
<pdfrwt beam="2">  1       -3 0.37853383E-01 0.22206601E+03</pdfrwt>
<totfact> 0.19441141E+02</totfact>
</mgrwt>
</event>
<event>
 7    1  0.7297190E-006  0.2979479E+03  0.7546771E-02  0.1087646E+00
          2   -1    0    0  501    0  0.00000000000E+00  0.00000000000E+00  0.52065071416E+03  0.52065071416E+03  0.00000000000E+00 0. -1.
         -2   -1    0    0    0  501 -0.00000000000E+00 -0.00000000000E+00 -0.17865001566E+03  0.17865001566E+03  0.00000000000E+00 0.  1.
         23    2    1    2    0    0 -0.23291698695E+03  0.13747006460E+03  0.27248907464E+03  0.40376140616E+03  0.12499854333E+03 0.  0.
          5    1    3    3  502    0 -0.13325128262E+03  0.14411398732E+03  0.16018149636E+03  0.25338695199E+03  0.47000000000E+01 0.  1.
         -5    1    3    3    0  502 -0.99665704325E+02 -0.66439227185E+01  0.11230757828E+03  0.15037445417E+03  0.47000000000E+01 0.  1.
        -11    1    1    2    0    0  0.82300002370E+02 -0.82674465490E+02  0.68463034141E+02  0.13526102424E+03  0.00000000000E+00 0. -1.
         11    1    1    2    0    0  0.15061698458E+03 -0.54795599111E+02  0.10485897147E+01  0.16027829942E+03  0.00000000000E+00 0.  1.
<mgrwt>
<rscale>  0 0.29523626E+03</rscale>
<asrwt>0</asrwt>
<pdfrwt beam="1">  1        2 0.80100109E-01 0.29794794E+03</pdfrwt>
<pdfrwt beam="2">  1       -2 0.27484618E-01 0.29794794E+03</pdfrwt>
<totfact> 0.71534317E+02</totfact>
</mgrwt>
</event>
<event>
 7    1  0.6008063E-006  0.1684366E+03  0.7546771E-02  0.1186103E+00
          2   -1    0    0  501    0  0.00000000000E+00  0.00000000000E+00  0.27666549262E+02  0.27666549262E+02  0.00000000000E+00 0. -1.
         -2   -1    0    0    0  501 -0.00000000000E+00 -0.00000000000E+00 -0.96904775487E+03  0.96904775487E+03  0.00000000000E+00 0.  1.
         23    2    1    2    0    0  0.97667357963E+02  0.56571486534E+02 -0.35994005561E+03  0.39740123101E+03  0.12502659266E+03 0.  0.
          5    1    3    3  502    0  0.80590433523E+02  0.95805740872E+02 -0.26158816213E+03  0.29004140140E+03  0.47000000000E+01 0. -1.
         -5    1    3    3    0  502  0.17076924441E+02 -0.39234254338E+02 -0.98351893486E+02  0.10735982961E+03  0.47000000000E+01 0. -1.
        -11    1    1    2    0    0 -0.83348187929E+02 -0.47462815147E+02 -0.57181272985E+03  0.57980120496E+03  0.00000000000E+00 0.  1.
         11    1    1    2    0    0 -0.14319170034E+02 -0.91086713870E+01 -0.96284201498E+01  0.19511868170E+02  0.00000000000E+00 0. -1.
<mgrwt>
<rscale>  0 0.16231877E+03</rscale>
<asrwt>0</asrwt>
<pdfrwt beam="1">  1        2 0.42563921E-02 0.16843662E+03</pdfrwt>
<pdfrwt beam="2">  1       -2 0.14908427E+00 0.16843662E+03</pdfrwt>
<totfact> 0.61834685E+02</totfact>
</mgrwt>
</event>
<event>
 7    1  0.6008063E-006  0.1944767E+03  0.7546771E-02  0.1159160E+00
          2   -1    0    0  501    0  0.00000000000E+00  0.00000000000E+00  0.21664870358E+03  0.21664870358E+03  0.00000000000E+00 0. -1.
         -2   -1    0    0    0  501 -0.00000000000E+00 -0.00000000000E+00 -0.15878949329E+03  0.15878949329E+03  0.00000000000E+00 0.  1.
         23    2    1    2    0    0  0.14726352794E+03 -0.22566771425E+02  0.50699927323E+02  0.20097675754E+03  0.12500147442E+03 0.  0.
          5    1    3    3  502    0  0.83771302442E+02 -0.60600147542E+02  0.69251208701E+02  0.12453043364E+03  0.47000000000E+01 0. -1.
         -5    1    3    3    0  502  0.63492225497E+02  0.38033376117E+02 -0.18551281377E+02  0.76446323902E+02  0.47000000000E+01 0. -1.
        -11    1    1    2    0    0 -0.70451998277E+02  0.56094177682E+02  0.99592585786E+01  0.90604788297E+02  0.00000000000E+00 0.  1.
         11    1    1    2    0    0 -0.76811529663E+02 -0.33527406257E+02 -0.27999756134E+01  0.83856651035E+02  0.00000000000E+00 0. -1.
<mgrwt>
<rscale>  0 0.18922739E+03</rscale>
<asrwt>0</asrwt>
<pdfrwt beam="1">  1        2 0.33330570E-01 0.19447667E+03</pdfrwt>
<pdfrwt beam="2">  1       -2 0.24429153E-01 0.19447667E+03</pdfrwt>
<totfact> 0.22789670E+03</totfact>
</mgrwt>
</event>
<event>
 7    1  0.6008063E-006  0.1443342E+03  0.7546771E-02  0.1219397E+00
          2   -1    0    0  501    0  0.00000000000E+00  0.00000000000E+00  0.68812255206E+03  0.68812255206E+03  0.00000000000E+00 0. -1.
         -2   -1    0    0    0  501 -0.00000000000E+00 -0.00000000000E+00 -0.27477308664E+02  0.27477308664E+02  0.00000000000E+00 0.  1.
         23    2    1    2    0    0  0.29502966099E+02  0.65885991313E+02  0.49356123133E+03  0.51423248917E+03  0.12498389892E+03 0.  0.
          5    1    3    3  502    0  0.15379572719E+02 -0.30504369164E+02  0.24167199233E+03  0.24411982646E+03  0.47000000000E+01 0. -1.
         -5    1    3    3    0  502  0.14123393379E+02  0.96390360477E+02  0.25188923900E+03  0.27011266271E+03  0.47000000000E+01 0. -1.
        -11    1    1    2    0    0  0.95551693958E+01  0.10479544118E+02  0.72828737118E+00  0.14200440472E+02  0.00000000000E+00 0.  1.
         11    1    1    2    0    0 -0.39058135494E+02 -0.76365535432E+02  0.16635572469E+03  0.18716693107E+03  0.00000000000E+00 0. -1.
<mgrwt>
<rscale>  0 0.13558446E+03</rscale>
<asrwt>0</asrwt>
<pdfrwt beam="1">  1        2 0.10586499E+00 0.14433421E+03</pdfrwt>
<pdfrwt beam="2">  1       -2 0.42272788E-02 0.14433421E+03</pdfrwt>
<totfact> 0.10398644E+04</totfact>
</mgrwt>
</event>
<event>
 7    1  0.6008063E-006  0.1258158E+03  0.7546771E-02  0.1249288E+00
          3   -1    0    0  501    0  0.00000000000E+00  0.00000000000E+00  0.24303817247E+02  0.24303817247E+02  0.00000000000E+00 0. -1.
         -3   -1    0    0    0  501 -0.00000000000E+00 -0.00000000000E+00 -0.48796000390E+03  0.48796000390E+03  0.00000000000E+00 0.  1.
         23    2    1    2    0    0 -0.13216610265E+02  0.53254389204E+01 -0.26235085991E+03  0.29095977609E+03  0.12500631393E+03 0.  0.
          5    1    3    3  502    0 -0.19194501329E+01  0.42979865724E+02 -0.24290199776E+02  0.49629194550E+02  0.47000000000E+01 0.  1.
         -5    1    3    3    0  502 -0.11297160132E+02 -0.37654426804E+02 -0.23806066013E+03  0.24133058154E+03  0.47000000000E+01 0.  1.
        -11    1    1    2    0    0  0.21215991925E+02 -0.43126499019E+02 -0.73781156135E+02  0.88054938713E+02  0.00000000000E+00 0. -1.
         11    1    1    2    0    0 -0.79993816599E+01  0.37801060099E+02 -0.12752417061E+03  0.13324910634E+03  0.00000000000E+00 0.  1.
<mgrwt>
<rscale>  0 0.11632393E+03</rscale>
<asrwt>0</asrwt>
<pdfrwt beam="1">  1        3 0.37390492E-02 0.12581581E+03</pdfrwt>
<pdfrwt beam="2">  1       -3 0.75070761E-01 0.12581581E+03</pdfrwt>
<totfact> 0.14043832E+03</totfact>
</mgrwt>
</event>
<event>
 6    1  0.6008063E-006  0.1415812E+03  0.7546771E-02  0.1223727E+00
         -1   -1    0    0    0  501 -0.00000000000E+00  0.00000000000E+00  0.33674062152E+02  0.33674062152E+02  0.00000000000E+00 0.  1.
          1   -1    0    0  501    0  0.00000000000E+00 -0.00000000000E+00 -0.47974930191E+03  0.47974930191E+03  0.00000000000E+00 0. -1.
          5    1    1    2  502    0 -0.14685088185E+01  0.98886930636E+02 -0.18715413895E+03  0.21172988286E+03  0.47000000000E+01 0. -1.
         -5    1    1    2    0  502 -0.10411805961E+02 -0.39634126327E+02 -0.10849965968E+03  0.11607556083E+03  0.47000000000E+01 0.  1.
        -11    1    1    2    0    0 -0.22020597625E+02  0.12612863715E+02 -0.60569299906E+02  0.65670626173E+02  0.00000000000E+00 0. -1.
         11    1    1    2    0    0  0.33900912405E+02 -0.71865668024E+02 -0.89852141227E+02  0.11994729420E+03  0.00000000000E+00 0.  1.
<mgrwt>
<rscale>  0 0.13254562E+03</rscale>
<asrwt>0</asrwt>
<pdfrwt beam="2">  1        1 0.73807586E-01 0.14158121E+03</pdfrwt>
<pdfrwt beam="1">  1       -1 0.51806249E-02 0.14158121E+03</pdfrwt>
<totfact> 0.76337051E+03</totfact>
</mgrwt>
</event>
<event>
 7    1  0.6008063E-006  0.1495368E+03  0.7546771E-02  0.1210228E+00
          2   -1    0    0  501    0  0.00000000000E+00  0.00000000000E+00  0.22511914623E+04  0.22511914623E+04  0.00000000000E+00 0. -1.
         -2   -1    0    0    0  501 -0.00000000000E+00 -0.00000000000E+00 -0.10420850988E+02  0.10420850988E+02  0.00000000000E+00 0.  1.
         23    2    1    2    0    0  0.69314337376E+02 -0.43944532878E+02  0.17237970839E+04  0.17302709703E+04  0.12500257976E+03 0.  0.
          5    1    3    3  502    0  0.38112458253E+02 -0.80614612268E+02  0.14038729327E+04  0.14067098408E+04  0.47000000000E+01 0.  1.
         -5    1    3    3    0  502  0.31201879123E+02  0.36670079390E+02  0.31992415121E+03  0.32356112948E+03  0.47000000000E+01 0.  1.
        -11    1    1    2    0    0 -0.84866778361E+02  0.44697309248E+02  0.49616955761E+03  0.50535576520E+03  0.00000000000E+00 0. -1.
         11    1    1    2    0    0  0.15552440985E+02 -0.75277637062E+00  0.20803969874E+02  0.25985577834E+02  0.00000000000E+00 0.  1.
<mgrwt>
<rscale>  0 0.14232995E+03</rscale>
<asrwt>0</asrwt>
<pdfrwt beam="1">  1        2 0.34633676E+00 0.14953677E+03</pdfrwt>
<pdfrwt beam="2">  1       -2 0.16032096E-02 0.14953677E+03</pdfrwt>
<totfact> 0.58289720E+03</totfact>
</mgrwt>
</event>
<event>
 6    1  0.6008063E-006  0.3920556E+03  0.7546771E-02  0.1049825E+00
          2   -1    0    0  501    0  0.00000000000E+00  0.00000000000E+00  0.88003856149E+03  0.88003856149E+03  0.00000000000E+00 0. -1.
         -2   -1    0    0    0  501 -0.00000000000E+00 -0.00000000000E+00 -0.16644637161E+03  0.16644637161E+03  0.00000000000E+00 0.  1.
          5    1    1    2  502    0 -0.75355994483E+02  0.50232630353E+02  0.20173109218E+03  0.22117722896E+03  0.47000000000E+01 0. -1.
         -5    1    1    2    0  502 -0.26314387235E+03 -0.11030612241E+03  0.27820808111E+03  0.39853979048E+03  0.47000000000E+01 0.  1.
        -11    1    1    2    0    0  0.56459747736E+02  0.38570472756E+02  0.16965822146E+02  0.70450149780E+02  0.00000000000E+00 0.  1.
         11    1    1    2    0    0  0.28204011910E+03  0.21503019304E+02  0.21668719445E+03  0.35631776388E+03  0.00000000000E+00 0. -1.
<mgrwt>
<rscale>  0 0.38301458E+03</rscale>
<asrwt>0</asrwt>
<pdfrwt beam="1">  1        2 0.13539055E+00 0.39205558E+03</pdfrwt>
<pdfrwt beam="2">  1       -2 0.25607135E-01 0.39205558E+03</pdfrwt>
<totfact> 0.42516814E+02</totfact>
</mgrwt>
</event>
<event>
 7    1  0.6008063E-006  0.1840849E+03  0.7546771E-02  0.1169596E+00
          3   -1    0    0  501    0  0.00000000000E+00  0.00000000000E+00  0.87637097100E+02  0.87637097100E+02  0.00000000000E+00 0. -1.
         -3   -1    0    0    0  501 -0.00000000000E+00 -0.00000000000E+00 -0.34077708110E+03  0.34077708110E+03  0.00000000000E+00 0.  1.
         23    2    1    2    0    0  0.10757495108E+03  0.81793576301E+02 -0.13162319161E+03  0.22630045667E+03  0.12499869158E+03 0.  0.
          5    1    3    3  502    0  0.46020609319E+02  0.89351884043E+02 -0.26320601200E+02  0.10400249858E+03  0.47000000000E+01 0.  1.
         -5    1    3    3    0  502  0.61554341759E+02 -0.75583077419E+01 -0.10530259041E+03  0.12229795809E+03  0.47000000000E+01 0.  1.
        -11    1    1    2    0    0 -0.97005435094E+02 -0.62959452686E+02 -0.13413156427E+03  0.17710229714E+03  0.00000000000E+00 0.  1.
         11    1    1    2    0    0 -0.10569515985E+02 -0.18834123615E+02  0.12614771876E+02  0.25011424389E+02  0.00000000000E+00 0. -1.
<mgrwt>
<rscale>  0 0.17815972E+03</rscale>
<asrwt>0</asrwt>
<pdfrwt beam="1">  1        3 0.13482630E-01 0.18408485E+03</pdfrwt>
<pdfrwt beam="2">  1       -3 0.52427243E-01 0.18408485E+03</pdfrwt>
<totfact> 0.39125633E+02</totfact>
</mgrwt>
</event>
<event>
 7    1  0.6008063E-006  0.2029038E+03  0.7546771E-02  0.1151035E+00
          1   -1    0    0  501    0  0.00000000000E+00  0.00000000000E+00  0.91359301069E+02  0.91359301069E+02  0.00000000000E+00 0. -1.
         -1   -1    0    0    0  501 -0.00000000000E+00 -0.00000000000E+00 -0.48060413065E+03  0.48060413065E+03  0.00000000000E+00 0.  1.
         23    2    1    2    0    0 -0.38930928842E+02  0.15499494245E+03 -0.95114076936E+02  0.22409071970E+03  0.12502365223E+03 0.  0.
          5    1    3    3  502    0  0.10017896905E+02 -0.18473672620E+02 -0.33982604961E+01  0.21800757163E+02  0.47000000000E+01 0. -1.
         -5    1    3    3    0  502 -0.48948825746E+02  0.17346861507E+03 -0.91715816440E+02  0.20228996253E+03  0.47000000000E+01 0. -1.
        -11    1    1    2    0    0  0.50112533237E+02 -0.33663203356E+02 -0.13117845084E+03  0.14440312743E+03  0.00000000000E+00 0.  1.
         11    1    1    2    0    0 -0.11181604395E+02 -0.12133173910E+03 -0.16295230180E+03  0.20346958459E+03  0.00000000000E+00 0. -1.
<mgrwt>
<rscale>  0 0.19847190E+03</rscale>
<asrwt>0</asrwt>
<pdfrwt beam="1">  1        1 0.14055277E-01 0.20290383E+03</pdfrwt>
<pdfrwt beam="2">  1       -1 0.73939096E-01 0.20290383E+03</pdfrwt>
<totfact> 0.77772137E+02</totfact>
</mgrwt>
</event>
<event>
 7    1  0.6008063E-006  0.1303895E+03  0.7546771E-02  0.1240329E+00
         -2   -1    0    0    0  501 -0.00000000000E+00  0.00000000000E+00  0.97822345059E+01  0.97822345059E+01  0.00000000000E+00 0.  1.
          2   -1    0    0  501    0  0.00000000000E+00 -0.00000000000E+00 -0.13484122742E+04  0.13484122742E+04  0.00000000000E+00 0. -1.
         23    2    1    2    0    0 -0.44575274581E+01 -0.36847534190E+02 -0.79931061663E+03  0.80987584728E+03  0.12499526319E+03 0.  0.
          5    1    3    3  502    0 -0.37615006781E+02 -0.53959143764E+02 -0.22843192646E+03  0.23775977994E+03  0.47000000000E+01 0.  1.
         -5    1    3    3    0  502  0.33157479323E+02  0.17111609573E+02 -0.57087869017E+03  0.57211606734E+03  0.47000000000E+01 0.  1.
        -11    1    1    2    0    0  0.43012989491E+02 -0.30598760732E+01 -0.21411876280E+03  0.21841777558E+03  0.00000000000E+00 0.  1.
         11    1    1    2    0    0 -0.38555462033E+02  0.39907410264E+02 -0.32520066031E+03  0.32990088589E+03  0.00000000000E+00 0. -1.
<mgrwt>
<rscale>  0 0.12169375E+03</rscale>
<asrwt>0</asrwt>
<pdfrwt beam="2">  1        2 0.20744794E+00 0.13038952E+03</pdfrwt>
<pdfrwt beam="1">  1       -2 0.15049599E-02 0.13038952E+03</pdfrwt>
<totfact> 0.18595845E+04</totfact>
</mgrwt>
</event>
<event>
 7    1  0.6008063E-006  0.1502854E+03  0.7546771E-02  0.1209390E+00
         -2   -1    0    0    0  501 -0.00000000000E+00  0.00000000000E+00  0.87547342121E+02  0.87547342121E+02  0.00000000000E+00 0.  1.
          2   -1    0    0  501    0  0.00000000000E+00 -0.00000000000E+00 -0.27048947537E+03  0.27048947537E+03  0.00000000000E+00 0. -1.
         23    2    1    2    0    0 -0.43508451574E+02 -0.71181167099E+02 -0.18057023628E+03  0.23492829606E+03  0.12500380055E+03 0.  0.
          5    1    3    3  502    0 -0.51855987721E+02 -0.64474493943E+02 -0.19759705372E+03  0.21427246549E+03  0.47000000000E+01 0.  1.
         -5    1    3    3    0  502  0.83475361465E+01 -0.67066731555E+01  0.17026817434E+02  0.20655830568E+02  0.47000000000E+01 0.  1.
        -11    1    1    2    0    0  0.37307971452E+02  0.89237271709E+02  0.14286258359E+02  0.97771532532E+02  0.00000000000E+00 0.  1.
         11    1    1    2    0    0  0.62004801227E+01 -0.18056104610E+02 -0.16658155324E+02  0.25336988894E+02  0.00000000000E+00 0. -1.
<mgrwt>
<rscale>  0 0.14296819E+03</rscale>
<asrwt>0</asrwt>
<pdfrwt beam="2">  1        2 0.41613764E-01 0.15028538E+03</pdfrwt>
<pdfrwt beam="1">  1       -2 0.13468822E-01 0.15028538E+03</pdfrwt>
<totfact> 0.48294810E+03</totfact>
</mgrwt>
</event>
<event>
 6    1  0.6008063E-006  0.2012551E+03  0.7546771E-02  0.1160820E+00
          1   -1    0    0  501    0  0.00000000000E+00  0.00000000000E+00  0.37638664458E+02  0.37638664458E+02  0.00000000000E+00 0. -1.
         -1   -1    0    0    0  501 -0.00000000000E+00 -0.00000000000E+00 -0.11246140052E+04  0.11246140052E+04  0.00000000000E+00 0.  1.
          5    1    1    2  502    0  0.39291784966E+02 -0.74669265011E+02 -0.34088974788E+02  0.91123496998E+02  0.47000000000E+01 0. -1.
         -5    1    1    2    0  502  0.43228048245E+02 -0.12356575497E+02 -0.26852277085E+03  0.27230115237E+03  0.47000000000E+01 0.  1.
        -11    1    1    2    0    0 -0.48914080279E+02  0.10273552708E+03 -0.61674113404E+03  0.62714974463E+03  0.00000000000E+00 0.  1.
         11    1    1    2    0    0 -0.33605752932E+02 -0.15709686569E+02 -0.16762246103E+03  0.17167827563E+03  0.00000000000E+00 0. -1.
<mgrwt>
<rscale>  0 0.18740858E+03</rscale>
<asrwt>0</asrwt>
<pdfrwt beam="1">  1        1 0.57905633E-02 0.20125508E+03</pdfrwt>
<pdfrwt beam="2">  1       -1 0.17301755E+00 0.20125508E+03</pdfrwt>
<totfact> 0.34813994E+02</totfact>
</mgrwt>
</event>
<event>
 7    1  0.6008063E-006  0.1530276E+03  0.7546771E-02  0.1205820E+00
          4   -1    0    0  501    0  0.00000000000E+00  0.00000000000E+00  0.21778499598E+03  0.21778499598E+03  0.00000000000E+00 0.  1.
         -4   -1    0    0    0  501 -0.00000000000E+00 -0.00000000000E+00 -0.90638827928E+02  0.90638827928E+02  0.00000000000E+00 0. -1.
         23    2    1    2    0    0  0.70171145612E+02 -0.53558566055E+02  0.88441746660E+02  0.17674667367E+03  0.12499973771E+03 0.  0.
          5    1    3    3  502    0  0.44508450458E+02  0.36601714815E+02  0.22507301508E+02  0.62043181017E+02  0.47000000000E+01 0. -1.
         -5    1    3    3    0  502  0.25662695155E+02 -0.90160280870E+02  0.65934445152E+02  0.11470349265E+03  0.47000000000E+01 0. -1.
        -11    1    1    2    0    0  0.49610578162E+01  0.50132611278E+02  0.11296118741E+02  0.51628413755E+02  0.00000000000E+00 0. -1.
         11    1    1    2    0    0 -0.75132203428E+02  0.34259547773E+01  0.27408302648E+02  0.80048736481E+02  0.00000000000E+00 0.  1.
<mgrwt>
<rscale>  0 0.14573021E+03</rscale>
<asrwt>0</asrwt>
<pdfrwt beam="1">  1        4 0.33505384E-01 0.15302759E+03</pdfrwt>
<pdfrwt beam="2">  1       -4 0.13944435E-01 0.15302759E+03</pdfrwt>
<totfact> 0.62475792E+02</totfact>
</mgrwt>
</event>
<event>
 7    1  0.6008063E-006  0.1434167E+03  0.7546771E-02  0.1219138E+00
         -2   -1    0    0    0  501 -0.00000000000E+00  0.00000000000E+00  0.30409925708E+02  0.30409925708E+02  0.00000000000E+00 0. -1.
          2   -1    0    0  501    0  0.00000000000E+00 -0.00000000000E+00 -0.56787109538E+03  0.56787109538E+03  0.00000000000E+00 0.  1.
         23    2    1    2    0    0 -0.30849357060E+02 -0.63279170830E+02 -0.35020350557E+03  0.37843207167E+03  0.12494959490E+03 0.  0.
          5    1    3    3  502    0 -0.15129398706E+02 -0.74758904029E+02 -0.92642400409E+02  0.12009370004E+03  0.47000000000E+01 0.  1.
         -5    1    3    3    0  502 -0.15719958354E+02  0.11479733200E+02 -0.25756110516E+03  0.25833837163E+03  0.47000000000E+01 0.  1.
        -11    1    1    2    0    0 -0.62053448264E+01  0.74765106755E+02 -0.13877810608E+03  0.15775832853E+03  0.00000000000E+00 0.  1.
         11    1    1    2    0    0  0.37054701886E+02 -0.11485935925E+02 -0.48479558022E+02  0.62090620885E+02  0.00000000000E+00 0. -1.
<mgrwt>
<rscale>  0 0.13576909E+03</rscale>
<asrwt>0</asrwt>
<pdfrwt beam="2">  1        2 0.87364787E-01 0.14341666E+03</pdfrwt>
<pdfrwt beam="1">  1       -2 0.46784499E-02 0.14341666E+03</pdfrwt>
<totfact> 0.11146340E+04</totfact>
</mgrwt>
</event>
<event>
 7    1  0.6008063E-006  0.1270031E+03  0.7546771E-02  0.1246776E+00
         -2   -1    0    0    0  501 -0.00000000000E+00  0.00000000000E+00  0.46983054124E+02  0.46983054124E+02  0.00000000000E+00 0.  1.
          2   -1    0    0  501    0  0.00000000000E+00 -0.00000000000E+00 -0.29282490144E+03  0.29282490144E+03  0.00000000000E+00 0. -1.
         23    2    1    2    0    0 -0.15938929169E+02 -0.15824797524E+02 -0.19564138309E+03  0.23324953775E+03  0.12500128961E+03 0.  0.
          5    1    3    3  502    0  0.40529587434E+01 -0.65290584085E+02 -0.14671591325E+03  0.16070761042E+03  0.47000000000E+01 0. -1.
         -5    1    3    3    0  502 -0.19991887912E+02  0.49465786561E+02 -0.48925469835E+02  0.72541927332E+02  0.47000000000E+01 0. -1.
        -11    1    1    2    0    0 -0.21838822855E+02 -0.25499718619E+02 -0.36996986265E+01  0.33776583653E+02  0.00000000000E+00 0.  1.
         11    1    1    2    0    0  0.37777752024E+02  0.41324516143E+02 -0.46500765605E+02  0.72781834164E+02  0.00000000000E+00 0. -1.
<mgrwt>
<rscale>  0 0.11779701E+03</rscale>
<asrwt>0</asrwt>
<pdfrwt beam="2">  1        2 0.45049985E-01 0.12700313E+03</pdfrwt>
<pdfrwt beam="1">  1       -2 0.72281622E-02 0.12700313E+03</pdfrwt>
<totfact> 0.11674490E+04</totfact>
</mgrwt>
</event>
<event>
 6    1  0.6008063E-006  0.1528437E+03  0.7546771E-02  0.1207660E+00
          2   -1    0    0  501    0  0.00000000000E+00  0.00000000000E+00  0.51475740737E+03  0.51475740737E+03  0.00000000000E+00 0. -1.
         -2   -1    0    0    0  501 -0.00000000000E+00 -0.00000000000E+00 -0.12005176225E+03  0.12005176225E+03  0.00000000000E+00 0.  1.
          5    1    1    2  502    0  0.30282246273E+02  0.45984061341E+02  0.28232469826E+03  0.28768189652E+03  0.47000000000E+01 0. -1.
         -5    1    1    2    0  502  0.44466205237E+02 -0.73570110569E+02  0.18612083755E+03  0.20506794178E+03  0.47000000000E+01 0.  1.
        -11    1    1    2    0    0  0.43845944584E+01 -0.13978252479E+02  0.11440262817E+02  0.18587517969E+02  0.00000000000E+00 0. -1.
         11    1    1    2    0    0 -0.79133045969E+02  0.41564301708E+02 -0.85180153508E+02  0.12347181335E+03  0.00000000000E+00 0.  1.
<mgrwt>
<rscale>  0 0.14429784E+03</rscale>
<asrwt>0</asrwt>
<pdfrwt beam="1">  1        2 0.79193446E-01 0.15284366E+03</pdfrwt>
<pdfrwt beam="2">  1       -2 0.18469502E-01 0.15284366E+03</pdfrwt>
<totfact> 0.14385277E+03</totfact>
</mgrwt>
</event>
<event>
 7    1  0.6008063E-006  0.1460862E+03  0.7546771E-02  0.1214793E+00
         -1   -1    0    0    0  501 -0.00000000000E+00  0.00000000000E+00  0.40854378029E+03  0.40854378029E+03  0.00000000000E+00 0.  1.
          1   -1    0    0  501    0  0.00000000000E+00 -0.00000000000E+00 -0.89717129587E+02  0.89717129587E+02  0.00000000000E+00 0. -1.
         23    2    1    2    0    0 -0.58079966263E+02  0.48402890632E+02 -0.11951905679E+02  0.14657433669E+03  0.12500026330E+03 0.  0.
          5    1    3    3  502    0 -0.29079906382E+02  0.86990455465E+02  0.11754968453E+02  0.92591844028E+02  0.47000000000E+01 0. -1.
         -5    1    3    3    0  502 -0.29000059881E+02 -0.38587564834E+02 -0.23706874132E+02  0.53982492662E+02  0.47000000000E+01 0. -1.
        -11    1    1    2    0    0  0.15803101083E+02  0.27966934431E+02  0.93020819442E+02  0.98411179624E+02  0.00000000000E+00 0. -1.
         11    1    1    2    0    0  0.42276865181E+02 -0.76369825063E+02  0.23775773694E+03  0.25327539356E+03  0.00000000000E+00 0.  1.
<mgrwt>
<rscale>  0 0.13891724E+03</rscale>
<asrwt>0</asrwt>
<pdfrwt beam="2">  1        1 0.13802636E-01 0.14608624E+03</pdfrwt>
<pdfrwt beam="1">  1       -1 0.62852888E-01 0.14608624E+03</pdfrwt>
<totfact> 0.10905388E+03</totfact>
</mgrwt>
</event>
<event>
 7    1  0.6008063E-006  0.1257129E+03  0.7546771E-02  0.1249345E+00
         -2   -1    0    0    0  501 -0.00000000000E+00  0.00000000000E+00  0.17387175743E+02  0.17387175743E+02  0.00000000000E+00 0.  1.
          2   -1    0    0  501    0  0.00000000000E+00 -0.00000000000E+00 -0.88059892908E+03  0.88059892908E+03  0.00000000000E+00 0. -1.
         23    2    1    2    0    0 -0.71402287517E+01  0.11290451802E+02 -0.69458640738E+03  0.70587110713E+03  0.12500114159E+03 0.  0.
          5    1    3    3  502    0 -0.54792251184E+02  0.12438685379E+02 -0.17007461248E+03  0.17917693907E+03  0.47000000000E+01 0.  1.
         -5    1    3    3    0  502  0.47652022432E+02 -0.11482335775E+01 -0.52451179490E+03  0.52669416807E+03  0.47000000000E+01 0.  1.
        -11    1    1    2    0    0 -0.10946408535E+02 -0.35467680863E+02 -0.23613137454E+02  0.43992732423E+02  0.00000000000E+00 0.  1.
         11    1    1    2    0    0  0.18086637287E+02  0.24177229061E+02 -0.14501220850E+03  0.14812226526E+03  0.00000000000E+00 0. -1.
<mgrwt>
<rscale>  0 0.11629041E+03</rscale>
<asrwt>0</asrwt>
<pdfrwt beam="2">  1        2 0.13547677E+00 0.12571294E+03</pdfrwt>
<pdfrwt beam="1">  1       -2 0.26749499E-02 0.12571294E+03</pdfrwt>
<totfact> 0.14936676E+04</totfact>
</mgrwt>
</event>
<event>
 7    1  0.6008063E-006  0.1562880E+03  0.7546771E-02  0.1201126E+00
          1   -1    0    0  501    0  0.00000000000E+00  0.00000000000E+00  0.31315205834E+03  0.31315205834E+03  0.00000000000E+00 0.  1.
         -1   -1    0    0    0  501 -0.00000000000E+00 -0.00000000000E+00 -0.90256470468E+02  0.90256470468E+02  0.00000000000E+00 0. -1.
         23    2    1    2    0    0  0.36129588240E+02  0.86572296703E+02  0.22342235596E+03  0.27266004751E+03  0.12500337061E+03 0.  0.
          5    1    3    3  502    0  0.18253645807E+02 -0.31154954759E+02  0.63802148402E+02  0.73461765103E+02  0.47000000000E+01 0. -1.
         -5    1    3    3    0  502  0.17875942433E+02  0.11772725146E+03  0.15962020756E+03  0.19919828241E+03  0.47000000000E+01 0. -1.
        -11    1    1    2    0    0  0.29916228573E+02 -0.37165116403E+02 -0.60023241649E+01  0.48085907548E+02  0.00000000000E+00 0.  1.
         11    1    1    2    0    0 -0.66045816813E+02 -0.49407180300E+02  0.54755560732E+01  0.82662573744E+02  0.00000000000E+00 0. -1.
<mgrwt>
<rscale>  0 0.14946951E+03</rscale>
<asrwt>0</asrwt>
<pdfrwt beam="1">  1        1 0.48177239E-01 0.15628804E+03</pdfrwt>
<pdfrwt beam="2">  1       -1 0.13885611E-01 0.15628804E+03</pdfrwt>
<totfact> 0.29438108E+03</totfact>
</mgrwt>
</event>
<event>
 7    1  0.6008063E-006  0.1405700E+03  0.7546771E-02  0.1222910E+00
          2   -1    0    0  501    0  0.00000000000E+00  0.00000000000E+00  0.75728029421E+03  0.75728029421E+03  0.00000000000E+00 0. -1.
         -2   -1    0    0    0  501 -0.00000000000E+00 -0.00000000000E+00 -0.27029523323E+02  0.27029523323E+02  0.00000000000E+00 0.  1.
         23    2    1    2    0    0 -0.46820393693E+02 -0.44077451186E+02  0.57705407068E+03  0.59392871845E+03  0.12499980454E+03 0.  0.
          5    1    3    3  502    0 -0.77701184304E+02 -0.69242182794E+01  0.46908581798E+03  0.47555127323E+03  0.47000000000E+01 0.  1.
         -5    1    3    3    0  502  0.30880790611E+02 -0.37153232907E+02  0.10796825270E+03  0.11837744521E+03  0.47000000000E+01 0.  1.
        -11    1    1    2    0    0  0.54349890254E+02  0.68452150080E+02  0.11492735692E+03  0.14438803548E+03  0.00000000000E+00 0. -1.
         11    1    1    2    0    0 -0.75294965607E+01 -0.24374698894E+02  0.38269343285E+02  0.45993063608E+02  0.00000000000E+00 0.  1.
<mgrwt>
<rscale>  0 0.13311215E+03</rscale>
<asrwt>0</asrwt>
<pdfrwt beam="1">  1        2 0.11650464E+00 0.14056999E+03</pdfrwt>
<pdfrwt beam="2">  1       -2 0.41583888E-02 0.14056999E+03</pdfrwt>
<totfact> 0.94828792E+03</totfact>
</mgrwt>
</event>
<event>
 7    1  0.6008063E-006  0.1382071E+03  0.7546771E-02  0.1227672E+00
         -2   -1    0    0    0  501 -0.00000000000E+00  0.00000000000E+00  0.21255639143E+02  0.21255639143E+02  0.00000000000E+00 0.  1.
          2   -1    0    0  501    0  0.00000000000E+00 -0.00000000000E+00 -0.10281897888E+04  0.10281897888E+04  0.00000000000E+00 0. -1.
         23    2    1    2    0    0 -0.26348105728E-01  0.58969805325E+02 -0.83643439150E+03  0.84777573556E+03  0.12499507144E+03 0.  0.
          5    1    3    3  502    0 -0.35035881519E+02  0.39256258126E+02 -0.75501621011E+03  0.75686203124E+03  0.47000000000E+01 0. -1.
         -5    1    3    3    0  502  0.35009533414E+02  0.19713547199E+02 -0.81418181388E+02  0.90913704322E+02  0.47000000000E+01 0. -1.
        -11    1    1    2    0    0 -0.16092143856E+02 -0.66083306673E+02 -0.17101505203E+03  0.18404376799E+03  0.00000000000E+00 0. -1.
         11    1    1    2    0    0  0.16118491961E+02  0.71135013478E+01  0.51529383042E+00  0.17625924437E+02  0.00000000000E+00 0.  1.
<mgrwt>
<rscale>  0 0.12985461E+03</rscale>
<asrwt>0</asrwt>
<pdfrwt beam="2">  1        2 0.15818304E+00 0.13820711E+03</pdfrwt>
<pdfrwt beam="1">  1       -2 0.32700984E-02 0.13820711E+03</pdfrwt>
<totfact> 0.90880158E+03</totfact>
</mgrwt>
</event>
<event>
 7    1  0.6008063E-006  0.1279547E+03  0.7546771E-02  0.1245094E+00
         -1   -1    0    0    0  501 -0.00000000000E+00  0.00000000000E+00  0.20840359983E+02  0.20840359983E+02  0.00000000000E+00 0.  1.
          1   -1    0    0  501    0  0.00000000000E+00 -0.00000000000E+00 -0.63366901686E+03  0.63366901686E+03  0.00000000000E+00 0. -1.
         23    2    1    2    0    0 -0.16825445353E+02 -0.21610291204E+02 -0.42718801511E+03  0.44593945494E+03  0.12498918721E+03 0.  0.
          5    1    3    3  502    0  0.96400703662E+01  0.10007408823E+02  0.19516371909E+01  0.14797907816E+02  0.47000000000E+01 0. -1.
         -5    1    3    3    0  502 -0.26465515719E+02 -0.31617700027E+02 -0.42913965230E+03  0.43114154712E+03  0.47000000000E+01 0. -1.
        -11    1    1    2    0    0 -0.18361188240E+02  0.38925252113E+02 -0.14830347624E+03  0.15442224435E+03  0.00000000000E+00 0.  1.
         11    1    1    2    0    0  0.35186633593E+02 -0.17314960909E+02 -0.37337165529E+02  0.54147677556E+02  0.00000000000E+00 0. -1.
<mgrwt>
<rscale>  0 0.11879740E+03</rscale>
<asrwt>0</asrwt>
<pdfrwt beam="2">  1        1 0.97487533E-01 0.12795467E+03</pdfrwt>
<pdfrwt beam="1">  1       -1 0.32062095E-02 0.12795467E+03</pdfrwt>
<totfact> 0.10587943E+04</totfact>
</mgrwt>
</event>
<event>
 7    1  0.6008063E-006  0.3360330E+03  0.7546771E-02  0.1069489E+00
         -2   -1    0    0    0  501 -0.00000000000E+00  0.00000000000E+00  0.29961117872E+03  0.29961117872E+03  0.00000000000E+00 0.  1.
          2   -1    0    0  501    0  0.00000000000E+00 -0.00000000000E+00 -0.38050582556E+03  0.38050582556E+03  0.00000000000E+00 0. -1.
         23    2    1    2    0    0 -0.29520079149E+03  0.10074575081E+03 -0.10547367383E+03  0.35219716746E+03  0.12499974118E+03 0.  0.
          5    1    3    3  502    0 -0.29633096737E+03  0.73133646910E+02 -0.10857837883E+03  0.32399371426E+03  0.47000000000E+01 0. -1.
         -5    1    3    3    0  502  0.11301758792E+01  0.27612103899E+02  0.31047050007E+01  0.28203453200E+02  0.47000000000E+01 0. -1.
        -11    1    1    2    0    0  0.24967800761E+03 -0.65511895845E+02 -0.14185736562E+02  0.25851915036E+03  0.00000000000E+00 0. -1.
         11    1    1    2    0    0  0.45522783885E+02 -0.35233854965E+02  0.38764763550E+02  0.69400686462E+02  0.00000000000E+00 0.  1.
<mgrwt>
<rscale>  0 0.33375092E+03</rscale>
<asrwt>0</asrwt>
<pdfrwt beam="2">  1        2 0.58539358E-01 0.33603296E+03</pdfrwt>
<pdfrwt beam="1">  1       -2 0.46094027E-01 0.33603296E+03</pdfrwt>
<totfact> 0.38243670E+02</totfact>
</mgrwt>
</event>
<event>
 7    1  0.6008063E-006  0.1347917E+03  0.7546771E-02  0.1233509E+00
          2   -1    0    0  501    0  0.00000000000E+00  0.00000000000E+00  0.28363258726E+03  0.28363258726E+03  0.00000000000E+00 0. -1.
         -2   -1    0    0    0  501 -0.00000000000E+00 -0.00000000000E+00 -0.10922488087E+03  0.10922488087E+03  0.00000000000E+00 0.  1.
         23    2    1    2    0    0  0.46598427993E+02 -0.19241626100E+02  0.23681325880E+03  0.27248727062E+03  0.12500855747E+03 0.  0.
          5    1    3    3  502    0 -0.29249056912E+02 -0.45487735749E+02  0.90082918573E+02  0.10517444391E+03  0.47000000000E+01 0.  1.
         -5    1    3    3    0  502  0.75847484906E+02  0.26246109649E+02  0.14673034022E+03  0.16731282671E+03  0.47000000000E+01 0.  1.
        -11    1    1    2    0    0 -0.32495734747E+02 -0.99430981772E+01 -0.77493420154E+02  0.84617185874E+02  0.00000000000E+00 0.  1.
         11    1    1    2    0    0 -0.14102693247E+02  0.29184724277E+02  0.15087867740E+02  0.35753011634E+02  0.00000000000E+00 0. -1.
<mgrwt>
<rscale>  0 0.12600347E+03</rscale>
<asrwt>0</asrwt>
<pdfrwt beam="1">  1        2 0.43635782E-01 0.13479167E+03</pdfrwt>
<pdfrwt beam="2">  1       -2 0.16803828E-01 0.13479167E+03</pdfrwt>
<totfact> 0.31796064E+03</totfact>
</mgrwt>
</event>
<event>
 7    1  0.6008063E-006  0.1253306E+03  0.7546771E-02  0.1254037E+00
         -2   -1    0    0    0  501 -0.00000000000E+00  0.00000000000E+00  0.22853293240E+02  0.22853293240E+02  0.00000000000E+00 0.  1.
          2   -1    0    0  501    0  0.00000000000E+00 -0.00000000000E+00 -0.52272441306E+03  0.52272441306E+03  0.00000000000E+00 0. -1.
         23    2    1    2    0    0 -0.51522625535E+01  0.76048326485E+01 -0.36933300945E+03  0.39001875017E+03  0.12499349714E+03 0.  0.
          5    1    3    3  502    0 -0.24615966046E+02 -0.48524091889E+02 -0.97725934540E+02  0.11195079973E+03  0.47000000000E+01 0. -1.
         -5    1    3    3    0  502  0.19463703492E+02  0.56128924538E+02 -0.27160707491E+03  0.27806795044E+03  0.47000000000E+01 0. -1.
        -11    1    1    2    0    0  0.14117209150E+02  0.28649342889E+02 -0.17303765940E+02  0.36324933006E+02  0.00000000000E+00 0.  1.
         11    1    1    2    0    0 -0.89649465968E+01 -0.36254175537E+02 -0.11323434443E+03  0.11923402312E+03  0.00000000000E+00 0. -1.
<mgrwt>
<rscale>  0 0.11360428E+03</rscale>
<asrwt>0</asrwt>
<pdfrwt beam="2">  1        2 0.80419133E-01 0.12533058E+03</pdfrwt>
<pdfrwt beam="1">  1       -2 0.35158916E-02 0.12533058E+03</pdfrwt>
<totfact> 0.18498599E+04</totfact>
</mgrwt>
</event>
<event>
 7    1  0.6008063E-006  0.1268586E+03  0.7546771E-02  0.1245650E+00
          2   -1    0    0  501    0  0.00000000000E+00  0.00000000000E+00  0.69903226913E+02  0.69903226913E+02  0.00000000000E+00 0. -1.
         -2   -1    0    0    0  501 -0.00000000000E+00 -0.00000000000E+00 -0.18863415733E+03  0.18863415733E+03  0.00000000000E+00 0.  1.
         23    2    1    2    0    0 -0.82260625222E+01 -0.19858289161E+02 -0.37130436367E+02  0.13218082288E+03  0.12502432115E+03 0.  0.
          5    1    3    3  502    0  0.43405613837E+02  0.11683658395E+02 -0.52802557919E+02  0.69503635220E+02  0.47000000000E+01 0. -1.
         -5    1    3    3    0  502 -0.51631676359E+02 -0.31541947557E+02  0.15672121552E+02  0.62677187662E+02  0.47000000000E+01 0. -1.
        -11    1    1    2    0    0 -0.33506809743E+02  0.12542804840E+02 -0.75503112836E+02  0.83550872529E+02  0.00000000000E+00 0.  1.
         11    1    1    2    0    0  0.41732872265E+02  0.73154843207E+01 -0.60973812094E+01  0.42805688827E+02  0.00000000000E+00 0. -1.
<mgrwt>
<rscale>  0 0.11846583E+03</rscale>
<asrwt>0</asrwt>
<pdfrwt beam="1">  1        2 0.10754343E-01 0.12685859E+03</pdfrwt>
<pdfrwt beam="2">  1       -2 0.29020639E-01 0.12685859E+03</pdfrwt>
<totfact> 0.59963531E+03</totfact>
</mgrwt>
</event>
<event>
 7    1  0.6008063E-006  0.1342742E+03  0.7546771E-02  0.1232678E+00
          1   -1    0    0  501    0  0.00000000000E+00  0.00000000000E+00  0.88623593578E+02  0.88623593578E+02  0.00000000000E+00 0. -1.
         -1   -1    0    0    0  501 -0.00000000000E+00 -0.00000000000E+00 -0.16611215449E+03  0.16611215449E+03  0.00000000000E+00 0.  1.
         23    2    1    2    0    0 -0.46169986111E+02 -0.16518308771E+02 -0.25218246785E+02  0.13662182014E+03  0.12500015850E+03 0.  0.
          5    1    3    3  502    0  0.23211418188E+02 -0.10594344040E+02  0.35598522299E+02  0.44049459132E+02  0.47000000000E+01 0. -1.
         -5    1    3    3    0  502 -0.69381404299E+02 -0.59239647306E+01 -0.60816769083E+02  0.92572361007E+02  0.47000000000E+01 0. -1.
        -11    1    1    2    0    0 -0.64457845347E+01  0.26433568506E+02 -0.58198933718E+02  0.64244825224E+02  0.00000000000E+00 0.  1.
         11    1    1    2    0    0  0.52615770646E+02 -0.99152597355E+01  0.59286195872E+01  0.53869102707E+02  0.00000000000E+00 0. -1.
<mgrwt>
<rscale>  0 0.12654277E+03</rscale>
<asrwt>0</asrwt>
<pdfrwt beam="1">  1        1 0.13634399E-01 0.13427420E+03</pdfrwt>
<pdfrwt beam="2">  1       -1 0.25555716E-01 0.13427420E+03</pdfrwt>
<totfact> 0.54026601E+03</totfact>
</mgrwt>
</event>
<event>
 7    1  0.6008063E-006  0.1758319E+03  0.7546771E-02  0.1177873E+00
          1   -1    0    0  501    0  0.00000000000E+00  0.00000000000E+00  0.31600228355E+03  0.31600228355E+03  0.00000000000E+00 0. -1.
         -1   -1    0    0    0  501 -0.00000000000E+00 -0.00000000000E+00 -0.97787754963E+02  0.97787754963E+02  0.00000000000E+00 0.  1.
         23    2    1    2    0    0  0.10027953336E+03  0.72495303413E+02  0.18777722630E+03  0.25724916564E+03  0.12492114584E+03 0.  0.
          5    1    3    3  502    0 -0.31910220086E+00  0.21611821376E+02  0.12734487353E+03  0.12925161300E+03  0.47000000000E+01 0.  1.
         -5    1    3    3    0  502  0.10059863556E+03  0.50883482037E+02  0.60432352773E+02  0.12799755264E+03  0.47000000000E+01 0.  1.
        -11    1    1    2    0    0  0.13728408280E+02 -0.26102412074E+02  0.12983137274E+02  0.32223701889E+02  0.00000000000E+00 0.  1.
         11    1    1    2    0    0 -0.11400794164E+03 -0.46392891339E+02  0.17454165008E+02  0.12431717098E+03  0.00000000000E+00 0. -1.
<mgrwt>
<rscale>  0 0.16997615E+03</rscale>
<asrwt>0</asrwt>
<pdfrwt beam="1">  1        1 0.48615736E-01 0.17583187E+03</pdfrwt>
<pdfrwt beam="2">  1       -1 0.15044270E-01 0.17583187E+03</pdfrwt>
<totfact> 0.25778279E+03</totfact>
</mgrwt>
</event>
<event>
 7    1  0.6008063E-006  0.1602183E+03  0.7546771E-02  0.1195585E+00
         -2   -1    0    0    0  501 -0.00000000000E+00  0.00000000000E+00  0.34790830028E+02  0.34790830028E+02  0.00000000000E+00 0.  1.
          2   -1    0    0  501    0  0.00000000000E+00 -0.00000000000E+00 -0.75712415960E+03  0.75712415960E+03  0.00000000000E+00 0. -1.
         23    2    1    2    0    0  0.10008329624E+03  0.49872657676E+01 -0.54385001016E+03  0.56695920460E+03  0.12501346775E+03 0.  0.
          5    1    3    3  502    0  0.94682750702E+02  0.14953706680E+02 -0.54611236837E+03  0.55448105965E+03  0.47000000000E+01 0.  1.
         -5    1    3    3    0  502  0.54005455371E+01 -0.99664409124E+01  0.22623582113E+01  0.12478144944E+02  0.47000000000E+01 0.  1.
        -11    1    1    2    0    0 -0.56631104624E+02 -0.72201089104E+01 -0.17167281748E+03  0.18091646759E+03  0.00000000000E+00 0. -1.
         11    1    1    2    0    0 -0.43452191615E+02  0.22328431427E+01 -0.68105019360E+01  0.44039317448E+02  0.00000000000E+00 0.  1.
<mgrwt>
<rscale>  0 0.15404791E+03</rscale>
<asrwt>0</asrwt>
<pdfrwt beam="2">  1        2 0.11648064E+00 0.16021831E+03</pdfrwt>
<pdfrwt beam="1">  1       -2 0.53524353E-02 0.16021831E+03</pdfrwt>
<totfact> 0.65393230E+03</totfact>
</mgrwt>
</event>
<event>
 7    1  0.6008063E-006  0.1792424E+03  0.7546771E-02  0.1174452E+00
          2   -1    0    0  501    0  0.00000000000E+00  0.00000000000E+00  0.12972532193E+03  0.12972532193E+03  0.00000000000E+00 0. -1.
         -2   -1    0    0    0  501 -0.00000000000E+00 -0.00000000000E+00 -0.26233009580E+03  0.26233009580E+03  0.00000000000E+00 0.  1.
         23    2    1    2    0    0  0.87609212012E+02 -0.93953093725E+02  0.10979545537E+02  0.17957836636E+03  0.12500112557E+03 0.  0.
          5    1    3    3  502    0  0.97484469393E+02 -0.74497316388E+02 -0.35676072621E+02  0.12785907899E+03  0.47000000000E+01 0.  1.
         -5    1    3    3    0  502 -0.98752573813E+01 -0.19455777338E+02  0.46655618158E+02  0.51719287368E+02  0.47000000000E+01 0.  1.
        -11    1    1    2    0    0 -0.62684867414E+02  0.35258139280E+01 -0.59854396303E+02  0.86743142227E+02  0.00000000000E+00 0.  1.
         11    1    1    2    0    0 -0.24924344597E+02  0.90427279797E+02 -0.83729923104E+02  0.12573390914E+03  0.00000000000E+00 0. -1.
<mgrwt>
<rscale>  0 0.17329772E+03</rscale>
<asrwt>0</asrwt>
<pdfrwt beam="1">  1        2 0.19957742E-01 0.17924240E+03</pdfrwt>
<pdfrwt beam="2">  1       -2 0.40358476E-01 0.17924240E+03</pdfrwt>
<totfact> 0.16060316E+03</totfact>
</mgrwt>
</event>
<event>
 7    1  0.6008063E-006  0.1345331E+03  0.7546771E-02  0.1233323E+00
          1   -1    0    0  501    0  0.00000000000E+00  0.00000000000E+00  0.57525324506E+03  0.57525324506E+03  0.00000000000E+00 0. -1.
         -1   -1    0    0    0  501 -0.00000000000E+00 -0.00000000000E+00 -0.27111101603E+02  0.27111101603E+02  0.00000000000E+00 0.  1.
         23    2    1    2    0    0  0.22408874391E+02 -0.44405359090E+02  0.39507763194E+03  0.41735534292E+03  0.12500061373E+03 0.  0.
          5    1    3    3  502    0 -0.48882896414E+02 -0.24763168793E+02  0.22875973361E+03  0.23527825614E+03  0.47000000000E+01 0.  1.
         -5    1    3    3    0  502  0.71291770805E+02 -0.19642190297E+02  0.16631789833E+03  0.18207708678E+03  0.47000000000E+01 0.  1.
        -11    1    1    2    0    0  0.27591214474E+02  0.48344851548E-01  0.14507717313E+02  0.31172925994E+02  0.00000000000E+00 0. -1.
         11    1    1    2    0    0 -0.50000088865E+02  0.44357014238E+02  0.13855679420E+03  0.15383607775E+03  0.00000000000E+00 0.  1.
<mgrwt>
<rscale>  0 0.12612398E+03</rscale>
<asrwt>0</asrwt>
<pdfrwt beam="1">  1        1 0.88500490E-01 0.13453307E+03</pdfrwt>
<pdfrwt beam="2">  1       -1 0.41709391E-02 0.13453307E+03</pdfrwt>
<totfact> 0.82479203E+03</totfact>
</mgrwt>
</event>
<event>
 7    1  0.6008063E-006  0.1717740E+03  0.7546771E-02  0.1182518E+00
          1   -1    0    0  501    0  0.00000000000E+00  0.00000000000E+00  0.75179573059E+03  0.75179573059E+03  0.00000000000E+00 0. -1.
         -1   -1    0    0    0  501 -0.00000000000E+00 -0.00000000000E+00 -0.34584142324E+02  0.34584142324E+02  0.00000000000E+00 0.  1.
         23    2    1    2    0    0  0.93325966552E+02  0.72005116317E+02  0.33721110080E+03  0.37844106133E+03  0.12494733926E+03 0.  0.
          5    1    3    3  502    0 -0.11685516241E+02  0.24452425306E+02  0.18712375314E+03  0.18913450606E+03  0.47000000000E+01 0. -1.
         -5    1    3    3    0  502  0.10501148279E+03  0.47552691010E+02  0.15008734766E+03  0.18930655527E+03  0.47000000000E+01 0. -1.
        -11    1    1    2    0    0 -0.43766179769E+02 -0.16344848742E+02  0.27638043660E+03  0.28030122780E+03  0.00000000000E+00 0. -1.
         11    1    1    2    0    0 -0.49559786783E+02 -0.55660267574E+02  0.10362005087E+03  0.12763758379E+03  0.00000000000E+00 0.  1.
<mgrwt>
<rscale>  0 0.16559786E+03</rscale>
<asrwt>0</asrwt>
<pdfrwt beam="1">  1        1 0.11566087E+00 0.17177401E+03</pdfrwt>
<pdfrwt beam="2">  1       -1 0.53206378E-02 0.17177401E+03</pdfrwt>
<totfact> 0.39934406E+03</totfact>
</mgrwt>
</event>
<event>
 7    1  0.6008063E-006  0.1472786E+03  0.7546771E-02  0.1208641E+00
          1   -1    0    0  501    0  0.00000000000E+00  0.00000000000E+00  0.65265234513E+02  0.65265234513E+02  0.00000000000E+00 0. -1.
         -1   -1    0    0    0  501 -0.00000000000E+00 -0.00000000000E+00 -0.31854773867E+03  0.31854773867E+03  0.00000000000E+00 0.  1.
         23    2    1    2    0    0 -0.89229702631E+02 -0.34230852385E+02 -0.87380115775E+02  0.17124913192E+03  0.11205931226E+03 0.  0.
          5    1    3    3  502    0  0.15984540141E+02 -0.75032010233E+01  0.13705574278E+02  0.22841548008E+02  0.47000000000E+01 0. -1.
         -5    1    3    3    0  502 -0.10521424277E+03 -0.26727651362E+02 -0.10108569005E+03  0.14840758391E+03  0.47000000000E+01 0.  1.
        -11    1    1    2    0    0  0.32051926018E+02  0.61632137141E+02 -0.85021426740E+02  0.10979293827E+03  0.00000000000E+00 0. -1.
         11    1    1    2    0    0  0.57177776613E+02 -0.27401284756E+02 -0.80880961646E+02  0.10277090299E+03  0.00000000000E+00 0.  1.
<mgrwt>
<rscale>  0 0.14354163E+03</rscale>
<asrwt>0</asrwt>
<pdfrwt beam="1">  1        1 0.10040805E-01 0.14727858E+03</pdfrwt>
<pdfrwt beam="2">  1       -1 0.49007345E-01 0.14727858E+03</pdfrwt>
<totfact> 0.26413292E+03</totfact>
</mgrwt>
</event>
<event>
 7    1  0.6008063E-006  0.1519717E+03  0.7546771E-02  0.1206750E+00
          2   -1    0    0  501    0  0.00000000000E+00  0.00000000000E+00  0.70384006754E+02  0.70384006754E+02  0.00000000000E+00 0. -1.
         -2   -1    0    0    0  501 -0.00000000000E+00 -0.00000000000E+00 -0.31826840118E+03  0.31826840118E+03  0.00000000000E+00 0.  1.
         23    2    1    2    0    0 -0.47180948337E+02  0.72418358043E+02 -0.62045879698E+02  0.16414954805E+03  0.12499968988E+03 0.  0.
          5    1    3    3  502    0  0.13000221907E+02 -0.91693935567E+01  0.25296166748E+02  0.30250117355E+02  0.47000000000E+01 0. -1.
         -5    1    3    3    0  502 -0.60181170245E+02  0.81587751600E+02 -0.87342046446E+02  0.13389943070E+03  0.47000000000E+01 0. -1.
        -11    1    1    2    0    0  0.55519178230E+02 -0.26935421501E+01 -0.87619984014E+02  0.10376365413E+03  0.00000000000E+00 0.  1.
         11    1    1    2    0    0 -0.83382298927E+01 -0.69724815893E+02 -0.98218530710E+02  0.12073920574E+03  0.00000000000E+00 0. -1.
<mgrwt>
<rscale>  0 0.14500365E+03</rscale>
<asrwt>0</asrwt>
<pdfrwt beam="1">  1        2 0.10828309E-01 0.15197165E+03</pdfrwt>
<pdfrwt beam="2">  1       -2 0.48964369E-01 0.15197165E+03</pdfrwt>
<totfact> 0.22558118E+03</totfact>
</mgrwt>
</event>
<event>
 7    1  0.6008063E-006  0.1348548E+03  0.7546771E-02  0.1232583E+00
         -2   -1    0    0    0  501 -0.00000000000E+00  0.00000000000E+00  0.26419130187E+02  0.26419130187E+02  0.00000000000E+00 0.  1.
          2   -1    0    0  501    0  0.00000000000E+00 -0.00000000000E+00 -0.67490581006E+03  0.67490581006E+03  0.00000000000E+00 0. -1.
         23    2    1    2    0    0 -0.41956277385E+02  0.28321475360E+02 -0.51088119564E+03  0.52837998807E+03  0.12499352207E+03 0.  0.
          5    1    3    3  502    0  0.36204466202E+02  0.22744848883E+02 -0.30540483697E+03  0.30841902660E+03  0.47000000000E+01 0. -1.
         -5    1    3    3    0  502 -0.78160743586E+02  0.55766264769E+01 -0.20547635866E+03  0.21996096147E+03  0.47000000000E+01 0. -1.
        -11    1    1    2    0    0 -0.11579364137E+02 -0.35263659593E+02 -0.10130757561E+03  0.10789268853E+03  0.00000000000E+00 0. -1.
         11    1    1    2    0    0  0.53535641522E+02  0.69421842335E+01 -0.36297908626E+02  0.65052263648E+02  0.00000000000E+00 0.  1.
<mgrwt>
<rscale>  0 0.12660440E+03</rscale>
<asrwt>0</asrwt>
<pdfrwt beam="2">  1        2 0.10383168E+00 0.13485480E+03</pdfrwt>
<pdfrwt beam="1">  1       -2 0.40644810E-02 0.13485480E+03</pdfrwt>
<totfact> 0.11230650E+04</totfact>
</mgrwt>
</event>
<event>
 7    1  0.8115779E-006  0.1695486E+03  0.7546771E-02  0.1184863E+00
          1   -1    0    0  501    0  0.00000000000E+00  0.00000000000E+00  0.20928308806E+03  0.20928308806E+03  0.00000000000E+00 0. -1.
         -1   -1    0    0    0  501 -0.00000000000E+00 -0.00000000000E+00 -0.13383889653E+03  0.13383889653E+03  0.00000000000E+00 0.  1.
         23    2    1    2    0    0 -0.41067291644E+02  0.10693550630E+03  0.96674887671E+02  0.19517367991E+03  0.12500002588E+03 0.  0.
          5    1    3    3  502    0 -0.86452240571E+01  0.21835869483E+02 -0.30440659898E+02  0.38733304404E+02  0.47000000000E+01 0.  1.
         -5    1    3    3    0  502 -0.32422067587E+02  0.85099636822E+02  0.12711554757E+03  0.15644037550E+03  0.47000000000E+01 0.  1.
        -11    1    1    2    0    0  0.48962469112E+02 -0.10003133666E+03  0.13018012187E+02  0.11212965860E+03  0.00000000000E+00 0. -1.
         11    1    1    2    0    0 -0.78951774677E+01 -0.69041696413E+01 -0.34248708325E+02  0.35818646088E+02  0.00000000000E+00 0.  1.
<mgrwt>
<rscale>  0 0.16344386E+03</rscale>
<asrwt>0</asrwt>
<pdfrwt beam="1">  1        1 0.32197398E-01 0.16954861E+03</pdfrwt>
<pdfrwt beam="2">  1       -1 0.20590599E-01 0.16954861E+03</pdfrwt>
<totfact> 0.26065491E+03</totfact>
</mgrwt>
</event>
<event>
 7    1  0.6008063E-006  0.1436952E+03  0.7546771E-02  0.1218335E+00
          2   -1    0    0  501    0  0.00000000000E+00  0.00000000000E+00  0.32759517230E+03  0.32759517230E+03  0.00000000000E+00 0. -1.
         -2   -1    0    0    0  501 -0.00000000000E+00 -0.00000000000E+00 -0.55044370486E+02  0.55044370486E+02  0.00000000000E+00 0.  1.
         23    2    1    2    0    0  0.31205201113E+02  0.63632711047E+02  0.19689321114E+03  0.24375242412E+03  0.12500168471E+03 0.  0.
          5    1    3    3  502    0  0.71408479962E+01  0.72315031627E+02  0.20415004776E+03  0.21674821224E+03  0.47000000000E+01 0. -1.
         -5    1    3    3    0  502  0.24064353117E+02 -0.86823205798E+01 -0.72568366188E+01  0.27004211881E+02  0.47000000000E+01 0. -1.
        -11    1    1    2    0    0  0.19256966792E+02 -0.21723371681E+02 -0.10261659684E+02  0.30790214463E+02  0.00000000000E+00 0.  1.
         11    1    1    2    0    0 -0.50462167906E+02 -0.41909339366E+02  0.85919250356E+02  0.10809690420E+03  0.00000000000E+00 0. -1.
<mgrwt>
<rscale>  0 0.13634411E+03</rscale>
<asrwt>0</asrwt>
<pdfrwt beam="1">  1        2 0.50399256E-01 0.14369519E+03</pdfrwt>
<pdfrwt beam="2">  1       -2 0.84683649E-02 0.14369519E+03</pdfrwt>
<totfact> 0.81947464E+03</totfact>
</mgrwt>
</event>
<event>
 7    1  0.6008063E-006  0.1259762E+03  0.7546771E-02  0.1243670E+00
         -2   -1    0    0    0  501 -0.00000000000E+00  0.00000000000E+00  0.64634909170E+02  0.64634909170E+02  0.00000000000E+00 0.  1.
          2   -1    0    0  501    0  0.00000000000E+00 -0.00000000000E+00 -0.33105947538E+03  0.33105947538E+03  0.00000000000E+00 0. -1.
         23    2    1    2    0    0 -0.99712084301E+01  0.53255649062E+02 -0.26470525131E+03  0.29315331029E+03  0.11372952172E+03 0.  0.
          5    1    3    3  502    0  0.14791566956E+02 -0.90485896803E+00 -0.21466140984E+03  0.21522365135E+03  0.47000000000E+01 0. -1.
         -5    1    3    3    0  502 -0.24762775387E+02  0.54160508030E+02 -0.50043841467E+02  0.77929658948E+02  0.47000000000E+01 0.  1.
        -11    1    1    2    0    0 -0.14571664585E+02 -0.59900885520E+02 -0.26439628037E+02  0.67078337976E+02  0.00000000000E+00 0.  1.
         11    1    1    2    0    0  0.24542873015E+02  0.66452364577E+01  0.24720313134E+02  0.35462736285E+02  0.00000000000E+00 0. -1.
<mgrwt>
<rscale>  0 0.11965352E+03</rscale>
<asrwt>0</asrwt>
<pdfrwt beam="2">  1        2 0.50932226E-01 0.12597616E+03</pdfrwt>
<pdfrwt beam="1">  1       -2 0.99438323E-02 0.12597616E+03</pdfrwt>
<totfact> 0.62535613E+03</totfact>
</mgrwt>
</event>
<event>
 7    1  0.6008063E-006  0.1266597E+03  0.7546771E-02  0.1247588E+00
          1   -1    0    0  501    0  0.00000000000E+00  0.00000000000E+00  0.15704988710E+04  0.15704988710E+04  0.00000000000E+00 0. -1.
         -1   -1    0    0    0  501 -0.00000000000E+00 -0.00000000000E+00 -0.15049898391E+02  0.15049898391E+02  0.00000000000E+00 0.  1.
         23    2    1    2    0    0 -0.19316782815E+02  0.66391926829E+01  0.13890507178E+04  0.13948134575E+04  0.12500187147E+03 0.  0.
          5    1    3    3  502    0  0.22710156317E+02  0.55519286984E+01  0.53280969072E+02  0.58374024853E+02  0.47000000000E+01 0. -1.
         -5    1    3    3    0  502 -0.42026939132E+02  0.10872639845E+01  0.13357697487E+04  0.13364394327E+04  0.47000000000E+01 0. -1.
        -11    1    1    2    0    0  0.23393411418E+02  0.34813113444E+02  0.41212285216E+02  0.58801845364E+02  0.00000000000E+00 0.  1.
         11    1    1    2    0    0 -0.40766286038E+01 -0.41452306127E+02  0.12518596963E+03  0.13193346647E+03  0.00000000000E+00 0. -1.
<mgrwt>
<rscale>  0 0.11731843E+03</rscale>
<asrwt>0</asrwt>
<pdfrwt beam="1">  1        1 0.24161508E+00 0.12665972E+03</pdfrwt>
<pdfrwt beam="2">  1       -1 0.23153702E-02 0.12665972E+03</pdfrwt>
<totfact> 0.35134889E+03</totfact>
</mgrwt>
</event>
<event>
 7    1  0.6008063E-006  0.1253590E+03  0.7546771E-02  0.1250315E+00
          2   -1    0    0  501    0  0.00000000000E+00  0.00000000000E+00  0.30924629522E+03  0.30924629522E+03  0.00000000000E+00 0.  1.
         -2   -1    0    0    0  501 -0.00000000000E+00 -0.00000000000E+00 -0.41318946939E+02  0.41318946939E+02  0.00000000000E+00 0. -1.
         23    2    1    2    0    0  0.81017617266E+01  0.47656707741E+01  0.20353773858E+03  0.23904496218E+03  0.12500613088E+03 0.  0.
          5    1    3    3  502    0  0.61591954619E+02  0.18723361746E+02  0.74417973031E+02  0.98510191650E+02  0.47000000000E+01 0. -1.
         -5    1    3    3    0  502 -0.53490192893E+02 -0.13957690971E+02  0.12911976555E+03  0.14053477053E+03  0.47000000000E+01 0. -1.
        -11    1    1    2    0    0  0.25456159525E+02 -0.30429191352E+02  0.55708216912E+02  0.68391206859E+02  0.00000000000E+00 0.  1.
         11    1    1    2    0    0 -0.33557921252E+02  0.25663520578E+02  0.86813927862E+01  0.43129073116E+02  0.00000000000E+00 0. -1.
<mgrwt>
<rscale>  0 0.11572866E+03</rscale>
<asrwt>0</asrwt>
<pdfrwt beam="1">  1        2 0.47576352E-01 0.12535902E+03</pdfrwt>
<pdfrwt beam="2">  1       -2 0.63567613E-02 0.12535902E+03</pdfrwt>
<totfact> 0.13390368E+04</totfact>
</mgrwt>
</event>
<event>
 7    1  0.6008063E-006  0.1946014E+03  0.7546771E-02  0.1159408E+00
          4   -1    0    0  501    0  0.00000000000E+00  0.00000000000E+00  0.63978887859E+02  0.63978887859E+02  0.00000000000E+00 0. -1.
         -4   -1    0    0    0  501 -0.00000000000E+00 -0.00000000000E+00 -0.52983815708E+03  0.52983815708E+03  0.00000000000E+00 0.  1.
         23    2    1    2    0    0 -0.57014725129E+02  0.13782009054E+03 -0.26422568525E+03  0.32815381660E+03  0.12499863343E+03 0.  0.
          5    1    3    3  502    0 -0.55537486011E+02  0.12655659858E+02 -0.35237493892E+02  0.67144240667E+02  0.47000000000E+01 0. -1.
         -5    1    3    3    0  502 -0.14772391176E+01  0.12516443068E+03 -0.22898819136E+03  0.26100957593E+03  0.47000000000E+01 0. -1.
        -11    1    1    2    0    0 -0.19913056154E+01 -0.80211635231E+02 -0.14469094503E+03  0.16544890842E+03  0.00000000000E+00 0.  1.
         11    1    1    2    0    0  0.59006030744E+02 -0.57608455311E+02 -0.56942638931E+02  0.10021431991E+03  0.00000000000E+00 0. -1.
<mgrwt>
<rscale>  0 0.18895407E+03</rscale>
<asrwt>0</asrwt>
<pdfrwt beam="1">  1        4 0.98429053E-02 0.19460142E+03</pdfrwt>
<pdfrwt beam="2">  1       -4 0.81513567E-01 0.19460142E+03</pdfrwt>
<totfact> 0.18819127E+02</totfact>
</mgrwt>
</event>
<event>
 7    1  0.6008063E-006  0.1987939E+03  0.7546771E-02  0.1155320E+00
          1   -1    0    0  501    0  0.00000000000E+00  0.00000000000E+00  0.10466409311E+03  0.10466409311E+03  0.00000000000E+00 0. -1.
         -1   -1    0    0    0  501 -0.00000000000E+00 -0.00000000000E+00 -0.35066392773E+03  0.35066392773E+03  0.00000000000E+00 0.  1.
         23    2    1    2    0    0  0.15209559709E+03  0.27571172521E+02 -0.89929483065E+02  0.21818874245E+03  0.12500310076E+03 0.  0.
          5    1    3    3  502    0  0.61195951929E+02 -0.34279962643E+02 -0.81775790398E+02  0.10783983618E+03  0.47000000000E+01 0. -1.
         -5    1    3    3    0  502  0.90899645165E+02  0.61851135163E+02 -0.81536926676E+01  0.11034890628E+03  0.47000000000E+01 0. -1.
        -11    1    1    2    0    0 -0.13421989390E+03  0.85473976817E+01 -0.97803747185E+02  0.16629374879E+03  0.00000000000E+00 0. -1.
         11    1    1    2    0    0 -0.17875703198E+02 -0.36118570202E+02 -0.58266604366E+02  0.70845529588E+02  0.00000000000E+00 0.  1.
<mgrwt>
<rscale>  0 0.19352502E+03</rscale>
<asrwt>0</asrwt>
<pdfrwt beam="1">  1        1 0.16102168E-01 0.19879390E+03</pdfrwt>
<pdfrwt beam="2">  1       -1 0.53948296E-01 0.19879390E+03</pdfrwt>
<totfact> 0.12005064E+03</totfact>
</mgrwt>
</event>
<event>
 7    1  0.6008063E-006  0.2171455E+03  0.7546771E-02  0.1139439E+00
          2   -1    0    0  501    0  0.00000000000E+00  0.00000000000E+00  0.21263705549E+04  0.21263705549E+04  0.00000000000E+00 0. -1.
         -2   -1    0    0    0  501 -0.00000000000E+00 -0.00000000000E+00 -0.35088018736E+02  0.35088018736E+02  0.00000000000E+00 0.  1.
         23    2    1    2    0    0 -0.17428271402E+03 -0.33943565765E+02  0.17684334170E+04  0.17817151647E+04  0.12500219119E+03 0.  0.
          5    1    3    3  502    0 -0.16665773365E+03 -0.68686597132E+02  0.14077166365E+04  0.14192184002E+04  0.47000000000E+01 0. -1.
         -5    1    3    3    0  502 -0.76249803704E+01  0.34743031367E+02  0.36071678045E+03  0.36249676448E+03  0.47000000000E+01 0. -1.
        -11    1    1    2    0    0  0.10826579549E+03 -0.25351400376E+02  0.18061654129E+03  0.21210023801E+03  0.00000000000E+00 0.  1.
         11    1    1    2    0    0  0.66016918531E+02  0.59294966142E+02  0.14223257788E+03  0.16764317091E+03  0.00000000000E+00 0. -1.
<mgrwt>
<rscale>  0 0.21270842E+03</rscale>
<asrwt>0</asrwt>
<pdfrwt beam="1">  1        2 0.32713383E+00 0.21714552E+03</pdfrwt>
<pdfrwt beam="2">  1       -2 0.53981584E-02 0.21714552E+03</pdfrwt>
<totfact> 0.11173230E+03</totfact>
</mgrwt>
</event>
<event>
 7    1  0.6008063E-006  0.1471249E+03  0.7546771E-02  0.1211442E+00
         -1   -1    0    0    0  501 -0.00000000000E+00  0.00000000000E+00  0.16057985816E+02  0.16057985816E+02  0.00000000000E+00 0.  1.
          1   -1    0    0  501    0  0.00000000000E+00 -0.00000000000E+00 -0.11676323291E+04  0.11676323291E+04  0.00000000000E+00 0. -1.
         23    2    1    2    0    0 -0.77335787896E+02  0.62862338279E+01 -0.67532594333E+03  0.69116629815E+03  0.12500152458E+03 0.  0.
          5    1    3    3  502    0 -0.10350561267E+03 -0.96796484133E+01 -0.37270284507E+03  0.38695814783E+03  0.47000000000E+01 0. -1.
         -5    1    3    3    0  502  0.26169824779E+02  0.15965882241E+02 -0.30262309825E+03  0.30420815032E+03  0.47000000000E+01 0. -1.
        -11    1    1    2    0    0  0.98892139929E+02  0.74054984457E+01 -0.35346413804E+03  0.36711223573E+03  0.00000000000E+00 0. -1.
         11    1    1    2    0    0 -0.21556352032E+02 -0.13691732274E+02 -0.12278426189E+03  0.12541178100E+03  0.00000000000E+00 0.  1.
<mgrwt>
<rscale>  0 0.14141140E+03</rscale>
<asrwt>0</asrwt>
<pdfrwt beam="2">  1        1 0.17963578E+00 0.14712485E+03</pdfrwt>
<pdfrwt beam="1">  1       -1 0.24704589E-02 0.14712485E+03</pdfrwt>
<totfact> 0.59395241E+03</totfact>
</mgrwt>
</event>
<event>
 7    1  0.6008063E-006  0.1274396E+03  0.7546771E-02  0.1250953E+00
         -2   -1    0    0    0  501 -0.00000000000E+00  0.00000000000E+00  0.32168925544E+02  0.32168925544E+02  0.00000000000E+00 0. -1.
          2   -1    0    0  501    0  0.00000000000E+00 -0.00000000000E+00 -0.35418314110E+03  0.35418314110E+03  0.00000000000E+00 0.  1.
         23    2    1    2    0    0 -0.87266635272E+01 -0.23180375610E+02 -0.20514039079E+03  0.24150247096E+03  0.12500951593E+03 0.  0.
          5    1    3    3  502    0 -0.51241381758E+02 -0.28986628573E+02 -0.41290055674E+02  0.72061519122E+02  0.47000000000E+01 0. -1.
         -5    1    3    3    0  502  0.42514718231E+02  0.58062529631E+01 -0.16385033512E+03  0.16944095183E+03  0.47000000000E+01 0. -1.
        -11    1    1    2    0    0 -0.11903280741E+02  0.43410259681E+02 -0.32097219584E+02  0.55284448473E+02  0.00000000000E+00 0. -1.
         11    1    1    2    0    0  0.20629944268E+02 -0.20229884071E+02 -0.84776605177E+02  0.89565147213E+02  0.00000000000E+00 0.  1.
<mgrwt>
<rscale>  0 0.11536033E+03</rscale>
<asrwt>0</asrwt>
<pdfrwt beam="2">  1        2 0.54489712E-01 0.12743965E+03</pdfrwt>
<pdfrwt beam="1">  1       -2 0.49490656E-02 0.12743965E+03</pdfrwt>
<totfact> 0.16943002E+04</totfact>
</mgrwt>
</event>
<event>
 7    1  0.6008063E-006  0.2530657E+03  0.7546771E-02  0.1113575E+00
         -3   -1    0    0    0  501 -0.00000000000E+00  0.00000000000E+00  0.14183413761E+03  0.14183413761E+03  0.00000000000E+00 0.  1.
          3   -1    0    0  501    0  0.00000000000E+00 -0.00000000000E+00 -0.72168335422E+03  0.72168335422E+03  0.00000000000E+00 0. -1.
         23    2    1    2    0    0 -0.21434135246E+03  0.49738417547E+02 -0.57032042032E+03  0.62394520395E+03  0.12500444047E+03 0.  0.
          5    1    3    3  502    0 -0.92502414445E+02  0.63297527717E+02 -0.39025418379E+03  0.40605872932E+03  0.47000000000E+01 0.  1.
         -5    1    3    3    0  502 -0.12183893802E+03 -0.13559110170E+02 -0.18006623653E+03  0.21788647462E+03  0.47000000000E+01 0.  1.
        -11    1    1    2    0    0  0.19305777896E+03 -0.55440725413E+02  0.20963925523E+02  0.20195164328E+03  0.00000000000E+00 0.  1.
         11    1    1    2    0    0  0.21283573501E+02  0.57023078659E+01 -0.30492721812E+02  0.37620644591E+02  0.00000000000E+00 0. -1.
<mgrwt>
<rscale>  0 0.24957330E+03</rscale>
<asrwt>0</asrwt>
<pdfrwt beam="2">  1        3 0.11102821E+00 0.25306567E+03</pdfrwt>
<pdfrwt beam="1">  1       -3 0.21820636E-01 0.25306567E+03</pdfrwt>
<totfact> 0.33885558E+01</totfact>
</mgrwt>
</event>
<event>
 7    1  0.6008063E-006  0.1873469E+03  0.7546771E-02  0.1166764E+00
          3   -1    0    0  501    0  0.00000000000E+00  0.00000000000E+00  0.10640379652E+03  0.10640379652E+03  0.00000000000E+00 0. -1.
         -3   -1    0    0    0  501 -0.00000000000E+00 -0.00000000000E+00 -0.33053555505E+03  0.33053555505E+03  0.00000000000E+00 0.  1.
         23    2    1    2    0    0  0.13721229826E+03 -0.25416569786E+02 -0.41643559417E+02  0.19191934190E+03  0.12500252374E+03 0.  0.
          5    1    3    3  502    0  0.18916434373E+02  0.45361081708E+02 -0.91812711876E+01  0.50217974508E+02  0.47000000000E+01 0. -1.
         -5    1    3    3    0  502  0.11829586389E+03 -0.70777651494E+02 -0.32462288230E+02  0.14170136740E+03  0.47000000000E+01 0. -1.
        -11    1    1    2    0    0 -0.12873247605E+03 -0.73526696223E+01 -0.13479789466E+03  0.18653842646E+03  0.00000000000E+00 0. -1.
         11    1    1    2    0    0 -0.84798222193E+01  0.32769239408E+02 -0.47690304442E+02  0.58481583204E+02  0.00000000000E+00 0.  1.
<mgrwt>
<rscale>  0 0.18107792E+03</rscale>
<asrwt>0</asrwt>
<pdfrwt beam="1">  1        3 0.16369815E-01 0.18734686E+03</pdfrwt>
<pdfrwt beam="2">  1       -3 0.50851623E-01 0.18734686E+03</pdfrwt>
<totfact> 0.29864897E+02</totfact>
</mgrwt>
</event>
<event>
 7    1  0.6008063E-006  0.1273263E+03  0.7546771E-02  0.1245798E+00
         -2   -1    0    0    0  501 -0.00000000000E+00  0.00000000000E+00  0.98095285040E+02  0.98095285040E+02  0.00000000000E+00 0. -1.
          2   -1    0    0  501    0  0.00000000000E+00 -0.00000000000E+00 -0.25056051003E+03  0.25056051003E+03  0.00000000000E+00 0.  1.
         23    2    1    2    0    0 -0.82032414505E+01 -0.22810050145E+02 -0.20399157297E+03  0.24046732943E+03  0.12499753246E+03 0.  0.
          5    1    3    3  502    0  0.61336473770E+01  0.33344511745E+02 -0.68202824013E+01  0.34901065108E+02  0.47000000000E+01 0.  1.
         -5    1    3    3    0  502 -0.14336888827E+02 -0.56154561890E+02 -0.19717129056E+03  0.20556626432E+03  0.47000000000E+01 0.  1.
        -11    1    1    2    0    0  0.35467396930E+02  0.26949899625E+01 -0.10864176552E+02  0.37191794095E+02  0.00000000000E+00 0.  1.
         11    1    1    2    0    0 -0.27264155479E+02  0.20115060182E+02  0.62390524528E+02  0.70996671549E+02  0.00000000000E+00 0. -1.
<mgrwt>
<rscale>  0 0.11837724E+03</rscale>
<asrwt>0</asrwt>
<pdfrwt beam="2">  1        2 0.38547771E-01 0.12732625E+03</pdfrwt>
<pdfrwt beam="1">  1       -2 0.15091582E-01 0.12732625E+03</pdfrwt>
<totfact> 0.43140217E+03</totfact>
</mgrwt>
</event>
<event>
 7    1  0.6008063E-006  0.1354746E+03  0.7546771E-02  0.1231759E+00
         -3   -1    0    0    0  501 -0.00000000000E+00  0.00000000000E+00  0.36601948841E+02  0.36601948841E+02  0.00000000000E+00 0.  1.
          3   -1    0    0  501    0  0.00000000000E+00 -0.00000000000E+00 -0.39906562745E+03  0.39906562745E+03  0.00000000000E+00 0. -1.
         23    2    1    2    0    0 -0.42117723303E+02  0.30890949457E+02 -0.22491616056E+03  0.26256552416E+03  0.12500088729E+03 0.  0.
          5    1    3    3  502    0 -0.67099815794E+02 -0.20500394386E+02 -0.78855470713E+02  0.10565475243E+03  0.47000000000E+01 0. -1.
         -5    1    3    3    0  502  0.24982092490E+02  0.51391343843E+02 -0.14606068985E+03  0.15691077173E+03  0.47000000000E+01 0. -1.
        -11    1    1    2    0    0  0.29930116736E+02  0.81566363325E+01 -0.15218205111E+01  0.31058952683E+02  0.00000000000E+00 0.  1.
         11    1    1    2    0    0  0.12187606568E+02 -0.39047585789E+02 -0.13602569754E+03  0.14204309945E+03  0.00000000000E+00 0. -1.
<mgrwt>
<rscale>  0 0.12714205E+03</rscale>
<asrwt>0</asrwt>
<pdfrwt beam="2">  1        3 0.61394711E-01 0.13547463E+03</pdfrwt>
<pdfrwt beam="1">  1       -3 0.56310691E-02 0.13547463E+03</pdfrwt>
<totfact> 0.11404298E+03</totfact>
</mgrwt>
</event>
<event>
 7    1  0.6008063E-006  0.1370585E+03  0.7546771E-02  0.1228311E+00
          2   -1    0    0  501    0  0.00000000000E+00  0.00000000000E+00  0.18612463850E+03  0.18612463850E+03  0.00000000000E+00 0.  1.
         -2   -1    0    0    0  501 -0.00000000000E+00 -0.00000000000E+00 -0.83079918044E+02  0.83079918044E+02  0.00000000000E+00 0. -1.
         23    2    1    2    0    0 -0.87836719887E+01  0.55514216149E+02  0.76790291212E+02  0.15710433481E+03  0.12500416835E+03 0.  0.
          5    1    3    3  502    0 -0.43728063522E+02 -0.65803627597E+01 -0.91174735264E+01  0.45394526508E+02  0.47000000000E+01 0.  1.
         -5    1    3    3    0  502  0.34944391533E+02  0.62094578908E+02  0.85907764738E+02  0.11170980831E+03  0.47000000000E+01 0.  1.
        -11    1    1    2    0    0 -0.16083061797E+02 -0.62021541897E+02  0.46675730213E+02  0.79271434495E+02  0.00000000000E+00 0.  1.
         11    1    1    2    0    0  0.24866733786E+02  0.65073257479E+01 -0.20421300973E+02  0.32828787230E+02  0.00000000000E+00 0. -1.
<mgrwt>
<rscale>  0 0.12942510E+03</rscale>
<asrwt>0</asrwt>
<pdfrwt beam="1">  1        2 0.28634560E-01 0.13705847E+03</pdfrwt>
<pdfrwt beam="2">  1       -2 0.12781526E-01 0.13705847E+03</pdfrwt>
<totfact> 0.78077131E+03</totfact>
</mgrwt>
</event>
<event>
 7    1  0.6008063E-006  0.1354034E+03  0.7546771E-02  0.1232037E+00
          2   -1    0    0  501    0  0.00000000000E+00  0.00000000000E+00  0.50606648823E+03  0.50606648823E+03  0.00000000000E+00 0. -1.
         -2   -1    0    0    0  501 -0.00000000000E+00 -0.00000000000E+00 -0.28492616467E+02  0.28492616467E+02  0.00000000000E+00 0.  1.
         23    2    1    2    0    0 -0.18429230365E+02  0.48718192675E+02  0.27685671723E+03  0.30819428946E+03  0.12498391637E+03 0.  0.
          5    1    3    3  502    0 -0.55771661021E+02  0.71817834502E+02  0.17861289910E+03  0.20048176288E+03  0.47000000000E+01 0.  1.
         -5    1    3    3    0  502  0.37342430655E+02 -0.23099641828E+02  0.98243818133E+02  0.10771252658E+03  0.47000000000E+01 0.  1.
        -11    1    1    2    0    0  0.35208878560E+02 -0.62244698145E+02  0.97459781623E+02  0.12088207729E+03  0.00000000000E+00 0.  1.
         11    1    1    2    0    0 -0.16779648194E+02  0.13526505471E+02  0.10325737291E+03  0.10548273795E+03  0.00000000000E+00 0. -1.
<mgrwt>
<rscale>  0 0.12696003E+03</rscale>
<asrwt>0</asrwt>
<pdfrwt beam="1">  1        2 0.77856376E-01 0.13540339E+03</pdfrwt>
<pdfrwt beam="2">  1       -2 0.43834798E-02 0.13540339E+03</pdfrwt>
<totfact> 0.13909271E+04</totfact>
</mgrwt>
</event>
<event>
 7    1  0.6008063E-006  0.1258835E+03  0.7546771E-02  0.1247957E+00
         -2   -1    0    0    0  501 -0.00000000000E+00  0.00000000000E+00  0.27877389576E+02  0.27877389576E+02  0.00000000000E+00 0. -1.
          2   -1    0    0  501    0  0.00000000000E+00 -0.00000000000E+00 -0.52919936469E+03  0.52919936469E+03  0.00000000000E+00 0.  1.
         23    2    1    2    0    0 -0.13544608277E+02 -0.60719125608E+01 -0.39698179779E+03  0.41646273339E+03  0.12500534385E+03 0.  0.
          5    1    3    3  502    0 -0.12557071516E+02  0.57656141231E+02 -0.14773125738E+03  0.15914937974E+03  0.47000000000E+01 0.  1.
         -5    1    3    3    0  502 -0.98753676096E+00 -0.63728053792E+02 -0.24925054041E+03  0.25731335364E+03  0.47000000000E+01 0.  1.
        -11    1    1    2    0    0  0.11556072629E+01  0.35302352577E+02 -0.10294488037E+03  0.10883583932E+03  0.00000000000E+00 0.  1.
         11    1    1    2    0    0  0.12389001014E+02 -0.29230440016E+02 -0.13952969567E+01  0.31778181560E+02  0.00000000000E+00 0. -1.
<mgrwt>
<rscale>  0 0.11710123E+03</rscale>
<asrwt>0</asrwt>
<pdfrwt beam="2">  1        2 0.81415291E-01 0.12588352E+03</pdfrwt>
<pdfrwt beam="1">  1       -2 0.42888290E-02 0.12588352E+03</pdfrwt>
<totfact> 0.13600512E+04</totfact>
</mgrwt>
</event>
<event>
 7    1  0.6008063E-006  0.3208324E+03  0.7546771E-02  0.1076626E+00
         -1   -1    0    0    0  501 -0.00000000000E+00  0.00000000000E+00  0.16152927918E+03  0.16152927918E+03  0.00000000000E+00 0.  1.
          1   -1    0    0  501    0  0.00000000000E+00 -0.00000000000E+00 -0.64314192688E+03  0.64314192688E+03  0.00000000000E+00 0. -1.
         23    2    1    2    0    0  0.25260817401E+03 -0.15331443004E+03 -0.33014070146E+03  0.46035455015E+03  0.12496889631E+03 0.  0.
          5    1    3    3  502    0  0.35348144698E+02 -0.20001225179E+02  0.28386343914E+01  0.40983999164E+02  0.47000000000E+01 0. -1.
         -5    1    3    3    0  502  0.21726002931E+03 -0.13331320486E+03 -0.33297933586E+03  0.41937055098E+03  0.47000000000E+01 0. -1.
        -11    1    1    2    0    0 -0.52315740949E+02  0.19434802399E+02  0.65604819321E+01  0.56193311155E+02  0.00000000000E+00 0.  1.
         11    1    1    2    0    0 -0.20029243306E+03  0.13387962764E+03 -0.15803242817E+03  0.28812334475E+03  0.00000000000E+00 0. -1.
<mgrwt>
<rscale>  0 0.31788622E+03</rscale>
<asrwt>0</asrwt>
<pdfrwt beam="2">  1        1 0.98944911E-01 0.32083240E+03</pdfrwt>
<pdfrwt beam="1">  1       -1 0.24850659E-01 0.32083240E+03</pdfrwt>
<totfact> 0.44956966E+02</totfact>
</mgrwt>
</event>
<event>
 7    1  0.6008063E-006  0.1253179E+03  0.7546771E-02  0.1249951E+00
          2   -1    0    0  501    0  0.00000000000E+00  0.00000000000E+00  0.61652714803E+03  0.61652714803E+03  0.00000000000E+00 0. -1.
         -2   -1    0    0    0  501 -0.00000000000E+00 -0.00000000000E+00 -0.19603028613E+02  0.19603028613E+02  0.00000000000E+00 0.  1.
         23    2    1    2    0    0 -0.48411056628E+01  0.75409917360E+01  0.39290263998E+03  0.41240398661E+03  0.12499704321E+03 0.  0.
          5    1    3    3  502    0 -0.24184186409E+02 -0.15912352739E+02  0.14435466504E+02  0.32688691243E+02  0.47000000000E+01 0.  1.
         -5    1    3    3    0  502  0.19343080746E+02  0.23453344475E+02  0.37846717348E+03  0.37971529537E+03  0.47000000000E+01 0.  1.
        -11    1    1    2    0    0  0.45342995468E+02 -0.19585539688E+02  0.10333229164E+03  0.11453009691E+03  0.00000000000E+00 0.  1.
         11    1    1    2    0    0 -0.40501889805E+02  0.12044547952E+02  0.10068918779E+03  0.10919609312E+03  0.00000000000E+00 0. -1.
<mgrwt>
<rscale>  0 0.11593896E+03</rscale>
<asrwt>0</asrwt>
<pdfrwt beam="1">  1        2 0.94850316E-01 0.12531785E+03</pdfrwt>
<pdfrwt beam="2">  1       -2 0.30158510E-02 0.12531785E+03</pdfrwt>
<totfact> 0.19266655E+04</totfact>
</mgrwt>
</event>
<event>
 7    1  0.6008063E-006  0.1352184E+03  0.7546771E-02  0.1232383E+00
         -1   -1    0    0    0  501 -0.00000000000E+00  0.00000000000E+00  0.16673788884E+03  0.16673788884E+03  0.00000000000E+00 0.  1.
          1   -1    0    0  501    0  0.00000000000E+00 -0.00000000000E+00 -0.86494990048E+02  0.86494990048E+02  0.00000000000E+00 0. -1.
         23    2    1    2    0    0  0.42292973944E+02 -0.28198238252E+02  0.36250610728E+02  0.13999329052E+03  0.12530035246E+03 0.  0.
          5    1    3    3  502    0 -0.15067139916E+02 -0.55016482940E+02  0.48865846210E+02  0.75258175809E+02  0.47000000000E+01 0. -1.
         -5    1    3    3    0  502  0.57360113860E+02  0.26818244689E+02 -0.12615235482E+02  0.64735114709E+02  0.47000000000E+01 0. -1.
        -11    1    1    2    0    0  0.18770606424E+02 -0.12179891760E+02 -0.76540196281E+01  0.23648878309E+02  0.00000000000E+00 0. -1.
         11    1    1    2    0    0 -0.61063580368E+02  0.40378130011E+02  0.51646307692E+02  0.89590710059E+02  0.00000000000E+00 0.  1.
<mgrwt>
<rscale>  0 0.12673447E+03</rscale>
<asrwt>0</asrwt>
<pdfrwt beam="2">  1        1 0.13306922E-01 0.13521840E+03</pdfrwt>
<pdfrwt beam="1">  1       -1 0.25651983E-01 0.13521840E+03</pdfrwt>
<totfact> 0.55446083E+03</totfact>
</mgrwt>
</event>
<event>
 7    1  0.6008063E-006  0.1323191E+03  0.7546771E-02  0.1231235E+00
         -2   -1    0    0    0  501 -0.00000000000E+00  0.00000000000E+00  0.26063468989E+02  0.26063468989E+02  0.00000000000E+00 0.  1.
          2   -1    0    0  501    0  0.00000000000E+00 -0.00000000000E+00 -0.58207232831E+03  0.58207232831E+03  0.00000000000E+00 0. -1.
         23    2    1    2    0    0 -0.63332581023E+02  0.25327270219E+02 -0.29735280093E+03  0.32546432829E+03  0.11338365990E+03 0.  0.
          5    1    3    3  502    0 -0.80816578691E+02  0.45279470846E+02 -0.27574540352E+03  0.29092811386E+03  0.47000000000E+01 0. -1.
         -5    1    3    3    0  502  0.17483997668E+02 -0.19952200626E+02 -0.21607397406E+02  0.34536214427E+02  0.47000000000E+01 0.  1.
        -11    1    1    2    0    0 -0.17424421436E+02 -0.18953689111E+02 -0.11406070025E+03  0.11693030460E+03  0.00000000000E+00 0. -1.
         11    1    1    2    0    0  0.80757002460E+02 -0.63735811081E+01 -0.14459535814E+03  0.16574116441E+03  0.00000000000E+00 0.  1.
<mgrwt>
<rscale>  0 0.12748545E+03</rscale>
<asrwt>0</asrwt>
<pdfrwt beam="2">  1        2 0.89549586E-01 0.13231909E+03</pdfrwt>
<pdfrwt beam="1">  1       -2 0.40097646E-02 0.13231909E+03</pdfrwt>
<totfact> 0.13567272E+04</totfact>
</mgrwt>
</event>
<event>
 7    1  0.6008063E-006  0.1928602E+03  0.7546771E-02  0.1160650E+00
         -2   -1    0    0    0  501 -0.00000000000E+00  0.00000000000E+00  0.16126587020E+03  0.16126587020E+03  0.00000000000E+00 0.  1.
          2   -1    0    0  501    0  0.00000000000E+00 -0.00000000000E+00 -0.20999412699E+03  0.20999412699E+03  0.00000000000E+00 0. -1.
         23    2    1    2    0    0  0.57056364880E+02 -0.13544357969E+03 -0.47465126841E+02  0.19861516130E+03  0.12487854892E+03 0.  0.
          5    1    3    3  502    0  0.82232805783E+02 -0.13728822533E+03 -0.20547534352E+02  0.16141431885E+03  0.47000000000E+01 0. -1.
         -5    1    3    3    0  502 -0.25176440902E+02  0.18446456400E+01 -0.26917592489E+02  0.37200842456E+02  0.47000000000E+01 0. -1.
        -11    1    1    2    0    0 -0.12758865571E+02  0.79944436221E+02 -0.41556757464E+02  0.90999261669E+02  0.00000000000E+00 0. -1.
         11    1    1    2    0    0 -0.44297499309E+02  0.55499143469E+02  0.40293627513E+02  0.81645574216E+02  0.00000000000E+00 0.  1.
<mgrwt>
<rscale>  0 0.18759333E+03</rscale>
<asrwt>0</asrwt>
<pdfrwt beam="2">  1        2 0.32306789E-01 0.19286017E+03</pdfrwt>
<pdfrwt beam="1">  1       -2 0.24810134E-01 0.19286017E+03</pdfrwt>
<totfact> 0.22937303E+03</totfact>
</mgrwt>
</event>
<event>
 7    1  0.6008063E-006  0.1295466E+03  0.7546771E-02  0.1242442E+00
         -2   -1    0    0    0  501 -0.00000000000E+00  0.00000000000E+00  0.23357858725E+02  0.23357858725E+02  0.00000000000E+00 0.  1.
          2   -1    0    0  501    0  0.00000000000E+00 -0.00000000000E+00 -0.80046482486E+03  0.80046482486E+03  0.00000000000E+00 0. -1.
         23    2    1    2    0    0 -0.15381420019E+02  0.30341484498E+02 -0.65703655184E+03  0.66968601291E+03  0.12500052666E+03 0.  0.
          5    1    3    3  502    0  0.45638676294E+02  0.23997437416E+02 -0.46875542471E+03  0.47160630188E+03  0.47000000000E+01 0. -1.
         -5    1    3    3    0  502 -0.61020096312E+02  0.63440470824E+01 -0.18828112713E+03  0.19807971103E+03  0.47000000000E+01 0. -1.
        -11    1    1    2    0    0 -0.29925668621E+02  0.21080519962E+01 -0.11555895725E+02  0.32148534207E+02  0.00000000000E+00 0.  1.
         11    1    1    2    0    0  0.45307088640E+02 -0.32449536495E+02 -0.10851451857E+03  0.12198813647E+03  0.00000000000E+00 0. -1.
<mgrwt>
<rscale>  0 0.12039818E+03</rscale>
<asrwt>0</asrwt>
<pdfrwt beam="2">  1        2 0.12314845E+00 0.12954661E+03</pdfrwt>
<pdfrwt beam="1">  1       -2 0.35935162E-02 0.12954661E+03</pdfrwt>
<totfact> 0.10944340E+04</totfact>
</mgrwt>
</event>
<event>
 7    1  0.6008063E-006  0.4320468E+03  0.7546771E-02  0.1033215E+00
         -3   -1    0    0    0  501 -0.00000000000E+00  0.00000000000E+00  0.26481041741E+03  0.26481041741E+03  0.00000000000E+00 0.  1.
          3   -1    0    0  501    0  0.00000000000E+00 -0.00000000000E+00 -0.17622457687E+03  0.17622457687E+03  0.00000000000E+00 0. -1.
         23    2    1    2    0    0  0.88954375386E+00  0.18534636051E+02 -0.13662095285E+03  0.18026101978E+03  0.11612246325E+03 0.  0.
          5    1    3    3  502    0  0.36198790415E+02  0.50702781684E+02 -0.10687079846E+03  0.12379249598E+03  0.47000000000E+01 0. -1.
         -5    1    3    3    0  502 -0.35309246661E+02 -0.32168145633E+02 -0.29750154396E+02  0.56468523797E+02  0.47000000000E+01 0.  1.
        -11    1    1    2    0    0  0.50315602293E+02 -0.41335197569E+02  0.17023676499E+03  0.18226577997E+03  0.00000000000E+00 0.  1.
         11    1    1    2    0    0 -0.51205146047E+02  0.22800561518E+02  0.54970028400E+02  0.78508194538E+02  0.00000000000E+00 0. -1.
<mgrwt>
<rscale>  0 0.43204677E+03</rscale>
<asrwt>0</asrwt>
<pdfrwt beam="2">  1        3 0.27111473E-01 0.43204677E+03</pdfrwt>
<pdfrwt beam="1">  1       -3 0.40740064E-01 0.43204677E+03</pdfrwt>
<totfact> 0.20268656E+02</totfact>
</mgrwt>
</event>
<event>
 7    1  0.6008063E-006  0.1266818E+03  0.7546771E-02  0.1249015E+00
          1   -1    0    0  501    0  0.00000000000E+00  0.00000000000E+00  0.95966094911E+03  0.95966094911E+03  0.00000000000E+00 0. -1.
         -1   -1    0    0    0  501 -0.00000000000E+00 -0.00000000000E+00 -0.12464542009E+02  0.12464542009E+02  0.00000000000E+00 0.  1.
         23    2    1    2    0    0  0.85047567166E+01  0.18754930566E+02  0.60741071865E+03  0.62048051096E+03  0.12499682017E+03 0.  0.
          5    1    3    3  502    0 -0.33727992005E+02 -0.37630602095E+02  0.17020391475E+03  0.17760940925E+03  0.47000000000E+01 0.  1.
         -5    1    3    3    0  502  0.42232748722E+02  0.56385532661E+02  0.43720680390E+03  0.44287110171E+03  0.47000000000E+01 0.  1.
        -11    1    1    2    0    0  0.21011134156E+02 -0.41984916150E+02  0.12351619715E+03  0.13213800324E+03  0.00000000000E+00 0.  1.
         11    1    1    2    0    0 -0.29515890873E+02  0.23229985584E+02  0.21626949130E+03  0.21950697691E+03  0.00000000000E+00 0. -1.
<mgrwt>
<rscale>  0 0.11648276E+03</rscale>
<asrwt>0</asrwt>
<pdfrwt beam="1">  1        1 0.14764009E+00 0.12668182E+03</pdfrwt>
<pdfrwt beam="2">  1       -1 0.19176226E-02 0.12668182E+03</pdfrwt>
<totfact> 0.11970452E+04</totfact>
</mgrwt>
</event>
<event>
 6    1  0.6008063E-006  0.1389674E+03  0.7546771E-02  0.1233571E+00
          1   -1    0    0  501    0  0.00000000000E+00  0.00000000000E+00  0.57461688152E+03  0.57461688152E+03  0.00000000000E+00 0. -1.
         -1   -1    0    0    0  501 -0.00000000000E+00 -0.00000000000E+00 -0.35020228732E+02  0.35020228732E+02  0.00000000000E+00 0.  1.
          5    1    1    2  502    0 -0.48029782716E+02  0.21089104866E+00  0.34252349933E+03  0.34590655111E+03  0.47000000000E+01 0. -1.
         -5    1    1    2    0  502  0.67239314060E+02  0.12353590446E+02  0.13455304692E+03  0.15099784431E+03  0.47000000000E+01 0.  1.
        -11    1    1    2    0    0  0.28746893707E+02 -0.24866095359E+02  0.75462871525E+01  0.38751168318E+02  0.00000000000E+00 0.  1.
         11    1    1    2    0    0 -0.47956425050E+02  0.12301613865E+02  0.54973819387E+02  0.73981546518E+02  0.00000000000E+00 0. -1.
<mgrwt>
<rscale>  0 0.12596344E+03</rscale>
<asrwt>0</asrwt>
<pdfrwt beam="1">  1        1 0.88402590E-01 0.13896743E+03</pdfrwt>
<pdfrwt beam="2">  1       -1 0.53877279E-02 0.13896743E+03</pdfrwt>
<totfact> 0.56702726E+03</totfact>
</mgrwt>
</event>
<event>
 7    1  0.6008063E-006  0.1281696E+03  0.7546771E-02  0.1244874E+00
          3   -1    0    0  501    0  0.00000000000E+00  0.00000000000E+00  0.25111184574E+03  0.25111184574E+03  0.00000000000E+00 0. -1.
         -3   -1    0    0    0  501 -0.00000000000E+00 -0.00000000000E+00 -0.63349575025E+02  0.63349575025E+02  0.00000000000E+00 0.  1.
         23    2    1    2    0    0  0.26715871590E+02  0.94296174668E+01  0.17743516673E+03  0.21888510843E+03  0.12499918728E+03 0.  0.
          5    1    3    3  502    0 -0.39040910108E+01  0.19359752988E+02 -0.14029095245E+02  0.24676861141E+02  0.47000000000E+01 0. -1.
         -5    1    3    3    0  502  0.30619962600E+02 -0.99301355210E+01  0.19146426198E+03  0.19420824729E+03  0.47000000000E+01 0. -1.
        -11    1    1    2    0    0 -0.10877665622E+02  0.37413048132E+02  0.22034671556E+02  0.44761440219E+02  0.00000000000E+00 0.  1.
         11    1    1    2    0    0 -0.15838205968E+02 -0.46842665599E+02 -0.11707567580E+02  0.50814872108E+02  0.00000000000E+00 0. -1.
<mgrwt>
<rscale>  0 0.11892930E+03</rscale>
<asrwt>0</asrwt>
<pdfrwt beam="1">  1        3 0.38632591E-01 0.12816962E+03</pdfrwt>
<pdfrwt beam="2">  1       -3 0.97460886E-02 0.12816962E+03</pdfrwt>
<totfact> 0.11674578E+03</totfact>
</mgrwt>
</event>
<event>
 7    1  0.6008063E-006  0.2432418E+03  0.7546771E-02  0.1120564E+00
          1   -1    0    0  501    0  0.00000000000E+00  0.00000000000E+00  0.12154130080E+04  0.12154130080E+04  0.00000000000E+00 0. -1.
         -1   -1    0    0    0  501 -0.00000000000E+00 -0.00000000000E+00 -0.45864377014E+02  0.45864377014E+02  0.00000000000E+00 0.  1.
         23    2    1    2    0    0 -0.12986491193E+03  0.16332354956E+03  0.53688959072E+03  0.58942089098E+03  0.12500830738E+03 0.  0.
          5    1    3    3  502    0 -0.85899986254E+02  0.17515738577E+03  0.39962354708E+03  0.44472461907E+03  0.47000000000E+01 0. -1.
         -5    1    3    3    0  502 -0.43964925679E+02 -0.11833836207E+02  0.13726604364E+03  0.14469627192E+03  0.47000000000E+01 0. -1.
        -11    1    1    2    0    0  0.58168009655E+02 -0.73346224416E+02  0.41753302930E+03  0.42789837174E+03  0.00000000000E+00 0. -1.
         11    1    1    2    0    0  0.71696902278E+02 -0.89977325146E+02  0.21512601099E+03  0.24395812231E+03  0.00000000000E+00 0.  1.
<mgrwt>
<rscale>  0 0.23884546E+03</rscale>
<asrwt>0</asrwt>
<pdfrwt beam="1">  1        1 0.18698659E+00 0.24324176E+03</pdfrwt>
<pdfrwt beam="2">  1       -1 0.70560589E-02 0.24324176E+03</pdfrwt>
<totfact> 0.11678234E+03</totfact>
</mgrwt>
</event>
<event>
 7    1  0.6008063E-006  0.1155607E+03  0.7546771E-02  0.1259128E+00
          2   -1    0    0  501    0  0.00000000000E+00  0.00000000000E+00  0.56057312994E+03  0.56057312994E+03  0.00000000000E+00 0. -1.
         -2   -1    0    0    0  501 -0.00000000000E+00 -0.00000000000E+00 -0.24402801062E+02  0.24402801062E+02  0.00000000000E+00 0.  1.
         23    2    1    2    0    0  0.21501986302E+02  0.25511136202E+02  0.40694136260E+03  0.42303137207E+03  0.11063957554E+03 0.  0.
          5    1    3    3  502    0  0.62629355467E+02  0.29721238673E+02  0.30718546059E+03  0.31494568642E+03  0.47000000000E+01 0. -1.
         -5    1    3    3    0  502 -0.41127369165E+02 -0.42101024711E+01  0.99755902007E+02  0.10808568565E+03  0.47000000000E+01 0.  1.
        -11    1    1    2    0    0  0.23657054680E+02 -0.39298636878E+02  0.39425729615E+02  0.60484934093E+02  0.00000000000E+00 0.  1.
         11    1    1    2    0    0 -0.45159040983E+02  0.13787500675E+02  0.89803236669E+02  0.10145962484E+03  0.00000000000E+00 0. -1.
<mgrwt>
<rscale>  0 0.11078243E+03</rscale>
<asrwt>0</asrwt>
<pdfrwt beam="1">  1        2 0.86242010E-01 0.11556067E+03</pdfrwt>
<pdfrwt beam="2">  1       -2 0.37542775E-02 0.11556067E+03</pdfrwt>
<totfact> 0.15434317E+04</totfact>
</mgrwt>
</event>
<event>
 7    1  0.6008063E-006  0.1769880E+03  0.7546771E-02  0.1176815E+00
         -1   -1    0    0    0  501 -0.00000000000E+00  0.00000000000E+00  0.73172676829E+03  0.73172676829E+03  0.00000000000E+00 0.  1.
          1   -1    0    0  501    0  0.00000000000E+00 -0.00000000000E+00 -0.41974718325E+02  0.41974718325E+02  0.00000000000E+00 0. -1.
         23    2    1    2    0    0  0.25390647406E+02  0.12269773987E+03  0.23967541076E+03  0.29794137747E+03  0.12500136614E+03 0.  0.
          5    1    3    3  502    0  0.13473749827E+02 -0.21830050780E+02  0.69927909000E+02  0.74633072485E+02  0.47000000000E+01 0.  1.
         -5    1    3    3    0  502  0.11916897578E+02  0.14452779065E+03  0.16974750176E+03  0.22330830498E+03  0.47000000000E+01 0.  1.
        -11    1    1    2    0    0 -0.41842524844E+02 -0.32640514959E+02  0.25233351086E+03  0.25785344831E+03  0.00000000000E+00 0. -1.
         11    1    1    2    0    0  0.16451877438E+02 -0.90057224916E+02  0.19774312834E+03  0.21790666084E+03  0.00000000000E+00 0.  1.
<mgrwt>
<rscale>  0 0.17099422E+03</rscale>
<asrwt>0</asrwt>
<pdfrwt beam="2">  1        1 0.64576495E-02 0.17698803E+03</pdfrwt>
<pdfrwt beam="1">  1       -1 0.11257334E+00 0.17698803E+03</pdfrwt>
<totfact> 0.89028317E+02</totfact>
</mgrwt>
</event>
<event>
 7    1  0.6008063E-006  0.1744033E+03  0.7546771E-02  0.1177730E+00
          2   -1    0    0  501    0  0.00000000000E+00  0.00000000000E+00  0.16486098217E+03  0.16486098217E+03  0.00000000000E+00 0. -1.
         -2   -1    0    0    0  501 -0.00000000000E+00 -0.00000000000E+00 -0.35042309175E+03  0.35042309175E+03  0.00000000000E+00 0.  1.
         23    2    1    2    0    0 -0.75797306409E+02  0.95109790449E+02  0.91091090275E+02  0.19675900916E+03  0.12500166824E+03 0.  0.
          5    1    3    3  502    0 -0.45644967009E+02 -0.90347298497E+01 -0.10691506555E+02  0.47973822749E+02  0.47000000000E+01 0. -1.
         -5    1    3    3    0  502 -0.30152339400E+02  0.10414452030E+03  0.10178259683E+03  0.14878518642E+03  0.47000000000E+01 0. -1.
        -11    1    1    2    0    0  0.51919086359E+02 -0.50375686080E+02 -0.25193055798E+03  0.26211124990E+03  0.00000000000E+00 0.  1.
         11    1    1    2    0    0  0.23878220050E+02 -0.44734104369E+02 -0.24722641863E+02  0.56413814860E+02  0.00000000000E+00 0. -1.
<mgrwt>
<rscale>  0 0.17011290E+03</rscale>
<asrwt>0</asrwt>
<pdfrwt beam="1">  1        2 0.25363228E-01 0.17440333E+03</pdfrwt>
<pdfrwt beam="2">  1       -2 0.53911245E-01 0.17440333E+03</pdfrwt>
<totfact> 0.69484349E+02</totfact>
</mgrwt>
</event>
<event>
 7    1  0.6008063E-006  0.1291398E+03  0.7546771E-02  0.1244332E+00
          2   -1    0    0  501    0  0.00000000000E+00  0.00000000000E+00  0.57878968362E+02  0.57878968362E+02  0.00000000000E+00 0. -1.
         -2   -1    0    0    0  501 -0.00000000000E+00 -0.00000000000E+00 -0.21860182322E+03  0.21860182322E+03  0.00000000000E+00 0.  1.
         23    2    1    2    0    0 -0.16497051880E+01  0.32340971098E+02 -0.75064859866E+02  0.14937145779E+03  0.12501375635E+03 0.  0.
          5    1    3    3  502    0 -0.38216955491E+02  0.67611984019E+02 -0.50356285798E+02  0.92680966705E+02  0.47000000000E+01 0. -1.
         -5    1    3    3    0  502  0.36567250303E+02 -0.35271012921E+02 -0.24708574068E+02  0.56690491087E+02  0.47000000000E+01 0. -1.
        -11    1    1    2    0    0  0.42094222616E+02 -0.18526964173E+00 -0.42016130550E+02  0.59475315291E+02  0.00000000000E+00 0. -1.
         11    1    1    2    0    0 -0.40444517428E+02 -0.32155701456E+02 -0.43641864439E+02  0.67634018496E+02  0.00000000000E+00 0.  1.
<mgrwt>
<rscale>  0 0.11925473E+03</rscale>
<asrwt>0</asrwt>
<pdfrwt beam="1">  1        2 0.89044566E-02 0.12913984E+03</pdfrwt>
<pdfrwt beam="2">  1       -2 0.33631050E-01 0.12913984E+03</pdfrwt>
<totfact> 0.57984542E+03</totfact>
</mgrwt>
</event>
<event>
 7    1  0.6008063E-006  0.1401745E+03  0.7546771E-02  0.1224963E+00
          1   -1    0    0  501    0  0.00000000000E+00  0.00000000000E+00  0.56901573608E+03  0.56901573608E+03  0.00000000000E+00 0. -1.
         -1   -1    0    0    0  501 -0.00000000000E+00 -0.00000000000E+00 -0.33153388267E+02  0.33153388267E+02  0.00000000000E+00 0.  1.
         23    2    1    2    0    0  0.89056731845E+01  0.62809421276E+02  0.42078872777E+03  0.44352231920E+03  0.12499823916E+03 0.  0.
          5    1    3    3  502    0  0.39468916023E+02 -0.18576183346E+02  0.22516571955E+03  0.22940043849E+03  0.47000000000E+01 0.  1.
         -5    1    3    3    0  502 -0.30563242839E+02  0.81385604622E+02  0.19562300822E+03  0.21412188071E+03  0.47000000000E+01 0.  1.
        -11    1    1    2    0    0  0.38302939033E+02 -0.24623029092E+02  0.31600582998E+02  0.55425675873E+02  0.00000000000E+00 0.  1.
         11    1    1    2    0    0 -0.47208612217E+02 -0.38186392184E+02  0.83473037049E+02  0.10322112928E+03  0.00000000000E+00 0. -1.
<mgrwt>
<rscale>  0 0.13169449E+03</rscale>
<asrwt>0</asrwt>
<pdfrwt beam="1">  1        1 0.87540875E-01 0.14017451E+03</pdfrwt>
<pdfrwt beam="2">  1       -1 0.51005217E-02 0.14017451E+03</pdfrwt>
<totfact> 0.62345861E+03</totfact>
</mgrwt>
</event>
<event>
 7    1  0.6008063E-006  0.2624844E+03  0.7546771E-02  0.1107794E+00
         -2   -1    0    0    0  501 -0.00000000000E+00  0.00000000000E+00  0.31173210248E+02  0.31173210248E+02  0.00000000000E+00 0.  1.
          2   -1    0    0  501    0  0.00000000000E+00 -0.00000000000E+00 -0.28981648828E+04  0.28981648828E+04  0.00000000000E+00 0. -1.
         23    2    1    2    0    0  0.11074819953E+03 -0.20251234183E+03 -0.22330748459E+04  0.22484486444E+04  0.12498650759E+03 0.  0.
          5    1    3    3  502    0  0.11839194653E+03 -0.12411161594E+03 -0.18069425980E+04  0.18150713453E+04  0.47000000000E+01 0. -1.
         -5    1    3    3    0  502 -0.76437470008E+01 -0.78400725893E+02 -0.42613224792E+03  0.43337729914E+03  0.47000000000E+01 0. -1.
        -11    1    1    2    0    0 -0.77918177537E+02  0.69717924489E+02 -0.35751696699E+03  0.37249189665E+03  0.00000000000E+00 0. -1.
         11    1    1    2    0    0 -0.32830021992E+02  0.13279441734E+03 -0.27639985969E+03  0.30839755196E+03  0.00000000000E+00 0.  1.
<mgrwt>
<rscale>  0 0.25892018E+03</rscale>
<asrwt>0</asrwt>
<pdfrwt beam="2">  1        2 0.44587149E+00 0.26248436E+03</pdfrwt>
<pdfrwt beam="1">  1       -2 0.47958789E-02 0.26248436E+03</pdfrwt>
<totfact> 0.50009916E+02</totfact>
</mgrwt>
</event>
<event>
 7    1  0.6008063E-006  0.1535722E+03  0.7546771E-02  0.1204902E+00
          1   -1    0    0  501    0  0.00000000000E+00  0.00000000000E+00  0.41447557900E+03  0.41447557900E+03  0.00000000000E+00 0. -1.
         -1   -1    0    0    0  501 -0.00000000000E+00 -0.00000000000E+00 -0.59172530255E+02  0.59172530255E+02  0.00000000000E+00 0.  1.
         23    2    1    2    0    0  0.42876464742E+02 -0.78543190727E+02  0.29601665624E+03  0.33348203998E+03  0.12480779693E+03 0.  0.
          5    1    3    3  502    0  0.28749430326E+02 -0.65806128494E+02  0.30394270214E+03  0.31234633418E+03  0.47000000000E+01 0.  1.
         -5    1    3    3    0  502  0.14127034416E+02 -0.12737062233E+02 -0.79260459019E+01  0.21135705793E+02  0.47000000000E+01 0.  1.
        -11    1    1    2    0    0 -0.47167710683E+02  0.31549132069E+02  0.71634838860E+02  0.91387585612E+02  0.00000000000E+00 0. -1.
         11    1    1    2    0    0  0.42912459408E+01  0.46994058658E+02 -0.12348446362E+02  0.48778483663E+02  0.00000000000E+00 0.  1.
<mgrwt>
<rscale>  0 0.14645164E+03</rscale>
<asrwt>0</asrwt>
<pdfrwt beam="1">  1        1 0.63765472E-01 0.15357217E+03</pdfrwt>
<pdfrwt beam="2">  1       -1 0.91034665E-02 0.15357217E+03</pdfrwt>
<totfact> 0.39669334E+03</totfact>
</mgrwt>
</event>
<event>
 7    1  0.6008063E-006  0.1282020E+03  0.7546771E-02  0.1235480E+00
         -2   -1    0    0    0  501 -0.00000000000E+00  0.00000000000E+00  0.74327782986E+02  0.74327782986E+02  0.00000000000E+00 0.  1.
          2   -1    0    0  501    0  0.00000000000E+00 -0.00000000000E+00 -0.25086533289E+03  0.25086533289E+03  0.00000000000E+00 0. -1.
         23    2    1    2    0    0 -0.16478141703E+02  0.23231689840E+02 -0.16610309053E+03  0.20982370830E+03  0.12499804524E+03 0.  0.
          5    1    3    3  502    0 -0.91127483206E+01  0.74954075522E+02 -0.94102777948E+02  0.12074178414E+03  0.47000000000E+01 0.  1.
         -5    1    3    3    0  502 -0.73653933821E+01 -0.51722385682E+02 -0.72000312581E+02  0.89081924160E+02  0.47000000000E+01 0.  1.
        -11    1    1    2    0    0  0.14157868450E+02  0.27658368022E+02  0.35216943491E+02  0.46964493711E+02  0.00000000000E+00 0.  1.
         11    1    1    2    0    0  0.23202732531E+01 -0.50890057862E+02 -0.45651402863E+02  0.68404913863E+02  0.00000000000E+00 0. -1.
<mgrwt>
<rscale>  0 0.12473774E+03</rscale>
<asrwt>0</asrwt>
<pdfrwt beam="2">  1        2 0.38594667E-01 0.12820200E+03</pdfrwt>
<pdfrwt beam="1">  1       -2 0.11435044E-01 0.12820200E+03</pdfrwt>
<totfact> 0.67360467E+03</totfact>
</mgrwt>
</event>
<event>
 7    1  0.6008063E-006  0.1603796E+03  0.7546771E-02  0.1194156E+00
          4   -1    0    0  501    0  0.00000000000E+00  0.00000000000E+00  0.21314187456E+03  0.21314187456E+03  0.00000000000E+00 0. -1.
         -4   -1    0    0    0  501 -0.00000000000E+00 -0.00000000000E+00 -0.11619422249E+03  0.11619422249E+03  0.00000000000E+00 0.  1.
         23    2    1    2    0    0 -0.11599831265E+02  0.99830795674E+02  0.98980476211E+02  0.18846417486E+03  0.12498346564E+03 0.  0.
          5    1    3    3  502    0 -0.61948143504E+02  0.31028007133E+02  0.20288391654E+02  0.72346517166E+02  0.47000000000E+01 0.  1.
         -5    1    3    3    0  502  0.50348312239E+02  0.68802788541E+02  0.78692084557E+02  0.11611765769E+03  0.47000000000E+01 0.  1.
        -11    1    1    2    0    0  0.43937964981E+02 -0.92258924558E+02  0.15433839514E+02  0.10334629809E+03  0.00000000000E+00 0.  1.
         11    1    1    2    0    0 -0.32338133716E+02 -0.75718711166E+01 -0.17466663663E+02  0.37525624098E+02  0.00000000000E+00 0. -1.
<mgrwt>
<rscale>  0 0.15525894E+03</rscale>
<asrwt>0</asrwt>
<pdfrwt beam="1">  1        4 0.32791057E-01 0.16037958E+03</pdfrwt>
<pdfrwt beam="2">  1       -4 0.17876034E-01 0.16037958E+03</pdfrwt>
<totfact> 0.42426832E+02</totfact>
</mgrwt>
</event>
<event>
 7    1  0.6008063E-006  0.1384700E+03  0.7546771E-02  0.1230520E+00
          1   -1    0    0  501    0  0.00000000000E+00  0.00000000000E+00  0.23140777498E+03  0.23140777498E+03  0.00000000000E+00 0. -1.
         -1   -1    0    0    0  501 -0.00000000000E+00 -0.00000000000E+00 -0.72596473917E+02  0.72596473917E+02  0.00000000000E+00 0.  1.
         23    2    1    2    0    0 -0.20218260539E+02  0.56024961530E+02  0.14765183620E+03  0.20242280891E+03  0.12500541773E+03 0.  0.
          5    1    3    3  502    0 -0.37226643995E+02  0.10304041909E+02 -0.75764239823E+01  0.39642004278E+02  0.47000000000E+01 0. -1.
         -5    1    3    3    0  502  0.17008383456E+02  0.45720919622E+02  0.15522826018E+03  0.16278080464E+03  0.47000000000E+01 0. -1.
        -11    1    1    2    0    0 -0.18022413233E+01  0.11274045393E+02 -0.20928534102E+02  0.23840212100E+02  0.00000000000E+00 0.  1.
         11    1    1    2    0    0  0.22020501862E+02 -0.67299006923E+02  0.32087998966E+02  0.77741227883E+02  0.00000000000E+00 0. -1.
<mgrwt>
<rscale>  0 0.12795613E+03</rscale>
<asrwt>0</asrwt>
<pdfrwt beam="1">  1        1 0.35601196E-01 0.13846996E+03</pdfrwt>
<pdfrwt beam="2">  1       -1 0.11168688E-01 0.13846996E+03</pdfrwt>
<totfact> 0.59652972E+03</totfact>
</mgrwt>
</event>
<event>
 7    1  0.6008063E-006  0.1248484E+03  0.7546771E-02  0.1250699E+00
          3   -1    0    0  501    0  0.00000000000E+00  0.00000000000E+00  0.30032374117E+03  0.30032374117E+03  0.00000000000E+00 0. -1.
         -3   -1    0    0    0  501 -0.00000000000E+00 -0.00000000000E+00 -0.62759494523E+02  0.62759494523E+02  0.00000000000E+00 0.  1.
         23    2    1    2    0    0  0.23391912083E+01  0.75003719513E+01  0.24113897211E+03  0.27154213925E+03  0.12460097162E+03 0.  0.
          5    1    3    3  502    0 -0.41347043601E+01  0.40130057706E+02  0.15589806828E+02  0.43504590431E+02  0.47000000000E+01 0. -1.
         -5    1    3    3    0  502  0.64738955683E+01 -0.32629685755E+02  0.22554916528E+03  0.22803754882E+03  0.47000000000E+01 0. -1.
        -11    1    1    2    0    0 -0.99271483924E-01 -0.48785250061E+02  0.58502184432E+01  0.49134870857E+02  0.00000000000E+00 0. -1.
         11    1    1    2    0    0 -0.22399197243E+01  0.41284878110E+02 -0.94249438969E+01  0.42406225585E+02  0.00000000000E+00 0.  1.
<mgrwt>
<rscale>  0 0.11550705E+03</rscale>
<asrwt>0</asrwt>
<pdfrwt beam="1">  1        3 0.46203652E-01 0.12484843E+03</pdfrwt>
<pdfrwt beam="2">  1       -3 0.96553070E-02 0.12484843E+03</pdfrwt>
<totfact> 0.83436211E+02</totfact>
</mgrwt>
</event>
<event>
 7    1  0.6008063E-006  0.2492719E+03  0.7546771E-02  0.1116177E+00
          1   -1    0    0  501    0  0.00000000000E+00  0.00000000000E+00  0.56309072496E+03  0.56309072496E+03  0.00000000000E+00 0. -1.
         -1   -1    0    0    0  501 -0.00000000000E+00 -0.00000000000E+00 -0.10930612013E+03  0.10930612013E+03  0.00000000000E+00 0.  1.
         23    2    1    2    0    0 -0.12499252573E+03 -0.17576253569E+03  0.15892066125E+03  0.29562185406E+03  0.12498361327E+03 0.  0.
          5    1    3    3  502    0 -0.11497734802E+03 -0.13919039365E+03  0.61182703462E+02  0.19068080513E+03  0.47000000000E+01 0.  1.
         -5    1    3    3    0  502 -0.10015177707E+02 -0.36572142036E+02  0.97737957787E+02  0.10494104893E+03  0.47000000000E+01 0.  1.
        -11    1    1    2    0    0  0.97290714257E+02  0.66941511711E+02  0.18634679913E+03  0.22061681400E+03  0.00000000000E+00 0.  1.
         11    1    1    2    0    0  0.27701811471E+02  0.10882102398E+03  0.10851714444E+03  0.15615817704E+03  0.00000000000E+00 0. -1.
<mgrwt>
<rscale>  0 0.24550755E+03</rscale>
<asrwt>0</asrwt>
<pdfrwt beam="1">  1        1 0.86629341E-01 0.24927195E+03</pdfrwt>
<pdfrwt beam="2">  1       -1 0.16816327E-01 0.24927195E+03</pdfrwt>
<totfact> 0.10288701E+03</totfact>
</mgrwt>
</event>
<event>
 7    1  0.6008063E-006  0.1264222E+03  0.7546771E-02  0.1247599E+00
          3   -1    0    0  501    0  0.00000000000E+00  0.00000000000E+00  0.13304871488E+03  0.13304871488E+03  0.00000000000E+00 0. -1.
         -3   -1    0    0    0  501 -0.00000000000E+00 -0.00000000000E+00 -0.91416779980E+02  0.91416779980E+02  0.00000000000E+00 0.  1.
         23    2    1    2    0    0  0.13824461096E+02 -0.13156876530E+02  0.30709154496E+02  0.13009847784E+03  0.12497336773E+03 0.  0.
          5    1    3    3  502    0  0.59920266995E+02 -0.35130097121E+02  0.36300590152E+02  0.78513597331E+02  0.47000000000E+01 0.  1.
         -5    1    3    3    0  502 -0.46095805899E+02  0.21973220591E+02 -0.55914356559E+01  0.51584880511E+02  0.47000000000E+01 0.  1.
        -11    1    1    2    0    0 -0.41394834836E+02 -0.94824075613E+01  0.31781090854E+02  0.53042305192E+02  0.00000000000E+00 0. -1.
         11    1    1    2    0    0  0.27570373740E+02  0.22639284091E+02 -0.20858310453E+02  0.41324711823E+02  0.00000000000E+00 0.  1.
<mgrwt>
<rscale>  0 0.11731140E+03</rscale>
<asrwt>0</asrwt>
<pdfrwt beam="1">  1        3 0.20469033E-01 0.12642216E+03</pdfrwt>
<pdfrwt beam="2">  1       -3 0.14064120E-01 0.12642216E+03</pdfrwt>
<totfact> 0.20212779E+03</totfact>
</mgrwt>
</event>
<event>
 7    1  0.6008063E-006  0.1771769E+03  0.7546771E-02  0.1176435E+00
         -2   -1    0    0    0  501 -0.00000000000E+00  0.00000000000E+00  0.35505096373E+02  0.35505096373E+02  0.00000000000E+00 0.  1.
          2   -1    0    0  501    0  0.00000000000E+00 -0.00000000000E+00 -0.78290843177E+03  0.78290843177E+03  0.00000000000E+00 0. -1.
         23    2    1    2    0    0 -0.83940401203E+02 -0.93379204686E+02 -0.43355975167E+03  0.46836493330E+03  0.12500394256E+03 0.  0.
          5    1    3    3  502    0  0.70403900357E+01 -0.82571277900E+02 -0.24485677154E+03  0.25854305559E+03  0.47000000000E+01 0. -1.
         -5    1    3    3    0  502 -0.90980791238E+02 -0.10807926786E+02 -0.18870298013E+03  0.20982187771E+03  0.47000000000E+01 0. -1.
        -11    1    1    2    0    0  0.12595190490E+02  0.61580337048E+02 -0.70380097639E+02  0.94361723586E+02  0.00000000000E+00 0. -1.
         11    1    1    2    0    0  0.71345210712E+02  0.31798867637E+02 -0.24346348609E+03  0.25568687126E+03  0.00000000000E+00 0.  1.
<mgrwt>
<rscale>  0 0.17136163E+03</rscale>
<asrwt>0</asrwt>
<pdfrwt beam="2">  1        2 0.12044744E+00 0.17717690E+03</pdfrwt>
<pdfrwt beam="1">  1       -2 0.54623230E-02 0.17717690E+03</pdfrwt>
<totfact> 0.61110390E+03</totfact>
</mgrwt>
</event>
<event>
 7    1  0.6008063E-006  0.1728311E+03  0.7546771E-02  0.1183963E+00
          3   -1    0    0  501    0  0.00000000000E+00  0.00000000000E+00  0.11974485454E+04  0.11974485454E+04  0.00000000000E+00 0. -1.
         -3   -1    0    0    0  501 -0.00000000000E+00 -0.00000000000E+00 -0.20633623494E+02  0.20633623494E+02  0.00000000000E+00 0.  1.
         23    2    1    2    0    0  0.50610782602E+02 -0.10807420922E+03  0.68231663675E+03  0.70386544987E+03  0.12501636981E+03 0.  0.
          5    1    3    3  502    0  0.54694850986E+02  0.86068632357E+01  0.19764303955E+03  0.20530578633E+03  0.47000000000E+01 0. -1.
         -5    1    3    3    0  502 -0.40840683841E+01 -0.11668107245E+03  0.48467359720E+03  0.49855966354E+03  0.47000000000E+01 0. -1.
        -11    1    1    2    0    0  0.10652519769E+02  0.59176247887E+02  0.16782907939E+03  0.17827480019E+03  0.00000000000E+00 0. -1.
         11    1    1    2    0    0 -0.61263302371E+02  0.48897961328E+02  0.32666920575E+03  0.33594191882E+03  0.00000000000E+00 0.  1.
<mgrwt>
<rscale>  0 0.16426554E+03</rscale>
<asrwt>0</asrwt>
<pdfrwt beam="1">  1        3 0.18422280E+00 0.17283107E+03</pdfrwt>
<pdfrwt beam="2">  1       -3 0.31744046E-02 0.17283107E+03</pdfrwt>
<totfact> 0.22668674E+02</totfact>
</mgrwt>
</event>
<event>
 7    1  0.6008063E-006  0.1581938E+03  0.7546771E-02  0.1197372E+00
         -1   -1    0    0    0  501 -0.00000000000E+00  0.00000000000E+00  0.15426240574E+02  0.15426240574E+02  0.00000000000E+00 0.  1.
          1   -1    0    0  501    0  0.00000000000E+00 -0.00000000000E+00 -0.15172575530E+04  0.15172575530E+04  0.00000000000E+00 0. -1.
         23    2    1    2    0    0 -0.22102595463E+02 -0.94404005370E+02 -0.10044639935E+04  0.10168447302E+04  0.12499860031E+03 0.  0.
          5    1    3    3  502    0 -0.22226051957E+02 -0.93100352774E+02 -0.36526679856E+03  0.37762891468E+03  0.47000000000E+01 0. -1.
         -5    1    3    3    0  502  0.12345649360E+00 -0.13036525954E+01 -0.63919719497E+03  0.63921581552E+03  0.47000000000E+01 0. -1.
        -11    1    1    2    0    0 -0.82528158193E+01  0.75970545582E+02 -0.45102885747E+03  0.45745673351E+03  0.00000000000E+00 0. -1.
         11    1    1    2    0    0  0.30355411283E+02  0.18433459787E+02 -0.46338461466E+02  0.58382329903E+02  0.00000000000E+00 0.  1.
<mgrwt>
<rscale>  0 0.15255200E+03</rscale>
<asrwt>0</asrwt>
<pdfrwt beam="2">  1        1 0.23342430E+00 0.15819384E+03</pdfrwt>
<pdfrwt beam="1">  1       -1 0.23732672E-02 0.15819384E+03</pdfrwt>
<totfact> 0.36857972E+03</totfact>
</mgrwt>
</event>
<event>
 7    1  0.6008063E-006  0.1667695E+03  0.7546771E-02  0.1187826E+00
          2   -1    0    0  501    0  0.00000000000E+00  0.00000000000E+00  0.37589522206E+03  0.37589522206E+03  0.00000000000E+00 0. -1.
         -2   -1    0    0    0  501 -0.00000000000E+00 -0.00000000000E+00 -0.68812286350E+02  0.68812286350E+02  0.00000000000E+00 0.  1.
         23    2    1    2    0    0 -0.41444352544E+02 -0.10232309395E+03  0.22111942842E+03  0.27695826994E+03  0.12499772697E+03 0.  0.
          5    1    3    3  502    0 -0.12558070110E+02 -0.11159543740E+03  0.95035518871E+02  0.14719064719E+03  0.47000000000E+01 0. -1.
         -5    1    3    3    0  502 -0.28886282434E+02  0.92723434518E+01  0.12608390955E+03  0.12976762275E+03  0.47000000000E+01 0. -1.
        -11    1    1    2    0    0  0.68937830447E+02  0.55054701993E+02  0.63163099863E+02  0.10850355691E+03  0.00000000000E+00 0.  1.
         11    1    1    2    0    0 -0.27493477903E+02  0.47268391952E+02  0.22800407427E+02  0.59245681562E+02  0.00000000000E+00 0. -1.
<mgrwt>
<rscale>  0 0.16077371E+03</rscale>
<asrwt>0</asrwt>
<pdfrwt beam="1">  1        2 0.57830033E-01 0.16676955E+03</pdfrwt>
<pdfrwt beam="2">  1       -2 0.10586506E-01 0.16676955E+03</pdfrwt>
<totfact> 0.50286626E+03</totfact>
</mgrwt>
</event>
<event>
 7    1  0.6008063E-006  0.1602255E+03  0.7546771E-02  0.1195745E+00
          4   -1    0    0  501    0  0.00000000000E+00  0.00000000000E+00  0.16286563912E+03  0.16286563912E+03  0.00000000000E+00 0. -1.
         -4   -1    0    0    0  501 -0.00000000000E+00 -0.00000000000E+00 -0.17433206190E+03  0.17433206190E+03  0.00000000000E+00 0.  1.
         23    2    1    2    0    0  0.12000273732E+01 -0.10023205816E+03  0.73703137338E+02  0.17636430324E+03  0.12499723779E+03 0.  0.
          5    1    3    3  502    0  0.31579212998E+02 -0.11446129919E+03  0.78111485272E+02  0.14220453522E+03  0.47000000000E+01 0. -1.
         -5    1    3    3    0  502 -0.30379185624E+02  0.14229241031E+02 -0.44083479341E+01  0.34159768018E+02  0.47000000000E+01 0. -1.
        -11    1    1    2    0    0  0.40449890123E+02  0.80027997320E+02 -0.62400540833E+02  0.10924514388E+03  0.00000000000E+00 0.  1.
         11    1    1    2    0    0 -0.41649917497E+02  0.20204060837E+02 -0.22769019280E+02  0.51588253903E+02  0.00000000000E+00 0. -1.
<mgrwt>
<rscale>  0 0.15391372E+03</rscale>
<asrwt>0</asrwt>
<pdfrwt beam="1">  1        4 0.25056252E-01 0.16022551E+03</pdfrwt>
<pdfrwt beam="2">  1       -4 0.26820317E-01 0.16022551E+03</pdfrwt>
<totfact> 0.33604695E+02</totfact>
</mgrwt>
</event>
<event>
 7    1  0.6008063E-006  0.2861670E+03  0.7546771E-02  0.1094038E+00
          2   -1    0    0  501    0  0.00000000000E+00  0.00000000000E+00  0.74991682074E+03  0.74991682074E+03  0.00000000000E+00 0. -1.
         -2   -1    0    0    0  501 -0.00000000000E+00 -0.00000000000E+00 -0.11320005662E+03  0.11320005662E+03  0.00000000000E+00 0.  1.
         23    2    1    2    0    0  0.24533485507E+02 -0.25624691936E+03  0.44401138422E+03  0.52824014530E+03  0.12500866446E+03 0.  0.
          5    1    3    3  502    0  0.35174788803E+02 -0.99079453566E+01  0.85470228842E+02  0.93073536340E+02  0.47000000000E+01 0.  1.
         -5    1    3    3    0  502 -0.10641303296E+02 -0.24633897401E+03  0.35854115538E+03  0.43516660896E+03  0.47000000000E+01 0.  1.
        -11    1    1    2    0    0 -0.57568453036E+02  0.20397193339E+03  0.15284118817E+03  0.26130270798E+03  0.00000000000E+00 0. -1.
         11    1    1    2    0    0  0.33034967529E+02  0.52274985970E+02  0.39864191731E+02  0.73574024086E+02  0.00000000000E+00 0.  1.
<mgrwt>
<rscale>  0 0.28304300E+03</rscale>
<asrwt>0</asrwt>
<pdfrwt beam="1">  1        2 0.11537182E+00 0.28616698E+03</pdfrwt>
<pdfrwt beam="2">  1       -2 0.17415394E-01 0.28616698E+03</pdfrwt>
<totfact> 0.10273877E+03</totfact>
</mgrwt>
</event>
<event>
 7    1  0.6008063E-006  0.1518224E+03  0.7546771E-02  0.1207512E+00
         -2   -1    0    0    0  501 -0.00000000000E+00  0.00000000000E+00  0.52736855275E+02  0.52736855275E+02  0.00000000000E+00 0.  1.
          2   -1    0    0  501    0  0.00000000000E+00 -0.00000000000E+00 -0.45850389290E+03  0.45850389290E+03  0.00000000000E+00 0. -1.
         23    2    1    2    0    0 -0.85409470178E+02  0.11419767345E+02 -0.33601388455E+03  0.36872124706E+03  0.12499935496E+03 0.  0.
          5    1    3    3  502    0  0.10518443313E+02 -0.34373568803E+02 -0.39111678067E+02  0.53329103154E+02  0.47000000000E+01 0.  1.
         -5    1    3    3    0  502 -0.95927913491E+02  0.45793336148E+02 -0.29690220648E+03  0.31539214390E+03  0.47000000000E+01 0.  1.
        -11    1    1    2    0    0  0.57425639817E+02  0.28804810929E+02 -0.96387876983E+01  0.64964047513E+02  0.00000000000E+00 0.  1.
         11    1    1    2    0    0  0.27983830361E+02 -0.40224578274E+02 -0.60114365375E+02  0.77555453602E+02  0.00000000000E+00 0. -1.
<mgrwt>
<rscale>  0 0.14441253E+03</rscale>
<asrwt>0</asrwt>
<pdfrwt beam="2">  1        2 0.70539062E-01 0.15182235E+03</pdfrwt>
<pdfrwt beam="1">  1       -2 0.81133622E-02 0.15182235E+03</pdfrwt>
<totfact> 0.61285411E+03</totfact>
</mgrwt>
</event>
<event>
 7    1  0.6008063E-006  0.1710780E+03  0.7546771E-02  0.1182816E+00
          1   -1    0    0  501    0  0.00000000000E+00  0.00000000000E+00  0.57352526885E+03  0.57352526885E+03  0.00000000000E+00 0. -1.
         -1   -1    0    0    0  501 -0.00000000000E+00 -0.00000000000E+00 -0.45107759644E+02  0.45107759644E+02  0.00000000000E+00 0.  1.
         23    2    1    2    0    0  0.10862181095E+03 -0.42978480157E+02  0.31106286936E+03  0.35500390840E+03  0.12498727422E+03 0.  0.
          5    1    3    3  502    0 -0.78550556086E-01 -0.16330989229E+02 -0.65528298874E+01  0.18213647600E+02  0.47000000000E+01 0. -1.
         -5    1    3    3    0  502  0.10870036150E+03 -0.26647490928E+02  0.31761569924E+03  0.33679026080E+03  0.47000000000E+01 0. -1.
        -11    1    1    2    0    0 -0.57031093923E+02 -0.18082447225E+02  0.49273670680E+02  0.77507517016E+02  0.00000000000E+00 0.  1.
         11    1    1    2    0    0 -0.51590717022E+02  0.61060927382E+02  0.16808096917E+03  0.18612160308E+03  0.00000000000E+00 0. -1.
<mgrwt>
<rscale>  0 0.16532157E+03</rscale>
<asrwt>0</asrwt>
<pdfrwt beam="1">  1        1 0.88234652E-01 0.17107795E+03</pdfrwt>
<pdfrwt beam="2">  1       -1 0.69396557E-02 0.17107795E+03</pdfrwt>
<totfact> 0.39304533E+03</totfact>
</mgrwt>
</event>
<event>
 7    1  0.6008063E-006  0.1675844E+03  0.7546771E-02  0.1187101E+00
          1   -1    0    0  501    0  0.00000000000E+00  0.00000000000E+00  0.55804851109E+02  0.55804851109E+02  0.00000000000E+00 0. -1.
         -1   -1    0    0    0  501 -0.00000000000E+00 -0.00000000000E+00 -0.44165288681E+03  0.44165288681E+03  0.00000000000E+00 0.  1.
         23    2    1    2    0    0  0.47682519852E+02 -0.10092678474E+03 -0.17825203235E+03  0.24465960961E+03  0.12499879585E+03 0.  0.
          5    1    3    3  502    0  0.66930293580E+02 -0.11750011349E+03 -0.17055015678E+03  0.21770481585E+03  0.47000000000E+01 0. -1.
         -5    1    3    3    0  502 -0.19247773727E+02  0.16573328750E+02 -0.77018755653E+01  0.26954793758E+02  0.47000000000E+01 0. -1.
        -11    1    1    2    0    0 -0.55627761961E+02  0.24516809275E+02 -0.13048510413E+03  0.14395097859E+03  0.00000000000E+00 0.  1.
         11    1    1    2    0    0  0.79452421085E+01  0.76409975460E+02 -0.77110899225E+02  0.10884714972E+03  0.00000000000E+00 0. -1.
<mgrwt>
<rscale>  0 0.16142147E+03</rscale>
<asrwt>0</asrwt>
<pdfrwt beam="1">  1        1 0.85853617E-02 0.16758442E+03</pdfrwt>
<pdfrwt beam="2">  1       -1 0.67946598E-01 0.16758442E+03</pdfrwt>
<totfact> 0.17650376E+03</totfact>
</mgrwt>
</event>
<event>
 7    1  0.6008063E-006  0.2040649E+03  0.7546771E-02  0.1150141E+00
          2   -1    0    0  501    0  0.00000000000E+00  0.00000000000E+00  0.18871870143E+04  0.18871870143E+04  0.00000000000E+00 0.  1.
         -2   -1    0    0    0  501 -0.00000000000E+00 -0.00000000000E+00 -0.24810755920E+02  0.24810755920E+02  0.00000000000E+00 0. -1.
         23    2    1    2    0    0 -0.16025968278E+03  0.17512454598E+02  0.13767545713E+04  0.13917958374E+04  0.12511055614E+03 0.  0.
          5    1    3    3  502    0 -0.83096354311E+02  0.22458673793E+02  0.29678106552E+03  0.30904770988E+03  0.47000000000E+01 0. -1.
         -5    1    3    3    0  502 -0.77163328469E+02 -0.49462191947E+01  0.10799735058E+04  0.10827481275E+04  0.47000000000E+01 0. -1.
        -11    1    1    2    0    0  0.13638590602E+03  0.88307034076E+00  0.46256998690E+03  0.48225811341E+03  0.00000000000E+00 0.  1.
         11    1    1    2    0    0  0.23873776762E+02 -0.18395524939E+02  0.23051700191E+02  0.37943819475E+02  0.00000000000E+00 0. -1.
<mgrwt>
<rscale>  0 0.19952396E+03</rscale>
<asrwt>0</asrwt>
<pdfrwt beam="1">  1        2 0.29033635E+00 0.20406495E+03</pdfrwt>
<pdfrwt beam="2">  1       -2 0.38170408E-02 0.20406495E+03</pdfrwt>
<totfact> 0.25169309E+03</totfact>
</mgrwt>
</event>
<event>
 7    1  0.6008063E-006  0.1933373E+03  0.7546771E-02  0.1160056E+00
          2   -1    0    0  501    0  0.00000000000E+00  0.00000000000E+00  0.62191393481E+03  0.62191393481E+03  0.00000000000E+00 0. -1.
         -2   -1    0    0    0  501 -0.00000000000E+00 -0.00000000000E+00 -0.70048727628E+02  0.70048727628E+02  0.00000000000E+00 0.  1.
         23    2    1    2    0    0 -0.88559174628E+02  0.11794847524E+03  0.45186917267E+03  0.49149269708E+03  0.12499900743E+03 0.  0.
          5    1    3    3  502    0 -0.50017572104E+01  0.51171822827E+02  0.38287562422E+02  0.64277526888E+02  0.47000000000E+01 0.  1.
         -5    1    3    3    0  502 -0.83557417418E+02  0.66776652414E+02  0.41358161025E+03  0.42721517020E+03  0.47000000000E+01 0.  1.
        -11    1    1    2    0    0  0.61849016333E+02 -0.30300277216E+02  0.58886114947E+01  0.69123681659E+02  0.00000000000E+00 0.  1.
         11    1    1    2    0    0  0.26710158295E+02 -0.87648198025E+02  0.94107423025E+02  0.13134628370E+03  0.00000000000E+00 0. -1.
<mgrwt>
<rscale>  0 0.18824258E+03</rscale>
<asrwt>0</asrwt>
<pdfrwt beam="1">  1        2 0.95679063E-01 0.19333733E+03</pdfrwt>
<pdfrwt beam="2">  1       -2 0.10776728E-01 0.19333733E+03</pdfrwt>
<totfact> 0.28143630E+03</totfact>
</mgrwt>
</event>
<event>
 7    1  0.6008063E-006  0.1269857E+03  0.7546771E-02  0.1246243E+00
         -1   -1    0    0    0  501 -0.00000000000E+00  0.00000000000E+00  0.22782341375E+02  0.22782341375E+02  0.00000000000E+00 0.  1.
          1   -1    0    0  501    0  0.00000000000E+00 -0.00000000000E+00 -0.67924454827E+03  0.67924454827E+03  0.00000000000E+00 0. -1.
         23    2    1    2    0    0  0.20907068448E+02 -0.82278946110E+01 -0.52290489169E+03  0.53810305811E+03  0.12498228526E+03 0.  0.
          5    1    3    3  502    0 -0.21056266227E+02  0.33793775953E+02 -0.39472829009E+03  0.39675924519E+03  0.47000000000E+01 0.  1.
         -5    1    3    3    0  502  0.41963334675E+02 -0.42021670564E+02 -0.12817660159E+03  0.14134381292E+03  0.47000000000E+01 0.  1.
        -11    1    1    2    0    0 -0.25088681971E+02  0.31957639564E+02 -0.15584732546E+02  0.43515704959E+02  0.00000000000E+00 0.  1.
         11    1    1    2    0    0  0.41816135230E+01 -0.23729744953E+02 -0.11797258266E+03  0.12040812658E+03  0.00000000000E+00 0. -1.
<mgrwt>
<rscale>  0 0.11811308E+03</rscale>
<asrwt>0</asrwt>
<pdfrwt beam="2">  1        1 0.10449914E+00 0.12698573E+03</pdfrwt>
<pdfrwt beam="1">  1       -1 0.35049762E-02 0.12698573E+03</pdfrwt>
<totfact> 0.84350121E+03</totfact>
</mgrwt>
</event>
<event>
 7    1  0.6008063E-006  0.2845292E+03  0.7546771E-02  0.1095002E+00
         -1   -1    0    0    0  501 -0.00000000000E+00  0.00000000000E+00  0.92924459497E+02  0.92924459497E+02  0.00000000000E+00 0.  1.
          1   -1    0    0  501    0  0.00000000000E+00 -0.00000000000E+00 -0.83241170751E+03  0.83241170751E+03  0.00000000000E+00 0. -1.
         23    2    1    2    0    0 -0.25097980006E+03 -0.48513751919E+02 -0.37332743503E+03  0.46939350390E+03  0.12494976428E+03 0.  0.
          5    1    3    3  502    0 -0.10075450683E+02 -0.77764773069E+01  0.85382527770E+01  0.16030597813E+02  0.47000000000E+01 0. -1.
         -5    1    3    3    0  502 -0.24090434938E+03 -0.40737274612E+02 -0.38186568780E+03  0.45336290609E+03  0.47000000000E+01 0. -1.
        -11    1    1    2    0    0  0.11415817816E+03  0.39531374312E+02 -0.24413985664E+03  0.27239509687E+03  0.00000000000E+00 0. -1.
         11    1    1    2    0    0  0.13682162190E+03  0.89823776062E+01 -0.12201995635E+03  0.18354756624E+03  0.00000000000E+00 0.  1.
<mgrwt>
<rscale>  0 0.28126137E+03</rscale>
<asrwt>0</asrwt>
<pdfrwt beam="2">  1        1 0.12806333E+00 0.28452924E+03</pdfrwt>
<pdfrwt beam="1">  1       -1 0.14296071E-01 0.28452924E+03</pdfrwt>
<totfact> 0.75333786E+02</totfact>
</mgrwt>
</event>
<event>
 7    1  0.6008063E-006  0.1598492E+03  0.7546771E-02  0.1196381E+00
          1   -1    0    0  501    0  0.00000000000E+00  0.00000000000E+00  0.83858599502E+03  0.83858599502E+03  0.00000000000E+00 0. -1.
         -1   -1    0    0    0  501 -0.00000000000E+00 -0.00000000000E+00 -0.28011829597E+02  0.28011829597E+02  0.00000000000E+00 0.  1.
         23    2    1    2    0    0  0.99592116071E+02  0.30708978703E+01  0.55190696875E+03  0.57458947905E+03  0.12499498904E+03 0.  0.
          5    1    3    3  502    0  0.79258373456E+02 -0.30729951144E+02  0.50918066743E+03  0.51624922445E+03  0.47000000000E+01 0. -1.
         -5    1    3    3    0  502  0.20333742615E+02  0.33800849014E+02  0.42726301324E+02  0.58340254607E+02  0.47000000000E+01 0. -1.
        -11    1    1    2    0    0 -0.64966221040E+02  0.36336019418E+02  0.98459727870E+02  0.12343109088E+03  0.00000000000E+00 0.  1.
         11    1    1    2    0    0 -0.34625895031E+02 -0.39406917288E+02  0.16020746881E+03  0.16857725469E+03  0.00000000000E+00 0. -1.
<mgrwt>
<rscale>  0 0.15337953E+03</rscale>
<asrwt>0</asrwt>
<pdfrwt beam="1">  1        1 0.12901321E+00 0.15984920E+03</pdfrwt>
<pdfrwt beam="2">  1       -1 0.43095129E-02 0.15984920E+03</pdfrwt>
<totfact> 0.46162542E+03</totfact>
</mgrwt>
</event>
<event>
 7    1  0.6008063E-006  0.1375663E+03  0.7546771E-02  0.1228697E+00
         -1   -1    0    0    0  501 -0.00000000000E+00  0.00000000000E+00  0.23101394368E+02  0.23101394368E+02  0.00000000000E+00 0.  1.
          1   -1    0    0  501    0  0.00000000000E+00 -0.00000000000E+00 -0.64768079069E+03  0.64768079069E+03  0.00000000000E+00 0. -1.
         23    2    1    2    0    0 -0.15543765140E+02 -0.55263620755E+02 -0.33960990692E+03  0.36641421701E+03  0.12501525161E+03 0.  0.
          5    1    3    3  502    0  0.33230569794E+02 -0.15700021630E+01 -0.21008644308E+02  0.39625608024E+02  0.47000000000E+01 0.  1.
         -5    1    3    3    0  502 -0.48774334934E+02 -0.53693618592E+02 -0.31860126261E+03  0.32678860898E+03  0.47000000000E+01 0.  1.
        -11    1    1    2    0    0 -0.32251785966E+02  0.48975768460E+02 -0.15078364081E+03  0.16178538231E+03  0.00000000000E+00 0. -1.
         11    1    1    2    0    0  0.47795551106E+02  0.62878522950E+01 -0.13418584859E+03  0.14258258573E+03  0.00000000000E+00 0.  1.
<mgrwt>
<rscale>  0 0.12916669E+03</rscale>
<asrwt>0</asrwt>
<pdfrwt beam="2">  1        1 0.99643185E-01 0.13756631E+03</pdfrwt>
<pdfrwt beam="1">  1       -1 0.35540612E-02 0.13756631E+03</pdfrwt>
<totfact> 0.88799771E+03</totfact>
</mgrwt>
</event>
<event>
 7    1  0.6008063E-006  0.1916911E+03  0.7546771E-02  0.1162059E+00
          1   -1    0    0  501    0  0.00000000000E+00  0.00000000000E+00  0.21174515454E+04  0.21174515454E+04  0.00000000000E+00 0. -1.
         -1   -1    0    0    0  501 -0.00000000000E+00 -0.00000000000E+00 -0.25033458530E+02  0.25033458530E+02  0.00000000000E+00 0.  1.
         23    2    1    2    0    0  0.14287827439E+03 -0.26576158342E+02  0.17464317074E+04  0.17569203695E+04  0.12499992966E+03 0.  0.
          5    1    3    3  502    0  0.10091713425E+03 -0.73583124143E+02  0.13082146433E+04  0.13141713690E+04  0.47000000000E+01 0.  1.
         -5    1    3    3    0  502  0.41961140137E+02  0.47006965801E+02  0.43821706418E+03  0.44274900051E+03  0.47000000000E+01 0.  1.
        -11    1    1    2    0    0 -0.86774274705E+02 -0.17469454512E+02  0.12364771655E+03  0.15206483617E+03  0.00000000000E+00 0.  1.
         11    1    1    2    0    0 -0.56103999681E+02  0.44045612854E+02  0.22233866293E+03  0.23349979834E+03  0.00000000000E+00 0. -1.
<mgrwt>
<rscale>  0 0.18606475E+03</rscale>
<asrwt>0</asrwt>
<pdfrwt beam="1">  1        1 0.32576164E+00 0.19169109E+03</pdfrwt>
<pdfrwt beam="2">  1       -1 0.38513030E-02 0.19169109E+03</pdfrwt>
<totfact> 0.74412020E+02</totfact>
</mgrwt>
</event>
<event>
 7    1  0.6008063E-006  0.1266219E+03  0.7546771E-02  0.1243641E+00
         -1   -1    0    0    0  501 -0.00000000000E+00  0.00000000000E+00  0.45947925211E+02  0.45947925211E+02  0.00000000000E+00 0.  1.
          1   -1    0    0  501    0  0.00000000000E+00 -0.00000000000E+00 -0.31188300932E+03  0.31188300932E+03  0.00000000000E+00 0. -1.
         23    2    1    2    0    0  0.18966933714E+02  0.68740677283E+01 -0.20157881202E+03  0.23804859267E+03  0.12500447046E+03 0.  0.
          5    1    3    3  502    0 -0.30673426848E+02  0.11354957462E+02 -0.29128540914E+01  0.33171808701E+02  0.47000000000E+01 0.  1.
         -5    1    3    3    0  502  0.49640360562E+02 -0.44808897332E+01 -0.19866595793E+03  0.20487678397E+03  0.47000000000E+01 0.  1.
        -11    1    1    2    0    0  0.36237360341E+01  0.24109100438E+02 -0.75914921478E+02  0.79733653433E+02  0.00000000000E+00 0. -1.
         11    1    1    2    0    0 -0.22590669749E+02 -0.30983168167E+02  0.11558649388E+02  0.40048688431E+02  0.00000000000E+00 0.  1.
<mgrwt>
<rscale>  0 0.11967105E+03</rscale>
<asrwt>0</asrwt>
<pdfrwt beam="2">  1        1 0.47982002E-01 0.12662194E+03</pdfrwt>
<pdfrwt beam="1">  1       -1 0.70689114E-02 0.12662194E+03</pdfrwt>
<totfact> 0.82033622E+03</totfact>
</mgrwt>
</event>
<event>
 6    1  0.6008063E-006  0.1378766E+03  0.7546771E-02  0.1231713E+00
         -4   -1    0    0    0  501 -0.00000000000E+00  0.00000000000E+00  0.14168305979E+03  0.14168305979E+03  0.00000000000E+00 0.  1.
          4   -1    0    0  501    0  0.00000000000E+00 -0.00000000000E+00 -0.12377666946E+03  0.12377666946E+03  0.00000000000E+00 0. -1.
          5    1    1    2  502    0  0.30201014194E+02  0.24624767825E+02 -0.87424000032E+02  0.95830716528E+02  0.47000000000E+01 0. -1.
         -5    1    1    2    0  502  0.85686599757E+01 -0.29164878947E+02  0.39566112420E+02  0.50115659726E+02  0.47000000000E+01 0.  1.
        -11    1    1    2    0    0 -0.18526262750E+02  0.32920602712E+02  0.74539800272E+02  0.83565365547E+02  0.00000000000E+00 0.  1.
         11    1    1    2    0    0 -0.20243411420E+02 -0.28380491590E+02 -0.87755223300E+01  0.35947987439E+02  0.00000000000E+00 0. -1.
<mgrwt>
<rscale>  0 0.12717222E+03</rscale>
<asrwt>0</asrwt>
<pdfrwt beam="2">  1        4 0.19042565E-01 0.13787664E+03</pdfrwt>
<pdfrwt beam="1">  1       -4 0.21797394E-01 0.13787664E+03</pdfrwt>
<totfact> 0.78884317E+02</totfact>
</mgrwt>
</event>
<event>
 7    1  0.6008063E-006  0.1535293E+03  0.7546771E-02  0.1204832E+00
         -1   -1    0    0    0  501 -0.00000000000E+00  0.00000000000E+00  0.38888884293E+03  0.38888884293E+03  0.00000000000E+00 0.  1.
          1   -1    0    0  501    0  0.00000000000E+00 -0.00000000000E+00 -0.50723555680E+02  0.50723555680E+02  0.00000000000E+00 0. -1.
         23    2    1    2    0    0  0.19752541621E+02  0.86924516899E+02  0.18935661780E+03  0.24377691849E+03  0.12500089098E+03 0.  0.
          5    1    3    3  502    0  0.26452681104E+02 -0.16039275897E+02  0.39472134529E+01  0.31538440084E+02  0.47000000000E+01 0.  1.
         -5    1    3    3    0  502 -0.67001394831E+01  0.10296379280E+03  0.18540940435E+03  0.21223847841E+03  0.47000000000E+01 0.  1.
        -11    1    1    2    0    0 -0.90819255090E+00 -0.69744067525E+02  0.32836428878E+02  0.77092741748E+02  0.00000000000E+00 0. -1.
         11    1    1    2    0    0 -0.18844349070E+02 -0.17180449374E+02  0.11597224057E+03  0.11874273837E+03  0.00000000000E+00 0.  1.
<mgrwt>
<rscale>  0 0.14650690E+03</rscale>
<asrwt>0</asrwt>
<pdfrwt beam="2">  1        1 0.78036242E-02 0.15352934E+03</pdfrwt>
<pdfrwt beam="1">  1       -1 0.59829051E-01 0.15352934E+03</pdfrwt>
<totfact> 0.25580565E+03</totfact>
</mgrwt>
</event>
<event>
 7    1  0.6008063E-006  0.1316345E+03  0.7546771E-02  0.1236325E+00
          1   -1    0    0  501    0  0.00000000000E+00  0.00000000000E+00  0.77114948040E+03  0.77114948040E+03  0.00000000000E+00 0. -1.
         -1   -1    0    0    0  501 -0.00000000000E+00 -0.00000000000E+00 -0.20100905597E+02  0.20100905597E+02  0.00000000000E+00 0.  1.
         23    2    1    2    0    0  0.20159020592E+02 -0.36000017403E+02  0.54017646452E+03  0.55598403437E+03  0.12500098514E+03 0.  0.
          5    1    3    3  502    0  0.51324485362E+02  0.29030244601E+02  0.25907297081E+03  0.26574019663E+03  0.47000000000E+01 0.  1.
         -5    1    3    3    0  502 -0.31165464770E+02 -0.65030262004E+02  0.28110349371E+03  0.29024383774E+03  0.47000000000E+01 0.  1.
        -11    1    1    2    0    0  0.11244000111E+02  0.14984212299E+01 -0.64120079822E+01  0.13030220683E+02  0.00000000000E+00 0.  1.
         11    1    1    2    0    0 -0.31403020703E+02  0.34501596173E+02  0.21728411827E+03  0.22223613095E+03  0.00000000000E+00 0. -1.
<mgrwt>
<rscale>  0 0.12420007E+03</rscale>
<asrwt>0</asrwt>
<pdfrwt beam="1">  1        1 0.11863836E+00 0.13163447E+03</pdfrwt>
<pdfrwt beam="2">  1       -1 0.30924476E-02 0.13163447E+03</pdfrwt>
<totfact> 0.84475863E+03</totfact>
</mgrwt>
</event>
<event>
 7    1  0.6008063E-006  0.1342467E+03  0.7546771E-02  0.1227189E+00
          1   -1    0    0  501    0  0.00000000000E+00  0.00000000000E+00  0.77102329814E+03  0.77102329814E+03  0.00000000000E+00 0. -1.
         -1   -1    0    0    0  501 -0.00000000000E+00 -0.00000000000E+00 -0.46999581526E+02  0.46999581526E+02  0.00000000000E+00 0.  1.
         23    2    1    2    0    0 -0.41077468677E+02 -0.57459351246E+02  0.67726576652E+03  0.69044268407E+03  0.11416324278E+03 0.  0.
          5    1    3    3  502    0 -0.36977563253E+02 -0.87400569986E+02  0.59762490108E+03  0.60513123553E+03  0.47000000000E+01 0. -1.
         -5    1    3    3    0  502 -0.40999054242E+01  0.29941218739E+02  0.79640865442E+02  0.85311448542E+02  0.47000000000E+01 0.  1.
        -11    1    1    2    0    0  0.95178078232E+00  0.21829656067E+02  0.66811781142E+02  0.70294052878E+02  0.00000000000E+00 0. -1.
         11    1    1    2    0    0  0.40125687895E+02  0.35629695180E+02 -0.20053831051E+02  0.57286142718E+02  0.00000000000E+00 0.  1.
<mgrwt>
<rscale>  0 0.13017967E+03</rscale>
<asrwt>0</asrwt>
<pdfrwt beam="1">  1        1 0.11861896E+00 0.13424672E+03</pdfrwt>
<pdfrwt beam="2">  1       -1 0.72307054E-02 0.13424672E+03</pdfrwt>
<totfact> 0.24128026E+03</totfact>
</mgrwt>
</event>
<event>
 7    1  0.6008063E-006  0.1402054E+03  0.7546771E-02  0.1224210E+00
         -2   -1    0    0    0  501 -0.00000000000E+00  0.00000000000E+00  0.20200221146E+03  0.20200221146E+03  0.00000000000E+00 0. -1.
          2   -1    0    0  501    0  0.00000000000E+00 -0.00000000000E+00 -0.78346649038E+02  0.78346649038E+02  0.00000000000E+00 0.  1.
         23    2    1    2    0    0  0.27409427063E+02  0.57278654468E+02  0.59941186560E+02  0.15248112398E+03  0.12500170548E+03 0.  0.
          5    1    3    3  502    0 -0.20231434092E+02  0.60324160702E+02  0.78403713955E+02  0.10108188587E+03  0.47000000000E+01 0.  1.
         -5    1    3    3    0  502  0.47640861155E+02 -0.30455062340E+01 -0.18462527395E+02  0.51399238104E+02  0.47000000000E+01 0.  1.
        -11    1    1    2    0    0 -0.57655206792E+01 -0.42923901412E+02  0.84268824761E+02  0.94746701091E+02  0.00000000000E+00 0. -1.
         11    1    1    2    0    0 -0.21643906384E+02 -0.14354753055E+02 -0.20554448895E+02  0.33121035434E+02  0.00000000000E+00 0.  1.
<mgrwt>
<rscale>  0 0.13221182E+03</rscale>
<asrwt>0</asrwt>
<pdfrwt beam="2">  1        2 0.12053331E-01 0.14020538E+03</pdfrwt>
<pdfrwt beam="1">  1       -2 0.31077263E-01 0.14020538E+03</pdfrwt>
<totfact> 0.46519377E+03</totfact>
</mgrwt>
</event>
<event>
 7    1  0.6008063E-006  0.1169384E+03  0.7546771E-02  0.1260964E+00
          2   -1    0    0  501    0  0.00000000000E+00  0.00000000000E+00  0.36936074918E+03  0.36936074918E+03  0.00000000000E+00 0. -1.
         -2   -1    0    0    0  501 -0.00000000000E+00 -0.00000000000E+00 -0.32291142933E+02  0.32291142933E+02  0.00000000000E+00 0.  1.
         23    2    1    2    0    0  0.71682528510E+01 -0.89592960314E+01  0.24913120151E+03  0.27521072003E+03  0.11637410374E+03 0.  0.
          5    1    3    3  502    0 -0.39308592259E+02  0.25432250776E+01  0.20849707224E+03  0.21223749092E+03  0.47000000000E+01 0. -1.
         -5    1    3    3    0  502  0.46476845110E+02 -0.11502521109E+02  0.40634129269E+02  0.62973229112E+02  0.47000000000E+01 0.  1.
        -11    1    1    2    0    0 -0.31934518975E+02  0.36859793307E+02  0.69291994515E+02  0.84733926904E+02  0.00000000000E+00 0.  1.
         11    1    1    2    0    0  0.24766266124E+02 -0.27900497275E+02  0.18646410219E+02  0.41707245174E+02  0.00000000000E+00 0. -1.
<mgrwt>
<rscale>  0 0.10978733E+03</rscale>
<asrwt>0</asrwt>
<pdfrwt beam="1">  1        2 0.56824728E-01 0.11693838E+03</pdfrwt>
<pdfrwt beam="2">  1       -2 0.49678684E-02 0.11693838E+03</pdfrwt>
<totfact> 0.15991785E+04</totfact>
</mgrwt>
</event>
<event>
 7    1  0.6008063E-006  0.1925991E+03  0.7546771E-02  0.1160869E+00
         -1   -1    0    0    0  501 -0.00000000000E+00  0.00000000000E+00  0.40807198842E+02  0.40807198842E+02  0.00000000000E+00 0.  1.
          1   -1    0    0  501    0  0.00000000000E+00 -0.00000000000E+00 -0.10688704675E+04  0.10688704675E+04  0.00000000000E+00 0. -1.
         23    2    1    2    0    0  0.14414767936E+03  0.26238606010E+02 -0.80499511620E+03  0.82771465738E+03  0.12500959576E+03 0.  0.
          5    1    3    3  502    0 -0.37569504663E+01 -0.93169848543E+01 -0.31152876344E+01  0.11520238740E+02  0.47000000000E+01 0.  1.
         -5    1    3    3    0  502  0.14790462983E+03  0.35555590864E+02 -0.80187982856E+03  0.81619441864E+03  0.47000000000E+01 0.  1.
        -11    1    1    2    0    0 -0.12448114569E+03 -0.97399048564E+01 -0.22380776891E+03  0.25628175668E+03  0.00000000000E+00 0. -1.
         11    1    1    2    0    0 -0.19666533675E+02 -0.16498701153E+02  0.73961644933E+00  0.25681252287E+02  0.00000000000E+00 0.  1.
<mgrwt>
<rscale>  0 0.18735494E+03</rscale>
<asrwt>0</asrwt>
<pdfrwt beam="2">  1        1 0.16444160E+00 0.19259911E+03</pdfrwt>
<pdfrwt beam="1">  1       -1 0.62780311E-02 0.19259911E+03</pdfrwt>
<totfact> 0.17702846E+03</totfact>
</mgrwt>
</event>
<event>
 7    1  0.6008063E-006  0.1296794E+03  0.7546771E-02  0.1238974E+00
          1   -1    0    0  501    0  0.00000000000E+00  0.00000000000E+00  0.23606820967E+03  0.23606820967E+03  0.00000000000E+00 0. -1.
         -1   -1    0    0    0  501 -0.00000000000E+00 -0.00000000000E+00 -0.59286043616E+02  0.59286043616E+02  0.00000000000E+00 0.  1.
         23    2    1    2    0    0  0.24115001543E+02 -0.24722184404E+02  0.12340143591E+03  0.17901023961E+03  0.12499612714E+03 0.  0.
          5    1    3    3  502    0  0.26614872670E+02  0.48691350716E+02  0.46385066317E+02  0.72476640782E+02  0.47000000000E+01 0. -1.
         -5    1    3    3    0  502 -0.24998711272E+01 -0.73413535120E+02  0.77016369596E+02  0.10653359883E+03  0.47000000000E+01 0. -1.
        -11    1    1    2    0    0 -0.77324051913E+01  0.23078144901E+02 -0.25800474714E+02  0.35469076074E+02  0.00000000000E+00 0.  1.
         11    1    1    2    0    0 -0.16382596352E+02  0.16440395035E+01  0.79181204850E+02  0.80874937593E+02  0.00000000000E+00 0. -1.
<mgrwt>
<rscale>  0 0.12253421E+03</rscale>
<asrwt>0</asrwt>
<pdfrwt beam="1">  1        1 0.36318186E-01 0.12967942E+03</pdfrwt>
<pdfrwt beam="2">  1       -1 0.91209299E-02 0.12967942E+03</pdfrwt>
<totfact> 0.78937544E+03</totfact>
</mgrwt>
</event>
<event>
 7    1  0.6008063E-006  0.1671440E+03  0.7546771E-02  0.1187707E+00
         -1   -1    0    0    0  501 -0.00000000000E+00  0.00000000000E+00  0.31259125880E+03  0.31259125880E+03  0.00000000000E+00 0.  1.
          1   -1    0    0  501    0  0.00000000000E+00 -0.00000000000E+00 -0.77752546284E+02  0.77752546284E+02  0.00000000000E+00 0. -1.
         23    2    1    2    0    0  0.10807344121E+03 -0.25157538890E+02  0.10927664048E+03  0.19969606038E+03  0.12499744765E+03 0.  0.
          5    1    3    3  502    0 -0.40348022275E+01  0.36562038682E+02  0.12335607658E+02  0.39080935479E+02  0.47000000000E+01 0.  1.
         -5    1    3    3    0  502  0.11210824344E+03 -0.61719577573E+02  0.96941032817E+02  0.16061512490E+03  0.47000000000E+01 0.  1.
        -11    1    1    2    0    0 -0.10074058700E+03 -0.14222205362E+02  0.76393025808E+02  0.12722747889E+03  0.00000000000E+00 0. -1.
         11    1    1    2    0    0 -0.73328542142E+01  0.39379744252E+02  0.49169046228E+02  0.63420265809E+02  0.00000000000E+00 0.  1.
<mgrwt>
<rscale>  0 0.16087953E+03</rscale>
<asrwt>0</asrwt>
<pdfrwt beam="2">  1        1 0.11961930E-01 0.16714405E+03</pdfrwt>
<pdfrwt beam="1">  1       -1 0.48090962E-01 0.16714405E+03</pdfrwt>
<totfact> 0.21800456E+03</totfact>
</mgrwt>
</event>
<event>
 7    1  0.6008063E-006  0.1315176E+03  0.7546771E-02  0.1235601E+00
          1   -1    0    0  501    0  0.00000000000E+00  0.00000000000E+00  0.21850327357E+03  0.21850327357E+03  0.00000000000E+00 0. -1.
         -1   -1    0    0    0  501 -0.00000000000E+00 -0.00000000000E+00 -0.65865609919E+02  0.65865609919E+02  0.00000000000E+00 0.  1.
         23    2    1    2    0    0 -0.38318784252E+02  0.56962370886E+02  0.10364072095E+03  0.16744635226E+03  0.11217772026E+03 0.  0.
          5    1    3    3  502    0 -0.50664989835E+02  0.10136028879E+02  0.10675300590E+03  0.11869277377E+03  0.47000000000E+01 0. -1.
         -5    1    3    3    0  502  0.12346205583E+02  0.46826342007E+02 -0.31122849492E+01  0.48753578491E+02  0.47000000000E+01 0.  1.
        -11    1    1    2    0    0 -0.44667786593E+01 -0.43744598105E+02  0.56419169420E+02  0.71530865037E+02  0.00000000000E+00 0.  1.
         11    1    1    2    0    0  0.42785562911E+02 -0.13217772781E+02 -0.74222267123E+01  0.45391666199E+02  0.00000000000E+00 0. -1.
<mgrwt>
<rscale>  0 0.12466062E+03</rscale>
<asrwt>0</asrwt>
<pdfrwt beam="1">  1        1 0.33615888E-01 0.13151761E+03</pdfrwt>
<pdfrwt beam="2">  1       -1 0.10133171E-01 0.13151761E+03</pdfrwt>
<totfact> 0.74084549E+03</totfact>
</mgrwt>
</event>
<event>
 7    1  0.6008063E-006  0.1258671E+03  0.7546771E-02  0.1248108E+00
         -4   -1    0    0    0  501 -0.00000000000E+00  0.00000000000E+00  0.51346781592E+02  0.51346781592E+02  0.00000000000E+00 0. -1.
          4   -1    0    0  501    0  0.00000000000E+00 -0.00000000000E+00 -0.27780818011E+03  0.27780818011E+03  0.00000000000E+00 0.  1.
         23    2    1    2    0    0 -0.13614493223E+02  0.56098176297E+01 -0.19085851557E+03  0.22862525765E+03  0.12500284394E+03 0.  0.
          5    1    3    3  502    0  0.12178719214E+02 -0.53103339036E+02 -0.12570872698E+03  0.13708778157E+03  0.47000000000E+01 0.  1.
         -5    1    3    3    0  502 -0.25793212437E+02  0.58713156665E+02 -0.65149788593E+02  0.91537476080E+02  0.47000000000E+01 0.  1.
        -11    1    1    2    0    0  0.96693989307E+01  0.34295957624E+02 -0.46869562051E+02  0.58876700246E+02  0.00000000000E+00 0.  1.
         11    1    1    2    0    0  0.39450942923E+01 -0.39905775253E+02  0.11266679105E+02  0.41653003801E+02  0.00000000000E+00 0. -1.
<mgrwt>
<rscale>  0 0.11701258E+03</rscale>
<asrwt>0</asrwt>
<pdfrwt beam="2">  1        4 0.42739721E-01 0.12586713E+03</pdfrwt>
<pdfrwt beam="1">  1       -4 0.78995047E-02 0.12586713E+03</pdfrwt>
<totfact> 0.97710539E+02</totfact>
</mgrwt>
</event>
<event>
 7    1  0.6008063E-006  0.1141506E+03  0.7546771E-02  0.1261795E+00
          1   -1    0    0  501    0  0.00000000000E+00  0.00000000000E+00  0.13808349755E+04  0.13808349755E+04  0.00000000000E+00 0. -1.
         -1   -1    0    0    0  501 -0.00000000000E+00 -0.00000000000E+00 -0.87445892616E+01  0.87445892616E+01  0.00000000000E+00 0.  1.
         23    2    1    2    0    0 -0.11515871176E+02 -0.21877257955E+02  0.94162420265E+03  0.94851805914E+03  0.11144119429E+03 0.  0.
          5    1    3    3  502    0 -0.59742192538E+02 -0.25949494488E+02  0.51027776428E+03  0.51443949357E+03  0.47000000000E+01 0. -1.
         -5    1    3    3    0  502  0.48226321362E+02  0.40722365331E+01  0.43134643838E+03  0.43407856557E+03  0.47000000000E+01 0.  1.
        -11    1    1    2    0    0 -0.34596933711E+02  0.31718892120E+02  0.16993173234E+03  0.17629472368E+03  0.00000000000E+00 0. -1.
         11    1    1    2    0    0  0.46112804887E+02 -0.98416341649E+01  0.26053445124E+03  0.26476678194E+03  0.00000000000E+00 0.  1.
<mgrwt>
<rscale>  0 0.10934104E+03</rscale>
<asrwt>0</asrwt>
<pdfrwt beam="1">  1        1 0.21243598E+00 0.11415064E+03</pdfrwt>
<pdfrwt beam="2">  1       -1 0.13453225E-02 0.11415064E+03</pdfrwt>
<totfact> 0.10118101E+04</totfact>
</mgrwt>
</event>
<event>
 7    1  0.6008063E-006  0.1768434E+03  0.7546771E-02  0.1177146E+00
         -2   -1    0    0    0  501 -0.00000000000E+00  0.00000000000E+00  0.56945648175E+02  0.56945648175E+02  0.00000000000E+00 0.  1.
          2   -1    0    0  501    0  0.00000000000E+00 -0.00000000000E+00 -0.48675257973E+03  0.48675257973E+03  0.00000000000E+00 0. -1.
         23    2    1    2    0    0  0.12177346573E+03  0.28588044343E+02 -0.26437681074E+03  0.31807026685E+03  0.12501017304E+03 0.  0.
          5    1    3    3  502    0  0.13268146092E+03  0.53129712760E+02 -0.24797258053E+03  0.28625098627E+03  0.47000000000E+01 0.  1.
         -5    1    3    3    0  502 -0.10907995186E+02 -0.24541668417E+02 -0.16404230210E+02  0.31819280577E+02  0.47000000000E+01 0.  1.
        -11    1    1    2    0    0 -0.56760633021E+02 -0.54363814352E+02 -0.58998921692E+02  0.98275462515E+02  0.00000000000E+00 0.  1.
         11    1    1    2    0    0 -0.65012832711E+02  0.25775770008E+02 -0.10643119912E+03  0.12735249854E+03  0.00000000000E+00 0. -1.
<mgrwt>
<rscale>  0 0.17067482E+03</rscale>
<asrwt>0</asrwt>
<pdfrwt beam="2">  1        2 0.74885012E-01 0.17684342E+03</pdfrwt>
<pdfrwt beam="1">  1       -2 0.87608690E-02 0.17684342E+03</pdfrwt>
<totfact> 0.51326732E+03</totfact>
</mgrwt>
</event>
<event>
 6    1  0.6008063E-006  0.2317538E+03  0.7546771E-02  0.1163151E+00
          2   -1    0    0  501    0  0.00000000000E+00  0.00000000000E+00  0.85518269613E+03  0.85518269613E+03  0.00000000000E+00 0. -1.
         -2   -1    0    0    0  501 -0.00000000000E+00 -0.00000000000E+00 -0.72047490357E+02  0.72047490357E+02  0.00000000000E+00 0.  1.
          5    1    1    2  502    0 -0.11926092407E+03  0.24638486831E+01  0.54002579733E+03  0.55306345960E+03  0.47000000000E+01 0. -1.
         -5    1    1    2    0  502  0.10280939744E+03 -0.10463074642E+02  0.25904860909E+03  0.27893999355E+03  0.47000000000E+01 0.  1.
        -11    1    1    2    0    0 -0.15697274071E+02 -0.36046110104E+02 -0.53522293185E+01  0.39678367224E+02  0.00000000000E+00 0. -1.
         11    1    1    2    0    0  0.32148800701E+02  0.44045336063E+02 -0.10586971329E+02  0.55548366109E+02  0.00000000000E+00 0.  1.
<mgrwt>
<rscale>  0 0.18489164E+03</rscale>
<asrwt>0</asrwt>
<pdfrwt beam="1">  1        2 0.13156656E+00 0.23175383E+03</pdfrwt>
<pdfrwt beam="2">  1       -2 0.11084230E-01 0.23175383E+03</pdfrwt>
<totfact> 0.18254702E+03</totfact>
</mgrwt>
</event>
<event>
 7    1  0.6008063E-006  0.1504020E+03  0.7546771E-02  0.1208823E+00
         -1   -1    0    0    0  501 -0.00000000000E+00  0.00000000000E+00  0.79272348507E+02  0.79272348507E+02  0.00000000000E+00 0.  1.
          1   -1    0    0  501    0  0.00000000000E+00 -0.00000000000E+00 -0.34503519364E+03  0.34503519364E+03  0.00000000000E+00 0. -1.
         23    2    1    2    0    0 -0.51955753249E+02  0.65556887639E+02 -0.25939828026E+03  0.29984701592E+03  0.12499463723E+03 0.  0.
          5    1    3    3  502    0 -0.73596780360E+02 -0.56560211121E+01 -0.10565941199E+03  0.12897471844E+03  0.47000000000E+01 0.  1.
         -5    1    3    3    0  502  0.21641027111E+02  0.71212908751E+02 -0.15373886827E+03  0.17087229748E+03  0.47000000000E+01 0.  1.
        -11    1    1    2    0    0 -0.11469683753E+02 -0.11030584078E+02 -0.33036513995E+02  0.36669315339E+02  0.00000000000E+00 0. -1.
         11    1    1    2    0    0  0.63425437002E+02 -0.54526303562E+02  0.26671949129E+02  0.87791210889E+02  0.00000000000E+00 0.  1.
<mgrwt>
<rscale>  0 0.14340226E+03</rscale>
<asrwt>0</asrwt>
<pdfrwt beam="2">  1        1 0.53082337E-01 0.15040201E+03</pdfrwt>
<pdfrwt beam="1">  1       -1 0.12195746E-01 0.15040201E+03</pdfrwt>
<totfact> 0.31868321E+03</totfact>
</mgrwt>
</event>
<event>
 7    1  0.6008063E-006  0.1276293E+03  0.7546771E-02  0.1245423E+00
         -2   -1    0    0    0  501 -0.00000000000E+00  0.00000000000E+00  0.20292551301E+03  0.20292551301E+03  0.00000000000E+00 0.  1.
          2   -1    0    0  501    0  0.00000000000E+00 -0.00000000000E+00 -0.10465970084E+03  0.10465970084E+03  0.00000000000E+00 0. -1.
         23    2    1    2    0    0 -0.22767417026E+02 -0.12082962940E+02 -0.45222539884E+02  0.13540424139E+03  0.12499950880E+03 0.  0.
          5    1    3    3  502    0 -0.65934010965E+02  0.16976760516E+02 -0.47429194666E+02  0.83109101224E+02  0.47000000000E+01 0. -1.
         -5    1    3    3    0  502  0.43166593939E+02 -0.29059723456E+02  0.22066547820E+01  0.52295140166E+02  0.47000000000E+01 0. -1.
        -11    1    1    2    0    0  0.40375801336E+02 -0.25585026823E+02  0.10565464302E+03  0.11596422950E+03  0.00000000000E+00 0.  1.
         11    1    1    2    0    0 -0.17608384309E+02  0.37667989763E+02  0.37833709034E+02  0.56216742969E+02  0.00000000000E+00 0. -1.
<mgrwt>
<rscale>  0 0.11860091E+03</rscale>
<asrwt>0</asrwt>
<pdfrwt beam="2">  1        2 0.16101492E-01 0.12762927E+03</pdfrwt>
<pdfrwt beam="1">  1       -2 0.31219310E-01 0.12762927E+03</pdfrwt>
<totfact> 0.32587991E+03</totfact>
</mgrwt>
</event>
<event>
 7    1  0.6008063E-006  0.1280636E+03  0.7546771E-02  0.1243941E+00
         -1   -1    0    0    0  501 -0.00000000000E+00  0.00000000000E+00  0.32635959294E+02  0.32635959294E+02  0.00000000000E+00 0.  1.
          1   -1    0    0  501    0  0.00000000000E+00 -0.00000000000E+00 -0.49565670688E+03  0.49565670688E+03  0.00000000000E+00 0. -1.
         23    2    1    2    0    0 -0.20388029454E+02  0.18165524509E+02 -0.37853939092E+03  0.39961525741E+03  0.12511844569E+03 0.  0.
          5    1    3    3  502    0  0.51248289269E+02  0.47920611337E+01 -0.11377464308E+03  0.12496443659E+03  0.47000000000E+01 0.  1.
         -5    1    3    3    0  502 -0.71636318723E+02  0.13373463375E+02 -0.26476474784E+03  0.27465082083E+03  0.47000000000E+01 0.  1.
        -11    1    1    2    0    0  0.21684285660E+02  0.90775756722E+01  0.13405886840E+02  0.27061567335E+02  0.00000000000E+00 0.  1.
         11    1    1    2    0    0 -0.12962562067E+01 -0.27243100181E+02 -0.97887243502E+02  0.10161584142E+03  0.00000000000E+00 0. -1.
<mgrwt>
<rscale>  0 0.11948960E+03</rscale>
<asrwt>0</asrwt>
<pdfrwt beam="2">  1        1 0.76254885E-01 0.12806359E+03</pdfrwt>
<pdfrwt beam="1">  1       -1 0.50209164E-02 0.12806359E+03</pdfrwt>
<totfact> 0.76159457E+03</totfact>
</mgrwt>
</event>
<event>
 6    1  0.6008063E-006  0.2134627E+03  0.7546771E-02  0.1163179E+00
          1   -1    0    0  501    0  0.00000000000E+00  0.00000000000E+00  0.82915881348E+03  0.82915881348E+03  0.00000000000E+00 0. -1.
         -1   -1    0    0    0  501 -0.00000000000E+00 -0.00000000000E+00 -0.35334881659E+02  0.35334881659E+02  0.00000000000E+00 0.  1.
          5    1    1    2  502    0 -0.78899990731E+02  0.27512370278E+01  0.27010571311E+03  0.28144620107E+03  0.47000000000E+01 0. -1.
         -5    1    1    2    0  502  0.12825313719E+03  0.31064912754E+02  0.32600854802E+03  0.35173506989E+03  0.47000000000E+01 0.  1.
        -11    1    1    2    0    0 -0.40913577980E+02 -0.60419525643E+02  0.18816093680E+03  0.20181421674E+03  0.00000000000E+00 0. -1.
         11    1    1    2    0    0 -0.84395684783E+01  0.26603375861E+02  0.95487338887E+01  0.29498207440E+02  0.00000000000E+00 0.  1.
<mgrwt>
<rscale>  0 0.18486226E+03</rscale>
<asrwt>0</asrwt>
<pdfrwt beam="1">  1        1 0.12756288E+00 0.21346267E+03</pdfrwt>
<pdfrwt beam="2">  1       -1 0.54361363E-02 0.21346267E+03</pdfrwt>
<totfact> 0.33548030E+03</totfact>
</mgrwt>
</event>
<event>
 7    1  0.6008063E-006  0.1391503E+03  0.7546771E-02  0.1227494E+00
          3   -1    0    0  501    0  0.00000000000E+00  0.00000000000E+00  0.30495518146E+02  0.30495518146E+02  0.00000000000E+00 0. -1.
         -3   -1    0    0    0  501 -0.00000000000E+00 -0.00000000000E+00 -0.51682773366E+03  0.51682773366E+03  0.00000000000E+00 0.  1.
         23    2    1    2    0    0 -0.27504224364E+02 -0.54504044931E+02 -0.21555944598E+03  0.25657099000E+03  0.12504249234E+03 0.  0.
          5    1    3    3  502    0 -0.67048807932E+02 -0.60461645200E+02 -0.10311723039E+03  0.13713645171E+03  0.47000000000E+01 0. -1.
         -5    1    3    3    0  502  0.39544583568E+02  0.59576002690E+01 -0.11244221559E+03  0.11943453829E+03  0.47000000000E+01 0. -1.
        -11    1    1    2    0    0 -0.24742194053E+02  0.90930418952E+01 -0.14322589577E+03  0.14563144165E+03  0.00000000000E+00 0.  1.
         11    1    1    2    0    0  0.52246418417E+02  0.45411003036E+02 -0.12754687377E+03  0.14512082015E+03  0.00000000000E+00 0. -1.
<mgrwt>
<rscale>  0 0.12997423E+03</rscale>
<asrwt>0</asrwt>
<pdfrwt beam="1">  1        3 0.46916181E-02 0.13915027E+03</pdfrwt>
<pdfrwt beam="2">  1       -3 0.79511960E-01 0.13915027E+03</pdfrwt>
<totfact> 0.88375618E+02</totfact>
</mgrwt>
</event>
<event>
 7    1  0.6008063E-006  0.3120032E+03  0.7546771E-02  0.1079934E+00
         -1   -1    0    0    0  501 -0.00000000000E+00  0.00000000000E+00  0.10989856648E+03  0.10989856648E+03  0.00000000000E+00 0.  1.
          1   -1    0    0  501    0  0.00000000000E+00 -0.00000000000E+00 -0.87427163056E+03  0.87427163056E+03  0.00000000000E+00 0. -1.
         23    2    1    2    0    0 -0.27687043267E+03 -0.71154273825E+02 -0.36561072771E+03  0.48064246956E+03  0.12500324860E+03 0.  0.
          5    1    3    3  502    0 -0.17006864276E+03 -0.13152120127E+01 -0.27747701877E+03  0.32548526692E+03  0.47000000000E+01 0. -1.
         -5    1    3    3    0  502 -0.10680178991E+03 -0.69839061812E+02 -0.88133708943E+02  0.15515720265E+03  0.47000000000E+01 0. -1.
        -11    1    1    2    0    0  0.15820563701E+03  0.12420088056E+02 -0.13479128882E+03  0.20821136787E+03  0.00000000000E+00 0.  1.
         11    1    1    2    0    0  0.11866479566E+03  0.58734185769E+02 -0.26397104754E+03  0.29531635960E+03  0.00000000000E+00 0. -1.
<mgrwt>
<rscale>  0 0.31085994E+03</rscale>
<asrwt>0</asrwt>
<pdfrwt beam="2">  1        1 0.13450333E+00 0.31200317E+03</pdfrwt>
<pdfrwt beam="1">  1       -1 0.16907471E-01 0.31200317E+03</pdfrwt>
<totfact> 0.53165700E+02</totfact>
</mgrwt>
</event>
<event>
 7    1  0.6008063E-006  0.1473686E+03  0.7546771E-02  0.1213943E+00
          3   -1    0    0  501    0  0.00000000000E+00  0.00000000000E+00  0.34938967682E+02  0.34938967682E+02  0.00000000000E+00 0. -1.
         -3   -1    0    0    0  501 -0.00000000000E+00 -0.00000000000E+00 -0.57134739048E+03  0.57134739048E+03  0.00000000000E+00 0.  1.
         23    2    1    2    0    0 -0.74493600002E+02 -0.23307830758E+02 -0.19178643660E+03  0.24186676581E+03  0.12499977490E+03 0.  0.
          5    1    3    3  502    0 -0.10360544035E+03 -0.68471817243E+01 -0.17642500999E+03  0.20476534209E+03  0.47000000000E+01 0.  1.
         -5    1    3    3    0  502  0.29111840348E+02 -0.16460649033E+02 -0.15361426604E+02  0.37101423725E+02  0.47000000000E+01 0.  1.
        -11    1    1    2    0    0  0.11730410189E+02  0.47338101987E+02 -0.18286745626E+03  0.18925909484E+03  0.00000000000E+00 0. -1.
         11    1    1    2    0    0  0.62763189813E+02 -0.24030271230E+02 -0.16175452994E+03  0.17516049751E+03  0.00000000000E+00 0.  1.
<mgrwt>
<rscale>  0 0.13954497E+03</rscale>
<asrwt>0</asrwt>
<pdfrwt beam="1">  1        3 0.53752261E-02 0.14736857E+03</pdfrwt>
<pdfrwt beam="2">  1       -3 0.87899594E-01 0.14736857E+03</pdfrwt>
<totfact> 0.57674547E+02</totfact>
</mgrwt>
</event>
<event>
 7    1  0.6008063E-006  0.1710986E+03  0.7546771E-02  0.1183214E+00
         -2   -1    0    0    0  501 -0.00000000000E+00  0.00000000000E+00  0.41204241907E+02  0.41204241907E+02  0.00000000000E+00 0.  1.
          2   -1    0    0  501    0  0.00000000000E+00 -0.00000000000E+00 -0.66493877550E+03  0.66493877550E+03  0.00000000000E+00 0. -1.
         23    2    1    2    0    0 -0.63143760789E+02  0.98316903086E+02 -0.42748010799E+03  0.46044976322E+03  0.12498557424E+03 0.  0.
          5    1    3    3  502    0 -0.57098890353E+01  0.35814327767E+02 -0.15380528993E+02  0.39672655297E+02  0.47000000000E+01 0.  1.
         -5    1    3    3    0  502 -0.57433871753E+02  0.62502575319E+02 -0.41209957900E+03  0.42077710793E+03  0.47000000000E+01 0.  1.
        -11    1    1    2    0    0  0.27015510628E+02 -0.71995086583E+02 -0.47538728419E+02  0.90404983304E+02  0.00000000000E+00 0.  1.
         11    1    1    2    0    0  0.36128250161E+02 -0.26321816504E+02 -0.14871569719E+03  0.15528827088E+03  0.00000000000E+00 0. -1.
<mgrwt>
<rscale>  0 0.16495473E+03</rscale>
<asrwt>0</asrwt>
<pdfrwt beam="2">  1        2 0.10229827E+00 0.17109863E+03</pdfrwt>
<pdfrwt beam="1">  1       -2 0.63391143E-02 0.17109863E+03</pdfrwt>
<totfact> 0.59276175E+03</totfact>
</mgrwt>
</event>
<event>
 7    1  0.6008063E-006  0.1447484E+03  0.7546771E-02  0.1216786E+00
          1   -1    0    0  501    0  0.00000000000E+00  0.00000000000E+00  0.68276662251E+03  0.68276662251E+03  0.00000000000E+00 0. -1.
         -1   -1    0    0    0  501 -0.00000000000E+00 -0.00000000000E+00 -0.27344778256E+02  0.27344778256E+02  0.00000000000E+00 0.  1.
         23    2    1    2    0    0 -0.71758747910E+02  0.13204606679E+02  0.45717326602E+03  0.47954093092E+03  0.12501371814E+03 0.  0.
          5    1    3    3  502    0 -0.56553578716E+01  0.48763339359E+02  0.73136322626E+02  0.88209172002E+02  0.47000000000E+01 0.  1.
         -5    1    3    3    0  502 -0.66103390039E+02 -0.35558732680E+02  0.38403694340E+03  0.39133175892E+03  0.47000000000E+01 0.  1.
        -11    1    1    2    0    0 -0.13944925115E+02 -0.24816968019E+02  0.29769080049E+02  0.41189087938E+02  0.00000000000E+00 0.  1.
         11    1    1    2    0    0  0.85703673025E+02  0.11612361340E+02  0.16847949818E+03  0.18938138191E+03  0.00000000000E+00 0. -1.
<mgrwt>
<rscale>  0 0.13746172E+03</rscale>
<asrwt>0</asrwt>
<pdfrwt beam="1">  1        1 0.10504101E+00 0.14474843E+03</pdfrwt>
<pdfrwt beam="2">  1       -1 0.42068895E-02 0.14474843E+03</pdfrwt>
<totfact> 0.64553849E+03</totfact>
</mgrwt>
</event>
<event>
 7    1  0.6008063E-006  0.1354000E+03  0.7546771E-02  0.1230575E+00
          2   -1    0    0  501    0  0.00000000000E+00  0.00000000000E+00  0.73391601445E+03  0.73391601445E+03  0.00000000000E+00 0. -1.
         -2   -1    0    0    0  501 -0.00000000000E+00 -0.00000000000E+00 -0.22826684191E+02  0.22826684191E+02  0.00000000000E+00 0.  1.
         23    2    1    2    0    0 -0.26668826659E+02  0.44688502914E+02  0.51969018445E+03  0.53703915920E+03  0.12499952841E+03 0.  0.
          5    1    3    3  502    0 -0.27470961663E+02 -0.34058219147E+02  0.90194494627E+02  0.10035812318E+03  0.47000000000E+01 0. -1.
         -5    1    3    3    0  502  0.80213500372E+00  0.78746722061E+02  0.42949568982E+03  0.43668103603E+03  0.47000000000E+01 0. -1.
        -11    1    1    2    0    0  0.31522079246E+00 -0.70479084483E+02  0.13557779995E+03  0.15280294681E+03  0.00000000000E+00 0.  1.
         11    1    1    2    0    0  0.26353605867E+02  0.25790581570E+02  0.55821345861E+02  0.66900592625E+02  0.00000000000E+00 0. -1.
<mgrwt>
<rscale>  0 0.12792034E+03</rscale>
<asrwt>0</asrwt>
<pdfrwt beam="1">  1        2 0.11291014E+00 0.13540004E+03</pdfrwt>
<pdfrwt beam="2">  1       -2 0.35117981E-02 0.13540004E+03</pdfrwt>
<totfact> 0.12627684E+04</totfact>
</mgrwt>
</event>
<event>
 7    1  0.6008063E-006  0.1259956E+03  0.7546771E-02  0.1248769E+00
          2   -1    0    0  501    0  0.00000000000E+00  0.00000000000E+00  0.90820829654E+03  0.90820829654E+03  0.00000000000E+00 0.  1.
         -2   -1    0    0    0  501 -0.00000000000E+00 -0.00000000000E+00 -0.14973303583E+02  0.14973303583E+02  0.00000000000E+00 0. -1.
         23    2    1    2    0    0 -0.58170115112E+01  0.14724271648E+02  0.66652979152E+03  0.67833387776E+03  0.12499697974E+03 0.  0.
          5    1    3    3  502    0 -0.33890406190E+02  0.58773890513E+02  0.47133969248E+03  0.47622066896E+03  0.47000000000E+01 0.  1.
         -5    1    3    3    0  502  0.28073394679E+02 -0.44049618865E+02  0.19519009904E+03  0.20211320880E+03  0.47000000000E+01 0.  1.
        -11    1    1    2    0    0  0.45326960808E+02 -0.24742833229E+02  0.13213014081E+03  0.14186301591E+03  0.00000000000E+00 0.  1.
         11    1    1    2    0    0 -0.39509949297E+02  0.10018561581E+02  0.94575060631E+02  0.10298470645E+03  0.00000000000E+00 0. -1.
<mgrwt>
<rscale>  0 0.11662590E+03</rscale>
<asrwt>0</asrwt>
<pdfrwt beam="1">  1        2 0.13972431E+00 0.12599558E+03</pdfrwt>
<pdfrwt beam="2">  1       -2 0.23035859E-02 0.12599558E+03</pdfrwt>
<totfact> 0.17846265E+04</totfact>
</mgrwt>
</event>
<event>
 7    1  0.6008063E-006  0.1981012E+03  0.7546771E-02  0.1155652E+00
         -1   -1    0    0    0  501 -0.00000000000E+00  0.00000000000E+00  0.46054972277E+03  0.46054972277E+03  0.00000000000E+00 0.  1.
          1   -1    0    0  501    0  0.00000000000E+00 -0.00000000000E+00 -0.82021226975E+02  0.82021226975E+02  0.00000000000E+00 0. -1.
         23    2    1    2    0    0  0.15171660876E+03  0.23624100716E+02  0.13259681050E+03  0.23838201438E+03  0.12517205405E+03 0.  0.
          5    1    3    3  502    0  0.56050928803E+02  0.71567340492E+01  0.12924747816E+03  0.14113796822E+03  0.47000000000E+01 0.  1.
         -5    1    3    3    0  502  0.95665679957E+02  0.16467366667E+02  0.33493323400E+01  0.97244046160E+02  0.47000000000E+01 0.  1.
        -11    1    1    2    0    0 -0.19253299242E+02 -0.40585682983E+02  0.51880590866E+02  0.68625672336E+02  0.00000000000E+00 0.  1.
         11    1    1    2    0    0 -0.13246330952E+03  0.16961582266E+02  0.19405109443E+03  0.23556326303E+03  0.00000000000E+00 0. -1.
<mgrwt>
<rscale>  0 0.19314846E+03</rscale>
<asrwt>0</asrwt>
<pdfrwt beam="2">  1        1 0.12618651E-01 0.19810116E+03</pdfrwt>
<pdfrwt beam="1">  1       -1 0.70853802E-01 0.19810116E+03</pdfrwt>
<totfact> 0.97631081E+02</totfact>
</mgrwt>
</event>
<event>
 7    1  0.6008063E-006  0.2231452E+03  0.7546771E-02  0.1134766E+00
          2   -1    0    0  501    0  0.00000000000E+00  0.00000000000E+00  0.84802240055E+03  0.84802240055E+03  0.00000000000E+00 0. -1.
         -2   -1    0    0    0  501 -0.00000000000E+00 -0.00000000000E+00 -0.56397597859E+02  0.56397597859E+02  0.00000000000E+00 0.  1.
         23    2    1    2    0    0 -0.38400414615E+02 -0.18081915684E+03  0.49622685643E+03  0.54409085182E+03  0.12499441053E+03 0.  0.
          5    1    3    3  502    0  0.27855167773E+02 -0.12244668390E+03  0.21219829499E+03  0.24661570746E+03  0.47000000000E+01 0. -1.
         -5    1    3    3    0  502 -0.66255582388E+02 -0.58372472944E+02  0.28402856144E+03  0.29747514436E+03  0.47000000000E+01 0. -1.
        -11    1    1    2    0    0 -0.87075275515E+01  0.13278459460E+03  0.15256641388E+03  0.20244525246E+03  0.00000000000E+00 0.  1.
         11    1    1    2    0    0  0.47107942167E+02  0.48034562243E+02  0.14283153238E+03  0.15788389414E+03  0.00000000000E+00 0. -1.
<mgrwt>
<rscale>  0 0.21882033E+03</rscale>
<asrwt>0</asrwt>
<pdfrwt beam="1">  1        2 0.13046498E+00 0.22314516E+03</pdfrwt>
<pdfrwt beam="2">  1       -2 0.86765541E-02 0.22314516E+03</pdfrwt>
<totfact> 0.27213813E+03</totfact>
</mgrwt>
</event>
<event>
 7    1  0.6008063E-006  0.1643119E+03  0.7546771E-02  0.1191365E+00
          1   -1    0    0  501    0  0.00000000000E+00  0.00000000000E+00  0.50603461015E+03  0.50603461015E+03  0.00000000000E+00 0. -1.
         -1   -1    0    0    0  501 -0.00000000000E+00 -0.00000000000E+00 -0.51378609884E+02  0.51378609884E+02  0.00000000000E+00 0.  1.
         23    2    1    2    0    0 -0.10558438752E+03 -0.15006533479E+02  0.33767304904E+03  0.37552827941E+03  0.12500056663E+03 0.  0.
          5    1    3    3  502    0  0.24280918467E+02 -0.13506259019E+02  0.28157437443E+02  0.39836080601E+02  0.47000000000E+01 0.  1.
         -5    1    3    3    0  502 -0.12986530599E+03 -0.15002744595E+01  0.30951561160E+03  0.33569219881E+03  0.47000000000E+01 0.  1.
        -11    1    1    2    0    0  0.84393757470E+02 -0.29731277529E+02  0.80894383457E+02  0.12062402927E+03  0.00000000000E+00 0.  1.
         11    1    1    2    0    0  0.21190630049E+02  0.44737811007E+02  0.36088567773E+02  0.61260911351E+02  0.00000000000E+00 0. -1.
<mgrwt>
<rscale>  0 0.15765906E+03</rscale>
<asrwt>0</asrwt>
<pdfrwt beam="1">  1        1 0.77851475E-01 0.16431190E+03</pdfrwt>
<pdfrwt beam="2">  1       -1 0.79044019E-02 0.16431190E+03</pdfrwt>
<totfact> 0.38100033E+03</totfact>
</mgrwt>
</event>
<event>
 7    1  0.6008063E-006  0.1347051E+03  0.7546771E-02  0.1233550E+00
          1   -1    0    0  501    0  0.00000000000E+00  0.00000000000E+00  0.95436937814E+03  0.95436937814E+03  0.00000000000E+00 0. -1.
         -1   -1    0    0    0  501 -0.00000000000E+00 -0.00000000000E+00 -0.16882246620E+02  0.16882246620E+02  0.00000000000E+00 0.  1.
         23    2    1    2    0    0 -0.12580981734E+02  0.48602527305E+02  0.69243971962E+03  0.70542059814E+03  0.12499987281E+03 0.  0.
          5    1    3    3  502    0 -0.62856095000E+02  0.29899590033E+01  0.41431723244E+03  0.41909508185E+03  0.47000000000E+01 0. -1.
         -5    1    3    3    0  502  0.50275113266E+02  0.45612568302E+02  0.27812248718E+03  0.28632551628E+03  0.47000000000E+01 0. -1.
        -11    1    1    2    0    0 -0.15101438108E+02 -0.35217107158E+02  0.22692858896E+03  0.23014100581E+03  0.00000000000E+00 0. -1.
         11    1    1    2    0    0  0.27682419842E+02 -0.13385420147E+02  0.18118822939E+02  0.35690020811E+02  0.00000000000E+00 0.  1.
<mgrwt>
<rscale>  0 0.12597744E+03</rscale>
<asrwt>0</asrwt>
<pdfrwt beam="1">  1        1 0.14682602E+00 0.13470507E+03</pdfrwt>
<pdfrwt beam="2">  1       -1 0.25972695E-02 0.13470507E+03</pdfrwt>
<totfact> 0.78218669E+03</totfact>
</mgrwt>
</event>
<event>
 7    1  0.6008063E-006  0.1469055E+03  0.7546771E-02  0.1212722E+00
         -1   -1    0    0    0  501 -0.00000000000E+00  0.00000000000E+00  0.16584131083E+02  0.16584131083E+02  0.00000000000E+00 0.  1.
          1   -1    0    0  501    0  0.00000000000E+00 -0.00000000000E+00 -0.11282700888E+04  0.11282700888E+04  0.00000000000E+00 0. -1.
         23    2    1    2    0    0  0.12749816698E+02  0.76117973400E+02 -0.50791480279E+03  0.52873306925E+03  0.12499883173E+03 0.  0.
          5    1    3    3  502    0 -0.45892025696E+02  0.74482642135E+02 -0.32359777456E+03  0.33524819418E+03  0.47000000000E+01 0. -1.
         -5    1    3    3    0  502  0.58641842394E+02  0.16353312647E+01 -0.18431702823E+03  0.19348487508E+03  0.47000000000E+01 0. -1.
        -11    1    1    2    0    0 -0.29448960181E+02 -0.88325358742E+02 -0.56025735852E+03  0.56794094590E+03  0.00000000000E+00 0. -1.
         11    1    1    2    0    0  0.16699143483E+02  0.12207385342E+02 -0.43513796442E+02  0.48180204761E+02  0.00000000000E+00 0.  1.
<mgrwt>
<rscale>  0 0.14045169E+03</rscale>
<asrwt>0</asrwt>
<pdfrwt beam="2">  1        1 0.17358003E+00 0.14690545E+03</pdfrwt>
<pdfrwt beam="1">  1       -1 0.25514046E-02 0.14690545E+03</pdfrwt>
<totfact> 0.60365266E+03</totfact>
</mgrwt>
</event>
<event>
 7    1  0.6008063E-006  0.1325277E+03  0.7546771E-02  0.1237535E+00
          2   -1    0    0  501    0  0.00000000000E+00  0.00000000000E+00  0.65205510256E+02  0.65205510256E+02  0.00000000000E+00 0. -1.
         -2   -1    0    0    0  501 -0.00000000000E+00 -0.00000000000E+00 -0.23876099612E+03  0.23876099612E+03  0.00000000000E+00 0.  1.
         23    2    1    2    0    0 -0.39928297982E+02 -0.18549772289E+02 -0.42290783011E+02  0.13911185205E+03  0.12500093608E+03 0.  0.
          5    1    3    3  502    0 -0.47061566648E+02 -0.51245512232E+01 -0.82853395720E+02  0.95539663297E+02  0.47000000000E+01 0. -1.
         -5    1    3    3    0  502  0.71332686657E+01 -0.13425221066E+02  0.40562612709E+02  0.43572188749E+02  0.47000000000E+01 0. -1.
        -11    1    1    2    0    0  0.25635962053E+02 -0.20031380405E+02 -0.60996231781E+01  0.33100818030E+02  0.00000000000E+00 0. -1.
         11    1    1    2    0    0  0.14292335929E+02  0.38581152694E+02 -0.12516507967E+03  0.13175383630E+03  0.00000000000E+00 0.  1.
<mgrwt>
<rscale>  0 0.12343536E+03</rscale>
<asrwt>0</asrwt>
<pdfrwt beam="1">  1        2 0.10031617E-01 0.13252772E+03</pdfrwt>
<pdfrwt beam="2">  1       -2 0.36732461E-01 0.13252772E+03</pdfrwt>
<totfact> 0.42617570E+03</totfact>
</mgrwt>
</event>
<event>
 7    1  0.6008063E-006  0.1382917E+03  0.7546771E-02  0.1227728E+00
          3   -1    0    0  501    0  0.00000000000E+00  0.00000000000E+00  0.27597614215E+03  0.27597614215E+03  0.00000000000E+00 0. -1.
         -3   -1    0    0    0  501 -0.00000000000E+00 -0.00000000000E+00 -0.55454487903E+02  0.55454487903E+02  0.00000000000E+00 0.  1.
         23    2    1    2    0    0 -0.35179096256E+02 -0.47321541534E+02  0.14343119735E+03  0.19924134734E+03  0.12509080307E+03 0.  0.
          5    1    3    3  502    0  0.19742502729E+02  0.84367867445E+01  0.11303166976E+03  0.11514857426E+03  0.47000000000E+01 0. -1.
         -5    1    3    3    0  502 -0.54921598985E+02 -0.55758328279E+02  0.30399527582E+02  0.84092773083E+02  0.47000000000E+01 0. -1.
        -11    1    1    2    0    0 -0.41905086436E+00  0.29078640441E+02  0.86363188030E+02  0.91128168973E+02  0.00000000000E+00 0. -1.
         11    1    1    2    0    0  0.35598147120E+02  0.18242901093E+02 -0.92727311292E+01  0.41061113737E+02  0.00000000000E+00 0.  1.
<mgrwt>
<rscale>  0 0.12981679E+03</rscale>
<asrwt>0</asrwt>
<pdfrwt beam="1">  1        3 0.42457867E-01 0.13829174E+03</pdfrwt>
<pdfrwt beam="2">  1       -3 0.85314599E-02 0.13829174E+03</pdfrwt>
<totfact> 0.12257237E+03</totfact>
</mgrwt>
</event>
<event>
 7    1  0.6008063E-006  0.1435533E+03  0.7546771E-02  0.1218965E+00
          1   -1    0    0  501    0  0.00000000000E+00  0.00000000000E+00  0.82647440136E+03  0.82647440136E+03  0.00000000000E+00 0. -1.
         -1   -1    0    0    0  501 -0.00000000000E+00 -0.00000000000E+00 -0.21999297667E+02  0.21999297667E+02  0.00000000000E+00 0.  1.
         23    2    1    2    0    0 -0.51226319744E+02 -0.48569000227E+02  0.56117497834E+03  0.57924512214E+03  0.12499788637E+03 0.  0.
          5    1    3    3  502    0  0.28255971694E+02 -0.45846421035E+02  0.13033645576E+03  0.14110271421E+03  0.47000000000E+01 0. -1.
         -5    1    3    3    0  502 -0.79482291439E+02 -0.27225791916E+01  0.43083852258E+03  0.43814240793E+03  0.47000000000E+01 0. -1.
        -11    1    1    2    0    0  0.26760870893E+02  0.68660544910E+02  0.11129468100E+03  0.13348003842E+03  0.00000000000E+00 0.  1.
         11    1    1    2    0    0  0.24465448851E+02 -0.20091544683E+02  0.13200544436E+03  0.13574853846E+03  0.00000000000E+00 0. -1.
<mgrwt>
<rscale>  0 0.13589290E+03</rscale>
<asrwt>0</asrwt>
<pdfrwt beam="1">  1        1 0.12714988E+00 0.14355332E+03</pdfrwt>
<pdfrwt beam="2">  1       -1 0.33845080E-02 0.14355332E+03</pdfrwt>
<totfact> 0.67024802E+03</totfact>
</mgrwt>
</event>
<event>
 7    1  0.6008063E-006  0.1388453E+03  0.7546771E-02  0.1227984E+00
         -2   -1    0    0    0  501 -0.00000000000E+00  0.00000000000E+00  0.73355334604E+02  0.73355334604E+02  0.00000000000E+00 0.  1.
          2   -1    0    0  501    0  0.00000000000E+00 -0.00000000000E+00 -0.28827125480E+03  0.28827125480E+03  0.00000000000E+00 0. -1.
         23    2    1    2    0    0  0.54971914047E+02 -0.25131403286E+02 -0.21517655376E+03  0.25608389219E+03  0.12499804713E+03 0.  0.
          5    1    3    3  502    0  0.91766667294E+02 -0.19602142941E+02 -0.18665241552E+03  0.20896549824E+03  0.47000000000E+01 0.  1.
         -5    1    3    3    0  502 -0.36794753247E+02 -0.55292603447E+01 -0.28524138241E+02  0.47118393954E+02  0.47000000000E+01 0.  1.
        -11    1    1    2    0    0 -0.27685204769E+02 -0.28580181100E+02 -0.16397273412E+02  0.43036820167E+02  0.00000000000E+00 0.  1.
         11    1    1    2    0    0 -0.27286709278E+02  0.53711584386E+02  0.16657906975E+02  0.62505877046E+02  0.00000000000E+00 0. -1.
<mgrwt>
<rscale>  0 0.12964478E+03</rscale>
<asrwt>0</asrwt>
<pdfrwt beam="2">  1        2 0.44349423E-01 0.13884528E+03</pdfrwt>
<pdfrwt beam="1">  1       -2 0.11285436E-01 0.13884528E+03</pdfrwt>
<totfact> 0.59659825E+03</totfact>
</mgrwt>
</event>
<event>
 7    1  0.6008063E-006  0.1823443E+03  0.7546771E-02  0.1171463E+00
          2   -1    0    0  501    0  0.00000000000E+00  0.00000000000E+00  0.52535260209E+03  0.52535260209E+03  0.00000000000E+00 0. -1.
         -2   -1    0    0    0  501 -0.00000000000E+00 -0.00000000000E+00 -0.57345707126E+02  0.57345707126E+02  0.00000000000E+00 0.  1.
         23    2    1    2    0    0 -0.53651761641E+02 -0.12144011095E+03  0.30117345636E+03  0.35207228329E+03  0.12499291888E+03 0.  0.
          5    1    3    3  502    0 -0.21357268919E+02 -0.32308781531E+02  0.23038350853E+03  0.23366352155E+03  0.47000000000E+01 0.  1.
         -5    1    3    3    0  502 -0.32294492722E+02 -0.89131329415E+02  0.70789947834E+02  0.11840876174E+03  0.47000000000E+01 0.  1.
        -11    1    1    2    0    0  0.24847533103E+02  0.45781611608E+02  0.84759062914E+01  0.52774964237E+02  0.00000000000E+00 0.  1.
         11    1    1    2    0    0  0.28804228538E+02  0.75658499338E+02  0.15835753231E+03  0.17785106168E+03  0.00000000000E+00 0. -1.
<mgrwt>
<rscale>  0 0.17626944E+03</rscale>
<asrwt>0</asrwt>
<pdfrwt beam="1">  1        2 0.80823474E-01 0.18234429E+03</pdfrwt>
<pdfrwt beam="2">  1       -2 0.88224168E-02 0.18234429E+03</pdfrwt>
<totfact> 0.46702825E+03</totfact>
</mgrwt>
</event>
<event>
 7    1  0.6008063E-006  0.1280498E+03  0.7546771E-02  0.1245002E+00
         -2   -1    0    0    0  501 -0.00000000000E+00  0.00000000000E+00  0.17856160196E+03  0.17856160196E+03  0.00000000000E+00 0.  1.
          2   -1    0    0  501    0  0.00000000000E+00 -0.00000000000E+00 -0.69909907242E+02  0.69909907242E+02  0.00000000000E+00 0. -1.
         23    2    1    2    0    0  0.12125543510E+02 -0.25024985119E+02  0.69396505233E+02  0.14564550936E+03  0.12499384294E+03 0.  0.
          5    1    3    3  502    0  0.42872106222E+02  0.70405126324E+01  0.87214818223E+02  0.97550503985E+02  0.47000000000E+01 0. -1.
         -5    1    3    3    0  502 -0.30746562712E+02 -0.32065497751E+02 -0.17818312990E+02  0.48095005380E+02  0.47000000000E+01 0. -1.
        -11    1    1    2    0    0 -0.39738451820E+02  0.16794177676E+02  0.55071023807E+02  0.69957177044E+02  0.00000000000E+00 0.  1.
         11    1    1    2    0    0  0.27612908310E+02  0.82308074425E+01 -0.15815834323E+02  0.32868822793E+02  0.00000000000E+00 0. -1.
<mgrwt>
<rscale>  0 0.11885251E+03</rscale>
<asrwt>0</asrwt>
<pdfrwt beam="2">  1        2 0.10755370E-01 0.12804975E+03</pdfrwt>
<pdfrwt beam="1">  1       -2 0.27471015E-01 0.12804975E+03</pdfrwt>
<totfact> 0.66149391E+03</totfact>
</mgrwt>
</event>
<event>
 7    1  0.6008063E-006  0.1350602E+03  0.7546771E-02  0.1232472E+00
         -1   -1    0    0    0  501 -0.00000000000E+00  0.00000000000E+00  0.55549736567E+03  0.55549736567E+03  0.00000000000E+00 0.  1.
          1   -1    0    0  501    0  0.00000000000E+00 -0.00000000000E+00 -0.26135204022E+02  0.26135204022E+02  0.00000000000E+00 0. -1.
         23    2    1    2    0    0 -0.49931577512E+02 -0.11117763726E+02  0.26698458964E+03  0.29920234151E+03  0.12499801180E+03 0.  0.
          5    1    3    3  502    0 -0.45607450403E+02 -0.38759835448E+02  0.44034942947E+02  0.74454889540E+02  0.47000000000E+01 0. -1.
         -5    1    3    3    0  502 -0.43241271095E+01  0.27642071721E+02  0.22294964669E+03  0.22474745197E+03  0.47000000000E+01 0. -1.
        -11    1    1    2    0    0 -0.38095063228E+01 -0.33145936319E+02  0.63733939464E+02  0.71938727209E+02  0.00000000000E+00 0.  1.
         11    1    1    2    0    0  0.53741083835E+02  0.44263700045E+02  0.19864363254E+03  0.21049150098E+03  0.00000000000E+00 0. -1.
<mgrwt>
<rscale>  0 0.12667694E+03</rscale>
<asrwt>0</asrwt>
<pdfrwt beam="2">  1        1 0.40208010E-02 0.13506025E+03</pdfrwt>
<pdfrwt beam="1">  1       -1 0.85461124E-01 0.13506025E+03</pdfrwt>
<totfact> 0.30856565E+03</totfact>
</mgrwt>
</event>
<event>
 7    1  0.6008063E-006  0.1311860E+03  0.7546771E-02  0.1238183E+00
          1   -1    0    0  501    0  0.00000000000E+00  0.00000000000E+00  0.12890986223E+03  0.12890986223E+03  0.00000000000E+00 0. -1.
         -1   -1    0    0    0  501 -0.00000000000E+00 -0.00000000000E+00 -0.16168236809E+03  0.16168236809E+03  0.00000000000E+00 0.  1.
         23    2    1    2    0    0 -0.38105138853E+02 -0.11472448568E+02  0.67843357383E+02  0.14769052658E+03  0.12500460718E+03 0.  0.
          5    1    3    3  502    0  0.39211372025E+02 -0.25716171412E+02  0.46240121246E+02  0.66023419944E+02  0.47000000000E+01 0. -1.
         -5    1    3    3    0  502 -0.77316510878E+02  0.14243722844E+02  0.21603236137E+02  0.81667106637E+02  0.47000000000E+01 0. -1.
        -11    1    1    2    0    0 -0.76765706041E+01 -0.34958940619E+02 -0.42422631758E+02  0.55504386770E+02  0.00000000000E+00 0. -1.
         11    1    1    2    0    0  0.45781709457E+02  0.46431389187E+02 -0.58193231488E+02  0.87397316971E+02  0.00000000000E+00 0.  1.
<mgrwt>
<rscale>  0 0.12302867E+03</rscale>
<asrwt>0</asrwt>
<pdfrwt beam="1">  1        1 0.19832287E-01 0.13118601E+03</pdfrwt>
<pdfrwt beam="2">  1       -1 0.24874210E-01 0.13118601E+03</pdfrwt>
<totfact> 0.34833414E+03</totfact>
</mgrwt>
</event>
<event>
 7    1  0.6008063E-006  0.1398312E+03  0.7546771E-02  0.1225940E+00
          2   -1    0    0  501    0  0.00000000000E+00  0.00000000000E+00  0.12277399578E+03  0.12277399578E+03  0.00000000000E+00 0. -1.
         -2   -1    0    0    0  501 -0.00000000000E+00 -0.00000000000E+00 -0.12868100721E+03  0.12868100721E+03  0.00000000000E+00 0.  1.
         23    2    1    2    0    0 -0.50838923995E+02 -0.36754334434E+02  0.18140808658E+02  0.14100297763E+03  0.12496909005E+03 0.  0.
          5    1    3    3  502    0 -0.48985185971E+02 -0.78463376362E+02  0.29985583068E+02  0.97351297201E+02  0.47000000000E+01 0. -1.
         -5    1    3    3    0  502 -0.18537380237E+01  0.41709041928E+02 -0.11844774410E+02  0.43651680426E+02  0.47000000000E+01 0. -1.
        -11    1    1    2    0    0  0.69753278124E+02  0.28661036150E+02  0.41739988455E+01  0.75527459037E+02  0.00000000000E+00 0. -1.
         11    1    1    2    0    0 -0.18914354129E+02  0.80932982838E+01 -0.28221818934E+02  0.34924566328E+02  0.00000000000E+00 0.  1.
<mgrwt>
<rscale>  0 0.13102677E+03</rscale>
<asrwt>0</asrwt>
<pdfrwt beam="1">  1        2 0.18888307E-01 0.13983115E+03</pdfrwt>
<pdfrwt beam="2">  1       -2 0.19797078E-01 0.13983115E+03</pdfrwt>
<totfact> 0.60435953E+03</totfact>
</mgrwt>
</event>
<event>
 7    1  0.6008063E-006  0.1394977E+03  0.7546771E-02  0.1220098E+00
         -3   -1    0    0    0  501 -0.00000000000E+00  0.00000000000E+00  0.81870130551E+02  0.81870130551E+02  0.00000000000E+00 0.  1.
          3   -1    0    0  501    0  0.00000000000E+00 -0.00000000000E+00 -0.22848619842E+03  0.22848619842E+03  0.00000000000E+00 0. -1.
         23    2    1    2    0    0  0.36859266403E+02  0.49770270108E+02 -0.12182350880E+03  0.18520415291E+03  0.12499570254E+03 0.  0.
          5    1    3    3  502    0  0.65873946317E+02  0.73419571205E+02 -0.69747949067E+02  0.12089944846E+03  0.47000000000E+01 0. -1.
         -5    1    3    3    0  502 -0.29014679914E+02 -0.23649301097E+02 -0.52075559733E+02  0.64304704450E+02  0.47000000000E+01 0. -1.
        -11    1    1    2    0    0 -0.58268073755E+02 -0.51584535917E+02  0.15629144940E+02  0.79375077552E+02  0.00000000000E+00 0.  1.
         11    1    1    2    0    0  0.21408807352E+02  0.18142658091E+01 -0.40421704004E+02  0.45777098502E+02  0.00000000000E+00 0. -1.
<mgrwt>
<rscale>  0 0.13508639E+03</rscale>
<asrwt>0</asrwt>
<pdfrwt beam="2">  1        3 0.35151723E-01 0.13949771E+03</pdfrwt>
<pdfrwt beam="1">  1       -3 0.12595405E-01 0.13949771E+03</pdfrwt>
<totfact> 0.92382574E+02</totfact>
</mgrwt>
</event>
<event>
 7    1  0.6008063E-006  0.1443645E+03  0.7546771E-02  0.1217591E+00
          4   -1    0    0  501    0  0.00000000000E+00  0.00000000000E+00  0.34524198046E+02  0.34524198046E+02  0.00000000000E+00 0. -1.
         -4   -1    0    0    0  501 -0.00000000000E+00 -0.00000000000E+00 -0.51420940684E+03  0.51420940684E+03  0.00000000000E+00 0.  1.
         23    2    1    2    0    0  0.48580294762E+02  0.53435558376E+02 -0.20939578644E+03  0.25433775357E+03  0.12500277427E+03 0.  0.
          5    1    3    3  502    0  0.29451528006E+02 -0.32276407909E+01  0.61306434694E+01  0.30618376121E+02  0.47000000000E+01 0. -1.
         -5    1    3    3    0  502  0.19128766756E+02  0.56663199167E+02 -0.21552642991E+03  0.22371937745E+03  0.47000000000E+01 0. -1.
        -11    1    1    2    0    0 -0.33692160919E+02  0.16358030319E+02 -0.47703138930E+02  0.60649289584E+02  0.00000000000E+00 0. -1.
         11    1    1    2    0    0 -0.14888133843E+02 -0.69793588694E+02 -0.22258628343E+03  0.23374656173E+03  0.00000000000E+00 0.  1.
<mgrwt>
<rscale>  0 0.13687926E+03</rscale>
<asrwt>0</asrwt>
<pdfrwt beam="1">  1        4 0.53114152E-02 0.14436446E+03</pdfrwt>
<pdfrwt beam="2">  1       -4 0.79109138E-01 0.14436446E+03</pdfrwt>
<totfact> 0.53017198E+02</totfact>
</mgrwt>
</event>
<event>
 7    1  0.6008063E-006  0.2174172E+03  0.7546771E-02  0.1139536E+00
          2   -1    0    0  501    0  0.00000000000E+00  0.00000000000E+00  0.67633894477E+03  0.67633894477E+03  0.00000000000E+00 0. -1.
         -2   -1    0    0    0  501 -0.00000000000E+00 -0.00000000000E+00 -0.64025522748E+02  0.64025522748E+02  0.00000000000E+00 0.  1.
         23    2    1    2    0    0 -0.56499763961E+02 -0.16867995239E+03  0.32573753190E+03  0.39163145373E+03  0.12500042480E+03 0.  0.
          5    1    3    3  502    0 -0.17580228009E+02 -0.83451331091E+02  0.26845068549E+03  0.28171093273E+03  0.47000000000E+01 0.  1.
         -5    1    3    3    0  502 -0.38919535952E+02 -0.85228621296E+02  0.57286846405E+02  0.10992052100E+03  0.47000000000E+01 0.  1.
        -11    1    1    2    0    0 -0.20684536212E+01  0.22352743662E+02  0.10904776182E+03  0.11133435232E+03  0.00000000000E+00 0. -1.
         11    1    1    2    0    0  0.58568217582E+02  0.14632720873E+03  0.17752812831E+03  0.23739866146E+03  0.00000000000E+00 0.  1.
<mgrwt>
<rscale>  0 0.21258370E+03</rscale>
<asrwt>0</asrwt>
<pdfrwt beam="1">  1        2 0.10405214E+00 0.21741724E+03</pdfrwt>
<pdfrwt beam="2">  1       -2 0.98500809E-02 0.21741724E+03</pdfrwt>
<totfact> 0.29499612E+03</totfact>
</mgrwt>
</event>
<event>
 7    1  0.6008063E-006  0.1837471E+03  0.7546771E-02  0.1169668E+00
          2   -1    0    0  501    0  0.00000000000E+00  0.00000000000E+00  0.34278476681E+03  0.34278476681E+03  0.00000000000E+00 0. -1.
         -2   -1    0    0    0  501 -0.00000000000E+00 -0.00000000000E+00 -0.87605715705E+02  0.87605715705E+02  0.00000000000E+00 0.  1.
         23    2    1    2    0    0  0.11361605902E+03  0.72315426823E+02  0.14924597644E+03  0.23672211172E+03  0.12499946748E+03 0.  0.
          5    1    3    3  502    0  0.17941181570E+02  0.67168346742E+02  0.14266937399E+02  0.71127408943E+02  0.47000000000E+01 0.  1.
         -5    1    3    3    0  502  0.95674877446E+02  0.51470800810E+01  0.13497903904E+03  0.16559470278E+03  0.47000000000E+01 0.  1.
        -11    1    1    2    0    0 -0.49978305104E+02 -0.13996758659E+02  0.92840282351E+02  0.10636286129E+03  0.00000000000E+00 0. -1.
         11    1    1    2    0    0 -0.63637753912E+02 -0.58318668164E+02  0.13092792311E+02  0.87305509505E+02  0.00000000000E+00 0.  1.
<mgrwt>
<rscale>  0 0.17808615E+03</rscale>
<asrwt>0</asrwt>
<pdfrwt beam="1">  1        2 0.52736117E-01 0.18374710E+03</pdfrwt>
<pdfrwt beam="2">  1       -2 0.13477803E-01 0.18374710E+03</pdfrwt>
<totfact> 0.37842383E+03</totfact>
</mgrwt>
</event>
<event>
 7    1  0.6008063E-006  0.1725981E+03  0.7546771E-02  0.1176509E+00
          2   -1    0    0  501    0  0.00000000000E+00  0.00000000000E+00  0.60121336354E+03  0.60121336354E+03  0.00000000000E+00 0. -1.
         -2   -1    0    0    0  501 -0.00000000000E+00 -0.00000000000E+00 -0.48713943524E+02  0.48713943524E+02  0.00000000000E+00 0.  1.
         23    2    1    2    0    0 -0.34717597808E+02  0.10594621566E+03  0.30927686455E+03  0.35168694401E+03  0.12490642670E+03 0.  0.
          5    1    3    3  502    0 -0.30018828041E+02  0.15193901062E+02  0.22535348540E+03  0.22789968857E+03  0.47000000000E+01 0.  1.
         -5    1    3    3    0  502 -0.46987697666E+01  0.90752314593E+02  0.83923379143E+02  0.12378725543E+03  0.47000000000E+01 0.  1.
        -11    1    1    2    0    0  0.57535248523E+02 -0.62023919540E+02  0.48906287080E+02  0.97719477760E+02  0.00000000000E+00 0.  1.
         11    1    1    2    0    0 -0.22817650715E+02 -0.43922296115E+02  0.19431626839E+03  0.20052088530E+03  0.00000000000E+00 0. -1.
<mgrwt>
<rscale>  0 0.17129033E+03</rscale>
<asrwt>0</asrwt>
<pdfrwt beam="1">  1        2 0.92494358E-01 0.17259810E+03</pdfrwt>
<pdfrwt beam="2">  1       -2 0.74944533E-02 0.17259810E+03</pdfrwt>
<totfact> 0.51541244E+03</totfact>
</mgrwt>
</event>
<event>
 7    1  0.6008063E-006  0.2989126E+03  0.7546771E-02  0.1087288E+00
         -1   -1    0    0    0  501 -0.00000000000E+00  0.00000000000E+00  0.35883002612E+03  0.35883002612E+03  0.00000000000E+00 0.  1.
          1   -1    0    0  501    0  0.00000000000E+00 -0.00000000000E+00 -0.43553129966E+03  0.43553129966E+03  0.00000000000E+00 0. -1.
         23    2    1    2    0    0  0.82027998294E+02  0.25883507900E+03 -0.30531889107E+03  0.42728022860E+03  0.12499831153E+03 0.  0.
          5    1    3    3  502    0 -0.19376114860E+02  0.13144168748E+03 -0.16793329281E+03  0.21418690872E+03  0.47000000000E+01 0. -1.
         -5    1    3    3    0  502  0.10140411315E+03  0.12739339152E+03 -0.13738559826E+03  0.21309331988E+03  0.47000000000E+01 0. -1.
        -11    1    1    2    0    0  0.83344713974E+01 -0.12753432067E+03  0.10222943059E+03  0.16366222179E+03  0.00000000000E+00 0.  1.
         11    1    1    2    0    0 -0.90362469691E+02 -0.13130075833E+03  0.12638818695E+03  0.20341887539E+03  0.00000000000E+00 0. -1.
<mgrwt>
<rscale>  0 0.29593985E+03</rscale>
<asrwt>0</asrwt>
<pdfrwt beam="2">  1        1 0.67004815E-01 0.29891264E+03</pdfrwt>
<pdfrwt beam="1">  1       -1 0.55204619E-01 0.29891264E+03</pdfrwt>
<totfact> 0.18610408E+02</totfact>
</mgrwt>
</event>
<event>
 7    1  0.6008063E-006  0.1307449E+03  0.7546771E-02  0.1240903E+00
          1   -1    0    0  501    0  0.00000000000E+00  0.00000000000E+00  0.70524228354E+02  0.70524228354E+02  0.00000000000E+00 0. -1.
         -1   -1    0    0    0  501 -0.00000000000E+00 -0.00000000000E+00 -0.19052649437E+03  0.19052649437E+03  0.00000000000E+00 0.  1.
         23    2    1    2    0    0 -0.21461077549E+02  0.31736644950E+02 -0.44415329573E+02  0.13808313934E+03  0.12500575741E+03 0.  0.
          5    1    3    3  502    0 -0.71481365063E-01  0.82777421660E+01  0.43481246598E+02  0.44511065261E+02  0.47000000000E+01 0.  1.
         -5    1    3    3    0  502 -0.21389596184E+02  0.23458902784E+02 -0.87896576172E+02  0.93572074079E+02  0.47000000000E+01 0.  1.
        -11    1    1    2    0    0 -0.17609467881E+02 -0.37535197437E+02 -0.45782445238E+01  0.41712644709E+02  0.00000000000E+00 0. -1.
         11    1    1    2    0    0  0.39070545429E+02  0.57985524877E+01 -0.71008691915E+02  0.81254938672E+02  0.00000000000E+00 0.  1.
<mgrwt>
<rscale>  0 0.12133992E+03</rscale>
<asrwt>0</asrwt>
<pdfrwt beam="1">  1        1 0.10849881E-01 0.13074491E+03</pdfrwt>
<pdfrwt beam="2">  1       -1 0.29311768E-01 0.13074491E+03</pdfrwt>
<totfact> 0.57938070E+03</totfact>
</mgrwt>
</event>
<event>
 7    1  0.6008063E-006  0.1360035E+03  0.7546771E-02  0.1230555E+00
         -1   -1    0    0    0  501 -0.00000000000E+00  0.00000000000E+00  0.73342030799E+01  0.73342030799E+01  0.00000000000E+00 0.  1.
          1   -1    0    0  501    0  0.00000000000E+00 -0.00000000000E+00 -0.22868073699E+04  0.22868073699E+04  0.00000000000E+00 0. -1.
         23    2    1    2    0    0 -0.51854863782E+02  0.13522204579E+02 -0.16618947079E+04  0.16674504421E+04  0.12500071956E+03 0.  0.
          5    1    3    3  502    0 -0.11756363623E+02  0.39757140484E+02 -0.17995659540E+03  0.18473036711E+03  0.47000000000E+01 0.  1.
         -5    1    3    3    0  502 -0.40098500160E+02 -0.26234935905E+02 -0.14819381125E+04  0.14827200750E+04  0.47000000000E+01 0.  1.
        -11    1    1    2    0    0  0.18460779312E+02  0.39602068152E+02 -0.26211841535E+03  0.26573518367E+03  0.00000000000E+00 0. -1.
         11    1    1    2    0    0  0.33394084471E+02 -0.53124272731E+02 -0.35546004355E+03  0.36095594716E+03  0.00000000000E+00 0.  1.
<mgrwt>
<rscale>  0 0.12793301E+03</rscale>
<asrwt>0</asrwt>
<pdfrwt beam="2">  1        1 0.35181678E+00 0.13600352E+03</pdfrwt>
<pdfrwt beam="1">  1       -1 0.11283381E-02 0.13600352E+03</pdfrwt>
<totfact> 0.34517040E+03</totfact>
</mgrwt>
</event>
<event>
 7    1  0.6008063E-006  0.1307396E+03  0.7546771E-02  0.1239666E+00
         -1   -1    0    0    0  501 -0.00000000000E+00  0.00000000000E+00  0.25470406569E+03  0.25470406569E+03  0.00000000000E+00 0.  1.
          1   -1    0    0  501    0  0.00000000000E+00 -0.00000000000E+00 -0.62503093204E+02  0.62503093204E+02  0.00000000000E+00 0. -1.
         23    2    1    2    0    0 -0.16211436740E+02  0.34704550298E+02  0.42504811672E+02  0.13747547731E+03  0.12500252539E+03 0.  0.
          5    1    3    3  502    0 -0.21637950918E+02  0.78544879990E+02  0.95515695106E+01  0.82163383405E+02  0.47000000000E+01 0. -1.
         -5    1    3    3    0  502  0.54265141779E+01 -0.43840329692E+02  0.32953242161E+02  0.55312093908E+02  0.47000000000E+01 0. -1.
        -11    1    1    2    0    0  0.53530157132E+02 -0.18160707556E+02  0.68177781295E+02  0.88563530213E+02  0.00000000000E+00 0.  1.
         11    1    1    2    0    0 -0.37318720392E+02 -0.16543842742E+02  0.81518379519E+02  0.91168151367E+02  0.00000000000E+00 0. -1.
<mgrwt>
<rscale>  0 0.12210399E+03</rscale>
<asrwt>0</asrwt>
<pdfrwt beam="2">  1        1 0.96158606E-02 0.13073962E+03</pdfrwt>
<pdfrwt beam="1">  1       -1 0.39185240E-01 0.13073962E+03</pdfrwt>
<totfact> 0.41408017E+03</totfact>
</mgrwt>
</event>
<event>
 7    1  0.6008063E-006  0.1841281E+03  0.7546771E-02  0.1169188E+00
         -1   -1    0    0    0  501 -0.00000000000E+00  0.00000000000E+00  0.78303100964E+02  0.78303100964E+02  0.00000000000E+00 0.  1.
          1   -1    0    0  501    0  0.00000000000E+00 -0.00000000000E+00 -0.38620582793E+03  0.38620582793E+03  0.00000000000E+00 0. -1.
         23    2    1    2    0    0 -0.12487563848E+03 -0.51809466862E+02 -0.14795210267E+03  0.23620535125E+03  0.12499998933E+03 0.  0.
          5    1    3    3  502    0 -0.37471461874E+02 -0.48662465440E+02 -0.13404583665E+03  0.14752126057E+03  0.47000000000E+01 0. -1.
         -5    1    3    3    0  502 -0.87404176605E+02 -0.31470014215E+01 -0.13906266028E+02  0.88684090685E+02  0.47000000000E+01 0. -1.
        -11    1    1    2    0    0  0.85130280771E+02  0.56761595640E+02 -0.15795793258E+03  0.18820136001E+03  0.00000000000E+00 0. -1.
         11    1    1    2    0    0  0.39745357708E+02 -0.49521287784E+01 -0.19926917125E+01  0.40102217632E+02  0.00000000000E+00 0.  1.
<mgrwt>
<rscale>  0 0.17857644E+03</rscale>
<asrwt>0</asrwt>
<pdfrwt beam="2">  1        1 0.59416282E-01 0.18412806E+03</pdfrwt>
<pdfrwt beam="1">  1       -1 0.12046631E-01 0.18412806E+03</pdfrwt>
<totfact> 0.28405039E+03</totfact>
</mgrwt>
</event>
<event>
 7    1  0.6008063E-006  0.1537031E+03  0.7546771E-02  0.1204047E+00
          1   -1    0    0  501    0  0.00000000000E+00  0.00000000000E+00  0.14657223057E+03  0.14657223057E+03  0.00000000000E+00 0. -1.
         -1   -1    0    0    0  501 -0.00000000000E+00 -0.00000000000E+00 -0.13647910360E+03  0.13647910360E+03  0.00000000000E+00 0.  1.
         23    2    1    2    0    0  0.86015823815E+02  0.24315749705E+02  0.12741516108E+01  0.15370842321E+03  0.12503870710E+03 0.  0.
          5    1    3    3  502    0  0.74859642744E+02  0.60078401892E+02  0.35793595787E+02  0.10255072884E+03  0.47000000000E+01 0.  1.
         -5    1    3    3    0  502  0.11156181070E+02 -0.35762652187E+02 -0.34519444176E+02  0.51157694375E+02  0.47000000000E+01 0.  1.
        -11    1    1    2    0    0  0.12452098024E+00  0.27760721334E+02 -0.33047069937E+01  0.27957007042E+02  0.00000000000E+00 0.  1.
         11    1    1    2    0    0 -0.86140344795E+02 -0.52076471038E+02  0.12123682353E+02  0.10138590391E+03  0.00000000000E+00 0. -1.
<mgrwt>
<rscale>  0 0.14712780E+03</rscale>
<asrwt>0</asrwt>
<pdfrwt beam="1">  1        1 0.22549574E-01 0.15370314E+03</pdfrwt>
<pdfrwt beam="2">  1       -1 0.20996785E-01 0.15370314E+03</pdfrwt>
<totfact> 0.39337310E+03</totfact>
</mgrwt>
</event>
<event>
 7    1  0.6008063E-006  0.1379933E+03  0.7546771E-02  0.1227315E+00
         -1   -1    0    0    0  501 -0.00000000000E+00  0.00000000000E+00  0.44899775801E+02  0.44899775801E+02  0.00000000000E+00 0.  1.
          1   -1    0    0  501    0  0.00000000000E+00 -0.00000000000E+00 -0.36237277119E+03  0.36237277119E+03  0.00000000000E+00 0. -1.
         23    2    1    2    0    0 -0.54121438300E+02  0.22083521166E+02 -0.22680089800E+03  0.26548219715E+03  0.12500135071E+03 0.  0.
          5    1    3    3  502    0  0.16996789151E+02  0.54706130678E+02 -0.11945314204E+03  0.13256241820E+03  0.47000000000E+01 0.  1.
         -5    1    3    3    0  502 -0.71118227450E+02 -0.32622609512E+02 -0.10734775597E+03  0.13291977896E+03  0.47000000000E+01 0.  1.
        -11    1    1    2    0    0  0.11228511505E+02  0.35127199314E+02 -0.23818466939E+02  0.43901241094E+02  0.00000000000E+00 0.  1.
         11    1    1    2    0    0  0.42892926794E+02 -0.57210720480E+02 -0.66853630443E+02  0.97889108742E+02  0.00000000000E+00 0. -1.
<mgrwt>
<rscale>  0 0.13009470E+03</rscale>
<asrwt>0</asrwt>
<pdfrwt beam="2">  1        1 0.55749656E-01 0.13799330E+03</pdfrwt>
<pdfrwt beam="1">  1       -1 0.69076580E-02 0.13799330E+03</pdfrwt>
<totfact> 0.70880120E+03</totfact>
</mgrwt>
</event>
<event>
 7    1  0.6008063E-006  0.2547937E+03  0.7546771E-02  0.1112593E+00
          1   -1    0    0  501    0  0.00000000000E+00  0.00000000000E+00  0.20659737839E+04  0.20659737839E+04  0.00000000000E+00 0. -1.
         -1   -1    0    0    0  501 -0.00000000000E+00 -0.00000000000E+00 -0.31595137659E+02  0.31595137659E+02  0.00000000000E+00 0.  1.
         23    2    1    2    0    0 -0.21574584697E+03  0.52391200935E+02  0.13030475811E+04  0.13277246842E+04  0.12501491840E+03 0.  0.
          5    1    3    3  502    0 -0.17711673986E+03  0.91254716735E+02  0.98558806728E+03  0.10055365191E+04  0.47000000000E+01 0.  1.
         -5    1    3    3    0  502 -0.38629107117E+02 -0.38863515800E+02  0.31745951384E+03  0.32218816506E+03  0.47000000000E+01 0.  1.
        -11    1    1    2    0    0  0.11183476904E+03 -0.48048802989E+02  0.52323734167E+03  0.53720854307E+03  0.00000000000E+00 0.  1.
         11    1    1    2    0    0  0.10391107794E+03 -0.43423979457E+01  0.20809372347E+03  0.23263569435E+03  0.00000000000E+00 0. -1.
<mgrwt>
<rscale>  0 0.25112886E+03</rscale>
<asrwt>0</asrwt>
<pdfrwt beam="1">  1        1 0.31784202E+00 0.25479372E+03</pdfrwt>
<pdfrwt beam="2">  1       -1 0.48607920E-02 0.25479372E+03</pdfrwt>
<totfact> 0.56244005E+02</totfact>
</mgrwt>
</event>
<event>
 7    1  0.6008063E-006  0.1349152E+03  0.7546771E-02  0.1234233E+00
          1   -1    0    0  501    0  0.00000000000E+00  0.00000000000E+00  0.24790303562E+03  0.24790303562E+03  0.00000000000E+00 0. -1.
         -1   -1    0    0    0  501 -0.00000000000E+00 -0.00000000000E+00 -0.57074100498E+02  0.57074100498E+02  0.00000000000E+00 0.  1.
         23    2    1    2    0    0 -0.26940176043E+02 -0.43012209650E+02  0.12764106273E+03  0.18572651647E+03  0.12500509894E+03 0.  0.
          5    1    3    3  502    0 -0.77005490381E+01  0.71516110564E+01  0.13117465452E+03  0.13167886688E+03  0.47000000000E+01 0. -1.
         -5    1    3    3    0  502 -0.19239627005E+02 -0.50163820706E+02 -0.35335917880E+01  0.54047649589E+02  0.47000000000E+01 0. -1.
        -11    1    1    2    0    0  0.28980224697E+02  0.63452406471E+02  0.21864960517E+02  0.73103610094E+02  0.00000000000E+00 0.  1.
         11    1    1    2    0    0 -0.20400486537E+01 -0.20440196821E+02  0.41322911874E+02  0.46147009549E+02  0.00000000000E+00 0. -1.
<mgrwt>
<rscale>  0 0.12553632E+03</rscale>
<asrwt>0</asrwt>
<pdfrwt beam="1">  1        1 0.38138928E-01 0.13491515E+03</pdfrwt>
<pdfrwt beam="2">  1       -1 0.87806310E-02 0.13491515E+03</pdfrwt>
<totfact> 0.78938228E+03</totfact>
</mgrwt>
</event>
<event>
 7    1  0.6008063E-006  0.1263975E+03  0.7546771E-02  0.1249064E+00
          1   -1    0    0  501    0  0.00000000000E+00  0.00000000000E+00  0.63355915754E+03  0.63355915754E+03  0.00000000000E+00 0. -1.
         -1   -1    0    0    0  501 -0.00000000000E+00 -0.00000000000E+00 -0.21606439588E+02  0.21606439588E+02  0.00000000000E+00 0.  1.
         23    2    1    2    0    0 -0.11626604282E+02  0.14657767403E+02  0.46843681116E+03  0.48519003495E+03  0.12500518347E+03 0.  0.
          5    1    3    3  502    0 -0.12581604314E+02 -0.29837113882E+02  0.41136492875E+03  0.41266420337E+03  0.47000000000E+01 0.  1.
         -5    1    3    3    0  502  0.95500003193E+00  0.44494881284E+02  0.57071882408E+02  0.72525831585E+02  0.47000000000E+01 0.  1.
        -11    1    1    2    0    0  0.25507984989E+02 -0.47976115862E+02  0.76127211346E+02  0.93529232322E+02  0.00000000000E+00 0. -1.
         11    1    1    2    0    0 -0.13881380707E+02  0.33318348460E+02  0.67388695441E+02  0.76446329851E+02  0.00000000000E+00 0.  1.
<mgrwt>
<rscale>  0 0.11645417E+03</rscale>
<asrwt>0</asrwt>
<pdfrwt beam="1">  1        1 0.97470625E-01 0.12639748E+03</pdfrwt>
<pdfrwt beam="2">  1       -1 0.33240681E-02 0.12639748E+03</pdfrwt>
<totfact> 0.10039255E+04</totfact>
</mgrwt>
</event>
<event>
 7    1  0.6008063E-006  0.1702789E+03  0.7546771E-02  0.1184113E+00
         -2   -1    0    0    0  501 -0.00000000000E+00  0.00000000000E+00  0.42663343452E+03  0.42663343452E+03  0.00000000000E+00 0.  1.
          2   -1    0    0  501    0  0.00000000000E+00 -0.00000000000E+00 -0.90541919933E+02  0.90541919933E+02  0.00000000000E+00 0. -1.
         23    2    1    2    0    0  0.83859870934E+02 -0.79602650747E+02  0.23681029358E+02  0.17191771021E+03  0.12500339185E+03 0.  0.
          5    1    3    3  502    0  0.15538316579E+02  0.33549962644E+02  0.11930728222E+02  0.39134020384E+02  0.47000000000E+01 0. -1.
         -5    1    3    3    0  502  0.68321554355E+02 -0.11315261339E+03  0.11750301136E+02  0.13278368982E+03  0.47000000000E+01 0. -1.
        -11    1    1    2    0    0 -0.18825788001E+02  0.76797758915E+02  0.20422920320E+03  0.21900199430E+03  0.00000000000E+00 0.  1.
         11    1    1    2    0    0 -0.65034082932E+02  0.28048918328E+01  0.10818128203E+03  0.12625564994E+03  0.00000000000E+00 0. -1.
<mgrwt>
<rscale>  0 0.16412840E+03</rscale>
<asrwt>0</asrwt>
<pdfrwt beam="2">  1        2 0.13929526E-01 0.17027891E+03</pdfrwt>
<pdfrwt beam="1">  1       -2 0.65635912E-01 0.17027891E+03</pdfrwt>
<totfact> 0.92119617E+02</totfact>
</mgrwt>
</event>
<event>
 7    1  0.6008063E-006  0.1403720E+03  0.7546771E-02  0.1224596E+00
         -3   -1    0    0    0  501 -0.00000000000E+00  0.00000000000E+00  0.36160088782E+03  0.36160088782E+03  0.00000000000E+00 0.  1.
          3   -1    0    0  501    0  0.00000000000E+00 -0.00000000000E+00 -0.46500265745E+02  0.46500265745E+02  0.00000000000E+00 0. -1.
         23    2    1    2    0    0 -0.42982929014E+02  0.47261973238E+02  0.12156254721E+03  0.18569263104E+03  0.12499229592E+03 0.  0.
          5    1    3    3  502    0 -0.29399676797E+02  0.88605342749E+02  0.10005072497E+03  0.13692145678E+03  0.47000000000E+01 0.  1.
         -5    1    3    3    0  502 -0.13583252217E+02 -0.41343369511E+02  0.21511822242E+02  0.48771174268E+02  0.47000000000E+01 0.  1.
        -11    1    1    2    0    0  0.19698504404E+02  0.14473236183E+02  0.12463413921E+03  0.12700855994E+03  0.00000000000E+00 0.  1.
         11    1    1    2    0    0  0.23284424610E+02 -0.61735209420E+02  0.68903935658E+02  0.95399962583E+02  0.00000000000E+00 0. -1.
<mgrwt>
<rscale>  0 0.13194616E+03</rscale>
<asrwt>0</asrwt>
<pdfrwt beam="2">  1        3 0.71538873E-02 0.14037201E+03</pdfrwt>
<pdfrwt beam="1">  1       -3 0.55630904E-01 0.14037201E+03</pdfrwt>
<totfact> 0.95543512E+02</totfact>
</mgrwt>
</event>
<event>
 7    1  0.6008063E-006  0.1585031E+03  0.7546771E-02  0.1198097E+00
         -2   -1    0    0    0  501 -0.00000000000E+00  0.00000000000E+00  0.14007166869E+03  0.14007166869E+03  0.00000000000E+00 0.  1.
          2   -1    0    0  501    0  0.00000000000E+00 -0.00000000000E+00 -0.34475725377E+03  0.34475725377E+03  0.00000000000E+00 0. -1.
         23    2    1    2    0    0  0.97453670037E+02 -0.77464615486E+00 -0.28686660372E+03  0.32774332975E+03  0.12500169595E+03 0.  0.
          5    1    3    3  502    0 -0.20883550100E+01 -0.45412598341E+02 -0.55438030249E+02  0.71847968048E+02  0.47000000000E+01 0.  1.
         -5    1    3    3    0  502  0.99542025047E+02  0.44637952187E+02 -0.23142857347E+03  0.25589536171E+03  0.47000000000E+01 0.  1.
        -11    1    1    2    0    0 -0.73297897354E+02 -0.14081360645E+02  0.99100282876E+02  0.12406342144E+03  0.00000000000E+00 0.  1.
         11    1    1    2    0    0 -0.24155772683E+02  0.14856006799E+02 -0.16919264245E+02  0.33022171257E+02  0.00000000000E+00 0. -1.
<mgrwt>
<rscale>  0 0.15195052E+03</rscale>
<asrwt>0</asrwt>
<pdfrwt beam="2">  1        2 0.53039576E-01 0.15850313E+03</pdfrwt>
<pdfrwt beam="1">  1       -2 0.21549488E-01 0.15850313E+03</pdfrwt>
<totfact> 0.17101012E+03</totfact>
</mgrwt>
</event>
<event>
 7    1  0.6008063E-006  0.1493320E+03  0.7546771E-02  0.1210016E+00
         -2   -1    0    0    0  501 -0.00000000000E+00  0.00000000000E+00  0.23863770222E+02  0.23863770222E+02  0.00000000000E+00 0.  1.
          2   -1    0    0  501    0  0.00000000000E+00 -0.00000000000E+00 -0.92261373742E+03  0.92261373742E+03  0.00000000000E+00 0. -1.
         23    2    1    2    0    0 -0.78460216926E+02  0.22794907852E+02 -0.66936730120E+03  0.68582259633E+03  0.12499774501E+03 0.  0.
          5    1    3    3  502    0 -0.44848614331E+02  0.62214793025E+01 -0.60139457166E+02  0.75425123933E+02  0.47000000000E+01 0.  1.
         -5    1    3    3    0  502 -0.33611602595E+02  0.16573428550E+02 -0.60922784403E+03  0.61039747240E+03  0.47000000000E+01 0.  1.
        -11    1    1    2    0    0  0.65727654893E+02 -0.27243036205E+02 -0.23537704046E+03  0.24589562586E+03  0.00000000000E+00 0. -1.
         11    1    1    2    0    0  0.12732562032E+02  0.44481283529E+01  0.59943744674E+01  0.14759285450E+02  0.00000000000E+00 0.  1.
<mgrwt>
<rscale>  0 0.14249127E+03</rscale>
<asrwt>0</asrwt>
<pdfrwt beam="2">  1        2 0.14194056E+00 0.14933201E+03</pdfrwt>
<pdfrwt beam="1">  1       -2 0.36713496E-02 0.14933201E+03</pdfrwt>
<totfact> 0.89098700E+03</totfact>
</mgrwt>
</event>
<event>
 7    1  0.6008063E-006  0.1460563E+03  0.7546771E-02  0.1215487E+00
          1   -1    0    0  501    0  0.00000000000E+00  0.00000000000E+00  0.12304806212E+04  0.12304806212E+04  0.00000000000E+00 0. -1.
         -1   -1    0    0    0  501 -0.00000000000E+00 -0.00000000000E+00 -0.16983483891E+02  0.16983483891E+02  0.00000000000E+00 0.  1.
         23    2    1    2    0    0 -0.11000069583E+01 -0.75544279846E+02  0.91473816074E+03  0.92632518179E+03  0.12499716588E+03 0.  0.
          5    1    3    3  502    0  0.43827144793E+02 -0.50869150758E+01  0.56386834774E+03  0.56561143810E+03  0.47000000000E+01 0.  1.
         -5    1    3    3    0  502 -0.44927151752E+02 -0.70457364771E+02  0.35086981300E+03  0.36071374370E+03  0.47000000000E+01 0.  1.
        -11    1    1    2    0    0 -0.14799809239E+02  0.80794389171E+02  0.29156621724E+03  0.30291521373E+03  0.00000000000E+00 0. -1.
         11    1    1    2    0    0  0.15899816198E+02 -0.52501093244E+01  0.71927593063E+01  0.18223709542E+02  0.00000000000E+00 0.  1.
<mgrwt>
<rscale>  0 0.13840845E+03</rscale>
<asrwt>0</asrwt>
<pdfrwt beam="1">  1        1 0.18930464E+00 0.14605629E+03</pdfrwt>
<pdfrwt beam="2">  1       -1 0.26128446E-02 0.14605629E+03</pdfrwt>
<totfact> 0.49562384E+03</totfact>
</mgrwt>
</event>
<event>
 7    1  0.6008063E-006  0.1271024E+03  0.7546771E-02  0.1246818E+00
         -2   -1    0    0    0  501 -0.00000000000E+00  0.00000000000E+00  0.31618486103E+02  0.31618486103E+02  0.00000000000E+00 0.  1.
          2   -1    0    0  501    0  0.00000000000E+00 -0.00000000000E+00 -0.39336255117E+03  0.39336255117E+03  0.00000000000E+00 0. -1.
         23    2    1    2    0    0 -0.17877217505E+02  0.14555242844E+02 -0.23746944925E+03  0.26934506351E+03  0.12499429549E+03 0.  0.
          5    1    3    3  502    0 -0.38532894350E+02  0.63050768686E+02 -0.14466901997E+03  0.16251584143E+03  0.47000000000E+01 0.  1.
         -5    1    3    3    0  502  0.20655676845E+02 -0.48495525842E+02 -0.92800429288E+02  0.10682922207E+03  0.47000000000E+01 0.  1.
        -11    1    1    2    0    0  0.72976282140E+01  0.37940851930E+02 -0.38689093794E+02  0.54677322551E+02  0.00000000000E+00 0.  1.
         11    1    1    2    0    0  0.10579589291E+02 -0.52496094774E+02 -0.85585522015E+02  0.10095865121E+03  0.00000000000E+00 0. -1.
<mgrwt>
<rscale>  0 0.11777202E+03</rscale>
<asrwt>0</asrwt>
<pdfrwt beam="2">  1        2 0.60517316E-01 0.12710242E+03</pdfrwt>
<pdfrwt beam="1">  1       -2 0.48643824E-02 0.12710242E+03</pdfrwt>
<totfact> 0.15549197E+04</totfact>
</mgrwt>
</event>
<event>
 7    1  0.6008063E-006  0.2509276E+03  0.7546771E-02  0.1115157E+00
          2   -1    0    0  501    0  0.00000000000E+00  0.00000000000E+00  0.15238424553E+04  0.15238424553E+04  0.00000000000E+00 0. -1.
         -2   -1    0    0    0  501 -0.00000000000E+00 -0.00000000000E+00 -0.39060511648E+02  0.39060511648E+02  0.00000000000E+00 0.  1.
         23    2    1    2    0    0 -0.94662807775E+02 -0.19590162765E+03  0.71307145068E+03  0.75593356366E+03  0.12500465594E+03 0.  0.
          5    1    3    3  502    0 -0.11006286630E+03 -0.20059801305E+03  0.61022547454E+03  0.65172894454E+03  0.47000000000E+01 0. -1.
         -5    1    3    3    0  502  0.15400058521E+02  0.46963853946E+01  0.10284597614E+03  0.10420461912E+03  0.47000000000E+01 0. -1.
        -11    1    1    2    0    0  0.26947918536E+02  0.15389294566E+03  0.50801109672E+03  0.53149271249E+03  0.00000000000E+00 0.  1.
         11    1    1    2    0    0  0.67714889239E+02  0.42008681988E+02  0.26369939621E+03  0.27547669075E+03  0.00000000000E+00 0. -1.
<mgrwt>
<rscale>  0 0.24709087E+03</rscale>
<asrwt>0</asrwt>
<pdfrwt beam="1">  1        2 0.23443725E+00 0.25092760E+03</pdfrwt>
<pdfrwt beam="2">  1       -2 0.60093107E-02 0.25092760E+03</pdfrwt>
<totfact> 0.19576715E+03</totfact>
</mgrwt>
</event>
<event>
 6    1  0.6008063E-006  0.1680286E+03  0.7546771E-02  0.1212822E+00
         -1   -1    0    0    0  501 -0.00000000000E+00  0.00000000000E+00  0.13720622158E+02  0.13720622158E+02  0.00000000000E+00 0.  1.
          1   -1    0    0  501    0  0.00000000000E+00 -0.00000000000E+00 -0.11988036912E+04  0.11988036912E+04  0.00000000000E+00 0. -1.
          5    1    1    2  502    0 -0.34338265498E+02 -0.87122930410E+02 -0.43098153196E+03  0.44106313876E+03  0.47000000000E+01 0. -1.
         -5    1    1    2    0  502  0.61929234631E+02  0.34923889435E+02 -0.48439021148E+03  0.48960277280E+03  0.47000000000E+01 0.  1.
        -11    1    1    2    0    0  0.11666295878E+02 -0.48109634393E+01 -0.39679824731E+02  0.41638159414E+02  0.00000000000E+00 0. -1.
         11    1    1    2    0    0 -0.39257265012E+02  0.57010004414E+02 -0.23003150088E+03  0.24022024239E+03  0.00000000000E+00 0.  1.
<mgrwt>
<rscale>  0 0.14037715E+03</rscale>
<asrwt>0</asrwt>
<pdfrwt beam="2">  1        1 0.18443125E+00 0.16802860E+03</pdfrwt>
<pdfrwt beam="1">  1       -1 0.21108660E-02 0.16802860E+03</pdfrwt>
<totfact> 0.71400640E+03</totfact>
</mgrwt>
</event>
<event>
 7    1  0.6008063E-006  0.1405436E+03  0.7546771E-02  0.1223831E+00
          1   -1    0    0  501    0  0.00000000000E+00  0.00000000000E+00  0.70849257056E+02  0.70849257056E+02  0.00000000000E+00 0. -1.
         -1   -1    0    0    0  501 -0.00000000000E+00 -0.00000000000E+00 -0.22578183813E+03  0.22578183813E+03  0.00000000000E+00 0.  1.
         23    2    1    2    0    0 -0.61739797029E+02 -0.17591620664E+02 -0.10234916270E+03  0.17386156297E+03  0.12502489479E+03 0.  0.
          5    1    3    3  502    0 -0.35528315480E+02  0.50331240912E+02 -0.71913602789E+02  0.94811134782E+02  0.47000000000E+01 0. -1.
         -5    1    3    3    0  502 -0.26211481548E+02 -0.67922861575E+02 -0.30435559914E+02  0.79050428189E+02  0.47000000000E+01 0. -1.
        -11    1    1    2    0    0 -0.17194600529E+02  0.25196374600E+02 -0.69825628992E+01  0.31293254305E+02  0.00000000000E+00 0.  1.
         11    1    1    2    0    0  0.78934397558E+02 -0.76047539364E+01 -0.45600855470E+02  0.91476277908E+02  0.00000000000E+00 0. -1.
<mgrwt>
<rscale>  0 0.13247342E+03</rscale>
<asrwt>0</asrwt>
<pdfrwt beam="1">  1        1 0.10899886E-01 0.14054356E+03</pdfrwt>
<pdfrwt beam="2">  1       -1 0.34735667E-01 0.14054356E+03</pdfrwt>
<totfact> 0.43397880E+03</totfact>
</mgrwt>
</event>
<event>
 7    1  0.6008063E-006  0.2103116E+03  0.7546771E-02  0.1145064E+00
          2   -1    0    0  501    0  0.00000000000E+00  0.00000000000E+00  0.20412978137E+03  0.20412978137E+03  0.00000000000E+00 0. -1.
         -2   -1    0    0    0  501 -0.00000000000E+00 -0.00000000000E+00 -0.20442163670E+03  0.20442163670E+03  0.00000000000E+00 0.  1.
         23    2    1    2    0    0 -0.15580136279E+03  0.65791492608E+02  0.34677644717E+02  0.21315138078E+03  0.12501354702E+03 0.  0.
          5    1    3    3  502    0 -0.17005174839E+03  0.80428915158E+02  0.37878758229E+02  0.19194608058E+03  0.47000000000E+01 0.  1.
         -5    1    3    3    0  502  0.14250385604E+02 -0.14637422550E+02 -0.32011135126E+01  0.21205300199E+02  0.47000000000E+01 0.  1.
        -11    1    1    2    0    0  0.30784616340E+02 -0.19733004141E+02 -0.49321657639E+02  0.61397963874E+02  0.00000000000E+00 0.  1.
         11    1    1    2    0    0  0.12501674645E+03 -0.46058488466E+02  0.14352157597E+02  0.13400207342E+03  0.00000000000E+00 0. -1.
<mgrwt>
<rscale>  0 0.20564182E+03</rscale>
<asrwt>0</asrwt>
<pdfrwt beam="1">  1        2 0.31404582E-01 0.21031161E+03</pdfrwt>
<pdfrwt beam="2">  1       -2 0.31449483E-01 0.21031161E+03</pdfrwt>
<totfact> 0.15507721E+03</totfact>
</mgrwt>
</event>
<event>
 7    1  0.6008063E-006  0.1408815E+03  0.7546771E-02  0.1223223E+00
         -2   -1    0    0    0  501 -0.00000000000E+00  0.00000000000E+00  0.15051243283E+03  0.15051243283E+03  0.00000000000E+00 0.  1.
          2   -1    0    0  501    0  0.00000000000E+00 -0.00000000000E+00 -0.11751572476E+03  0.11751572476E+03  0.00000000000E+00 0. -1.
         23    2    1    2    0    0 -0.11363273092E+02 -0.63953438948E+02 -0.23759502495E+02  0.14287098047E+03  0.12501374633E+03 0.  0.
          5    1    3    3  502    0  0.32470664369E+02 -0.54533308228E+02 -0.58121055691E+02  0.86188008827E+02  0.47000000000E+01 0. -1.
         -5    1    3    3    0  502 -0.43833937461E+02 -0.94201307199E+01  0.34361553196E+02  0.56682971642E+02  0.47000000000E+01 0. -1.
        -11    1    1    2    0    0  0.16239773940E+02  0.79357023381E+02  0.17731043834E+02  0.82919583531E+02  0.00000000000E+00 0. -1.
         11    1    1    2    0    0 -0.48765008482E+01 -0.15403584433E+02  0.39025166730E+02  0.42237593589E+02  0.00000000000E+00 0.  1.
<mgrwt>
<rscale>  0 0.13289431E+03</rscale>
<asrwt>0</asrwt>
<pdfrwt beam="2">  1        2 0.18079342E-01 0.14088152E+03</pdfrwt>
<pdfrwt beam="1">  1       -2 0.23155759E-01 0.14088152E+03</pdfrwt>
<totfact> 0.48629560E+03</totfact>
</mgrwt>
</event>
<event>
 7    1  0.6008063E-006  0.1323074E+03  0.7546771E-02  0.1236293E+00
         -2   -1    0    0    0  501 -0.00000000000E+00  0.00000000000E+00  0.39406515677E+03  0.39406515677E+03  0.00000000000E+00 0. -1.
          2   -1    0    0  501    0  0.00000000000E+00 -0.00000000000E+00 -0.36712391134E+02  0.36712391134E+02  0.00000000000E+00 0.  1.
         23    2    1    2    0    0 -0.79353794322E+01 -0.42633687206E+02  0.15486627778E+03  0.20368802726E+03  0.12499858769E+03 0.  0.
          5    1    3    3  502    0 -0.47613942932E+02 -0.64207357705E+02  0.65513084466E+02  0.10345881587E+03  0.47000000000E+01 0. -1.
         -5    1    3    3    0  502  0.39678563500E+02  0.21573670499E+02  0.89353193318E+02  0.10022921139E+03  0.47000000000E+01 0. -1.
        -11    1    1    2    0    0  0.37788295662E+02  0.24612550460E+02  0.18007945130E+03  0.18564035583E+03  0.00000000000E+00 0. -1.
         11    1    1    2    0    0 -0.29852916230E+02  0.18021136746E+02  0.22407036546E+02  0.41449164814E+02  0.00000000000E+00 0.  1.
<mgrwt>
<rscale>  0 0.12422005E+03</rscale>
<asrwt>0</asrwt>
<pdfrwt beam="2">  1        2 0.56480604E-02 0.13230740E+03</pdfrwt>
<pdfrwt beam="1">  1       -2 0.60625406E-01 0.13230740E+03</pdfrwt>
<totfact> 0.33000690E+03</totfact>
</mgrwt>
</event>
<event>
 7    1  0.6008063E-006  0.1598699E+03  0.7546771E-02  0.1196072E+00
          2   -1    0    0  501    0  0.00000000000E+00  0.00000000000E+00  0.24431726827E+03  0.24431726827E+03  0.00000000000E+00 0.  1.
         -2   -1    0    0    0  501 -0.00000000000E+00 -0.00000000000E+00 -0.94376098916E+02  0.94376098916E+02  0.00000000000E+00 0. -1.
         23    2    1    2    0    0 -0.99445702751E+02 -0.66060115680E+01  0.11782397724E+03  0.19859729202E+03  0.12500123039E+03 0.  0.
          5    1    3    3  502    0 -0.10430183280E+03 -0.32467766719E+02  0.12945073071E+03  0.16944795627E+03  0.47000000000E+01 0.  1.
         -5    1    3    3    0  502  0.48561300483E+01  0.25861755151E+02 -0.11626753469E+02  0.29149335752E+02  0.47000000000E+01 0.  1.
        -11    1    1    2    0    0  0.37367516755E+02 -0.15249711998E+02  0.56909520620E+02  0.69768033952E+02  0.00000000000E+00 0.  1.
         11    1    1    2    0    0  0.62078185996E+02  0.21855723566E+02 -0.24792328505E+02  0.70328041220E+02  0.00000000000E+00 0. -1.
<mgrwt>
<rscale>  0 0.15363875E+03</rscale>
<asrwt>0</asrwt>
<pdfrwt beam="1">  1        2 0.37587272E-01 0.15986993E+03</pdfrwt>
<pdfrwt beam="2">  1       -2 0.14519400E-01 0.15986993E+03</pdfrwt>
<totfact> 0.47813861E+03</totfact>
</mgrwt>
</event>
<event>
 7    1  0.6008063E-006  0.1275659E+03  0.7546771E-02  0.1244233E+00
         -2   -1    0    0    0  501 -0.00000000000E+00  0.00000000000E+00  0.37018372570E+02  0.37018372570E+02  0.00000000000E+00 0.  1.
          2   -1    0    0  501    0  0.00000000000E+00 -0.00000000000E+00 -0.45474459535E+03  0.45474459535E+03  0.00000000000E+00 0. -1.
         23    2    1    2    0    0  0.20303643304E+01 -0.25377120098E+02 -0.35113450266E+03  0.37358868577E+03  0.12499978627E+03 0.  0.
          5    1    3    3  502    0 -0.10655414264E+02 -0.54787330179E+02 -0.65746997583E+02  0.86370985246E+02  0.47000000000E+01 0. -1.
         -5    1    3    3    0  502  0.12685778594E+02  0.29410210081E+02 -0.28538750508E+03  0.28721770052E+03  0.47000000000E+01 0. -1.
        -11    1    1    2    0    0 -0.19455825070E+02 -0.68614575914E+01 -0.77291669551E+02  0.79997568159E+02  0.00000000000E+00 0. -1.
         11    1    1    2    0    0  0.17425460740E+02  0.32238577689E+02  0.10699949436E+02  0.38176713994E+02  0.00000000000E+00 0.  1.
<mgrwt>
<rscale>  0 0.11931407E+03</rscale>
<asrwt>0</asrwt>
<pdfrwt beam="2">  1        2 0.69960707E-01 0.12756593E+03</pdfrwt>
<pdfrwt beam="1">  1       -2 0.56951342E-02 0.12756593E+03</pdfrwt>
<totfact> 0.10505177E+04</totfact>
</mgrwt>
</event>
<event>
 7    1  0.6008063E-006  0.1404734E+03  0.7546771E-02  0.1225237E+00
          1   -1    0    0  501    0  0.00000000000E+00  0.00000000000E+00  0.37913563047E+03  0.37913563047E+03  0.00000000000E+00 0. -1.
         -1   -1    0    0    0  501 -0.00000000000E+00 -0.00000000000E+00 -0.41107095223E+02  0.41107095223E+02  0.00000000000E+00 0.  1.
         23    2    1    2    0    0  0.56870088565E+02 -0.29559909359E+02  0.16963726407E+03  0.22024891034E+03  0.12499914373E+03 0.  0.
          5    1    3    3  502    0 -0.22620849262E+02 -0.49363339591E+02  0.43327859418E+02  0.69626399581E+02  0.47000000000E+01 0.  1.
         -5    1    3    3    0  502  0.79490937827E+02  0.19803430232E+02  0.12630940465E+03  0.15062251076E+03  0.47000000000E+01 0.  1.
        -11    1    1    2    0    0 -0.77016753278E+02  0.38037264979E+02  0.13823529062E+03  0.16274952960E+03  0.00000000000E+00 0.  1.
         11    1    1    2    0    0  0.20146664713E+02 -0.84773556205E+01  0.30155980559E+02  0.37244285748E+02  0.00000000000E+00 0. -1.
<mgrwt>
<rscale>  0 0.13150693E+03</rscale>
<asrwt>0</asrwt>
<pdfrwt beam="1">  1        1 0.58328556E-01 0.14047342E+03</pdfrwt>
<pdfrwt beam="2">  1       -1 0.63241687E-02 0.14047342E+03</pdfrwt>
<totfact> 0.76518431E+03</totfact>
</mgrwt>
</event>
<event>
 7    1  0.6008063E-006  0.1294775E+03  0.7546771E-02  0.1241542E+00
          1   -1    0    0  501    0  0.00000000000E+00  0.00000000000E+00  0.12173872379E+03  0.12173872379E+03  0.00000000000E+00 0. -1.
         -1   -1    0    0    0  501 -0.00000000000E+00 -0.00000000000E+00 -0.10749429889E+03  0.10749429889E+03  0.00000000000E+00 0.  1.
         23    2    1    2    0    0 -0.16860858115E+01  0.33713680801E+02 -0.97152308669E+00  0.12948114171E+03  0.12499986817E+03 0.  0.
          5    1    3    3  502    0  0.27120812863E+02 -0.40794800268E+02 -0.42270466731E+01  0.49393442306E+02  0.47000000000E+01 0. -1.
         -5    1    3    3    0  502 -0.28806898674E+02  0.74508481069E+02  0.32555235864E+01  0.80087699407E+02  0.47000000000E+01 0. -1.
        -11    1    1    2    0    0  0.46849315420E+02 -0.18817131250E+02  0.13048337141E+02  0.52145967111E+02  0.00000000000E+00 0. -1.
         11    1    1    2    0    0 -0.45163229609E+02 -0.14896549551E+02  0.21676108530E+01  0.47605913856E+02  0.00000000000E+00 0.  1.
<mgrwt>
<rscale>  0 0.12094779E+03</rscale>
<asrwt>0</asrwt>
<pdfrwt beam="1">  1        1 0.18729034E-01 0.12947750E+03</pdfrwt>
<pdfrwt beam="2">  1       -1 0.16537585E-01 0.12947750E+03</pdfrwt>
<totfact> 0.72129323E+03</totfact>
</mgrwt>
</event>
<event>
 7    1  0.6008063E-006  0.1294527E+03  0.7546771E-02  0.1241867E+00
          1   -1    0    0  501    0  0.00000000000E+00  0.00000000000E+00  0.13505599516E+04  0.13505599516E+04  0.00000000000E+00 0. -1.
         -1   -1    0    0    0  501 -0.00000000000E+00 -0.00000000000E+00 -0.12422493357E+02  0.12422493357E+02  0.00000000000E+00 0.  1.
         23    2    1    2    0    0 -0.13575550479E+02 -0.30796990534E+02  0.10642153785E+04  0.10720598685E+04  0.12500095820E+03 0.  0.
          5    1    3    3  502    0 -0.45888509553E+02 -0.66371437581E+02  0.70293701098E+03  0.70756869239E+03  0.47000000000E+01 0. -1.
         -5    1    3    3    0  502  0.32312959074E+02  0.35574447048E+02  0.36127836750E+03  0.36449117607E+03  0.47000000000E+01 0. -1.
        -11    1    1    2    0    0 -0.22129481076E+02 -0.15132339727E+02  0.30328632374E+02  0.40478729970E+02  0.00000000000E+00 0. -1.
         11    1    1    2    0    0  0.35705031555E+02  0.45929330261E+02  0.24359344735E+03  0.25044384650E+03  0.00000000000E+00 0.  1.
<mgrwt>
<rscale>  0 0.12074858E+03</rscale>
<asrwt>0</asrwt>
<pdfrwt beam="1">  1        1 0.20777834E+00 0.12945265E+03</pdfrwt>
<pdfrwt beam="2">  1       -1 0.19111539E-02 0.12945265E+03</pdfrwt>
<totfact> 0.64447258E+03</totfact>
</mgrwt>
</event>
<event>
 6    1  0.6008063E-006  0.1524015E+03  0.7546771E-02  0.1218904E+00
          1   -1    0    0  501    0  0.00000000000E+00  0.00000000000E+00  0.69581803953E+02  0.69581803953E+02  0.00000000000E+00 0. -1.
         -1   -1    0    0    0  501 -0.00000000000E+00 -0.00000000000E+00 -0.22254675569E+03  0.22254675569E+03  0.00000000000E+00 0.  1.
          5    1    1    2  502    0 -0.28166159578E+02  0.11388472244E+02  0.33086325836E+02  0.45164419655E+02  0.47000000000E+01 0. -1.
         -5    1    1    2    0  502  0.39615444152E+02  0.80387170614E+01 -0.12814800314E+03  0.13445447221E+03  0.47000000000E+01 0.  1.
        -11    1    1    2    0    0  0.76938240497E+00 -0.54955742414E+02 -0.49598152615E+02  0.74031765590E+02  0.00000000000E+00 0. -1.
         11    1    1    2    0    0 -0.12218666978E+02  0.35528553108E+02 -0.83051218188E+01  0.38477902193E+02  0.00000000000E+00 0.  1.
<mgrwt>
<rscale>  0 0.13593623E+03</rscale>
<asrwt>0</asrwt>
<pdfrwt beam="1">  1        1 0.10704893E-01 0.15240152E+03</pdfrwt>
<pdfrwt beam="2">  1       -1 0.34237962E-01 0.15240152E+03</pdfrwt>
<totfact> 0.45785618E+03</totfact>
</mgrwt>
</event>
<event>
 7    1  0.6008063E-006  0.1268457E+03  0.7546771E-02  0.1247187E+00
         -1   -1    0    0    0  501 -0.00000000000E+00  0.00000000000E+00  0.33563342600E+02  0.33563342600E+02  0.00000000000E+00 0.  1.
          1   -1    0    0  501    0  0.00000000000E+00 -0.00000000000E+00 -0.36345007851E+03  0.36345007851E+03  0.00000000000E+00 0. -1.
         23    2    1    2    0    0 -0.86976945568E+01 -0.19736285442E+02 -0.20267159234E+03  0.23909328232E+03  0.12499860982E+03 0.  0.
          5    1    3    3  502    0 -0.42356799329E+02  0.98837211853E+01 -0.15255709777E+02  0.46331555927E+02  0.47000000000E+01 0. -1.
         -5    1    3    3    0  502  0.33659104772E+02 -0.29620006628E+02 -0.18741588256E+03  0.19276172640E+03  0.47000000000E+01 0. -1.
        -11    1    1    2    0    0  0.12822689178E+02 -0.34925420189E+02 -0.65873810398E+02  0.75654247928E+02  0.00000000000E+00 0.  1.
         11    1    1    2    0    0 -0.41249946216E+01  0.54661705631E+02 -0.61341333170E+02  0.82265890855E+02  0.00000000000E+00 0. -1.
<mgrwt>
<rscale>  0 0.11755449E+03</rscale>
<asrwt>0</asrwt>
<pdfrwt beam="2">  1        1 0.55915397E-01 0.12684567E+03</pdfrwt>
<pdfrwt beam="1">  1       -1 0.51635912E-02 0.12684567E+03</pdfrwt>
<totfact> 0.10824902E+04</totfact>
</mgrwt>
</event>
<event>
 7    1  0.6008063E-006  0.1646567E+03  0.7546771E-02  0.1190479E+00
         -2   -1    0    0    0  501 -0.00000000000E+00  0.00000000000E+00  0.45801100475E+02  0.45801100475E+02  0.00000000000E+00 0.  1.
          2   -1    0    0  501    0  0.00000000000E+00 -0.00000000000E+00 -0.71791717376E+03  0.71791717376E+03  0.00000000000E+00 0. -1.
         23    2    1    2    0    0 -0.66104469021E+02 -0.84363755533E+02 -0.55930781658E+03  0.58304122238E+03  0.12499915693E+03 0.  0.
          5    1    3    3  502    0 -0.70624065254E+02 -0.44591587142E+02 -0.14997236288E+03  0.17172643322E+03  0.47000000000E+01 0. -1.
         -5    1    3    3    0  502  0.45195962327E+01 -0.39772168391E+02 -0.40933545370E+03  0.41131478917E+03  0.47000000000E+01 0. -1.
        -11    1    1    2    0    0  0.82971791465E+02  0.62196906454E+02 -0.11225079045E+03  0.15281692743E+03  0.00000000000E+00 0. -1.
         11    1    1    2    0    0 -0.16867322444E+02  0.22166849080E+02 -0.55746625114E+00  0.27860124428E+02  0.00000000000E+00 0.  1.
<mgrwt>
<rscale>  0 0.15843154E+03</rscale>
<asrwt>0</asrwt>
<pdfrwt beam="2">  1        2 0.11044879E+00 0.16465671E+03</pdfrwt>
<pdfrwt beam="1">  1       -2 0.70463235E-02 0.16465671E+03</pdfrwt>
<totfact> 0.45919338E+03</totfact>
</mgrwt>
</event>
<event>
 7    1  0.6008063E-006  0.1346414E+03  0.7546771E-02  0.1233602E+00
          2   -1    0    0  501    0  0.00000000000E+00  0.00000000000E+00  0.33112024528E+02  0.33112024528E+02  0.00000000000E+00 0.  1.
         -2   -1    0    0    0  501 -0.00000000000E+00 -0.00000000000E+00 -0.43124993150E+03  0.43124993150E+03  0.00000000000E+00 0. -1.
         23    2    1    2    0    0  0.32706982058E+02  0.37840088885E+02 -0.20147905994E+03  0.24232648438E+03  0.12500677756E+03 0.  0.
          5    1    3    3  502    0  0.72991495131E+02  0.24147925205E+01 -0.74649487069E+02  0.10453815334E+03  0.47000000000E+01 0.  1.
         -5    1    3    3    0  502 -0.40284513073E+02  0.35425296365E+02 -0.12682957288E+03  0.13778833104E+03  0.47000000000E+01 0.  1.
        -11    1    1    2    0    0 -0.59360454722E+02 -0.41617606640E+02 -0.11395592250E+03  0.13506161942E+03  0.00000000000E+00 0.  1.
         11    1    1    2    0    0  0.26653472664E+02  0.37775177541E+01 -0.82702924523E+02  0.86973852221E+02  0.00000000000E+00 0. -1.
<mgrwt>
<rscale>  0 0.12594339E+03</rscale>
<asrwt>0</asrwt>
<pdfrwt beam="1">  1        2 0.50941581E-02 0.13464143E+03</pdfrwt>
<pdfrwt beam="2">  1       -2 0.66346138E-01 0.13464143E+03</pdfrwt>
<totfact> 0.31323201E+03</totfact>
</mgrwt>
</event>
<event>
 7    1  0.6008063E-006  0.2095174E+03  0.7546771E-02  0.1145053E+00
          2   -1    0    0  501    0  0.00000000000E+00  0.00000000000E+00  0.21877825946E+04  0.21877825946E+04  0.00000000000E+00 0. -1.
         -2   -1    0    0    0  501 -0.00000000000E+00 -0.00000000000E+00 -0.24463556831E+02  0.24463556831E+02  0.00000000000E+00 0.  1.
         23    2    1    2    0    0 -0.80146584952E+02 -0.14781959348E+03  0.16511790662E+04  0.16644187767E+04  0.12499379334E+03 0.  0.
          5    1    3    3  502    0 -0.15485315971E+01  0.10676253046E+02  0.16946112886E+02  0.20631070529E+02  0.47000000000E+01 0. -1.
         -5    1    3    3    0  502 -0.78598053355E+02 -0.15849584652E+03  0.16342329533E+04  0.16437877062E+04  0.47000000000E+01 0. -1.
        -11    1    1    2    0    0  0.42352066780E+02  0.36344144038E+02  0.66058339492E+02  0.86477156422E+02  0.00000000000E+00 0.  1.
         11    1    1    2    0    0  0.37794518172E+02  0.11147544944E+03  0.44608163212E+03  0.46135021832E+03  0.00000000000E+00 0. -1.
<mgrwt>
<rscale>  0 0.20565584E+03</rscale>
<asrwt>0</asrwt>
<pdfrwt beam="1">  1        2 0.33658178E+00 0.20951744E+03</pdfrwt>
<pdfrwt beam="2">  1       -2 0.37636259E-02 0.20951744E+03</pdfrwt>
<totfact> 0.17903249E+03</totfact>
</mgrwt>
</event>
<event>
 7    1  0.6008063E-006  0.1365223E+03  0.7546771E-02  0.1229880E+00
         -2   -1    0    0    0  501 -0.00000000000E+00  0.00000000000E+00  0.20317586392E+03  0.20317586392E+03  0.00000000000E+00 0.  1.
          2   -1    0    0  501    0  0.00000000000E+00 -0.00000000000E+00 -0.76180808501E+02  0.76180808501E+02  0.00000000000E+00 0. -1.
         23    2    1    2    0    0  0.21326482809E+02 -0.51017373868E+02  0.41802580886E+02  0.14277885132E+03  0.12482288777E+03 0.  0.
          5    1    3    3  502    0  0.62797711091E+02 -0.57590829460E+02  0.51169131354E+02  0.99501890232E+02  0.47000000000E+01 0.  1.
         -5    1    3    3    0  502 -0.41471228282E+02  0.65734555927E+01 -0.93665504674E+01  0.43276961091E+02  0.47000000000E+01 0.  1.
        -11    1    1    2    0    0 -0.51381040069E+01  0.42906075027E+02  0.10268156292E+03  0.11140392610E+03  0.00000000000E+00 0.  1.
         11    1    1    2    0    0 -0.16188378803E+02  0.81112988401E+01 -0.17489088382E+02  0.25173895002E+02  0.00000000000E+00 0. -1.
<mgrwt>
<rscale>  0 0.12837947E+03</rscale>
<asrwt>0</asrwt>
<pdfrwt beam="2">  1        2 0.11720124E-01 0.13652232E+03</pdfrwt>
<pdfrwt beam="1">  1       -2 0.31257825E-01 0.13652232E+03</pdfrwt>
<totfact> 0.47531212E+03</totfact>
</mgrwt>
</event>
<event>
 7    1  0.6008063E-006  0.1286073E+03  0.7546771E-02  0.1242069E+00
         -3   -1    0    0    0  501 -0.00000000000E+00  0.00000000000E+00  0.66036935815E+02  0.66036935815E+02  0.00000000000E+00 0.  1.
          3   -1    0    0  501    0  0.00000000000E+00 -0.00000000000E+00 -0.23748397843E+03  0.23748397843E+03  0.00000000000E+00 0. -1.
         23    2    1    2    0    0  0.29707510608E+02 -0.60545425543E+01 -0.15699351261E+03  0.20294533011E+03  0.12498260015E+03 0.  0.
          5    1    3    3  502    0  0.32086425999E+02  0.49784754270E+02 -0.12493273447E+03  0.13834138438E+03  0.47000000000E+01 0. -1.
         -5    1    3    3    0  502 -0.23789153910E+01 -0.55839296824E+02 -0.32060778138E+02  0.64603945724E+02  0.47000000000E+01 0. -1.
        -11    1    1    2    0    0 -0.35349427653E+01  0.48687796953E+02 -0.13048875761E+02  0.50529897596E+02  0.00000000000E+00 0. -1.
         11    1    1    2    0    0 -0.26172567842E+02 -0.42633254399E+02 -0.14046542486E+01  0.50045686544E+02  0.00000000000E+00 0.  1.
<mgrwt>
<rscale>  0 0.12062562E+03</rscale>
<asrwt>0</asrwt>
<pdfrwt beam="2">  1        3 0.36535997E-01 0.12860732E+03</pdfrwt>
<pdfrwt beam="1">  1       -3 0.10159529E-01 0.12860732E+03</pdfrwt>
<totfact> 0.12130786E+03</totfact>
</mgrwt>
</event>
<event>
 7    1  0.6008063E-006  0.1258941E+03  0.7546771E-02  0.1248465E+00
         -1   -1    0    0    0  501 -0.00000000000E+00  0.00000000000E+00  0.34763979967E+03  0.34763979967E+03  0.00000000000E+00 0.  1.
          1   -1    0    0  501    0  0.00000000000E+00 -0.00000000000E+00 -0.48027120190E+02  0.48027120190E+02  0.00000000000E+00 0. -1.
         23    2    1    2    0    0 -0.14885608265E+02  0.16051980063E+01  0.61865631537E+02  0.14027358747E+03  0.12500065993E+03 0.  0.
          5    1    3    3  502    0 -0.26073961042E+02  0.27539048189E+02 -0.27077592425E+02  0.46835207175E+02  0.47000000000E+01 0. -1.
         -5    1    3    3    0  502  0.11188352778E+02 -0.25933850183E+02  0.88943223962E+02  0.93438380294E+02  0.47000000000E+01 0. -1.
        -11    1    1    2    0    0  0.40719937956E+02  0.24220336248E+02  0.75888690662E+02  0.89464134745E+02  0.00000000000E+00 0.  1.
         11    1    1    2    0    0 -0.25834329692E+02 -0.25825534255E+02  0.16185835728E+03  0.16592919764E+03  0.00000000000E+00 0. -1.
<mgrwt>
<rscale>  0 0.11680381E+03</rscale>
<asrwt>0</asrwt>
<pdfrwt beam="2">  1        1 0.73887880E-02 0.12589409E+03</pdfrwt>
<pdfrwt beam="1">  1       -1 0.53483044E-01 0.12589409E+03</pdfrwt>
<totfact> 0.33615479E+03</totfact>
</mgrwt>
</event>
<event>
 7    1  0.6008063E-006  0.1252580E+03  0.7546771E-02  0.1253543E+00
          1   -1    0    0  501    0  0.00000000000E+00  0.00000000000E+00  0.13376150679E+04  0.13376150679E+04  0.00000000000E+00 0. -1.
         -1   -1    0    0    0  501 -0.00000000000E+00 -0.00000000000E+00 -0.92082703602E+01  0.92082703602E+01  0.00000000000E+00 0.  1.
         23    2    1    2    0    0  0.14516763082E+01 -0.77635557289E+01  0.98400762908E+03  0.99194786686E+03  0.12500870495E+03 0.  0.
          5    1    3    3  502    0  0.41520545300E+02 -0.36516310107E+02  0.24168963596E+03  0.24797856100E+03  0.47000000000E+01 0. -1.
         -5    1    3    3    0  502 -0.40068868992E+02  0.28752754378E+02  0.74231799312E+03  0.74396930586E+03  0.47000000000E+01 0. -1.
        -11    1    1    2    0    0 -0.25515373771E+02  0.34820913212E+02  0.25133020200E+03  0.25501058946E+03  0.00000000000E+00 0. -1.
         11    1    1    2    0    0  0.24063697463E+02 -0.27057357483E+02  0.93068966504E+02  0.99864881994E+02  0.00000000000E+00 0.  1.
<mgrwt>
<rscale>  0 0.11388355E+03</rscale>
<asrwt>0</asrwt>
<pdfrwt beam="1">  1        1 0.20578678E+00 0.12525796E+03</pdfrwt>
<pdfrwt beam="2">  1       -1 0.14166580E-02 0.12525796E+03</pdfrwt>
<totfact> 0.10084614E+04</totfact>
</mgrwt>
</event>
<event>
 7    1  0.6008063E-006  0.1703762E+03  0.7546771E-02  0.1184127E+00
         -2   -1    0    0    0  501 -0.00000000000E+00  0.00000000000E+00  0.29458907994E+02  0.29458907994E+02  0.00000000000E+00 0.  1.
          2   -1    0    0  501    0  0.00000000000E+00 -0.00000000000E+00 -0.90842349954E+03  0.90842349954E+03  0.00000000000E+00 0. -1.
         23    2    1    2    0    0  0.56677939307E+02 -0.10094764298E+03 -0.58574746196E+03  0.61002307574E+03  0.12500099325E+03 0.  0.
          5    1    3    3  502    0  0.39761524574E+02 -0.65574689309E+02 -0.11925531716E+03  0.14186239596E+03  0.47000000000E+01 0.  1.
         -5    1    3    3    0  502  0.16916414732E+02 -0.35372953674E+02 -0.46649214480E+03  0.46816067978E+03  0.47000000000E+01 0.  1.
        -11    1    1    2    0    0 -0.75853424733E+02  0.97383074136E+02 -0.22189518605E+03  0.25391864595E+03  0.00000000000E+00 0.  1.
         11    1    1    2    0    0  0.19175485427E+02  0.35645688482E+01 -0.71321943541E+02  0.73940685843E+02  0.00000000000E+00 0. -1.
<mgrwt>
<rscale>  0 0.16411588E+03</rscale>
<asrwt>0</asrwt>
<pdfrwt beam="2">  1        2 0.13975745E+00 0.17037624E+03</pdfrwt>
<pdfrwt beam="1">  1       -2 0.45321399E-02 0.17037624E+03</pdfrwt>
<totfact> 0.66818214E+03</totfact>
</mgrwt>
</event>
<event>
 7    1  0.6008063E-006  0.1260025E+03  0.7546771E-02  0.1248395E+00
         -2   -1    0    0    0  501 -0.00000000000E+00  0.00000000000E+00  0.12034068250E+02  0.12034068250E+02  0.00000000000E+00 0.  1.
          2   -1    0    0  501    0  0.00000000000E+00 -0.00000000000E+00 -0.12893005710E+04  0.12893005710E+04  0.00000000000E+00 0. -1.
         23    2    1    2    0    0  0.14120407718E+02 -0.71869955718E+01 -0.10192678147E+04  0.10270265334E+04  0.12500233328E+03 0.  0.
          5    1    3    3  502    0  0.34997064643E+02  0.25333808728E+02 -0.13333403290E+03  0.14023783629E+03  0.47000000000E+01 0.  1.
         -5    1    3    3    0  502 -0.20876656926E+02 -0.32520804300E+02 -0.88593378181E+03  0.88678869708E+03  0.47000000000E+01 0.  1.
        -11    1    1    2    0    0 -0.17486252917E+01  0.40869398860E+02 -0.21230093240E+03  0.21620603912E+03  0.00000000000E+00 0. -1.
         11    1    1    2    0    0 -0.12371782426E+02 -0.33682403288E+02 -0.45697755653E+02  0.58102066774E+02  0.00000000000E+00 0.  1.
<mgrwt>
<rscale>  0 0.11684479E+03</rscale>
<asrwt>0</asrwt>
<pdfrwt beam="2">  1        2 0.19835385E+00 0.12600247E+03</pdfrwt>
<pdfrwt beam="1">  1       -2 0.18513959E-02 0.12600247E+03</pdfrwt>
<totfact> 0.14801292E+04</totfact>
</mgrwt>
</event>
<event>
 7    1  0.6008063E-006  0.1278594E+03  0.7546771E-02  0.1244698E+00
          2   -1    0    0  501    0  0.00000000000E+00  0.00000000000E+00  0.24669698205E+03  0.24669698205E+03  0.00000000000E+00 0. -1.
         -2   -1    0    0    0  501 -0.00000000000E+00 -0.00000000000E+00 -0.51885299434E+02  0.51885299434E+02  0.00000000000E+00 0.  1.
         23    2    1    2    0    0 -0.23931342633E+02  0.12273580223E+02  0.13227217405E+03  0.18396729712E+03  0.12499875380E+03 0.  0.
          5    1    3    3  502    0  0.67619974840E+01  0.17731593344E+02  0.14761568726E+03  0.14890471832E+03  0.47000000000E+01 0. -1.
         -5    1    3    3    0  502 -0.30693340117E+02 -0.54580131204E+01 -0.15343513210E+02  0.35062578804E+02  0.47000000000E+01 0. -1.
        -11    1    1    2    0    0 -0.38981052564E+01 -0.35789508632E+02 -0.64699536958E+01  0.36577923035E+02  0.00000000000E+00 0.  1.
         11    1    1    2    0    0  0.27829447890E+02  0.23515928409E+02  0.69009462264E+02  0.78037061328E+02  0.00000000000E+00 0. -1.
<mgrwt>
<rscale>  0 0.11903448E+03</rscale>
<asrwt>0</asrwt>
<pdfrwt beam="1">  1        2 0.37953381E-01 0.12785945E+03</pdfrwt>
<pdfrwt beam="2">  1       -2 0.79823539E-02 0.12785945E+03</pdfrwt>
<totfact> 0.12026530E+04</totfact>
</mgrwt>
</event>
<event>
 7    1  0.6008063E-006  0.1454833E+03  0.7546771E-02  0.1215288E+00
         -3   -1    0    0    0  501 -0.00000000000E+00  0.00000000000E+00  0.39656053912E+03  0.39656053912E+03  0.00000000000E+00 0.  1.
          3   -1    0    0  501    0  0.00000000000E+00 -0.00000000000E+00 -0.50645117788E+02  0.50645117788E+02  0.00000000000E+00 0. -1.
         23    2    1    2    0    0 -0.74379480673E+02 -0.12741987440E+01  0.10903894737E+03  0.18181000585E+03  0.12502581915E+03 0.  0.
          5    1    3    3  502    0 -0.17115151659E+02  0.59355997167E+02  0.46308881372E+02  0.77347691045E+02  0.47000000000E+01 0. -1.
         -5    1    3    3    0  502 -0.57264329014E+02 -0.60630195911E+02  0.62730065996E+02  0.10446231480E+03  0.47000000000E+01 0. -1.
        -11    1    1    2    0    0  0.23658005572E+01  0.38526174695E+02  0.75009776167E+02  0.84358340842E+02  0.00000000000E+00 0.  1.
         11    1    1    2    0    0  0.72013680116E+02 -0.37251975951E+02  0.16186669779E+03  0.18103731022E+03  0.00000000000E+00 0. -1.
<mgrwt>
<rscale>  0 0.13855408E+03</rscale>
<asrwt>0</asrwt>
<pdfrwt beam="2">  1        3 0.77915568E-02 0.14548328E+03</pdfrwt>
<pdfrwt beam="1">  1       -3 0.61009312E-01 0.14548328E+03</pdfrwt>
<totfact> 0.69219316E+02</totfact>
</mgrwt>
</event>
<event>
 7    1  0.6008063E-006  0.1340109E+03  0.7546771E-02  0.1234405E+00
         -1   -1    0    0    0  501 -0.00000000000E+00  0.00000000000E+00  0.27918631587E+02  0.27918631587E+02  0.00000000000E+00 0.  1.
          1   -1    0    0  501    0  0.00000000000E+00 -0.00000000000E+00 -0.81521522846E+03  0.81521522846E+03  0.00000000000E+00 0. -1.
         23    2    1    2    0    0 -0.47370684773E+02 -0.94400325854E+01 -0.68535977478E+03  0.69833869830E+03  0.12500328262E+03 0.  0.
          5    1    3    3  502    0 -0.67920124270E+02  0.30717541112E+02 -0.56131426894E+03  0.56626187328E+03  0.47000000000E+01 0.  1.
         -5    1    3    3    0  502  0.20549439497E+02 -0.40157573697E+02 -0.12404550584E+03  0.13207682502E+03  0.47000000000E+01 0.  1.
        -11    1    1    2    0    0 -0.73404006336E+01  0.36957162692E+02 -0.20481172725E+02  0.42885799420E+02  0.00000000000E+00 0.  1.
         11    1    1    2    0    0  0.54711085407E+02 -0.27517130107E+02 -0.81455649369E+02  0.10190936233E+03  0.00000000000E+00 0. -1.
<mgrwt>
<rscale>  0 0.12542602E+03</rscale>
<asrwt>0</asrwt>
<pdfrwt beam="2">  1        1 0.12541773E+00 0.13401088E+03</pdfrwt>
<pdfrwt beam="1">  1       -1 0.42951740E-02 0.13401088E+03</pdfrwt>
<totfact> 0.48099116E+03</totfact>
</mgrwt>
</event>
<event>
 7    1  0.6008063E-006  0.3870164E+03  0.7546771E-02  0.1049225E+00
          1   -1    0    0  501    0  0.00000000000E+00  0.00000000000E+00  0.13677831253E+03  0.13677831253E+03  0.00000000000E+00 0. -1.
         -1   -1    0    0    0  501 -0.00000000000E+00 -0.00000000000E+00 -0.11586311521E+04  0.11586311521E+04  0.00000000000E+00 0.  1.
         23    2    1    2    0    0 -0.35946022896E+03  0.70326848802E+02 -0.33634016812E+03  0.51274400289E+03  0.12499672770E+03 0.  0.
          5    1    3    3  502    0 -0.24466674734E+03  0.42834104743E+01 -0.27042908963E+03  0.36473846435E+03  0.47000000000E+01 0. -1.
         -5    1    3    3    0  502 -0.11479348162E+03  0.66043438327E+02 -0.65911078492E+02  0.14800553854E+03  0.47000000000E+01 0. -1.
        -11    1    1    2    0    0  0.32256161671E+03 -0.49001911658E+02 -0.53874994861E+03  0.62984021072E+03  0.00000000000E+00 0. -1.
         11    1    1    2    0    0  0.36898612253E+02 -0.21324937143E+02 -0.14676272285E+03  0.15282525102E+03  0.00000000000E+00 0.  1.
<mgrwt>
<rscale>  0 0.38465935E+03</rscale>
<asrwt>0</asrwt>
<pdfrwt beam="1">  1        1 0.21042817E-01 0.38701641E+03</pdfrwt>
<pdfrwt beam="2">  1       -1 0.17825095E+00 0.38701641E+03</pdfrwt>
<totfact> 0.55531604E+01</totfact>
</mgrwt>
</event>
<event>
 6    1  0.6008063E-006  0.3392024E+03  0.7546771E-02  0.1067136E+00
          1   -1    0    0  501    0  0.00000000000E+00  0.00000000000E+00  0.52190665465E+03  0.52190665465E+03  0.00000000000E+00 0. -1.
         -1   -1    0    0    0  501 -0.00000000000E+00 -0.00000000000E+00 -0.55114401843E+02  0.55114401843E+02  0.00000000000E+00 0.  1.
          5    1    1    2  502    0 -0.82495707234E+02 -0.30128034545E+02  0.15701473536E+03  0.17996932321E+03  0.47000000000E+01 0. -1.
         -5    1    1    2    0  502  0.17698101517E+02  0.18722936900E+02  0.27076514547E+03  0.27202872122E+03  0.47000000000E+01 0.  1.
        -11    1    1    2    0    0  0.23297862029E+02  0.27200273420E+02 -0.27427999882E+02  0.45110313973E+02  0.00000000000E+00 0.  1.
         11    1    1    2    0    0  0.41499743688E+02 -0.15795175775E+02  0.66440371859E+02  0.79912698094E+02  0.00000000000E+00 0. -1.
<mgrwt>
<rscale>  0 0.33920244E+03</rscale>
<asrwt>0</asrwt>
<pdfrwt beam="1">  1        1 0.80293328E-01 0.33920244E+03</pdfrwt>
<pdfrwt beam="2">  1       -1 0.84791391E-02 0.33920244E+03</pdfrwt>
<totfact> 0.33630086E+03</totfact>
</mgrwt>
</event>
<event>
 7    1  0.6008063E-006  0.1459333E+03  0.7546771E-02  0.1215287E+00
          1   -1    0    0  501    0  0.00000000000E+00  0.00000000000E+00  0.53360696993E+02  0.53360696993E+02  0.00000000000E+00 0. -1.
         -1   -1    0    0    0  501 -0.00000000000E+00 -0.00000000000E+00 -0.32784300941E+03  0.32784300941E+03  0.00000000000E+00 0.  1.
         23    2    1    2    0    0 -0.54801543389E+02 -0.51644435718E+02 -0.15338599639E+03  0.21171631739E+03  0.12500471297E+03 0.  0.
          5    1    3    3  502    0 -0.32028796247E+02 -0.72887990025E+00  0.13957200624E+02  0.35260012822E+02  0.47000000000E+01 0.  1.
         -5    1    3    3    0  502 -0.22772747142E+02 -0.50915555818E+02 -0.16734319701E+03  0.17645630457E+03  0.47000000000E+01 0.  1.
        -11    1    1    2    0    0  0.33524575477E+02 -0.46312042852E+01 -0.10026004884E+03  0.10581787471E+03  0.00000000000E+00 0.  1.
         11    1    1    2    0    0  0.21276967911E+02  0.56275640003E+02 -0.20836267189E+02  0.63669514303E+02  0.00000000000E+00 0. -1.
<mgrwt>
<rscale>  0 0.13855443E+03</rscale>
<asrwt>0</asrwt>
<pdfrwt beam="1">  1        1 0.82093382E-02 0.14593332E+03</pdfrwt>
<pdfrwt beam="2">  1       -1 0.50437385E-01 0.14593332E+03</pdfrwt>
<totfact> 0.32779186E+03</totfact>
</mgrwt>
</event>
<event>
 7    1  0.6008063E-006  0.1766143E+03  0.7546771E-02  0.1176009E+00
          1   -1    0    0  501    0  0.00000000000E+00  0.00000000000E+00  0.16796034157E+03  0.16796034157E+03  0.00000000000E+00 0. -1.
         -1   -1    0    0    0  501 -0.00000000000E+00 -0.00000000000E+00 -0.16740112478E+03  0.16740112478E+03  0.00000000000E+00 0.  1.
         23    2    1    2    0    0  0.99085712230E+02  0.75832442458E+02 -0.10578803051E+02  0.17693081055E+03  0.12499625174E+03 0.  0.
          5    1    3    3  502    0  0.12788743637E+03  0.72897904955E+02 -0.92883543335E+01  0.14757257351E+03  0.47000000000E+01 0. -1.
         -5    1    3    3    0  502 -0.28801724138E+02  0.29345375028E+01 -0.12904487171E+01  0.29358237031E+02  0.47000000000E+01 0. -1.
        -11    1    1    2    0    0 -0.28118148787E+02 -0.76816982073E+02  0.26162600250E+02  0.85883413287E+02  0.00000000000E+00 0.  1.
         11    1    1    2    0    0 -0.70967563443E+02  0.98453961509E+00 -0.15024580408E+02  0.72547242509E+02  0.00000000000E+00 0. -1.
<mgrwt>
<rscale>  0 0.17177509E+03</rscale>
<asrwt>0</asrwt>
<pdfrwt beam="1">  1        1 0.25840052E-01 0.17661427E+03</pdfrwt>
<pdfrwt beam="2">  1       -1 0.25754019E-01 0.17661427E+03</pdfrwt>
<totfact> 0.23846705E+03</totfact>
</mgrwt>
</event>
<event>
 7    1  0.6008063E-006  0.1621599E+03  0.7546771E-02  0.1191991E+00
         -2   -1    0    0    0  501 -0.00000000000E+00  0.00000000000E+00  0.29878337028E+02  0.29878337028E+02  0.00000000000E+00 0. -1.
          2   -1    0    0  501    0  0.00000000000E+00 -0.00000000000E+00 -0.83147683739E+03  0.83147683739E+03  0.00000000000E+00 0.  1.
         23    2    1    2    0    0  0.35603049842E+01  0.10323721258E+03 -0.53277757782E+03  0.55690913600E+03  0.12500096202E+03 0.  0.
          5    1    3    3  502    0 -0.58708149094E+02  0.39491192698E+02 -0.28012604171E+03  0.28896174541E+03  0.47000000000E+01 0.  1.
         -5    1    3    3    0  502  0.62268454078E+02  0.63746019879E+02 -0.25265153611E+03  0.26794739059E+03  0.47000000000E+01 0.  1.
        -11    1    1    2    0    0  0.34395512795E+02 -0.73392536751E+01 -0.10625231876E+03  0.11192171901E+03  0.00000000000E+00 0.  1.
         11    1    1    2    0    0 -0.37955817779E+02 -0.95897958902E+02 -0.16256860378E+03  0.19252431940E+03  0.00000000000E+00 0. -1.
<mgrwt>
<rscale>  0 0.15711650E+03</rscale>
<asrwt>0</asrwt>
<pdfrwt beam="2">  1        2 0.12791950E+00 0.16215992E+03</pdfrwt>
<pdfrwt beam="1">  1       -2 0.45966676E-02 0.16215992E+03</pdfrwt>
<totfact> 0.73216328E+03</totfact>
</mgrwt>
</event>
<event>
 6    1  0.6008063E-006  0.2078866E+03  0.7546771E-02  0.1178037E+00
         -1   -1    0    0    0  501 -0.00000000000E+00  0.00000000000E+00  0.20258484473E+02  0.20258484473E+02  0.00000000000E+00 0.  1.
          1   -1    0    0  501    0  0.00000000000E+00 -0.00000000000E+00 -0.22218996100E+04  0.22218996100E+04  0.00000000000E+00 0. -1.
          5    1    1    2  502    0 -0.79158841248E+02  0.83172855022E+01 -0.18718584080E+04  0.18735557876E+04  0.47000000000E+01 0. -1.
         -5    1    1    2    0  502  0.59802683350E+02  0.13921380681E+00 -0.20263228862E+03  0.21132513979E+03  0.47000000000E+01 0.  1.
        -11    1    1    2    0    0  0.45068440785E+02 -0.33225221751E+02 -0.66855613491E+02  0.87205233619E+02  0.00000000000E+00 0.  1.
         11    1    1    2    0    0 -0.25712282887E+02  0.24768722442E+02 -0.60294815397E+02  0.70071933514E+02  0.00000000000E+00 0. -1.
<mgrwt>
<rscale>  0 0.16981863E+03</rscale>
<asrwt>0</asrwt>
<pdfrwt beam="2">  1        1 0.34183078E+00 0.20788658E+03</pdfrwt>
<pdfrwt beam="1">  1       -1 0.31166893E-02 0.20788658E+03</pdfrwt>
<totfact> 0.86846408E+02</totfact>
</mgrwt>
</event>
<event>
 7    1  0.6008063E-006  0.1352213E+03  0.7546771E-02  0.1233107E+00
          2   -1    0    0  501    0  0.00000000000E+00  0.00000000000E+00  0.94288293118E+02  0.94288293118E+02  0.00000000000E+00 0. -1.
         -2   -1    0    0    0  501 -0.00000000000E+00 -0.00000000000E+00 -0.15124561201E+03  0.15124561201E+03  0.00000000000E+00 0.  1.
         23    2    1    2    0    0 -0.82314583215E+01 -0.50897555066E+02 -0.42386373217E+02  0.14170887540E+03  0.12500593072E+03 0.  0.
          5    1    3    3  502    0  0.13820052814E+02  0.36482582790E+02  0.52861222023E+01  0.39648528280E+02  0.47000000000E+01 0. -1.
         -5    1    3    3    0  502 -0.22051511135E+02 -0.87380137856E+02 -0.47672495420E+02  0.10206034712E+03  0.47000000000E+01 0. -1.
        -11    1    1    2    0    0  0.18808205189E+02 -0.16382487489E+02  0.15509775532E+02  0.29371544321E+02  0.00000000000E+00 0. -1.
         11    1    1    2    0    0 -0.10576746867E+02  0.67280042555E+02 -0.30080721205E+02  0.74453485403E+02  0.00000000000E+00 0.  1.
<mgrwt>
<rscale>  0 0.12626398E+03</rscale>
<asrwt>0</asrwt>
<pdfrwt beam="1">  1        2 0.14505891E-01 0.13522130E+03</pdfrwt>
<pdfrwt beam="2">  1       -2 0.23268555E-01 0.13522130E+03</pdfrwt>
<totfact> 0.62096046E+03</totfact>
</mgrwt>
</event>
<event>
 7    1  0.6008063E-006  0.1326940E+03  0.7546771E-02  0.1273728E+00
          4   -1    0    0  501    0  0.00000000000E+00  0.00000000000E+00  0.43497588777E+03  0.43497588777E+03  0.00000000000E+00 0. -1.
         -4   -1    0    0    0  501 -0.00000000000E+00 -0.00000000000E+00 -0.19636640882E+02  0.19636640882E+02  0.00000000000E+00 0.  1.
         23    2    1    2    0    0 -0.41604192142E+02 -0.15860050834E+02  0.34022368117E+03  0.36518466405E+03  0.12500094246E+03 0.  0.
          5    1    3    3  502    0  0.16269888337E+02 -0.56622030876E+02  0.19139378740E+03  0.20031084719E+03  0.47000000000E+01 0.  1.
         -5    1    3    3    0  502 -0.57874080479E+02  0.40761980041E+02  0.14882989377E+03  0.16487381686E+03  0.47000000000E+01 0.  1.
        -11    1    1    2    0    0  0.13015367898E+02  0.14333319724E+02  0.36980383646E+02  0.41741976839E+02  0.00000000000E+00 0. -1.
         11    1    1    2    0    0  0.28588824244E+02  0.15267311102E+01  0.38135182076E+02  0.47685887760E+02  0.00000000000E+00 0.  1.
<mgrwt>
<rscale>  0 0.10318988E+03</rscale>
<asrwt>0</asrwt>
<pdfrwt beam="1">  1        4 0.66919360E-01 0.13269395E+03</pdfrwt>
<pdfrwt beam="2">  1       -4 0.30210220E-02 0.13269395E+03</pdfrwt>
<totfact> 0.18385554E+03</totfact>
</mgrwt>
</event>
<event>
 6    1  0.6008063E-006  0.1595029E+03  0.7546771E-02  0.1202479E+00
         -2   -1    0    0    0  501 -0.00000000000E+00  0.00000000000E+00  0.63425101138E+02  0.63425101138E+02  0.00000000000E+00 0.  1.
          2   -1    0    0  501    0  0.00000000000E+00 -0.00000000000E+00 -0.30698361306E+03  0.30698361306E+03  0.00000000000E+00 0. -1.
          5    1    1    2  502    0  0.42504768604E+02  0.35486720040E+02 -0.35800954121E+02  0.66104167564E+02  0.47000000000E+01 0. -1.
         -5    1    1    2    0  502 -0.10098008939E+03  0.19098912166E+02 -0.98081138571E+02  0.14213988407E+03  0.47000000000E+01 0.  1.
        -11    1    1    2    0    0  0.26258158926E+02 -0.17075558460E+01  0.94074241013E+01  0.27944700488E+02  0.00000000000E+00 0. -1.
         11    1    1    2    0    0  0.32217161861E+02 -0.52878076360E+02 -0.11908384333E+03  0.13421996208E+03  0.00000000000E+00 0.  1.
<mgrwt>
<rscale>  0 0.14837938E+03</rscale>
<asrwt>0</asrwt>
<pdfrwt beam="2">  1        2 0.47228249E-01 0.15950288E+03</pdfrwt>
<pdfrwt beam="1">  1       -2 0.97577077E-02 0.15950288E+03</pdfrwt>
<totfact> 0.70842066E+03</totfact>
</mgrwt>
</event>
<event>
 7    1  0.6008063E-006  0.1414420E+03  0.7546771E-02  0.1222407E+00
          2   -1    0    0  501    0  0.00000000000E+00  0.00000000000E+00  0.63474915787E+03  0.63474915787E+03  0.00000000000E+00 0.  1.
         -2   -1    0    0    0  501 -0.00000000000E+00 -0.00000000000E+00 -0.41851527703E+02  0.41851527703E+02  0.00000000000E+00 0. -1.
         23    2    1    2    0    0  0.60012382140E+02  0.27921931276E+02  0.52892716946E+03  0.54751235939E+03  0.12499885136E+03 0.  0.
          5    1    3    3  502    0  0.41215364230E+01 -0.43910165872E+02  0.25483608496E+03  0.25866698654E+03  0.47000000000E+01 0. -1.
         -5    1    3    3    0  502  0.55890845717E+02  0.71832097147E+02  0.27409108450E+03  0.28884537285E+03  0.47000000000E+01 0. -1.
        -11    1    1    2    0    0 -0.77578744575E+02 -0.64308937958E+01  0.64849322373E+02  0.10131758296E+03  0.00000000000E+00 0. -1.
         11    1    1    2    0    0  0.17566362435E+02 -0.21491037480E+02 -0.87886166428E+00  0.27770743220E+02  0.00000000000E+00 0.  1.
<mgrwt>
<rscale>  0 0.13346195E+03</rscale>
<asrwt>0</asrwt>
<pdfrwt beam="1">  1        2 0.97653709E-01 0.14144198E+03</pdfrwt>
<pdfrwt beam="2">  1       -2 0.64386971E-02 0.14144198E+03</pdfrwt>
<totfact> 0.60545475E+03</totfact>
</mgrwt>
</event>
<event>
 7    1  0.6008063E-006  0.1281215E+03  0.7546771E-02  0.1244368E+00
          1   -1    0    0  501    0  0.00000000000E+00  0.00000000000E+00  0.14787952573E+03  0.14787952573E+03  0.00000000000E+00 0. -1.
         -1   -1    0    0    0  501 -0.00000000000E+00 -0.00000000000E+00 -0.88285659205E+02  0.88285659205E+02  0.00000000000E+00 0.  1.
         23    2    1    2    0    0 -0.27063306621E+02  0.76237763852E+01  0.56475652495E+02  0.14001653425E+03  0.12499834401E+03 0.  0.
          5    1    3    3  502    0  0.34363284447E+02 -0.19976341492E+02  0.60331029466E+02  0.72400363631E+02  0.47000000000E+01 0. -1.
         -5    1    3    3    0  502 -0.61426591068E+02  0.27600117877E+02 -0.38553769718E+01  0.67616170616E+02  0.47000000000E+01 0. -1.
        -11    1    1    2    0    0  0.67861970265E+01  0.39285611753E+02 -0.13999055151E+02  0.42253820017E+02  0.00000000000E+00 0.  1.
         11    1    1    2    0    0  0.20277109595E+02 -0.46909388138E+02  0.17117269182E+02  0.53894830673E+02  0.00000000000E+00 0. -1.
<mgrwt>
<rscale>  0 0.11923268E+03</rscale>
<asrwt>0</asrwt>
<pdfrwt beam="1">  1        1 0.22750696E-01 0.12812155E+03</pdfrwt>
<pdfrwt beam="2">  1       -1 0.13582409E-01 0.12812155E+03</pdfrwt>
<totfact> 0.76657572E+03</totfact>
</mgrwt>
</event>
<event>
 7    1  0.6008063E-006  0.1447476E+03  0.7546771E-02  0.1217020E+00
         -1   -1    0    0    0  501 -0.00000000000E+00  0.00000000000E+00  0.22732848669E+02  0.22732848669E+02  0.00000000000E+00 0.  1.
          1   -1    0    0  501    0  0.00000000000E+00 -0.00000000000E+00 -0.92090936277E+03  0.92090936277E+03  0.00000000000E+00 0. -1.
         23    2    1    2    0    0  0.27028588349E+02 -0.67972219880E+02 -0.68761505833E+03  0.70268510043E+03  0.12490442213E+03 0.  0.
          5    1    3    3  502    0  0.55730464220E+02  0.73491417258E+01 -0.17831657514E+03  0.18702616260E+03  0.47000000000E+01 0. -1.
         -5    1    3    3    0  502 -0.28701875871E+02 -0.75321361606E+02 -0.50929848318E+03  0.51565893783E+03  0.47000000000E+01 0. -1.
        -11    1    1    2    0    0  0.27609693989E+01  0.39590938482E+02 -0.17178365594E+02  0.43245365143E+02  0.00000000000E+00 0.  1.
         11    1    1    2    0    0 -0.29789557748E+02  0.28381281399E+02 -0.19338309018E+03  0.19771174586E+03  0.00000000000E+00 0. -1.
<mgrwt>
<rscale>  0 0.13729178E+03</rscale>
<asrwt>0</asrwt>
<pdfrwt beam="2">  1        1 0.14167841E+00 0.14474765E+03</pdfrwt>
<pdfrwt beam="1">  1       -1 0.34973603E-02 0.14474765E+03</pdfrwt>
<totfact> 0.53910565E+03</totfact>
</mgrwt>
</event>
<event>
 7    1  0.6008063E-006  0.1289235E+03  0.7546771E-02  0.1242511E+00
          2   -1    0    0  501    0  0.00000000000E+00  0.00000000000E+00  0.38347808681E+03  0.38347808681E+03  0.00000000000E+00 0.  1.
         -2   -1    0    0    0  501 -0.00000000000E+00 -0.00000000000E+00 -0.47796608451E+02  0.47796608451E+02  0.00000000000E+00 0. -1.
         23    2    1    2    0    0  0.43165207038E+01  0.31239855235E+02  0.30090612965E+03  0.32736181331E+03  0.12500678800E+03 0.  0.
          5    1    3    3  502    0 -0.47933512793E+02  0.51464764977E+02  0.19681921472E+03  0.20906012763E+03  0.47000000000E+01 0. -1.
         -5    1    3    3    0  502  0.52250033496E+02 -0.20224909741E+02  0.10408691493E+03  0.11830168568E+03  0.47000000000E+01 0. -1.
        -11    1    1    2    0    0  0.35293878652E+02 -0.42597407052E+02  0.28507382355E+02  0.62232369444E+02  0.00000000000E+00 0.  1.
         11    1    1    2    0    0 -0.39610399355E+02  0.11357551817E+02  0.62679663502E+01  0.41680512503E+02  0.00000000000E+00 0. -1.
<mgrwt>
<rscale>  0 0.12035611E+03</rscale>
<asrwt>0</asrwt>
<pdfrwt beam="1">  1        2 0.58996627E-01 0.12892346E+03</pdfrwt>
<pdfrwt beam="2">  1       -2 0.73533246E-02 0.12892346E+03</pdfrwt>
<totfact> 0.85550418E+03</totfact>
</mgrwt>
</event>
<event>
 7    1  0.6008063E-006  0.4222133E+03  0.7546771E-02  0.1037016E+00
          2   -1    0    0  501    0  0.00000000000E+00  0.00000000000E+00  0.11935612161E+04  0.11935612161E+04  0.00000000000E+00 0. -1.
         -2   -1    0    0    0  501 -0.00000000000E+00 -0.00000000000E+00 -0.16343943000E+03  0.16343943000E+03  0.00000000000E+00 0.  1.
         23    2    1    2    0    0 -0.39921281194E+03  0.57128195618E+02  0.73815058576E+03  0.85037070473E+03  0.12501819170E+03 0.  0.
          5    1    3    3  502    0 -0.10664809556E+03  0.57042138774E+02  0.30004683251E+03  0.32353950854E+03  0.47000000000E+01 0. -1.
         -5    1    3    3    0  502 -0.29256471638E+03  0.86056844892E-01  0.43810375325E+03  0.52683119620E+03  0.47000000000E+01 0. -1.
        -11    1    1    2    0    0  0.34898023700E+03 -0.20789935077E+02  0.22703931158E+03  0.41685282322E+03  0.00000000000E+00 0.  1.
         11    1    1    2    0    0  0.50232574940E+02 -0.36338260541E+02  0.64931888738E+02  0.89777118128E+02  0.00000000000E+00 0. -1.
<mgrwt>
<rscale>  0 0.42015422E+03</rscale>
<asrwt>0</asrwt>
<pdfrwt beam="1">  1        2 0.18362480E+00 0.42221327E+03</pdfrwt>
<pdfrwt beam="2">  1       -2 0.25144528E-01 0.42221327E+03</pdfrwt>
<totfact> 0.28061013E+02</totfact>
</mgrwt>
</event>
<event>
 7    1  0.6008063E-006  0.1317800E+03  0.7546771E-02  0.1238379E+00
         -1   -1    0    0    0  501 -0.00000000000E+00  0.00000000000E+00  0.50427085639E+03  0.50427085639E+03  0.00000000000E+00 0.  1.
          1   -1    0    0  501    0  0.00000000000E+00 -0.00000000000E+00 -0.95711098578E+02  0.95711098578E+02  0.00000000000E+00 0. -1.
         23    2    1    2    0    0 -0.84645252544E+01 -0.40868412916E+02 -0.42163698369E+02  0.13836095332E+03  0.12499640228E+03 0.  0.
          5    1    3    3  502    0 -0.11203904420E+02  0.39427880405E+02  0.10002543982E+02  0.42452633765E+02  0.47000000000E+01 0.  1.
         -5    1    3    3    0  502  0.27393791653E+01 -0.80296293321E+02 -0.52166242350E+02  0.95908319557E+02  0.47000000000E+01 0.  1.
        -11    1    1    2    0    0 -0.39434271403E+02  0.10050369157E+02  0.14332043041E+03  0.14898596395E+03  0.00000000000E+00 0.  1.
         11    1    1    2    0    0  0.47898796658E+02  0.30818043759E+02  0.30740302576E+03  0.31263503769E+03  0.00000000000E+00 0. -1.
<mgrwt>
<rscale>  0 0.12290602E+03</rscale>
<asrwt>0</asrwt>
<pdfrwt beam="2">  1        1 0.14724785E-01 0.13178003E+03</pdfrwt>
<pdfrwt beam="1">  1       -1 0.77580130E-01 0.13178003E+03</pdfrwt>
<totfact> 0.66049961E+02</totfact>
</mgrwt>
</event>
<event>
 7    1  0.6008063E-006  0.1399959E+03  0.7546771E-02  0.1225210E+00
          3   -1    0    0  501    0  0.00000000000E+00  0.00000000000E+00  0.46751958225E+02  0.46751958225E+02  0.00000000000E+00 0. -1.
         -3   -1    0    0    0  501 -0.00000000000E+00 -0.00000000000E+00 -0.33435771706E+03  0.33435771706E+03  0.00000000000E+00 0.  1.
         23    2    1    2    0    0 -0.60086120311E+02 -0.19074888726E+02 -0.14468685423E+03  0.20132840239E+03  0.12499858634E+03 0.  0.
          5    1    3    3  502    0 -0.98308243539E+02 -0.49953819991E+01 -0.10930049218E+03  0.14716708932E+03  0.47000000000E+01 0. -1.
         -5    1    3    3    0  502  0.38222123228E+02 -0.14079506727E+02 -0.35386362051E+02  0.54161313065E+02  0.47000000000E+01 0. -1.
        -11    1    1    2    0    0  0.27626451859E+02  0.49624606851E+02 -0.45944419178E+02  0.73052803512E+02  0.00000000000E+00 0. -1.
         11    1    1    2    0    0  0.32459668452E+02 -0.30549718125E+02 -0.96974485424E+02  0.10672846938E+03  0.00000000000E+00 0.  1.
<mgrwt>
<rscale>  0 0.13152527E+03</rscale>
<asrwt>0</asrwt>
<pdfrwt beam="1">  1        3 0.71926087E-02 0.13999586E+03</pdfrwt>
<pdfrwt beam="2">  1       -3 0.51439651E-01 0.13999586E+03</pdfrwt>
<totfact> 0.11090301E+03</totfact>
</mgrwt>
</event>
<event>
 7    1  0.6008063E-006  0.1986173E+03  0.7546771E-02  0.1155016E+00
         -1   -1    0    0    0  501 -0.00000000000E+00  0.00000000000E+00  0.19823099052E+03  0.19823099052E+03  0.00000000000E+00 0.  1.
          1   -1    0    0  501    0  0.00000000000E+00 -0.00000000000E+00 -0.19368502972E+03  0.19368502972E+03  0.00000000000E+00 0. -1.
         23    2    1    2    0    0  0.10046775891E+03 -0.11718526955E+03 -0.47572717586E+02  0.20423513358E+03  0.12499067304E+03 0.  0.
          5    1    3    3  502    0  0.16209674105E+02 -0.10703142218E+03 -0.49705229360E+02  0.11921064841E+03  0.47000000000E+01 0.  1.
         -5    1    3    3    0  502  0.84258084804E+02 -0.10153847371E+02  0.21325117741E+01  0.85024485166E+02  0.47000000000E+01 0.  1.
        -11    1    1    2    0    0 -0.19700560173E+02  0.89795354023E+02  0.97359291137E+01  0.92445151257E+02  0.00000000000E+00 0. -1.
         11    1    1    2    0    0 -0.80767198736E+02  0.27389915528E+02  0.42382749273E+02  0.95235735416E+02  0.00000000000E+00 0.  1.
<mgrwt>
<rscale>  0 0.19387025E+03</rscale>
<asrwt>0</asrwt>
<pdfrwt beam="2">  1        1 0.29797697E-01 0.19861729E+03</pdfrwt>
<pdfrwt beam="1">  1       -1 0.30497075E-01 0.19861729E+03</pdfrwt>
<totfact> 0.15058105E+03</totfact>
</mgrwt>
</event>
<event>
 7    1  0.6008063E-006  0.1525503E+03  0.7546771E-02  0.1206101E+00
          1   -1    0    0  501    0  0.00000000000E+00  0.00000000000E+00  0.35168294098E+02  0.35168294098E+02  0.00000000000E+00 0. -1.
         -1   -1    0    0    0  501 -0.00000000000E+00 -0.00000000000E+00 -0.65647989784E+03  0.65647989784E+03  0.00000000000E+00 0.  1.
         23    2    1    2    0    0  0.38538523350E+02  0.78501371405E+02 -0.19829475110E+03  0.25018472278E+03  0.12499561634E+03 0.  0.
          5    1    3    3  502    0  0.54391392088E+02  0.10204603387E+03 -0.11974423676E+03  0.16653104455E+03  0.47000000000E+01 0. -1.
         -5    1    3    3    0  502 -0.15852868738E+02 -0.23544662467E+02 -0.78550514336E+02  0.83653678224E+02  0.47000000000E+01 0. -1.
        -11    1    1    2    0    0 -0.64644605475E+02 -0.39227244435E+02 -0.30816834815E+03  0.31730967922E+03  0.00000000000E+00 0.  1.
         11    1    1    2    0    0  0.26106082126E+02 -0.39274126969E+02 -0.11484850449E+03  0.12415378994E+03  0.00000000000E+00 0. -1.
<mgrwt>
<rscale>  0 0.14551030E+03</rscale>
<asrwt>0</asrwt>
<pdfrwt beam="1">  1        1 0.54105075E-02 0.15255028E+03</pdfrwt>
<pdfrwt beam="2">  1       -1 0.10099689E+00 0.15255028E+03</pdfrwt>
<totfact> 0.14427049E+03</totfact>
</mgrwt>
</event>
<event>
 7    1  0.6008063E-006  0.1277474E+03  0.7546771E-02  0.1254707E+00
          2   -1    0    0  501    0  0.00000000000E+00  0.00000000000E+00  0.61345586659E+03  0.61345586659E+03  0.00000000000E+00 0. -1.
         -2   -1    0    0    0  501 -0.00000000000E+00 -0.00000000000E+00 -0.20001577515E+02  0.20001577515E+02  0.00000000000E+00 0.  1.
         23    2    1    2    0    0 -0.59416050173E+01  0.25687675626E+02  0.46937679027E+03  0.48645036662E+03  0.12499691432E+03 0.  0.
          5    1    3    3  502    0 -0.22554005874E+02 -0.63167941217E+01  0.10432104484E+02  0.26067295082E+02  0.47000000000E+01 0.  1.
         -5    1    3    3    0  502  0.16612400856E+02  0.32004469748E+02  0.45894468578E+03  0.46038307153E+03  0.47000000000E+01 0.  1.
        -11    1    1    2    0    0 -0.18558588011E+02 -0.12866872635E+02  0.29632502401E+01  0.22776269500E+02  0.00000000000E+00 0.  1.
         11    1    1    2    0    0  0.24500193028E+02 -0.12820802991E+02  0.12111424856E+03  0.12423080799E+03  0.00000000000E+00 0. -1.
<mgrwt>
<rscale>  0 0.11322741E+03</rscale>
<asrwt>0</asrwt>
<pdfrwt beam="1">  1        2 0.94377811E-01 0.12774736E+03</pdfrwt>
<pdfrwt beam="2">  1       -2 0.30771662E-02 0.12774736E+03</pdfrwt>
<totfact> 0.18843339E+04</totfact>
</mgrwt>
</event>
<event>
 7    1  0.6008063E-006  0.1297224E+03  0.7546771E-02  0.1241943E+00
         -2   -1    0    0    0  501 -0.00000000000E+00  0.00000000000E+00  0.74978468895E+02  0.74978468895E+02  0.00000000000E+00 0.  1.
          2   -1    0    0  501    0  0.00000000000E+00 -0.00000000000E+00 -0.17780627714E+03  0.17780627714E+03  0.00000000000E+00 0. -1.
         23    2    1    2    0    0 -0.28554525971E+02  0.19658268145E+02 -0.81625914871E+02  0.15326674713E+03  0.12500438928E+03 0.  0.
          5    1    3    3  502    0 -0.15041841555E+02  0.66545212146E+02 -0.14101605053E+02  0.69824548132E+02  0.47000000000E+01 0.  1.
         -5    1    3    3    0  502 -0.13512684416E+02 -0.46886944001E+02 -0.67524309818E+02  0.83442199002E+02  0.47000000000E+01 0.  1.
        -11    1    1    2    0    0  0.52925476962E+02 -0.22063911271E+02  0.11680715637E+02  0.58518043457E+02  0.00000000000E+00 0.  1.
         11    1    1    2    0    0 -0.24370950991E+02  0.24056431256E+01 -0.32882609011E+02  0.40999955444E+02  0.00000000000E+00 0. -1.
<mgrwt>
<rscale>  0 0.12070215E+03</rscale>
<asrwt>0</asrwt>
<pdfrwt beam="2">  1        2 0.27354812E-01 0.12972242E+03</pdfrwt>
<pdfrwt beam="1">  1       -2 0.11535149E-01 0.12972242E+03</pdfrwt>
<totfact> 0.96283587E+03</totfact>
</mgrwt>
</event>
<event>
 7    1  0.6008063E-006  0.1425245E+03  0.7546771E-02  0.1219854E+00
          1   -1    0    0  501    0  0.00000000000E+00  0.00000000000E+00  0.11667499023E+04  0.11667499023E+04  0.00000000000E+00 0. -1.
         -1   -1    0    0    0  501 -0.00000000000E+00 -0.00000000000E+00 -0.15645294703E+02  0.15645294703E+02  0.00000000000E+00 0.  1.
         23    2    1    2    0    0  0.66760990750E+02  0.15250345919E+02  0.80424203315E+03  0.81677320517E+03  0.12499447128E+03 0.  0.
          5    1    3    3  502    0 -0.15133786811E+02  0.32177008187E+02  0.49781097496E+03  0.49910144074E+03  0.47000000000E+01 0.  1.
         -5    1    3    3    0  502  0.81894777561E+02 -0.16926662268E+02  0.30643105820E+03  0.31767176443E+03  0.47000000000E+01 0.  1.
        -11    1    1    2    0    0  0.14512598687E+02 -0.26784192789E+02  0.13541780674E+03  0.13880198445E+03  0.00000000000E+00 0. -1.
         11    1    1    2    0    0 -0.81273589437E+02  0.11533846869E+02  0.21144476772E+03  0.22682000741E+03  0.00000000000E+00 0.  1.
<mgrwt>
<rscale>  0 0.13525907E+03</rscale>
<asrwt>0</asrwt>
<pdfrwt beam="1">  1        1 0.17949992E+00 0.14252446E+03</pdfrwt>
<pdfrwt beam="2">  1       -1 0.24069693E-02 0.14252446E+03</pdfrwt>
<totfact> 0.61691078E+03</totfact>
</mgrwt>
</event>
<event>
 6    1  0.6008063E-006  0.4952055E+03  0.7546771E-02  0.1070050E+00
         -2   -1    0    0    0  501 -0.00000000000E+00  0.00000000000E+00  0.13406182191E+03  0.13406182191E+03  0.00000000000E+00 0.  1.
          2   -1    0    0  501    0  0.00000000000E+00 -0.00000000000E+00 -0.67586441210E+03  0.67586441210E+03  0.00000000000E+00 0. -1.
          5    1    1    2  502    0  0.69345114362E+02  0.82935551165E+02 -0.54263732614E+03  0.55332125231E+03  0.47000000000E+01 0. -1.
         -5    1    1    2    0  502 -0.85998867030E+02 -0.10242421957E+03  0.52198241908E+02  0.14364286388E+03  0.47000000000E+01 0.  1.
        -11    1    1    2    0    0 -0.33003747199E+02  0.21606625583E+02  0.26800476327E+01  0.39538288450E+02  0.00000000000E+00 0.  1.
         11    1    1    2    0    0  0.49657499867E+02 -0.21179571826E+01 -0.54043553592E+02  0.73423829378E+02  0.00000000000E+00 0. -1.
<mgrwt>
<rscale>  0 0.33246706E+03</rscale>
<asrwt>0</asrwt>
<pdfrwt beam="2">  1        2 0.10397914E+00 0.49520550E+03</pdfrwt>
<pdfrwt beam="1">  1       -2 0.20624896E-01 0.49520550E+03</pdfrwt>
<totfact> 0.87151077E+02</totfact>
</mgrwt>
</event>
<event>
 7    1  0.6008063E-006  0.2805937E+03  0.7546771E-02  0.1097260E+00
         -1   -1    0    0    0  501 -0.00000000000E+00  0.00000000000E+00  0.44749256449E+02  0.44749256449E+02  0.00000000000E+00 0.  1.
          1   -1    0    0  501    0  0.00000000000E+00 -0.00000000000E+00 -0.17941134899E+04  0.17941134899E+04  0.00000000000E+00 0. -1.
         23    2    1    2    0    0  0.24982483498E+03  0.26361549541E+02 -0.11312826810E+04  0.11655613774E+04  0.12500176256E+03 0.  0.
          5    1    3    3  502    0  0.24016865420E+03  0.22205221319E+02 -0.83746402836E+03  0.87151715021E+03  0.47000000000E+01 0.  1.
         -5    1    3    3    0  502  0.96561807750E+01  0.41563282226E+01 -0.29381865266E+03  0.29404422719E+03  0.47000000000E+01 0.  1.
        -11    1    1    2    0    0 -0.56259912622E+02 -0.21169324680E+02 -0.71366880117E+02  0.93308893752E+02  0.00000000000E+00 0.  1.
         11    1    1    2    0    0 -0.19356492235E+03 -0.51922248613E+01 -0.54671467233E+03  0.57999247522E+03  0.00000000000E+00 0. -1.
<mgrwt>
<rscale>  0 0.27714189E+03</rscale>
<asrwt>0</asrwt>
<pdfrwt beam="2">  1        1 0.27601750E+00 0.28059369E+03</pdfrwt>
<pdfrwt beam="1">  1       -1 0.68844999E-02 0.28059369E+03</pdfrwt>
<totfact> 0.49713972E+02</totfact>
</mgrwt>
</event>
<event>
 7    1  0.6008063E-006  0.1482982E+03  0.7546771E-02  0.1211864E+00
          2   -1    0    0  501    0  0.00000000000E+00  0.00000000000E+00  0.58617747860E+02  0.58617747860E+02  0.00000000000E+00 0. -1.
         -2   -1    0    0    0  501 -0.00000000000E+00 -0.00000000000E+00 -0.31048518350E+03  0.31048518350E+03  0.00000000000E+00 0.  1.
         23    2    1    2    0    0 -0.42839545407E+02 -0.67320178925E+02 -0.13909566503E+03  0.20332228822E+03  0.12500046286E+03 0.  0.
          5    1    3    3  502    0 -0.44470362780E+02  0.10825298047E+02 -0.27506880104E+01  0.46091827129E+02  0.47000000000E+01 0. -1.
         -5    1    3    3    0  502  0.16308173724E+01 -0.78145476972E+02 -0.13634497701E+03  0.15723046109E+03  0.47000000000E+01 0. -1.
        -11    1    1    2    0    0 -0.19715111190E+02  0.31802204616E+02 -0.76629234089E+02  0.85276640088E+02  0.00000000000E+00 0. -1.
         11    1    1    2    0    0  0.62554656597E+02  0.35517974309E+02 -0.36142536522E+02  0.80504003051E+02  0.00000000000E+00 0.  1.
<mgrwt>
<rscale>  0 0.14109408E+03</rscale>
<asrwt>0</asrwt>
<pdfrwt beam="1">  1        2 0.90181152E-02 0.14829818E+03</pdfrwt>
<pdfrwt beam="2">  1       -2 0.47766951E-01 0.14829818E+03</pdfrwt>
<totfact> 0.29630525E+03</totfact>
</mgrwt>
</event>
<event>
 7    1  0.6008063E-006  0.1272279E+03  0.7546771E-02  0.1247572E+00
          2   -1    0    0  501    0  0.00000000000E+00  0.00000000000E+00  0.73320796241E+02  0.73320796241E+02  0.00000000000E+00 0. -1.
         -2   -1    0    0    0  501 -0.00000000000E+00 -0.00000000000E+00 -0.24664762096E+03  0.24664762096E+03  0.00000000000E+00 0.  1.
         23    2    1    2    0    0  0.12584438404E+02 -0.20080109741E+02 -0.40410202304E+01  0.12729203968E+03  0.12500141849E+03 0.  0.
          5    1    3    3  502    0  0.44183883706E+02  0.22797890234E+02  0.35086938017E+02  0.61033946275E+02  0.47000000000E+01 0. -1.
         -5    1    3    3    0  502 -0.31599445302E+02 -0.42877999975E+02 -0.39127958247E+02  0.66258093406E+02  0.47000000000E+01 0. -1.
        -11    1    1    2    0    0  0.14029121435E+02 -0.17932196959E+02 -0.12969786585E+03  0.13168111612E+03  0.00000000000E+00 0.  1.
         11    1    1    2    0    0 -0.26613559839E+02  0.38012306701E+02 -0.39587938640E+02  0.60995261404E+02  0.00000000000E+00 0. -1.
<mgrwt>
<rscale>  0 0.11732748E+03</rscale>
<asrwt>0</asrwt>
<pdfrwt beam="1">  1        2 0.11280123E-01 0.12722788E+03</pdfrwt>
<pdfrwt beam="2">  1       -2 0.37945787E-01 0.12722788E+03</pdfrwt>
<totfact> 0.34679173E+03</totfact>
</mgrwt>
</event>
<event>
 7    1  0.6008063E-006  0.2756414E+03  0.7546771E-02  0.1099957E+00
          2   -1    0    0  501    0  0.00000000000E+00  0.00000000000E+00  0.53705454575E+03  0.53705454575E+03  0.00000000000E+00 0. -1.
         -2   -1    0    0    0  501 -0.00000000000E+00 -0.00000000000E+00 -0.16697370254E+03  0.16697370254E+03  0.00000000000E+00 0.  1.
         23    2    1    2    0    0 -0.11179041785E+03  0.21875563477E+03  0.34299765509E+03  0.44002907704E+03  0.12500828762E+03 0.  0.
          5    1    3    3  502    0 -0.92520864178E+02  0.22533338050E+03  0.26806737244E+03  0.36223949101E+03  0.47000000000E+01 0. -1.
         -5    1    3    3    0  502 -0.19269553669E+02 -0.65777457283E+01  0.74930282642E+02  0.77789586027E+02  0.47000000000E+01 0. -1.
        -11    1    1    2    0    0 -0.15720129740E+02 -0.28770269501E+02 -0.42344502968E+01  0.33057245129E+02  0.00000000000E+00 0.  1.
         11    1    1    2    0    0  0.12751054759E+03 -0.18998536527E+03  0.31317638424E+02  0.23094192612E+03  0.00000000000E+00 0. -1.
<mgrwt>
<rscale>  0 0.27232321E+03</rscale>
<asrwt>0</asrwt>
<pdfrwt beam="1">  1        2 0.82623775E-01 0.27564143E+03</pdfrwt>
<pdfrwt beam="2">  1       -2 0.25688262E-01 0.27564143E+03</pdfrwt>
<totfact> 0.77948505E+02</totfact>
</mgrwt>
</event>
<event>
 7    1  0.6008063E-006  0.1464435E+03  0.7546771E-02  0.1213558E+00
         -1   -1    0    0    0  501 -0.00000000000E+00  0.00000000000E+00  0.15422133067E+03  0.15422133067E+03  0.00000000000E+00 0.  1.
          1   -1    0    0  501    0  0.00000000000E+00 -0.00000000000E+00 -0.12037257071E+03  0.12037257071E+03  0.00000000000E+00 0. -1.
         23    2    1    2    0    0 -0.17456223097E+02  0.74280655042E+02 -0.58366435884E+01  0.14655981265E+03  0.12499350718E+03 0.  0.
          5    1    3    3  502    0 -0.49916527058E+02  0.72903710462E+02 -0.41808537738E+02  0.97860382691E+02  0.47000000000E+01 0.  1.
         -5    1    3    3    0  502  0.32460303960E+02  0.13769445807E+01  0.35971894150E+02  0.48699429959E+02  0.47000000000E+01 0.  1.
        -11    1    1    2    0    0  0.45609408453E+02 -0.33016402796E+02 -0.10442774246E+02  0.57265631290E+02  0.00000000000E+00 0. -1.
         11    1    1    2    0    0 -0.28153185356E+02 -0.41264252247E+02  0.50128177802E+02  0.70768457443E+02  0.00000000000E+00 0.  1.
<mgrwt>
<rscale>  0 0.13983009E+03</rscale>
<asrwt>0</asrwt>
<pdfrwt beam="2">  1        1 0.18518857E-01 0.14644355E+03</pdfrwt>
<pdfrwt beam="1">  1       -1 0.23726359E-01 0.14644355E+03</pdfrwt>
<totfact> 0.41320573E+03</totfact>
</mgrwt>
</event>
<event>
 7    1  0.6008063E-006  0.1461206E+03  0.7546771E-02  0.1215137E+00
         -2   -1    0    0    0  501 -0.00000000000E+00  0.00000000000E+00  0.37361538172E+02  0.37361538172E+02  0.00000000000E+00 0. -1.
          2   -1    0    0  501    0  0.00000000000E+00 -0.00000000000E+00 -0.47990975205E+03  0.47990975205E+03  0.00000000000E+00 0.  1.
         23    2    1    2    0    0  0.29486209297E+02 -0.69693284427E+02 -0.28336508632E+03  0.31882127531E+03  0.12499857203E+03 0.  0.
          5    1    3    3  502    0 -0.40882939204E+02 -0.62738751491E+02 -0.15448520394E+03  0.17174205627E+03  0.47000000000E+01 0. -1.
         -5    1    3    3    0  502  0.70369148501E+02 -0.69545329364E+01 -0.12887988239E+03  0.14707921904E+03  0.47000000000E+01 0. -1.
        -11    1    1    2    0    0 -0.43494605563E+02  0.13423943549E+02 -0.12032523293E+03  0.12864736551E+03  0.00000000000E+00 0.  1.
         11    1    1    2    0    0  0.14008396266E+02  0.56269340878E+02 -0.38857894626E+02  0.69802649402E+02  0.00000000000E+00 0. -1.
<mgrwt>
<rscale>  0 0.13866493E+03</rscale>
<asrwt>0</asrwt>
<pdfrwt beam="2">  1        2 0.73832268E-01 0.14612061E+03</pdfrwt>
<pdfrwt beam="1">  1       -2 0.57479290E-02 0.14612061E+03</pdfrwt>
<totfact> 0.98634809E+03</totfact>
</mgrwt>
</event>
<event>
 7    1  0.6008063E-006  0.1617992E+03  0.7546771E-02  0.1194140E+00
         -1   -1    0    0    0  501 -0.00000000000E+00  0.00000000000E+00  0.21592593862E+02  0.21592593862E+02  0.00000000000E+00 0.  1.
          1   -1    0    0  501    0  0.00000000000E+00 -0.00000000000E+00 -0.11073197036E+04  0.11073197036E+04  0.00000000000E+00 0. -1.
         23    2    1    2    0    0  0.10267950480E+03  0.36650078524E+01 -0.72808667608E+03  0.74584797406E+03  0.12498991771E+03 0.  0.
          5    1    3    3  502    0  0.76778582872E+02 -0.14896844962E+02 -0.17401344166E+03  0.19083929013E+03  0.47000000000E+01 0.  1.
         -5    1    3    3    0  502  0.25900921929E+02  0.18561852815E+02 -0.55407323442E+03  0.55500868393E+03  0.47000000000E+01 0.  1.
        -11    1    1    2    0    0 -0.61194423823E+02  0.39052301404E+02 -0.24662889871E+03  0.25709074941E+03  0.00000000000E+00 0. -1.
         11    1    1    2    0    0 -0.41485080978E+02 -0.42717309257E+02 -0.11101153493E+03  0.12597357398E+03  0.00000000000E+00 0.  1.
<mgrwt>
<rscale>  0 0.15527203E+03</rscale>
<asrwt>0</asrwt>
<pdfrwt beam="2">  1        1 0.17035694E+00 0.16179924E+03</pdfrwt>
<pdfrwt beam="1">  1       -1 0.33219363E-02 0.16179924E+03</pdfrwt>
<totfact> 0.42627661E+03</totfact>
</mgrwt>
</event>
<event>
 7    1  0.6008063E-006  0.1424673E+03  0.7546771E-02  0.1220739E+00
          2   -1    0    0  501    0  0.00000000000E+00  0.00000000000E+00  0.25092529188E+03  0.25092529188E+03  0.00000000000E+00 0. -1.
         -2   -1    0    0    0  501 -0.00000000000E+00 -0.00000000000E+00 -0.87346098303E+02  0.87346098303E+02  0.00000000000E+00 0.  1.
         23    2    1    2    0    0 -0.43033207188E+02 -0.53104446028E+02  0.17317576565E+03  0.22424714424E+03  0.12499998713E+03 0.  0.
          5    1    3    3  502    0 -0.17337853833E+02  0.53465955900E+01  0.15713104660E+03  0.15824488322E+03  0.47000000000E+01 0. -1.
         -5    1    3    3    0  502 -0.25695353355E+02 -0.58451041618E+02  0.16044719051E+02  0.66002261020E+02  0.47000000000E+01 0. -1.
        -11    1    1    2    0    0 -0.15379764902E+02 -0.13034578022E+02  0.11618991034E+02  0.23268827759E+02  0.00000000000E+00 0. -1.
         11    1    1    2    0    0  0.58412972090E+02  0.66139024050E+02 -0.21215563112E+02  0.90755418179E+02  0.00000000000E+00 0.  1.
<mgrwt>
<rscale>  0 0.13463248E+03</rscale>
<asrwt>0</asrwt>
<pdfrwt beam="1">  1        2 0.38603891E-01 0.14246732E+03</pdfrwt>
<pdfrwt beam="2">  1       -2 0.13437861E-01 0.14246732E+03</pdfrwt>
<totfact> 0.52350754E+03</totfact>
</mgrwt>
</event>
<event>
 7    1  0.6008063E-006  0.1264135E+03  0.7546771E-02  0.1245464E+00
          2   -1    0    0  501    0  0.00000000000E+00  0.00000000000E+00  0.62150099482E+03  0.62150099482E+03  0.00000000000E+00 0.  1.
         -2   -1    0    0    0  501 -0.00000000000E+00 -0.00000000000E+00 -0.33936654358E+02  0.33936654358E+02  0.00000000000E+00 0. -1.
         23    2    1    2    0    0  0.95634067502E+01 -0.16230571866E+02  0.52331923353E+03  0.53837104732E+03  0.12500189677E+03 0.  0.
          5    1    3    3  502    0  0.65374425146E+02 -0.21998265004E+02  0.25486323842E+03  0.26407404155E+03  0.47000000000E+01 0.  1.
         -5    1    3    3    0  502 -0.55811018396E+02  0.57676931385E+01  0.26845599511E+03  0.27429700576E+03  0.47000000000E+01 0.  1.
        -11    1    1    2    0    0 -0.30427042746E+02 -0.29679277556E+01 -0.14160741705E+02  0.33691840719E+02  0.00000000000E+00 0. -1.
         11    1    1    2    0    0  0.20863635995E+02  0.19198499622E+02  0.78405848634E+02  0.83374761137E+02  0.00000000000E+00 0.  1.
<mgrwt>
<rscale>  0 0.11857676E+03</rscale>
<asrwt>0</asrwt>
<pdfrwt beam="1">  1        2 0.95615529E-01 0.12641347E+03</pdfrwt>
<pdfrwt beam="2">  1       -2 0.52210242E-02 0.12641347E+03</pdfrwt>
<totfact> 0.84637406E+03</totfact>
</mgrwt>
</event>
<event>
 7    1  0.6008063E-006  0.1539629E+03  0.7546771E-02  0.1203420E+00
          1   -1    0    0  501    0  0.00000000000E+00  0.00000000000E+00  0.87980099396E+03  0.87980099396E+03  0.00000000000E+00 0. -1.
         -1   -1    0    0    0  501 -0.00000000000E+00 -0.00000000000E+00 -0.22961226880E+02  0.22961226880E+02  0.00000000000E+00 0.  1.
         23    2    1    2    0    0 -0.48088807798E+02 -0.76072043785E+02  0.47936619677E+03  0.50348439901E+03  0.12492037528E+03 0.  0.
          5    1    3    3  502    0  0.29717389837E+02 -0.68965193788E+02  0.25419524415E+03  0.26509740354E+03  0.47000000000E+01 0. -1.
         -5    1    3    3    0  502 -0.77806197634E+02 -0.71068499976E+01  0.22517095262E+03  0.23838699547E+03  0.47000000000E+01 0. -1.
        -11    1    1    2    0    0  0.66526662292E+02  0.85604982593E+02  0.33288238833E+03  0.35009240823E+03  0.00000000000E+00 0. -1.
         11    1    1    2    0    0 -0.18437854494E+02 -0.95329388075E+01  0.44591181990E+02  0.49185413610E+02  0.00000000000E+00 0.  1.
<mgrwt>
<rscale>  0 0.14762675E+03</rscale>
<asrwt>0</asrwt>
<pdfrwt beam="1">  1        1 0.13535397E+00 0.15396295E+03</pdfrwt>
<pdfrwt beam="2">  1       -1 0.35324971E-02 0.15396295E+03</pdfrwt>
<totfact> 0.57300693E+03</totfact>
</mgrwt>
</event>
<event>
 7    1  0.6008063E-006  0.2556236E+03  0.7546771E-02  0.1111883E+00
         -1   -1    0    0    0  501 -0.00000000000E+00  0.00000000000E+00  0.50685088185E+03  0.50685088185E+03  0.00000000000E+00 0.  1.
          1   -1    0    0  501    0  0.00000000000E+00 -0.00000000000E+00 -0.14921927752E+03  0.14921927752E+03  0.00000000000E+00 0. -1.
         23    2    1    2    0    0 -0.19791133675E+03 -0.10271236113E+03  0.43562181274E+02  0.25930889922E+03  0.12499886094E+03 0.  0.
          5    1    3    3  502    0 -0.59069699546E+02  0.14614595135E+01  0.60679466830E+02  0.84826015839E+02  0.47000000000E+01 0.  1.
         -5    1    3    3    0  502 -0.13884163720E+03 -0.10417382065E+03 -0.17117285556E+02  0.17448288339E+03  0.47000000000E+01 0.  1.
        -11    1    1    2    0    0  0.13269800642E+03  0.72026206667E+02  0.13055839883E+03  0.19960468647E+03  0.00000000000E+00 0. -1.
         11    1    1    2    0    0  0.65213330327E+02  0.30686154467E+02  0.18351102423E+03  0.19715657367E+03  0.00000000000E+00 0.  1.
<mgrwt>
<rscale>  0 0.25226346E+03</rscale>
<asrwt>0</asrwt>
<pdfrwt beam="2">  1        1 0.22956812E-01 0.25562363E+03</pdfrwt>
<pdfrwt beam="1">  1       -1 0.77977058E-01 0.25562363E+03</pdfrwt>
<totfact> 0.36905103E+02</totfact>
</mgrwt>
</event>
<event>
 7    1  0.6008063E-006  0.1280592E+03  0.7546771E-02  0.1246680E+00
          2   -1    0    0  501    0  0.00000000000E+00  0.00000000000E+00  0.78121971954E+02  0.78121971954E+02  0.00000000000E+00 0. -1.
         -2   -1    0    0    0  501 -0.00000000000E+00 -0.00000000000E+00 -0.15731404541E+03  0.15731404541E+03  0.00000000000E+00 0.  1.
         23    2    1    2    0    0  0.16742852535E+02 -0.24841178440E+01 -0.31256766751E+02  0.13181855694E+03  0.12693562358E+03 0.  0.
          5    1    3    3  502    0 -0.11215578771E+02  0.26169759336E+02  0.40373094477E+02  0.49625822598E+02  0.47000000000E+01 0. -1.
         -5    1    3    3    0  502  0.27958431305E+02 -0.28653877180E+02 -0.71629861228E+02  0.82192734338E+02  0.47000000000E+01 0.  1.
        -11    1    1    2    0    0 -0.33189684872E+02 -0.36082227571E+02 -0.18546110622E+02  0.52416033307E+02  0.00000000000E+00 0.  1.
         11    1    1    2    0    0  0.16446832338E+02  0.38566345415E+02 -0.29389196082E+02  0.51201427119E+02  0.00000000000E+00 0. -1.
<mgrwt>
<rscale>  0 0.11785363E+03</rscale>
<asrwt>0</asrwt>
<pdfrwt beam="1">  1        2 0.12018765E-01 0.12805915E+03</pdfrwt>
<pdfrwt beam="2">  1       -2 0.24202161E-01 0.12805915E+03</pdfrwt>
<totfact> 0.72227096E+03</totfact>
</mgrwt>
</event>
<event>
 7    1  0.6008063E-006  0.1251279E+03  0.7546771E-02  0.1249879E+00
          1   -1    0    0  501    0  0.00000000000E+00  0.00000000000E+00  0.24871120372E+03  0.24871120372E+03  0.00000000000E+00 0. -1.
         -1   -1    0    0    0  501 -0.00000000000E+00 -0.00000000000E+00 -0.13892763072E+03  0.13892763072E+03  0.00000000000E+00 0.  1.
         23    2    1    2    0    0 -0.55432366740E+01  0.14967775394E+01  0.21430348175E+03  0.24815918411E+03  0.12499612215E+03 0.  0.
          5    1    3    3  502    0  0.24745475426E+02  0.56252547330E+02  0.11969932023E+03  0.13463545186E+03  0.47000000000E+01 0. -1.
         -5    1    3    3    0  502 -0.30288712101E+02 -0.54755769791E+02  0.94604161523E+02  0.11352373225E+03  0.47000000000E+01 0. -1.
        -11    1    1    2    0    0  0.20098681034E+02  0.23780648207E+02 -0.10579643317E+03  0.11028309698E+03  0.00000000000E+00 0.  1.
         11    1    1    2    0    0 -0.14555444360E+02 -0.25277425747E+02  0.12765244241E+01  0.29196553349E+02  0.00000000000E+00 0. -1.
<mgrwt>
<rscale>  0 0.11598060E+03</rscale>
<asrwt>0</asrwt>
<pdfrwt beam="1">  1        1 0.38263262E-01 0.12512793E+03</pdfrwt>
<pdfrwt beam="2">  1       -1 0.21373482E-01 0.12512793E+03</pdfrwt>
<totfact> 0.19582652E+03</totfact>
</mgrwt>
</event>
<event>
 7    1  0.6008063E-006  0.1274766E+03  0.7546771E-02  0.1231888E+00
         -2   -1    0    0    0  501 -0.00000000000E+00  0.00000000000E+00  0.19057573960E+02  0.19057573960E+02  0.00000000000E+00 0.  1.
          2   -1    0    0  501    0  0.00000000000E+00 -0.00000000000E+00 -0.20618862536E+04  0.20618862536E+04  0.00000000000E+00 0. -1.
         23    2    1    2    0    0 -0.39440405998E+02  0.11911893624E+02 -0.18245988214E+04  0.18290465090E+04  0.12063512824E+03 0.  0.
          5    1    3    3  502    0 -0.97362593824E+01 -0.53758226969E+02 -0.86110822979E+03  0.86285237157E+03  0.47000000000E+01 0. -1.
         -5    1    3    3    0  502 -0.29704146615E+02  0.65670120593E+02 -0.96349059162E+03  0.96619413743E+03  0.47000000000E+01 0.  1.
        -11    1    1    2    0    0  0.33725612097E+02  0.43040348752E+02 -0.47430863067E+02  0.72384910744E+02  0.00000000000E+00 0.  1.
         11    1    1    2    0    0  0.57147939009E+01 -0.54952242377E+02 -0.17079899521E+03  0.17951240786E+03  0.00000000000E+00 0. -1.
<mgrwt>
<rscale>  0 0.12705769E+03</rscale>
<asrwt>0</asrwt>
<pdfrwt beam="2">  1        2 0.31721330E+00 0.12747656E+03</pdfrwt>
<pdfrwt beam="1">  1       -2 0.29319341E-02 0.12747656E+03</pdfrwt>
<totfact> 0.30289044E+03</totfact>
</mgrwt>
</event>
<event>
 7    1  0.6008063E-006  0.1779238E+03  0.7546771E-02  0.1173062E+00
         -1   -1    0    0    0  501 -0.00000000000E+00  0.00000000000E+00  0.48105493431E+02  0.48105493431E+02  0.00000000000E+00 0.  1.
          1   -1    0    0  501    0  0.00000000000E+00 -0.00000000000E+00 -0.62534051266E+03  0.62534051266E+03  0.00000000000E+00 0. -1.
         23    2    1    2    0    0  0.11559837420E+03  0.51669018638E+02 -0.25006176492E+03  0.30690022342E+03  0.12499675698E+03 0.  0.
          5    1    3    3  502    0 -0.24889163452E+02  0.54935875736E+01 -0.64912615921E+02  0.69895548266E+02  0.47000000000E+01 0. -1.
         -5    1    3    3    0  502  0.14048753765E+03  0.46175431065E+02 -0.18514914900E+03  0.23700467516E+03  0.47000000000E+01 0. -1.
        -11    1    1    2    0    0 -0.10550254944E+03 -0.13799548866E+02 -0.30142250600E+03  0.31965096999E+03  0.00000000000E+00 0. -1.
         11    1    1    2    0    0 -0.10095824759E+02 -0.37869469772E+02 -0.25750748305E+02  0.46894812684E+02  0.00000000000E+00 0.  1.
<mgrwt>
<rscale>  0 0.17467170E+03</rscale>
<asrwt>0</asrwt>
<pdfrwt beam="2">  1        1 0.96206225E-01 0.17792375E+03</pdfrwt>
<pdfrwt beam="1">  1       -1 0.74008458E-02 0.17792375E+03</pdfrwt>
<totfact> 0.31714451E+03</totfact>
</mgrwt>
</event>
<event>
 7    1  0.6008063E-006  0.1293020E+03  0.7546771E-02  0.1242303E+00
         -1   -1    0    0    0  501 -0.00000000000E+00  0.00000000000E+00  0.12393758113E+03  0.12393758113E+03  0.00000000000E+00 0.  1.
          1   -1    0    0  501    0  0.00000000000E+00 -0.00000000000E+00 -0.10600412006E+03  0.10600412006E+03  0.00000000000E+00 0. -1.
         23    2    1    2    0    0  0.24748584252E+02  0.21948392957E+02 -0.64574722566E+01  0.12946316293E+03  0.12499914893E+03 0.  0.
          5    1    3    3  502    0 -0.34960376727E+02  0.49759708514E+02 -0.15176291340E+02  0.62854326431E+02  0.47000000000E+01 0. -1.
         -5    1    3    3    0  502  0.59708960979E+02 -0.27811315557E+02  0.87188190833E+01  0.66608836504E+02  0.47000000000E+01 0. -1.
        -11    1    1    2    0    0 -0.56520318334E+02 -0.29569894084E+02  0.92053015808E+01  0.64448914637E+02  0.00000000000E+00 0. -1.
         11    1    1    2    0    0  0.31771734082E+02  0.76215011270E+01  0.15185631746E+02  0.36029623611E+02  0.00000000000E+00 0.  1.
<mgrwt>
<rscale>  0 0.12048285E+03</rscale>
<asrwt>0</asrwt>
<pdfrwt beam="2">  1        1 0.16308326E-01 0.12930202E+03</pdfrwt>
<pdfrwt beam="1">  1       -1 0.19067320E-01 0.12930202E+03</pdfrwt>
<totfact> 0.68699353E+03</totfact>
</mgrwt>
</event>
<event>
 6    1  0.6008063E-006  0.2505722E+03  0.7546771E-02  0.1152349E+00
          3   -1    0    0  501    0  0.00000000000E+00  0.00000000000E+00  0.21175374172E+03  0.21175374172E+03  0.00000000000E+00 0. -1.
         -3   -1    0    0    0  501 -0.00000000000E+00 -0.00000000000E+00 -0.18192898719E+03  0.18192898719E+03  0.00000000000E+00 0.  1.
          5    1    1    2  502    0 -0.10068513633E+03 -0.82867268552E+01 -0.27020832288E+02  0.10468229027E+03  0.47000000000E+01 0. -1.
         -5    1    1    2    0  502  0.10018797478E+03 -0.18700980486E+02  0.13239218993E+03  0.16714406635E+03  0.47000000000E+01 0.  1.
        -11    1    1    2    0    0  0.40336988004E+02  0.28017849351E+02 -0.63391630641E+02  0.80190843111E+02  0.00000000000E+00 0.  1.
         11    1    1    2    0    0 -0.39839826462E+02 -0.10301420097E+01 -0.12154972476E+02  0.41665529169E+02  0.00000000000E+00 0. -1.
<mgrwt>
<rscale>  0 0.19693731E+03</rscale>
<asrwt>0</asrwt>
<pdfrwt beam="1">  1        3 0.32577499E-01 0.25057224E+03</pdfrwt>
<pdfrwt beam="2">  1       -3 0.27989075E-01 0.25057224E+03</pdfrwt>
<totfact> 0.28085452E+02</totfact>
</mgrwt>
</event>
<event>
 7    1  0.6008063E-006  0.1467086E+03  0.7546771E-02  0.1214946E+00
          1   -1    0    0  501    0  0.00000000000E+00  0.00000000000E+00  0.52145302474E+02  0.52145302474E+02  0.00000000000E+00 0. -1.
         -1   -1    0    0    0  501 -0.00000000000E+00 -0.00000000000E+00 -0.43116520469E+03  0.43116520469E+03  0.00000000000E+00 0.  1.
         23    2    1    2    0    0 -0.76261376335E+02 -0.91338670447E+01 -0.92051435058E+02  0.17319611407E+03  0.12499680870E+03 0.  0.
          5    1    3    3  502    0 -0.84686989571E+02 -0.45031899597E+02 -0.29546254942E+02  0.10047302805E+03  0.47000000000E+01 0.  1.
         -5    1    3    3    0  502  0.84256132353E+01  0.35898032552E+02 -0.62505180116E+02  0.72723086024E+02  0.47000000000E+01 0.  1.
        -11    1    1    2    0    0  0.63067972580E+02  0.35753502119E+02 -0.26024478832E+03  0.27015408923E+03  0.00000000000E+00 0.  1.
         11    1    1    2    0    0  0.13193403755E+02 -0.26619635075E+02 -0.26723678835E+02  0.39960303861E+02  0.00000000000E+00 0. -1.
<mgrwt>
<rscale>  0 0.13880510E+03</rscale>
<asrwt>0</asrwt>
<pdfrwt beam="1">  1        1 0.80223541E-02 0.14670865E+03</pdfrwt>
<pdfrwt beam="2">  1       -1 0.66333109E-01 0.14670865E+03</pdfrwt>
<totfact> 0.20161037E+03</totfact>
</mgrwt>
</event>
<event>
 7    1  0.6008063E-006  0.1341946E+03  0.7546771E-02  0.1234855E+00
         -2   -1    0    0    0  501 -0.00000000000E+00  0.00000000000E+00  0.12465481026E+03  0.12465481026E+03  0.00000000000E+00 0.  1.
          2   -1    0    0  501    0  0.00000000000E+00 -0.00000000000E+00 -0.13045534323E+03  0.13045534323E+03  0.00000000000E+00 0. -1.
         23    2    1    2    0    0  0.48395474667E+02  0.64605783055E+01 -0.51611569261E+02  0.14377741330E+03  0.12499731779E+03 0.  0.
          5    1    3    3  502    0 -0.11361278533E+02  0.16089475997E+02 -0.75776240602E+02  0.78435186795E+02  0.47000000000E+01 0.  1.
         -5    1    3    3    0  502  0.59756753200E+02 -0.96288976915E+01  0.24164671341E+02  0.65342226506E+02  0.47000000000E+01 0.  1.
        -11    1    1    2    0    0 -0.35440353246E+02  0.25839646323E-01  0.72649721327E+02  0.80833169644E+02  0.00000000000E+00 0.  1.
         11    1    1    2    0    0 -0.12955121421E+02 -0.64864179518E+01 -0.26838685040E+02  0.30499570547E+02  0.00000000000E+00 0. -1.
<mgrwt>
<rscale>  0 0.12513724E+03</rscale>
<asrwt>0</asrwt>
<pdfrwt beam="2">  1        2 0.20070053E-01 0.13419460E+03</pdfrwt>
<pdfrwt beam="1">  1       -2 0.19177663E-01 0.13419460E+03</pdfrwt>
<totfact> 0.59359166E+03</totfact>
</mgrwt>
</event>
<event>
 7    1  0.6008063E-006  0.1306845E+03  0.7546771E-02  0.1234464E+00
         -2   -1    0    0    0  501 -0.00000000000E+00  0.00000000000E+00  0.13021845318E+03  0.13021845318E+03  0.00000000000E+00 0.  1.
          2   -1    0    0  501    0  0.00000000000E+00 -0.00000000000E+00 -0.12063239479E+03  0.12063239479E+03  0.00000000000E+00 0. -1.
         23    2    1    2    0    0 -0.37419327808E+02 -0.73151693067E+01 -0.28457401381E+02  0.13374704269E+03  0.12499891975E+03 0.  0.
          5    1    3    3  502    0 -0.80769637947E+02 -0.10651197917E+02 -0.60429733444E-01  0.81604387645E+02  0.47000000000E+01 0. -1.
         -5    1    3    3    0  502  0.43350310139E+02  0.33360286104E+01 -0.28396971648E+02  0.52142655042E+02  0.47000000000E+01 0. -1.
        -11    1    1    2    0    0  0.54298807481E+02 -0.78744025968E+01 -0.17098454767E+02  0.57469329781E+02  0.00000000000E+00 0. -1.
         11    1    1    2    0    0 -0.16879479673E+02  0.15189571904E+02  0.55141914543E+02  0.59634475500E+02  0.00000000000E+00 0.  1.
<mgrwt>
<rscale>  0 0.12538801E+03</rscale>
<asrwt>0</asrwt>
<pdfrwt beam="2">  1        2 0.18558830E-01 0.13068454E+03</pdfrwt>
<pdfrwt beam="1">  1       -2 0.20033608E-01 0.13068454E+03</pdfrwt>
<totfact> 0.60154882E+03</totfact>
</mgrwt>
</event>
<event>
 7    1  0.6008063E-006  0.2544020E+03  0.7546771E-02  0.1112908E+00
          1   -1    0    0  501    0  0.00000000000E+00  0.00000000000E+00  0.17882959927E+03  0.17882959927E+03  0.00000000000E+00 0. -1.
         -1   -1    0    0    0  501 -0.00000000000E+00 -0.00000000000E+00 -0.38118064151E+03  0.38118064151E+03  0.00000000000E+00 0.  1.
         23    2    1    2    0    0 -0.21722798955E+03  0.43670542583E+02 -0.13258650061E+02  0.25474722207E+03  0.12500095848E+03 0.  0.
          5    1    3    3  502    0 -0.17992456333E+03  0.46611739328E+01 -0.52851485431E+02  0.18764313082E+03  0.47000000000E+01 0. -1.
         -5    1    3    3    0  502 -0.37303426214E+02  0.39009368651E+02  0.39592835370E+02  0.67104091250E+02  0.47000000000E+01 0. -1.
        -11    1    1    2    0    0  0.91548515995E+02 -0.40138526383E+02 -0.33946180158E+02  0.10556787025E+03  0.00000000000E+00 0. -1.
         11    1    1    2    0    0  0.12567947355E+03 -0.35320162003E+01 -0.15514621203E+03  0.19969514846E+03  0.00000000000E+00 0.  1.
<mgrwt>
<rscale>  0 0.25062956E+03</rscale>
<asrwt>0</asrwt>
<pdfrwt beam="1">  1        1 0.27512246E-01 0.25440196E+03</pdfrwt>
<pdfrwt beam="2">  1       -1 0.58643175E-01 0.25440196E+03</pdfrwt>
<totfact> 0.51581998E+02</totfact>
</mgrwt>
</event>
<event>
 7    1  0.6008063E-006  0.1271003E+03  0.7546771E-02  0.1247237E+00
          1   -1    0    0  501    0  0.00000000000E+00  0.00000000000E+00  0.17381960646E+03  0.17381960646E+03  0.00000000000E+00 0. -1.
         -1   -1    0    0    0  501 -0.00000000000E+00 -0.00000000000E+00 -0.81043882876E+02  0.81043882876E+02  0.00000000000E+00 0.  1.
         23    2    1    2    0    0 -0.21678860889E+02  0.76387612600E+01  0.99921219528E+02  0.16167482109E+03  0.12500469584E+03 0.  0.
          5    1    3    3  502    0 -0.61049753407E+02  0.36055510636E+02  0.31701832099E+02  0.77808536785E+02  0.47000000000E+01 0. -1.
         -5    1    3    3    0  502  0.39370892518E+02 -0.28416749376E+02  0.68219387429E+02  0.83866284310E+02  0.47000000000E+01 0. -1.
        -11    1    1    2    0    0  0.43051840008E+02  0.22364396970E+02 -0.22252180965E+02  0.53374026808E+02  0.00000000000E+00 0.  1.
         11    1    1    2    0    0 -0.21372979120E+02 -0.30003158230E+02  0.15106685022E+02  0.39814641435E+02  0.00000000000E+00 0. -1.
<mgrwt>
<rscale>  0 0.11752512E+03</rscale>
<asrwt>0</asrwt>
<pdfrwt beam="1">  1        1 0.26741478E-01 0.12710034E+03</pdfrwt>
<pdfrwt beam="2">  1       -1 0.12468290E-01 0.12710034E+03</pdfrwt>
<totfact> 0.71426466E+03</totfact>
</mgrwt>
</event>
<event>
 7    1  0.6008063E-006  0.1313999E+03  0.7546771E-02  0.1238827E+00
         -2   -1    0    0    0  501 -0.00000000000E+00  0.00000000000E+00  0.37973291349E+03  0.37973291349E+03  0.00000000000E+00 0.  1.
          2   -1    0    0  501    0  0.00000000000E+00 -0.00000000000E+00 -0.35156963049E+02  0.35156963049E+02  0.00000000000E+00 0. -1.
         23    2    1    2    0    0 -0.38391010254E+02 -0.12948949202E+02  0.19307100971E+03  0.23354305377E+03  0.12499759285E+03 0.  0.
          5    1    3    3  502    0 -0.10520640106E+02  0.52529740046E+02  0.48855856267E+02  0.72657017205E+02  0.47000000000E+01 0.  1.
         -5    1    3    3    0  502 -0.27870370148E+02 -0.65478689248E+02  0.14421515344E+03  0.16088603656E+03  0.47000000000E+01 0.  1.
        -11    1    1    2    0    0  0.58965152635E+02  0.20971394094E+01  0.14595993000E+03  0.15743439390E+03  0.00000000000E+00 0.  1.
         11    1    1    2    0    0 -0.20574142381E+02  0.10851809792E+02  0.55450107351E+01  0.23912428872E+02  0.00000000000E+00 0. -1.
<mgrwt>
<rscale>  0 0.12262556E+03</rscale>
<asrwt>0</asrwt>
<pdfrwt beam="2">  1        2 0.54087638E-02 0.13139994E+03</pdfrwt>
<pdfrwt beam="1">  1       -2 0.58420445E-01 0.13139994E+03</pdfrwt>
<totfact> 0.37637046E+03</totfact>
</mgrwt>
</event>
<event>
 7    1  0.6008063E-006  0.1545091E+03  0.7546771E-02  0.1203674E+00
          2   -1    0    0  501    0  0.00000000000E+00  0.00000000000E+00  0.93071475123E+03  0.93071475123E+03  0.00000000000E+00 0. -1.
         -2   -1    0    0    0  501 -0.00000000000E+00 -0.00000000000E+00 -0.23198420361E+02  0.23198420361E+02  0.00000000000E+00 0.  1.
         23    2    1    2    0    0 -0.16589163331E+01 -0.89156555155E+02  0.62353545686E+03  0.64239358282E+03  0.12618005374E+03 0.  0.
          5    1    3    3  502    0 -0.12690370461E+02 -0.11567991432E+03  0.38908118951E+03  0.40613932352E+03  0.47000000000E+01 0. -1.
         -5    1    3    3    0  502  0.11031454128E+02  0.26523359160E+02  0.23445426735E+03  0.23625425931E+03  0.47000000000E+01 0.  1.
        -11    1    1    2    0    0 -0.11814280115E+02  0.90371420561E+02  0.28370913771E+03  0.29798900263E+03  0.00000000000E+00 0.  1.
         11    1    1    2    0    0  0.13473196448E+02 -0.12148654054E+01  0.27173629782E+00  0.13530586133E+02  0.00000000000E+00 0. -1.
<mgrwt>
<rscale>  0 0.14742417E+03</rscale>
<asrwt>0</asrwt>
<pdfrwt beam="1">  1        2 0.14318686E+00 0.15450906E+03</pdfrwt>
<pdfrwt beam="2">  1       -2 0.35689885E-02 0.15450906E+03</pdfrwt>
<totfact> 0.92006719E+03</totfact>
</mgrwt>
</event>
<event>
 7    1  0.6008063E-006  0.1348521E+03  0.7546771E-02  0.1233121E+00
         -1   -1    0    0    0  501 -0.00000000000E+00  0.00000000000E+00  0.30634492062E+03  0.30634492062E+03  0.00000000000E+00 0.  1.
          1   -1    0    0  501    0  0.00000000000E+00 -0.00000000000E+00 -0.46657984222E+02  0.46657984222E+02  0.00000000000E+00 0. -1.
         23    2    1    2    0    0  0.65420253499E+01 -0.50166994809E+02  0.13393627012E+03  0.19006315770E+03  0.12500221596E+03 0.  0.
          5    1    3    3  502    0 -0.68060076351E+01 -0.34569255005E+02 -0.15767511950E+02  0.38885210101E+02  0.47000000000E+01 0. -1.
         -5    1    3    3    0  502  0.13348032985E+02 -0.15597739804E+02  0.14970378207E+03  0.15117794759E+03  0.47000000000E+01 0. -1.
        -11    1    1    2    0    0 -0.53655941301E+01  0.74378744472E+02  0.11343158683E+03  0.13574870946E+03  0.00000000000E+00 0.  1.
         11    1    1    2    0    0 -0.11764312198E+01 -0.24211749663E+02  0.12319079445E+02  0.27191037687E+02  0.00000000000E+00 0. -1.
<mgrwt>
<rscale>  0 0.12625517E+03</rscale>
<asrwt>0</asrwt>
<pdfrwt beam="2">  1        1 0.71781516E-02 0.13485207E+03</pdfrwt>
<pdfrwt beam="1">  1       -1 0.47129987E-01 0.13485207E+03</pdfrwt>
<totfact> 0.44211325E+03</totfact>
</mgrwt>
</event>
<event>
 7    1  0.6008063E-006  0.2460357E+03  0.7546771E-02  0.1118434E+00
         -1   -1    0    0    0  501 -0.00000000000E+00  0.00000000000E+00  0.14246123054E+03  0.14246123054E+03  0.00000000000E+00 0.  1.
          1   -1    0    0  501    0  0.00000000000E+00 -0.00000000000E+00 -0.55197803351E+03  0.55197803351E+03  0.00000000000E+00 0. -1.
         23    2    1    2    0    0 -0.13038255888E+03  0.16705850313E+03 -0.39262161906E+03  0.46334143440E+03  0.12500157581E+03 0.  0.
          5    1    3    3  502    0  0.13773501930E+02  0.50588537579E+02 -0.44478878893E+02  0.68915674250E+02  0.47000000000E+01 0. -1.
         -5    1    3    3    0  502 -0.14415606081E+03  0.11646996555E+03 -0.34814274017E+03  0.39442576015E+03  0.47000000000E+01 0. -1.
        -11    1    1    2    0    0 -0.33552108294E+01 -0.54669963380E+02  0.51811857165E+01  0.55017333825E+02  0.00000000000E+00 0. -1.
         11    1    1    2    0    0  0.13373776971E+03 -0.11238853975E+03 -0.22076369628E+02  0.17608049582E+03  0.00000000000E+00 0.  1.
<mgrwt>
<rscale>  0 0.24205084E+03</rscale>
<asrwt>0</asrwt>
<pdfrwt beam="2">  1        1 0.84919698E-01 0.24603567E+03</pdfrwt>
<pdfrwt beam="1">  1       -1 0.21917112E-01 0.24603567E+03</pdfrwt>
<totfact> 0.68775346E+02</totfact>
</mgrwt>
</event>
<event>
 7    1  0.6008063E-006  0.1442537E+03  0.7546771E-02  0.1218268E+00
         -1   -1    0    0    0  501 -0.00000000000E+00  0.00000000000E+00  0.63500061888E+03  0.63500061888E+03  0.00000000000E+00 0. -1.
          1   -1    0    0  501    0  0.00000000000E+00 -0.00000000000E+00 -0.36595991645E+02  0.36595991645E+02  0.00000000000E+00 0.  1.
         23    2    1    2    0    0 -0.46079545976E+02 -0.55309604366E+02  0.14799902244E+03  0.20667087764E+03  0.12500665635E+03 0.  0.
          5    1    3    3  502    0 -0.19874926403E+01  0.39034337055E+02  0.49567284199E+02  0.63297987798E+02  0.47000000000E+01 0.  1.
         -5    1    3    3    0  502 -0.44092053336E+02 -0.94343941422E+02  0.98431738237E+02  0.14337288985E+03  0.47000000000E+01 0.  1.
        -11    1    1    2    0    0  0.17149106541E+02 -0.22788157889E+02  0.71564548210E+02  0.77038150001E+02  0.00000000000E+00 0.  1.
         11    1    1    2    0    0  0.28930439435E+02  0.78097762255E+02  0.37884105659E+03  0.38788758288E+03  0.00000000000E+00 0. -1.
<mgrwt>
<rscale>  0 0.13639200E+03</rscale>
<asrwt>0</asrwt>
<pdfrwt beam="2">  1        1 0.56301530E-02 0.14425374E+03</pdfrwt>
<pdfrwt beam="1">  1       -1 0.97692395E-01 0.14425374E+03</pdfrwt>
<totfact> 0.14670522E+03</totfact>
</mgrwt>
</event>
<event>
 7    1  0.6008063E-006  0.1327499E+03  0.7546771E-02  0.1235551E+00
         -1   -1    0    0    0  501 -0.00000000000E+00  0.00000000000E+00  0.19223967956E+02  0.19223967956E+02  0.00000000000E+00 0.  1.
          1   -1    0    0  501    0  0.00000000000E+00 -0.00000000000E+00 -0.72499936891E+03  0.72499936891E+03  0.00000000000E+00 0. -1.
         23    2    1    2    0    0  0.29059921200E+01 -0.44557541881E+02 -0.40233628569E+03  0.42367089101E+03  0.12501487021E+03 0.  0.
          5    1    3    3  502    0 -0.57133053447E+02 -0.11008992462E+00 -0.15520850606E+03  0.16545684715E+03  0.47000000000E+01 0.  1.
         -5    1    3    3    0  502  0.60039045567E+02 -0.44447451956E+02 -0.24712777963E+03  0.25821404386E+03  0.47000000000E+01 0.  1.
        -11    1    1    2    0    0 -0.22453474209E+02 -0.20074488803E+02 -0.14874361319E+03  0.15176233416E+03  0.00000000000E+00 0. -1.
         11    1    1    2    0    0  0.19547482089E+02  0.64632030683E+02 -0.15469550207E+03  0.16879011170E+03  0.00000000000E+00 0.  1.
<mgrwt>
<rscale>  0 0.12469235E+03</rscale>
<asrwt>0</asrwt>
<pdfrwt beam="2">  1        1 0.11153839E+00 0.13274990E+03</pdfrwt>
<pdfrwt beam="1">  1       -1 0.29575329E-02 0.13274990E+03</pdfrwt>
<totfact> 0.98712974E+03</totfact>
</mgrwt>
</event>
<event>
 7    1  0.6008063E-006  0.2064463E+03  0.7546771E-02  0.1148556E+00
          2   -1    0    0  501    0  0.00000000000E+00  0.00000000000E+00  0.13607975516E+03  0.13607975516E+03  0.00000000000E+00 0. -1.
         -2   -1    0    0    0  501 -0.00000000000E+00 -0.00000000000E+00 -0.29417395806E+03  0.29417395806E+03  0.00000000000E+00 0.  1.
         23    2    1    2    0    0 -0.16176577437E+03  0.23689754743E+02 -0.12194230013E+03  0.23977075569E+03  0.12605840109E+03 0.  0.
          5    1    3    3  502    0 -0.11440974437E+03  0.66484072463E+02 -0.45349644530E+02  0.13995857157E+03  0.47000000000E+01 0. -1.
         -5    1    3    3    0  502 -0.47356030007E+02 -0.42794317720E+02 -0.76592655600E+02  0.99812184121E+02  0.47000000000E+01 0.  1.
        -11    1    1    2    0    0  0.43514572962E+02  0.28207939070E+02 -0.32683994160E+02  0.61298037170E+02  0.00000000000E+00 0.  1.
         11    1    1    2    0    0  0.11825120141E+03 -0.51897693813E+02 -0.34679086122E+01  0.12918492036E+03  0.00000000000E+00 0. -1.
<mgrwt>
<rscale>  0 0.20140855E+03</rscale>
<asrwt>0</asrwt>
<pdfrwt beam="1">  1        2 0.20935347E-01 0.20644634E+03</pdfrwt>
<pdfrwt beam="2">  1       -2 0.45257531E-01 0.20644634E+03</pdfrwt>
<totfact> 0.12245557E+03</totfact>
</mgrwt>
</event>
<event>
 7    1  0.6008063E-006  0.1495819E+03  0.7546771E-02  0.1209414E+00
          2   -1    0    0  501    0  0.00000000000E+00  0.00000000000E+00  0.14165276365E+04  0.14165276365E+04  0.00000000000E+00 0.  1.
         -2   -1    0    0    0  501 -0.00000000000E+00 -0.00000000000E+00 -0.21438525723E+02  0.21438525723E+02  0.00000000000E+00 0. -1.
         23    2    1    2    0    0 -0.80860157356E+02 -0.14521081408E+02  0.11789516741E+04  0.11884030389E+04  0.12500202385E+03 0.  0.
          5    1    3    3  502    0 -0.73220813802E+02 -0.64743941755E+02  0.71818574882E+03  0.72482130582E+03  0.47000000000E+01 0.  1.
         -5    1    3    3    0  502 -0.76393435538E+01  0.50222860348E+02  0.46076592531E+03  0.46358173303E+03  0.47000000000E+01 0.  1.
        -11    1    1    2    0    0  0.91851007431E+02 -0.10136280175E+02  0.19310494505E+03  0.21407678890E+03  0.00000000000E+00 0.  1.
         11    1    1    2    0    0 -0.10990850075E+02  0.24657361583E+02  0.23032491615E+02  0.35486334491E+02  0.00000000000E+00 0. -1.
<mgrwt>
<rscale>  0 0.14294948E+03</rscale>
<asrwt>0</asrwt>
<pdfrwt beam="1">  1        2 0.21792725E+00 0.14958186E+03</pdfrwt>
<pdfrwt beam="2">  1       -2 0.32982358E-02 0.14958186E+03</pdfrwt>
<totfact> 0.54847790E+03</totfact>
</mgrwt>
</event>
<event>
 7    1  0.6008063E-006  0.1611355E+03  0.7546771E-02  0.1195915E+00
          3   -1    0    0  501    0  0.00000000000E+00  0.00000000000E+00  0.31225321159E+02  0.31225321159E+02  0.00000000000E+00 0. -1.
         -3   -1    0    0    0  501 -0.00000000000E+00 -0.00000000000E+00 -0.69567480570E+03  0.69567480570E+03  0.00000000000E+00 0.  1.
         23    2    1    2    0    0 -0.49278731010E+02  0.88937755603E+02 -0.36169718987E+03  0.39596652807E+03  0.12500526585E+03 0.  0.
          5    1    3    3  502    0 -0.52279630087E+01  0.10024321430E+03 -0.31488707937E+03  0.33053289755E+03  0.47000000000E+01 0.  1.
         -5    1    3    3    0  502 -0.44050768001E+02 -0.11305458697E+02 -0.46810110501E+02  0.65433630519E+02  0.47000000000E+01 0.  1.
        -11    1    1    2    0    0  0.29640144912E+02 -0.69116184558E+02 -0.29116542326E+03  0.30072061596E+03  0.00000000000E+00 0.  1.
         11    1    1    2    0    0  0.19638586097E+02 -0.19821571045E+02 -0.11586871412E+02  0.30212982834E+02  0.00000000000E+00 0. -1.
<mgrwt>
<rscale>  0 0.15377039E+03</rscale>
<asrwt>0</asrwt>
<pdfrwt beam="1">  1        3 0.48038952E-02 0.16113545E+03</pdfrwt>
<pdfrwt beam="2">  1       -3 0.10702690E+00 0.16113545E+03</pdfrwt>
<totfact> 0.44700053E+02</totfact>
</mgrwt>
</event>
<event>
 7    1  0.6008063E-006  0.2059918E+03  0.7546771E-02  0.1148671E+00
         -2   -1    0    0    0  501 -0.00000000000E+00  0.00000000000E+00  0.70587547431E+02  0.70587547431E+02  0.00000000000E+00 0.  1.
          2   -1    0    0  501    0  0.00000000000E+00 -0.00000000000E+00 -0.10399184562E+04  0.10399184562E+04  0.00000000000E+00 0. -1.
         23    2    1    2    0    0 -0.13745735171E+02 -0.16315640801E+03 -0.87777883064E+03  0.90162536142E+03  0.12499463237E+03 0.  0.
          5    1    3    3  502    0 -0.32597724858E+02 -0.11668293010E+03 -0.33055948387E+03  0.35209257337E+03  0.47000000000E+01 0. -1.
         -5    1    3    3    0  502  0.18851989687E+02 -0.46473477909E+02 -0.54721934677E+03  0.54953278805E+03  0.47000000000E+01 0. -1.
        -11    1    1    2    0    0  0.33412912531E+02  0.12688841734E+02 -0.21846846330E+02  0.41889307979E+02  0.00000000000E+00 0.  1.
         11    1    1    2    0    0 -0.19667177360E+02  0.15046756628E+03 -0.69705231789E+02  0.16699133422E+03  0.00000000000E+00 0. -1.
<mgrwt>
<rscale>  0 0.20127105E+03</rscale>
<asrwt>0</asrwt>
<pdfrwt beam="2">  1        2 0.15998745E+00 0.20599179E+03</pdfrwt>
<pdfrwt beam="1">  1       -2 0.10859623E-01 0.20599179E+03</pdfrwt>
<totfact> 0.14436254E+03</totfact>
</mgrwt>
</event>
<event>
 7    1  0.6008063E-006  0.1376519E+03  0.7546771E-02  0.1226780E+00
          1   -1    0    0  501    0  0.00000000000E+00  0.00000000000E+00  0.60558808265E+03  0.60558808265E+03  0.00000000000E+00 0. -1.
         -1   -1    0    0    0  501 -0.00000000000E+00 -0.00000000000E+00 -0.29434682645E+02  0.29434682645E+02  0.00000000000E+00 0.  1.
         23    2    1    2    0    0  0.26499516751E+02  0.51191605206E+02  0.42981471553E+03  0.45131887120E+03  0.12500091594E+03 0.  0.
          5    1    3    3  502    0 -0.16630804589E+01  0.72296990135E+02  0.12534838134E+03  0.14478925141E+03  0.47000000000E+01 0.  1.
         -5    1    3    3    0  502  0.28162597210E+02 -0.21105384929E+02  0.30446633419E+03  0.30652961980E+03  0.47000000000E+01 0.  1.
        -11    1    1    2    0    0 -0.24025473700E+02  0.25075225632E+02  0.44344225596E+02  0.56324068307E+02  0.00000000000E+00 0.  1.
         11    1    1    2    0    0 -0.24740430510E+01 -0.76266830838E+02  0.10199445888E+03  0.12737982579E+03  0.00000000000E+00 0. -1.
<mgrwt>
<rscale>  0 0.13045665E+03</rscale>
<asrwt>0</asrwt>
<pdfrwt beam="1">  1        1 0.93167388E-01 0.13765186E+03</pdfrwt>
<pdfrwt beam="2">  1       -1 0.45284131E-02 0.13765186E+03</pdfrwt>
<totfact> 0.68250226E+03</totfact>
</mgrwt>
</event>
<event>
 6    1  0.6008063E-006  0.3415512E+03  0.7546771E-02  0.1072233E+00
         -1   -1    0    0    0  501 -0.00000000000E+00  0.00000000000E+00  0.85648372052E+02  0.85648372052E+02  0.00000000000E+00 0.  1.
          1   -1    0    0  501    0  0.00000000000E+00 -0.00000000000E+00 -0.16364049952E+04  0.16364049952E+04  0.00000000000E+00 0. -1.
          5    1    1    2  502    0 -0.21228998696E+02  0.77950435510E+02 -0.52376241841E+03  0.52997745398E+03  0.47000000000E+01 0. -1.
         -5    1    1    2    0  502 -0.24443354082E+03 -0.12895918497E+02 -0.76101749699E+03  0.79942715823E+03  0.47000000000E+01 0.  1.
        -11    1    1    2    0    0  0.11388821031E+03 -0.60884426101E+02 -0.16819812352E+03  0.21205670597E+03  0.00000000000E+00 0.  1.
         11    1    1    2    0    0  0.15177432920E+03 -0.41700909124E+01 -0.97778584255E+02  0.18059204911E+03  0.00000000000E+00 0. -1.
<mgrwt>
<rscale>  0 0.32753426E+03</rscale>
<asrwt>0</asrwt>
<pdfrwt beam="2">  1        1 0.25175462E+00 0.34155116E+03</pdfrwt>
<pdfrwt beam="1">  1       -1 0.13176672E-01 0.34155116E+03</pdfrwt>
<totfact> 0.22803992E+02</totfact>
</mgrwt>
</event>
<event>
 7    1  0.6008063E-006  0.1268098E+03  0.7546771E-02  0.1246020E+00
          1   -1    0    0  501    0  0.00000000000E+00  0.00000000000E+00  0.63684354068E+03  0.63684354068E+03  0.00000000000E+00 0. -1.
         -1   -1    0    0    0  501 -0.00000000000E+00 -0.00000000000E+00 -0.20554894867E+02  0.20554894867E+02  0.00000000000E+00 0.  1.
         23    2    1    2    0    0  0.79071169185E+01 -0.19525368719E+02  0.42366285435E+03  0.44223404663E+03  0.12504789211E+03 0.  0.
          5    1    3    3  502    0 -0.42836471753E+02 -0.24657326879E+02  0.75747858263E+02  0.90569173081E+02  0.47000000000E+01 0.  1.
         -5    1    3    3    0  502  0.50743588672E+02  0.51319581601E+01  0.34791499609E+03  0.35166487355E+03  0.47000000000E+01 0.  1.
        -11    1    1    2    0    0  0.28718404761E+00  0.57197035197E+02  0.10975424523E+03  0.12376420183E+03  0.00000000000E+00 0.  1.
         11    1    1    2    0    0 -0.81943009661E+01 -0.37671666478E+02  0.82871546236E+02  0.91400187084E+02  0.00000000000E+00 0. -1.
<mgrwt>
<rscale>  0 0.11824566E+03</rscale>
<asrwt>0</asrwt>
<pdfrwt beam="1">  1        1 0.97975914E-01 0.12680985E+03</pdfrwt>
<pdfrwt beam="2">  1       -1 0.31622920E-02 0.12680985E+03</pdfrwt>
<totfact> 0.10721669E+04</totfact>
</mgrwt>
</event>
<event>
 7    1  0.6008063E-006  0.1780694E+03  0.7546771E-02  0.1177827E+00
         -2   -1    0    0    0  501 -0.00000000000E+00  0.00000000000E+00  0.52630198655E+02  0.52630198655E+02  0.00000000000E+00 0.  1.
          2   -1    0    0  501    0  0.00000000000E+00 -0.00000000000E+00 -0.80908732085E+03  0.80908732085E+03  0.00000000000E+00 0. -1.
         23    2    1    2    0    0  0.46373703644E+02  0.12050040543E+03 -0.66344153132E+03  0.68692311419E+03  0.12262883526E+03 0.  0.
          5    1    3    3  502    0  0.84041031836E+02  0.84125083482E+02 -0.53621231234E+03  0.54925919073E+03  0.47000000000E+01 0. -1.
         -5    1    3    3    0  502 -0.37667328192E+02  0.36375321948E+02 -0.12722921898E+03  0.13766392346E+03  0.47000000000E+01 0.  1.
        -11    1    1    2    0    0 -0.19078110807E+02 -0.17213540798E+02 -0.56200548685E+02  0.61796294155E+02  0.00000000000E+00 0. -1.
         11    1    1    2    0    0 -0.27295592837E+02 -0.10328686463E+03 -0.36815042194E+02  0.11299811116E+03  0.00000000000E+00 0.  1.
<mgrwt>
<rscale>  0 0.17002014E+03</rscale>
<asrwt>0</asrwt>
<pdfrwt beam="2">  1        2 0.12447497E+00 0.17806937E+03</pdfrwt>
<pdfrwt beam="1">  1       -2 0.80969539E-02 0.17806937E+03</pdfrwt>
<totfact> 0.32038706E+03</totfact>
</mgrwt>
</event>
<event>
 7    1  0.6008063E-006  0.1512692E+03  0.7546771E-02  0.1208327E+00
         -2   -1    0    0    0  501 -0.00000000000E+00  0.00000000000E+00  0.10103056861E+03  0.10103056861E+03  0.00000000000E+00 0.  1.
          2   -1    0    0  501    0  0.00000000000E+00 -0.00000000000E+00 -0.20574278039E+03  0.20574278039E+03  0.00000000000E+00 0. -1.
         23    2    1    2    0    0  0.25679882529E+02 -0.81283220152E+02 -0.10350747631E+03  0.18329261313E+03  0.12496385930E+03 0.  0.
          5    1    3    3  502    0  0.49793242629E+02 -0.85196338253E+02 -0.11847499484E+03  0.15426016163E+03  0.47000000000E+01 0. -1.
         -5    1    3    3    0  502 -0.24113360100E+02  0.39131181001E+01  0.14967518539E+02  0.29032451494E+02  0.47000000000E+01 0. -1.
        -11    1    1    2    0    0 -0.35563348554E+02  0.20761037796E+02 -0.34481616573E+02  0.53709909069E+02  0.00000000000E+00 0. -1.
         11    1    1    2    0    0  0.98834660248E+01  0.60522182357E+02  0.33276881098E+02  0.69770826808E+02  0.00000000000E+00 0.  1.
<mgrwt>
<rscale>  0 0.14378302E+03</rscale>
<asrwt>0</asrwt>
<pdfrwt beam="2">  1        2 0.31652735E-01 0.15126924E+03</pdfrwt>
<pdfrwt beam="1">  1       -2 0.15543165E-01 0.15126924E+03</pdfrwt>
<totfact> 0.51287416E+03</totfact>
</mgrwt>
</event>
<event>
 7    1  0.6008063E-006  0.1306434E+03  0.7546771E-02  0.1240179E+00
         -4   -1    0    0    0  501 -0.00000000000E+00  0.00000000000E+00  0.34025321892E+02  0.34025321892E+02  0.00000000000E+00 0.  1.
          4   -1    0    0  501    0  0.00000000000E+00 -0.00000000000E+00 -0.38637193707E+03  0.38637193707E+03  0.00000000000E+00 0. -1.
         23    2    1    2    0    0 -0.34678511629E+02 -0.15497896403E+02 -0.19844540368E+03  0.23758848511E+03  0.12499970421E+03 0.  0.
          5    1    3    3  502    0  0.37581963412E+01 -0.40739167240E+02 -0.18488690957E+03  0.18941769484E+03  0.47000000000E+01 0. -1.
         -5    1    3    3    0  502 -0.38436707970E+02  0.25241270837E+02 -0.13558494112E+02  0.48170790274E+02  0.47000000000E+01 0. -1.
        -11    1    1    2    0    0 -0.30087995929E+02 -0.54721682257E+01 -0.47672967540E+02  0.56638714305E+02  0.00000000000E+00 0. -1.
         11    1    1    2    0    0  0.64766507558E+02  0.20970064628E+02 -0.10622824396E+03  0.12617005955E+03  0.00000000000E+00 0.  1.
<mgrwt>
<rscale>  0 0.12178650E+03</rscale>
<asrwt>0</asrwt>
<pdfrwt beam="2">  1        4 0.59441833E-01 0.13064345E+03</pdfrwt>
<pdfrwt beam="1">  1       -4 0.52346652E-02 0.13064345E+03</pdfrwt>
<totfact> 0.98387088E+02</totfact>
</mgrwt>
</event>
<event>
 7    1  0.6008063E-006  0.1644027E+03  0.7546771E-02  0.1191407E+00
         -2   -1    0    0    0  501 -0.00000000000E+00  0.00000000000E+00  0.37691179478E+02  0.37691179478E+02  0.00000000000E+00 0. -1.
          2   -1    0    0  501    0  0.00000000000E+00 -0.00000000000E+00 -0.61389236038E+03  0.61389236038E+03  0.00000000000E+00 0.  1.
         23    2    1    2    0    0  0.40252193509E+02 -0.98197964846E+02 -0.33724792053E+03  0.37518585090E+03  0.12555948165E+03 0.  0.
          5    1    3    3  502    0  0.39890850306E+02 -0.12779964178E+03 -0.26406068991E+03  0.29609823764E+03  0.47000000000E+01 0. -1.
         -5    1    3    3    0  502  0.36134320260E+00  0.29601676930E+02 -0.73187230612E+02  0.79087613257E+02  0.47000000000E+01 0. -1.
        -11    1    1    2    0    0  0.39457278145E+01  0.38956798701E+02 -0.17287778215E+03  0.17725667405E+03  0.00000000000E+00 0. -1.
         11    1    1    2    0    0 -0.44197921324E+02  0.59241166144E+02 -0.66075478229E+02  0.99141014916E+02  0.00000000000E+00 0.  1.
<mgrwt>
<rscale>  0 0.15762245E+03</rscale>
<asrwt>0</asrwt>
<pdfrwt beam="2">  1        2 0.94444972E-01 0.16440275E+03</pdfrwt>
<pdfrwt beam="1">  1       -2 0.57986434E-02 0.16440275E+03</pdfrwt>
<totfact> 0.74387929E+03</totfact>
</mgrwt>
</event>
<event>
 7    1  0.6008063E-006  0.1891490E+03  0.7546771E-02  0.1163644E+00
         -2   -1    0    0    0  501 -0.00000000000E+00  0.00000000000E+00  0.23809265103E+02  0.23809265103E+02  0.00000000000E+00 0.  1.
          2   -1    0    0  501    0  0.00000000000E+00 -0.00000000000E+00 -0.15398546392E+04  0.15398546392E+04  0.00000000000E+00 0. -1.
         23    2    1    2    0    0 -0.12686784971E+03 -0.63682672479E+02 -0.10592587878E+04  0.10760141844E+04  0.12500564551E+03 0.  0.
          5    1    3    3  502    0 -0.95310920267E+01  0.27954403408E+02 -0.78411369008E+02  0.83920934068E+02  0.47000000000E+01 0.  1.
         -5    1    3    3    0  502 -0.11733675769E+03 -0.91637075887E+02 -0.98084741883E+03  0.99209325036E+03  0.47000000000E+01 0.  1.
        -11    1    1    2    0    0 -0.43017264108E+01  0.30427330529E+02 -0.47503196837E+02  0.56576328998E+02  0.00000000000E+00 0.  1.
         11    1    1    2    0    0  0.13116957612E+03  0.33255341950E+02 -0.40928338945E+03  0.43107339091E+03  0.00000000000E+00 0. -1.
<mgrwt>
<rscale>  0 0.18436549E+03</rscale>
<asrwt>0</asrwt>
<pdfrwt beam="2">  1        2 0.23690068E+00 0.18914900E+03</pdfrwt>
<pdfrwt beam="1">  1       -2 0.36629644E-02 0.18914900E+03</pdfrwt>
<totfact> 0.40598461E+03</totfact>
</mgrwt>
</event>
<event>
 7    1  0.6008063E-006  0.1288381E+03  0.7546771E-02  0.1243826E+00
         -4   -1    0    0    0  501 -0.00000000000E+00  0.00000000000E+00  0.74216490151E+02  0.74216490151E+02  0.00000000000E+00 0.  1.
          4   -1    0    0  501    0  0.00000000000E+00 -0.00000000000E+00 -0.17544970723E+03  0.17544970723E+03  0.00000000000E+00 0. -1.
         23    2    1    2    0    0 -0.27897844133E+02 -0.13985085165E+02 -0.80439173589E+02  0.15188717493E+03  0.12500152378E+03 0.  0.
          5    1    3    3  502    0 -0.51370138968E+02  0.39413731024E+02 -0.20403333454E+02  0.68049389321E+02  0.47000000000E+01 0.  1.
         -5    1    3    3    0  502  0.23472294835E+02 -0.53398816189E+02 -0.60035840135E+02  0.83837785610E+02  0.47000000000E+01 0.  1.
        -11    1    1    2    0    0 -0.11005483463E+02  0.16234385692E+02 -0.46926002495E+02  0.50859862910E+02  0.00000000000E+00 0. -1.
         11    1    1    2    0    0  0.38903327597E+02 -0.22493005272E+01  0.26131959002E+02  0.46919159543E+02  0.00000000000E+00 0.  1.
<mgrwt>
<rscale>  0 0.11955898E+03</rscale>
<asrwt>0</asrwt>
<pdfrwt beam="2">  1        4 0.26992262E-01 0.12883809E+03</pdfrwt>
<pdfrwt beam="1">  1       -4 0.11417922E-01 0.12883809E+03</pdfrwt>
<totfact> 0.12804300E+03</totfact>
</mgrwt>
</event>
<event>
 7    1  0.6008063E-006  0.1801776E+03  0.7546771E-02  0.1173417E+00
          1   -1    0    0  501    0  0.00000000000E+00  0.00000000000E+00  0.11699419578E+03  0.11699419578E+03  0.00000000000E+00 0. -1.
         -1   -1    0    0    0  501 -0.00000000000E+00 -0.00000000000E+00 -0.30851917140E+03  0.30851917140E+03  0.00000000000E+00 0.  1.
         23    2    1    2    0    0  0.12924688925E+03 -0.11888842327E+02 -0.37747837903E+01  0.18021712709E+03  0.12497144055E+03 0.  0.
          5    1    3    3  502    0  0.11352332873E+03 -0.50866654268E+02  0.27659182868E+02  0.12752287276E+03  0.47000000000E+01 0. -1.
         -5    1    3    3    0  502  0.15723560522E+02  0.38977811941E+02 -0.31433966658E+02  0.52694254327E+02  0.47000000000E+01 0. -1.
        -11    1    1    2    0    0  0.12610871667E+02  0.49763812731E+00 -0.31579951126E+02  0.34008455434E+02  0.00000000000E+00 0. -1.
         11    1    1    2    0    0 -0.14185776091E+03  0.11391204200E+02 -0.15617024070E+03  0.21128778466E+03  0.00000000000E+00 0.  1.
<mgrwt>
<rscale>  0 0.17431884E+03</rscale>
<asrwt>0</asrwt>
<pdfrwt beam="1">  1        1 0.17999107E-01 0.18017759E+03</pdfrwt>
<pdfrwt beam="2">  1       -1 0.47464488E-01 0.18017759E+03</pdfrwt>
<totfact> 0.13130155E+03</totfact>
</mgrwt>
</event>
<event>
 6    1  0.6008063E-006  0.1468881E+03  0.7546771E-02  0.1221859E+00
         -1   -1    0    0    0  501 -0.00000000000E+00  0.00000000000E+00  0.27708851361E+02  0.27708851361E+02  0.00000000000E+00 0.  1.
          1   -1    0    0  501    0  0.00000000000E+00 -0.00000000000E+00 -0.75132379332E+03  0.75132379332E+03  0.00000000000E+00 0. -1.
          5    1    1    2  502    0  0.12178904327E+02 -0.45603713090E+02 -0.61000411989E+03  0.61184568369E+03  0.47000000000E+01 0. -1.
         -5    1    1    2    0  502  0.66990653324E+01  0.97018150724E+01  0.26945514730E+01  0.12975103070E+02  0.47000000000E+01 0.  1.
        -11    1    1    2    0    0 -0.23036254056E+02  0.55246899599E+02 -0.32518053656E+02  0.68119840941E+02  0.00000000000E+00 0.  1.
         11    1    1    2    0    0  0.41582843967E+01 -0.19345001581E+02 -0.83787319877E+02  0.86092016979E+02  0.00000000000E+00 0. -1.
<mgrwt>
<rscale>  0 0.13384540E+03</rscale>
<asrwt>0</asrwt>
<pdfrwt beam="2">  1        1 0.11558826E+00 0.14688807E+03</pdfrwt>
<pdfrwt beam="1">  1       -1 0.42629009E-02 0.14688807E+03</pdfrwt>
<totfact> 0.55171507E+03</totfact>
</mgrwt>
</event>
<event>
 7    1  0.6008063E-006  0.1467831E+03  0.7546771E-02  0.1214267E+00
         -1   -1    0    0    0  501 -0.00000000000E+00  0.00000000000E+00  0.25105761527E+02  0.25105761527E+02  0.00000000000E+00 0.  1.
          1   -1    0    0  501    0  0.00000000000E+00 -0.00000000000E+00 -0.87167531689E+03  0.87167531689E+03  0.00000000000E+00 0. -1.
         23    2    1    2    0    0 -0.28600970644E+02 -0.71423101425E+02 -0.65477595381E+03  0.67102669072E+03  0.12500398011E+03 0.  0.
          5    1    3    3  502    0  0.64856074742E+01  0.20944971111E+02 -0.34746106746E+03  0.34818391450E+03  0.47000000000E+01 0.  1.
         -5    1    3    3    0  502 -0.35086578118E+02 -0.92368072536E+02 -0.30731488635E+03  0.32284277622E+03  0.47000000000E+01 0.  1.
        -11    1    1    2    0    0  0.52597945369E+02  0.76979059196E+02 -0.16373182084E+03  0.18841557411E+03  0.00000000000E+00 0.  1.
         11    1    1    2    0    0 -0.23996974725E+02 -0.55559577711E+01 -0.28061780717E+02  0.37338813582E+02  0.00000000000E+00 0. -1.
<mgrwt>
<rscale>  0 0.13930525E+03</rscale>
<asrwt>0</asrwt>
<pdfrwt beam="2">  1        1 0.13410391E+00 0.14678307E+03</pdfrwt>
<pdfrwt beam="1">  1       -1 0.38624244E-02 0.14678307E+03</pdfrwt>
<totfact> 0.50896101E+03</totfact>
</mgrwt>
</event>
<event>
 7    1  0.6008063E-006  0.1785481E+03  0.7546771E-02  0.1174701E+00
         -1   -1    0    0    0  501 -0.00000000000E+00  0.00000000000E+00  0.19232553701E+03  0.19232553701E+03  0.00000000000E+00 0.  1.
          1   -1    0    0  501    0  0.00000000000E+00 -0.00000000000E+00 -0.15249783383E+03  0.15249783383E+03  0.00000000000E+00 0. -1.
         23    2    1    2    0    0  0.54683388790E+02  0.11516148653E+03 -0.12018682547E+02  0.17895219780E+03  0.12500799725E+03 0.  0.
          5    1    3    3  502    0  0.68842081813E+02  0.19170839980E+02  0.23722661619E+02  0.75442746558E+02  0.47000000000E+01 0.  1.
         -5    1    3    3    0  502 -0.14158693024E+02  0.95990646552E+02 -0.35741344166E+02  0.10350945124E+03  0.47000000000E+01 0.  1.
        -11    1    1    2    0    0 -0.19944309339E+02 -0.65315386605E+02  0.74466073572E+02  0.10103994911E+03  0.00000000000E+00 0.  1.
         11    1    1    2    0    0 -0.34739079451E+02 -0.49846099927E+02 -0.22619687843E+02  0.64831223937E+02  0.00000000000E+00 0. -1.
<mgrwt>
<rscale>  0 0.17305259E+03</rscale>
<asrwt>0</asrwt>
<pdfrwt beam="2">  1        1 0.23461205E-01 0.17854815E+03</pdfrwt>
<pdfrwt beam="1">  1       -1 0.29588544E-01 0.17854815E+03</pdfrwt>
<totfact> 0.21371241E+03</totfact>
</mgrwt>
</event>
<event>
 7    1  0.6008063E-006  0.1886183E+03  0.7546771E-02  0.1164625E+00
         -1   -1    0    0    0  501 -0.00000000000E+00  0.00000000000E+00  0.20796143319E+03  0.20796143319E+03  0.00000000000E+00 0.  1.
          1   -1    0    0  501    0  0.00000000000E+00 -0.00000000000E+00 -0.15802197784E+03  0.15802197784E+03  0.00000000000E+00 0. -1.
         23    2    1    2    0    0 -0.13102962356E+03 -0.52760525790E+02  0.58416048253E+02  0.19745704611E+03  0.12499766010E+03 0.  0.
          5    1    3    3  502    0 -0.56135727881E+02 -0.27155124804E+02  0.92087625895E+02  0.11131415719E+03  0.47000000000E+01 0. -1.
         -5    1    3    3    0  502 -0.74893895683E+02 -0.25605400986E+02 -0.33671577642E+02  0.86142888918E+02  0.47000000000E+01 0. -1.
        -11    1    1    2    0    0  0.43301555518E+02  0.39344164480E+02  0.36575227497E+02  0.68998081534E+02  0.00000000000E+00 0.  1.
         11    1    1    2    0    0  0.87728068045E+02  0.13416361310E+02 -0.45051820393E+02  0.99528283390E+02  0.00000000000E+00 0. -1.
<mgrwt>
<rscale>  0 0.18332313E+03</rscale>
<asrwt>0</asrwt>
<pdfrwt beam="2">  1        1 0.24311074E-01 0.18861827E+03</pdfrwt>
<pdfrwt beam="1">  1       -1 0.31994066E-01 0.18861827E+03</pdfrwt>
<totfact> 0.17920898E+03</totfact>
</mgrwt>
</event>
<event>
 7    1  0.6008063E-006  0.1959083E+03  0.7546771E-02  0.1158219E+00
         -2   -1    0    0    0  501 -0.00000000000E+00  0.00000000000E+00  0.32284351131E+03  0.32284351131E+03  0.00000000000E+00 0.  1.
          2   -1    0    0  501    0  0.00000000000E+00 -0.00000000000E+00 -0.10613942858E+03  0.10613942858E+03  0.00000000000E+00 0. -1.
         23    2    1    2    0    0 -0.70955330365E+02  0.13311610373E+03  0.11300746773E+03  0.22616530395E+03  0.12500200385E+03 0.  0.
          5    1    3    3  502    0 -0.88818115467E+01  0.13308731402E+03  0.72373430534E+02  0.15182596345E+03  0.47000000000E+01 0. -1.
         -5    1    3    3    0  502 -0.62073518818E+02  0.28789714022E-01  0.40634037198E+02  0.74339340503E+02  0.47000000000E+01 0. -1.
        -11    1    1    2    0    0  0.68334394988E+02 -0.57304671650E+02  0.23073598603E+02  0.92118434006E+02  0.00000000000E+00 0. -1.
         11    1    1    2    0    0  0.26209353768E+01 -0.75811432084E+02  0.80623016389E+02  0.11069920193E+03  0.00000000000E+00 0.  1.
<mgrwt>
<rscale>  0 0.19026840E+03</rscale>
<asrwt>0</asrwt>
<pdfrwt beam="2">  1        2 0.16329143E-01 0.19590829E+03</pdfrwt>
<pdfrwt beam="1">  1       -2 0.49668232E-01 0.19590829E+03</pdfrwt>
<totfact> 0.13560842E+03</totfact>
</mgrwt>
</event>
<event>
 7    1  0.6008063E-006  0.1429530E+03  0.7546771E-02  0.1220124E+00
         -2   -1    0    0    0  501 -0.00000000000E+00  0.00000000000E+00  0.10438522157E+03  0.10438522157E+03  0.00000000000E+00 0. -1.
          2   -1    0    0  501    0  0.00000000000E+00 -0.00000000000E+00 -0.17487900463E+03  0.17487900463E+03  0.00000000000E+00 0.  1.
         23    2    1    2    0    0  0.62952160359E+02 -0.29116359477E+02 -0.81924724179E+02  0.16476412111E+03  0.12499927316E+03 0.  0.
          5    1    3    3  502    0  0.45984509699E+01 -0.66255741850E+02 -0.65747209967E+02  0.93572189767E+02  0.47000000000E+01 0.  1.
         -5    1    3    3    0  502  0.58353709389E+02  0.37139382373E+02 -0.16177514213E+02  0.71191931345E+02  0.47000000000E+01 0.  1.
        -11    1    1    2    0    0 -0.21704418161E+02 -0.13029888258E+02 -0.32332221942E+02  0.41063759344E+02  0.00000000000E+00 0.  1.
         11    1    1    2    0    0 -0.41247742198E+02  0.42146247735E+02  0.43763163064E+02  0.73436345742E+02  0.00000000000E+00 0. -1.
<mgrwt>
<rscale>  0 0.13506804E+03</rscale>
<asrwt>0</asrwt>
<pdfrwt beam="2">  1        2 0.26904462E-01 0.14295298E+03</pdfrwt>
<pdfrwt beam="1">  1       -2 0.16059265E-01 0.14295298E+03</pdfrwt>
<totfact> 0.57805696E+03</totfact>
</mgrwt>
</event>
<event>
 7    1  0.6008063E-006  0.1399634E+03  0.7546771E-02  0.1224789E+00
         -1   -1    0    0    0  501 -0.00000000000E+00  0.00000000000E+00  0.68526307192E+02  0.68526307192E+02  0.00000000000E+00 0.  1.
          1   -1    0    0  501    0  0.00000000000E+00 -0.00000000000E+00 -0.24844820588E+03  0.24844820588E+03  0.00000000000E+00 0. -1.
         23    2    1    2    0    0  0.49685502361E+02  0.38695640812E+02 -0.14484224442E+03  0.20141756738E+03  0.12499503558E+03 0.  0.
          5    1    3    3  502    0  0.48154189430E+02  0.41544088846E+02 -0.77889540193E+01  0.64245584147E+02  0.47000000000E+01 0.  1.
         -5    1    3    3    0  502  0.15313129307E+01 -0.28484480338E+01 -0.13705329040E+03  0.13717198324E+03  0.47000000000E+01 0.  1.
        -11    1    1    2    0    0 -0.38018859348E+02  0.10495552346E+02 -0.49208519383E+02  0.63064004512E+02  0.00000000000E+00 0. -1.
         11    1    1    2    0    0 -0.11666643013E+02 -0.49191193158E+02  0.14128865119E+02  0.52492941173E+02  0.00000000000E+00 0.  1.
<mgrwt>
<rscale>  0 0.13181396E+03</rscale>
<asrwt>0</asrwt>
<pdfrwt beam="2">  1        1 0.38222801E-01 0.13996343E+03</pdfrwt>
<pdfrwt beam="1">  1       -1 0.10542509E-01 0.13996343E+03</pdfrwt>
<totfact> 0.59725194E+03</totfact>
</mgrwt>
</event>
<event>
 7    1  0.6008063E-006  0.1344643E+03  0.7546771E-02  0.1233829E+00
         -2   -1    0    0    0  501 -0.00000000000E+00  0.00000000000E+00  0.22104396516E+02  0.22104396516E+02  0.00000000000E+00 0.  1.
          2   -1    0    0  501    0  0.00000000000E+00 -0.00000000000E+00 -0.11759278084E+04  0.11759278084E+04  0.00000000000E+00 0. -1.
         23    2    1    2    0    0 -0.28755373249E+02  0.40337870751E+02 -0.10216533447E+04  0.10304640665E+04  0.12500648155E+03 0.  0.
          5    1    3    3  502    0 -0.77700323557E+02  0.25672136416E+02 -0.55974237577E+03  0.56571195506E+03  0.47000000000E+01 0.  1.
         -5    1    3    3    0  502  0.48944950308E+02  0.14665734335E+02 -0.46191096890E+03  0.46475211147E+03  0.47000000000E+01 0.  1.
        -11    1    1    2    0    0  0.45118822360E+01 -0.29552903122E+02  0.27892071469E+01  0.30025170120E+02  0.00000000000E+00 0.  1.
         11    1    1    2    0    0  0.24243491013E+02 -0.10784967630E+02 -0.13495927441E+03  0.13754296831E+03  0.00000000000E+00 0. -1.
<mgrwt>
<rscale>  0 0.12579702E+03</rscale>
<asrwt>0</asrwt>
<pdfrwt beam="2">  1        2 0.18091192E+00 0.13446425E+03</pdfrwt>
<pdfrwt beam="1">  1       -2 0.34006773E-02 0.13446425E+03</pdfrwt>
<totfact> 0.70508157E+03</totfact>
</mgrwt>
</event>
<event>
 7    1  0.6008063E-006  0.1496013E+03  0.7546771E-02  0.1210213E+00
          1   -1    0    0  501    0  0.00000000000E+00  0.00000000000E+00  0.55659852668E+02  0.55659852668E+02  0.00000000000E+00 0.  1.
         -1   -1    0    0    0  501 -0.00000000000E+00 -0.00000000000E+00 -0.37206815090E+03  0.37206815090E+03  0.00000000000E+00 0. -1.
         23    2    1    2    0    0  0.77617313715E+02  0.27027396662E+02 -0.10307920037E+03  0.18167517251E+03  0.12500247678E+03 0.  0.
          5    1    3    3  502    0  0.45705483158E+02 -0.45243984036E+02 -0.21397500595E+02  0.67940800068E+02  0.47000000000E+01 0.  1.
         -5    1    3    3    0  502  0.31911830557E+02  0.72271380698E+02 -0.81681699776E+02  0.11373437245E+03  0.47000000000E+01 0.  1.
        -11    1    1    2    0    0 -0.55869787496E+02  0.33622658068E+01 -0.40136140071E+02  0.68874144104E+02  0.00000000000E+00 0.  1.
         11    1    1    2    0    0 -0.21747526219E+02 -0.30389662468E+02 -0.17319295779E+03  0.17717868695E+03  0.00000000000E+00 0. -1.
<mgrwt>
<rscale>  0 0.14234136E+03</rscale>
<asrwt>0</asrwt>
<pdfrwt beam="1">  1        1 0.85630542E-02 0.14960129E+03</pdfrwt>
<pdfrwt beam="2">  1       -1 0.57241254E-01 0.14960129E+03</pdfrwt>
<totfact> 0.24521572E+03</totfact>
</mgrwt>
</event>
<event>
 7    1  0.6008063E-006  0.1436280E+03  0.7546771E-02  0.1218783E+00
          1   -1    0    0  501    0  0.00000000000E+00  0.00000000000E+00  0.23240704464E+03  0.23240704464E+03  0.00000000000E+00 0. -1.
         -1   -1    0    0    0  501 -0.00000000000E+00 -0.00000000000E+00 -0.72860930102E+02  0.72860930102E+02  0.00000000000E+00 0.  1.
         23    2    1    2    0    0  0.70461030736E+02 -0.62661439729E+01  0.10222276388E+03  0.17629094404E+03  0.12499992833E+03 0.  0.
          5    1    3    3  502    0  0.47417750289E+01  0.53471748943E+02  0.47742794824E+02  0.71994283267E+02  0.47000000000E+01 0. -1.
         -5    1    3    3    0  502  0.65719255707E+02 -0.59737892916E+02  0.54479969057E+02  0.10429666078E+03  0.47000000000E+01 0. -1.
        -11    1    1    2    0    0 -0.34112593725E+02  0.38325342927E+02  0.61778516068E+02  0.80306201558E+02  0.00000000000E+00 0. -1.
         11    1    1    2    0    0 -0.36348437011E+02 -0.32059198954E+02 -0.44551654091E+01  0.48670829144E+02  0.00000000000E+00 0.  1.
<mgrwt>
<rscale>  0 0.13602254E+03</rscale>
<asrwt>0</asrwt>
<pdfrwt beam="1">  1        1 0.35754930E-01 0.14362800E+03</pdfrwt>
<pdfrwt beam="2">  1       -1 0.11209374E-01 0.14362800E+03</pdfrwt>
<totfact> 0.59138749E+03</totfact>
</mgrwt>
</event>
<event>
 6    1  0.6008063E-006  0.1337361E+03  0.7546771E-02  0.1240665E+00
         -1   -1    0    0    0  501 -0.00000000000E+00  0.00000000000E+00  0.21613919404E+02  0.21613919404E+02  0.00000000000E+00 0.  1.
          1   -1    0    0  501    0  0.00000000000E+00 -0.00000000000E+00 -0.77475179444E+03  0.77475179444E+03  0.00000000000E+00 0. -1.
          5    1    1    2  502    0 -0.22477497229E+02 -0.67329391494E+02 -0.46700658326E+03  0.47239361093E+03  0.47000000000E+01 0. -1.
         -5    1    1    2    0  502  0.16754514861E+02  0.50431120911E+02 -0.15808716511E+03  0.16684619713E+03  0.47000000000E+01 0.  1.
        -11    1    1    2    0    0  0.18483542821E+02 -0.33885862104E+02 -0.50622048679E+02  0.63659129889E+02  0.00000000000E+00 0. -1.
         11    1    1    2    0    0 -0.12760560453E+02  0.50784132688E+02 -0.77422077981E+02  0.93466775888E+02  0.00000000000E+00 0.  1.
<mgrwt>
<rscale>  0 0.12148623E+03</rscale>
<asrwt>0</asrwt>
<pdfrwt beam="2">  1        1 0.11919259E+00 0.13373608E+03</pdfrwt>
<pdfrwt beam="1">  1       -1 0.33252181E-02 0.13373608E+03</pdfrwt>
<totfact> 0.75539393E+03</totfact>
</mgrwt>
</event>
<event>
 7    1  0.6008063E-006  0.1297144E+03  0.7546771E-02  0.1239845E+00
         -2   -1    0    0    0  501 -0.00000000000E+00  0.00000000000E+00  0.18106721207E+03  0.18106721207E+03  0.00000000000E+00 0.  1.
          2   -1    0    0  501    0  0.00000000000E+00 -0.00000000000E+00 -0.14953520555E+03  0.14953520555E+03  0.00000000000E+00 0. -1.
         23    2    1    2    0    0  0.11825160146E+01 -0.34641351900E+02 -0.10049042495E+03  0.16408582950E+03  0.12499764930E+03 0.  0.
          5    1    3    3  502    0  0.29266774773E+02  0.32931249084E+02 -0.73748510446E+02  0.86034551575E+02  0.47000000000E+01 0.  1.
         -5    1    3    3    0  502 -0.28084258758E+02 -0.67572600984E+02 -0.26741914501E+02  0.78051277920E+02  0.47000000000E+01 0.  1.
        -11    1    1    2    0    0  0.25317731838E+02  0.11343739360E+02  0.12803573053E+03  0.13100693211E+03  0.00000000000E+00 0.  1.
         11    1    1    2    0    0 -0.26500247853E+02  0.23297612540E+02  0.39867009322E+01  0.35509656020E+02  0.00000000000E+00 0. -1.
<mgrwt>
<rscale>  0 0.12199290E+03</rscale>
<asrwt>0</asrwt>
<pdfrwt beam="2">  1        2 0.23005416E-01 0.12971443E+03</pdfrwt>
<pdfrwt beam="1">  1       -2 0.27856494E-01 0.12971443E+03</pdfrwt>
<totfact> 0.26687596E+03</totfact>
</mgrwt>
</event>
<event>
 7    1  0.6008063E-006  0.2025456E+03  0.7546771E-02  0.1151580E+00
         -2   -1    0    0    0  501 -0.00000000000E+00  0.00000000000E+00  0.32265014644E+02  0.32265014644E+02  0.00000000000E+00 0.  1.
          2   -1    0    0  501    0  0.00000000000E+00 -0.00000000000E+00 -0.11799148401E+04  0.11799148401E+04  0.00000000000E+00 0. -1.
         23    2    1    2    0    0 -0.35961419332E+02 -0.15526048550E+03 -0.67939855237E+03  0.70894790523E+03  0.12500278933E+03 0.  0.
          5    1    3    3  502    0 -0.76615127577E+02 -0.13767606113E+03 -0.54689657609E+03  0.56915949480E+03  0.47000000000E+01 0. -1.
         -5    1    3    3    0  502  0.40653708246E+02 -0.17584424377E+02 -0.13250197628E+03  0.13978841044E+03  0.47000000000E+01 0. -1.
        -11    1    1    2    0    0 -0.73628130312E+01  0.10424575884E+03 -0.18794259296E+03  0.21504373392E+03  0.00000000000E+00 0.  1.
         11    1    1    2    0    0  0.43324232363E+02  0.51014726667E+02 -0.28030868008E+03  0.28818821554E+03  0.00000000000E+00 0. -1.
<mgrwt>
<rscale>  0 0.19783363E+03</rscale>
<asrwt>0</asrwt>
<pdfrwt beam="2">  1        2 0.18152536E+00 0.20254565E+03</pdfrwt>
<pdfrwt beam="1">  1       -2 0.49638484E-02 0.20254565E+03</pdfrwt>
<totfact> 0.40354671E+03</totfact>
</mgrwt>
</event>
<event>
 7    1  0.6008063E-006  0.1289443E+03  0.7546771E-02  0.1244145E+00
          2   -1    0    0  501    0  0.00000000000E+00  0.00000000000E+00  0.85977773531E+02  0.85977773531E+02  0.00000000000E+00 0. -1.
         -2   -1    0    0    0  501 -0.00000000000E+00 -0.00000000000E+00 -0.16516153544E+03  0.16516153544E+03  0.00000000000E+00 0.  1.
         23    2    1    2    0    0  0.31201105828E+02 -0.53708776156E+01 -0.19797093155E+01  0.12895951104E+03  0.12499712360E+03 0.  0.
          5    1    3    3  502    0  0.25809537646E+00  0.38076664634E+02 -0.45815440484E+02  0.59758209391E+02  0.47000000000E+01 0.  1.
         -5    1    3    3    0  502  0.30943010452E+02 -0.43447542250E+02  0.43835731169E+02  0.69201301653E+02  0.47000000000E+01 0.  1.
        -11    1    1    2    0    0  0.12387613384E+02 -0.63844933291E+01 -0.75738506314E+02  0.77009973764E+02  0.00000000000E+00 0.  1.
         11    1    1    2    0    0 -0.43588719212E+02  0.11755370945E+02 -0.14655462756E+01  0.45169824159E+02  0.00000000000E+00 0. -1.
<mgrwt>
<rscale>  0 0.11936725E+03</rscale>
<asrwt>0</asrwt>
<pdfrwt beam="1">  1        2 0.13227350E-01 0.12894431E+03</pdfrwt>
<pdfrwt beam="2">  1       -2 0.25409467E-01 0.12894431E+03</pdfrwt>
<totfact> 0.59217057E+03</totfact>
</mgrwt>
</event>
<event>
 7    1  0.6008063E-006  0.1504097E+03  0.7546771E-02  0.1209062E+00
          1   -1    0    0  501    0  0.00000000000E+00  0.00000000000E+00  0.11856455839E+04  0.11856455839E+04  0.00000000000E+00 0. -1.
         -1   -1    0    0    0  501 -0.00000000000E+00 -0.00000000000E+00 -0.23071859410E+02  0.23071859410E+02  0.00000000000E+00 0.  1.
         23    2    1    2    0    0 -0.16777897677E+02  0.81961154009E+02  0.95758943547E+03  0.96932997782E+03  0.12499580139E+03 0.  0.
          5    1    3    3  502    0 -0.39712232564E+02  0.18983431963E+02  0.10307679552E+03  0.11217997985E+03  0.47000000000E+01 0.  1.
         -5    1    3    3    0  502  0.22934334886E+02  0.62977722046E+02  0.85451263995E+03  0.85714999797E+03  0.47000000000E+01 0.  1.
        -11    1    1    2    0    0 -0.12983208038E+01 -0.87279936574E+02  0.20233339518E+03  0.22035942406E+03  0.00000000000E+00 0. -1.
         11    1    1    2    0    0  0.18076218481E+02  0.53187825654E+01  0.26508938385E+01  0.19028041431E+02  0.00000000000E+00 0.  1.
<mgrwt>
<rscale>  0 0.14321880E+03</rscale>
<asrwt>0</asrwt>
<pdfrwt beam="1">  1        1 0.18240697E+00 0.15040970E+03</pdfrwt>
<pdfrwt beam="2">  1       -1 0.35495178E-02 0.15040970E+03</pdfrwt>
<totfact> 0.34036320E+03</totfact>
</mgrwt>
</event>
<event>
 7    1  0.6008063E-006  0.1344079E+03  0.7546771E-02  0.1233359E+00
          2   -1    0    0  501    0  0.00000000000E+00  0.00000000000E+00  0.39468854206E+03  0.39468854206E+03  0.00000000000E+00 0. -1.
         -2   -1    0    0    0  501 -0.00000000000E+00 -0.00000000000E+00 -0.36086447989E+02  0.36086447989E+02  0.00000000000E+00 0.  1.
         23    2    1    2    0    0  0.82113137225E+01  0.48739730640E+02  0.20943400137E+03  0.24885351406E+03  0.12498993366E+03 0.  0.
          5    1    3    3  502    0  0.63659342538E+02  0.35572538208E+02  0.14717791287E+03  0.16432086113E+03  0.47000000000E+01 0. -1.
         -5    1    3    3    0  502 -0.55448028815E+02  0.13167192431E+02  0.62256088496E+02  0.84532652927E+02  0.47000000000E+01 0. -1.
        -11    1    1    2    0    0 -0.17561178250E+02 -0.70907405591E+02  0.78317899236E+02  0.10709784540E+03  0.00000000000E+00 0.  1.
         11    1    1    2    0    0  0.93498645271E+01  0.22167674951E+02  0.70850193474E+02  0.74823630591E+02  0.00000000000E+00 0. -1.
<mgrwt>
<rscale>  0 0.12610105E+03</rscale>
<asrwt>0</asrwt>
<pdfrwt beam="1">  1        2 0.60721311E-01 0.13440785E+03</pdfrwt>
<pdfrwt beam="2">  1       -2 0.55517615E-02 0.13440785E+03</pdfrwt>
<totfact> 0.12760508E+04</totfact>
</mgrwt>
</event>
<event>
 7    1  0.6008063E-006  0.1584649E+03  0.7546771E-02  0.1197988E+00
          1   -1    0    0  501    0  0.00000000000E+00  0.00000000000E+00  0.22394204240E+03  0.22394204240E+03  0.00000000000E+00 0. -1.
         -1   -1    0    0    0  501 -0.00000000000E+00 -0.00000000000E+00 -0.97087257329E+02  0.97087257329E+02  0.00000000000E+00 0.  1.
         23    2    1    2    0    0 -0.25211556643E+02  0.94082178581E+02  0.87872457990E+02  0.18119797207E+03  0.12499622912E+03 0.  0.
          5    1    3    3  502    0 -0.50249477140E+02  0.65768826455E+02  0.10954365523E+03  0.13737703916E+03  0.47000000000E+01 0.  1.
         -5    1    3    3    0  502  0.25037920498E+02  0.28313352126E+02 -0.21671197243E+02  0.43820932914E+02  0.47000000000E+01 0.  1.
        -11    1    1    2    0    0 -0.81395436506E+01 -0.91317870226E+02  0.45159732276E+01  0.91791064966E+02  0.00000000000E+00 0.  1.
         11    1    1    2    0    0  0.33351100293E+02 -0.27643083553E+01  0.34466353852E+02  0.48040262690E+02  0.00000000000E+00 0. -1.
<mgrwt>
<rscale>  0 0.15204037E+03</rscale>
<asrwt>0</asrwt>
<pdfrwt beam="1">  1        1 0.34452622E-01 0.15846494E+03</pdfrwt>
<pdfrwt beam="2">  1       -1 0.14936501E-01 0.15846494E+03</pdfrwt>
<totfact> 0.39852769E+03</totfact>
</mgrwt>
</event>
<event>
 7    1  0.6008063E-006  0.1266297E+03  0.7546771E-02  0.1248476E+00
          2   -1    0    0  501    0  0.00000000000E+00  0.00000000000E+00  0.28176430389E+03  0.28176430389E+03  0.00000000000E+00 0. -1.
         -2   -1    0    0    0  501 -0.00000000000E+00 -0.00000000000E+00 -0.55918122085E+02  0.55918122085E+02  0.00000000000E+00 0.  1.
         23    2    1    2    0    0 -0.18015507986E+02  0.90023375857E+01  0.20919151718E+03  0.24453257996E+03  0.12501796349E+03 0.  0.
          5    1    3    3  502    0  0.62000047672E+01 -0.17132110496E+02  0.20771444039E+03  0.20856492519E+03  0.47000000000E+01 0. -1.
         -5    1    3    3    0  502 -0.24215512753E+02  0.26134448082E+02  0.14770767827E+01  0.35967654779E+02  0.47000000000E+01 0. -1.
        -11    1    1    2    0    0  0.29897693524E+02  0.33947185163E+02  0.17698178504E+02  0.48574777209E+02  0.00000000000E+00 0. -1.
         11    1    1    2    0    0 -0.11882185538E+02 -0.42949522749E+02 -0.10435138762E+01  0.44575068802E+02  0.00000000000E+00 0.  1.
<mgrwt>
<rscale>  0 0.11679751E+03</rscale>
<asrwt>0</asrwt>
<pdfrwt beam="1">  1        2 0.43348354E-01 0.12662974E+03</pdfrwt>
<pdfrwt beam="2">  1       -2 0.86027881E-02 0.12662974E+03</pdfrwt>
<totfact> 0.92973916E+03</totfact>
</mgrwt>
</event>
<event>
 7    1  0.6008063E-006  0.1265267E+03  0.7546771E-02  0.1247060E+00
          4   -1    0    0  501    0  0.00000000000E+00  0.00000000000E+00  0.64047606647E+03  0.64047606647E+03  0.00000000000E+00 0.  1.
         -4   -1    0    0    0  501 -0.00000000000E+00 -0.00000000000E+00 -0.19204802416E+02  0.19204802416E+02  0.00000000000E+00 0. -1.
         23    2    1    2    0    0  0.19546436925E+02 -0.11294226568E+01  0.38242702671E+03  0.40281440554E+03  0.12500270303E+03 0.  0.
          5    1    3    3  502    0  0.27771927474E+02 -0.55492450850E+02  0.27603452182E+03  0.28296261113E+03  0.47000000000E+01 0. -1.
         -5    1    3    3    0  502 -0.82254905483E+01  0.54363028194E+02  0.10639250488E+03  0.11985179441E+03  0.47000000000E+01 0. -1.
        -11    1    1    2    0    0 -0.24499047876E+02  0.44157336874E+02  0.11278233388E+03  0.12357155248E+03  0.00000000000E+00 0.  1.
         11    1    1    2    0    0  0.49526109503E+01 -0.43027914217E+02  0.12606190348E+03  0.13329491087E+03  0.00000000000E+00 0. -1.
<mgrwt>
<rscale>  0 0.11762952E+03</rscale>
<asrwt>0</asrwt>
<pdfrwt beam="1">  1        4 0.98534763E-01 0.12652673E+03</pdfrwt>
<pdfrwt beam="2">  1       -4 0.29545855E-02 0.12652673E+03</pdfrwt>
<totfact> 0.79934960E+02</totfact>
</mgrwt>
</event>
<event>
 7    1  0.6008063E-006  0.1370156E+03  0.7546771E-02  0.1230303E+00
         -3   -1    0    0    0  501 -0.00000000000E+00  0.00000000000E+00  0.40536549636E+03  0.40536549636E+03  0.00000000000E+00 0.  1.
          3   -1    0    0  501    0  0.00000000000E+00 -0.00000000000E+00 -0.37944168274E+02  0.37944168274E+02  0.00000000000E+00 0. -1.
         23    2    1    2    0    0 -0.16938359264E+02 -0.53491207792E+02  0.15766658140E+03  0.20888280595E+03  0.12500023362E+03 0.  0.
          5    1    3    3  502    0 -0.25832340327E+02  0.66188317151E+01 -0.11239304088E+02  0.29317753946E+02  0.47000000000E+01 0.  1.
         -5    1    3    3    0  502  0.88939810635E+01 -0.60110039507E+02  0.16890588549E+03  0.17956505200E+03  0.47000000000E+01 0.  1.
        -11    1    1    2    0    0 -0.36086376666E+02  0.19403822762E+02  0.69914227435E+02  0.81035388050E+02  0.00000000000E+00 0. -1.
         11    1    1    2    0    0  0.53024735930E+02  0.34087385031E+02  0.13984051926E+03  0.15339147064E+03  0.00000000000E+00 0.  1.
<mgrwt>
<rscale>  0 0.12809978E+03</rscale>
<asrwt>0</asrwt>
<pdfrwt beam="2">  1        3 0.58375646E-02 0.13701560E+03</pdfrwt>
<pdfrwt beam="1">  1       -3 0.62363919E-01 0.13701560E+03</pdfrwt>
<totfact> 0.10434665E+03</totfact>
</mgrwt>
</event>
<event>
 7    1  0.6008063E-006  0.1896242E+03  0.7546771E-02  0.1165912E+00
          1   -1    0    0  501    0  0.00000000000E+00  0.00000000000E+00  0.10837495447E+04  0.10837495447E+04  0.00000000000E+00 0. -1.
         -1   -1    0    0    0  501 -0.00000000000E+00 -0.00000000000E+00 -0.28400736869E+02  0.28400736869E+02  0.00000000000E+00 0.  1.
         23    2    1    2    0    0  0.58420057690E+02 -0.13006693956E+03  0.54286913416E+03  0.57503410890E+03  0.12500807040E+03 0.  0.
          5    1    3    3  502    0  0.95474178439E+02 -0.76304296360E+02  0.31378841169E+03  0.33678319688E+03  0.47000000000E+01 0.  1.
         -5    1    3    3    0  502 -0.37054120749E+02 -0.53762643204E+02  0.22908072247E+03  0.23825091202E+03  0.47000000000E+01 0.  1.
        -11    1    1    2    0    0 -0.61714152304E+02  0.87223337315E+02  0.44061088595E+03  0.45338118619E+03  0.00000000000E+00 0. -1.
         11    1    1    2    0    0  0.32940946141E+01  0.42843602250E+02  0.71868787695E+02  0.83734986462E+02  0.00000000000E+00 0.  1.
<mgrwt>
<rscale>  0 0.18196817E+03</rscale>
<asrwt>0</asrwt>
<pdfrwt beam="1">  1        1 0.16673067E+00 0.18962418E+03</pdfrwt>
<pdfrwt beam="2">  1       -1 0.43693450E-02 0.18962418E+03</pdfrwt>
<totfact> 0.29684586E+03</totfact>
</mgrwt>
</event>
<event>
 7    1  0.6008063E-006  0.1287486E+03  0.7546771E-02  0.1243202E+00
         -2   -1    0    0    0  501 -0.00000000000E+00  0.00000000000E+00  0.26856065108E+02  0.26856065108E+02  0.00000000000E+00 0. -1.
          2   -1    0    0  501    0  0.00000000000E+00 -0.00000000000E+00 -0.48602067529E+03  0.48602067529E+03  0.00000000000E+00 0.  1.
         23    2    1    2    0    0 -0.17223213639E+02  0.25568697830E+02 -0.30070187791E+03  0.32710522875E+03  0.12500325554E+03 0.  0.
          5    1    3    3  502    0 -0.23601783856E+02 -0.19033898466E+02 -0.27145504277E+03  0.27318357150E+03  0.47000000000E+01 0.  1.
         -5    1    3    3    0  502  0.63785702169E+01  0.44602596296E+02 -0.29246835143E+02  0.53921657247E+02  0.47000000000E+01 0.  1.
        -11    1    1    2    0    0  0.42576605122E+02  0.11689664213E+01 -0.29918473419E+02  0.52050445127E+02  0.00000000000E+00 0. -1.
         11    1    1    2    0    0 -0.25353391483E+02 -0.26737664252E+02 -0.12854425885E+03  0.13372106652E+03  0.00000000000E+00 0.  1.
<mgrwt>
<rscale>  0 0.11993654E+03</rscale>
<asrwt>0</asrwt>
<pdfrwt beam="2">  1        2 0.74772412E-01 0.12874864E+03</pdfrwt>
<pdfrwt beam="1">  1       -2 0.41317023E-02 0.12874864E+03</pdfrwt>
<totfact> 0.15813890E+04</totfact>
</mgrwt>
</event>
<event>
 7    1  0.6008063E-006  0.1280203E+03  0.7546771E-02  0.1244983E+00
         -3   -1    0    0    0  501 -0.00000000000E+00  0.00000000000E+00  0.14852176158E+03  0.14852176158E+03  0.00000000000E+00 0.  1.
          3   -1    0    0  501    0  0.00000000000E+00 -0.00000000000E+00 -0.83852278497E+02  0.83852278497E+02  0.00000000000E+00 0. -1.
         23    2    1    2    0    0 -0.26793536323E+02  0.67457273728E+01  0.39066610858E+02  0.13384839260E+03  0.12500317473E+03 0.  0.
          5    1    3    3  502    0  0.39911003367E+02 -0.38122031190E+01  0.51066803814E+02  0.65094773478E+02  0.47000000000E+01 0.  1.
         -5    1    3    3    0  502 -0.66704539691E+02  0.10557930492E+02 -0.12000192956E+02  0.68753619124E+02  0.47000000000E+01 0.  1.
        -11    1    1    2    0    0 -0.55706531562E+01 -0.92683360061E+01  0.54197229566E+02  0.55265485808E+02  0.00000000000E+00 0.  1.
         11    1    1    2    0    0  0.32364189479E+02  0.25226086333E+01 -0.28594357347E+02  0.43260161663E+02  0.00000000000E+00 0. -1.
<mgrwt>
<rscale>  0 0.11886416E+03</rscale>
<asrwt>0</asrwt>
<pdfrwt beam="2">  1        3 0.12900351E-01 0.12802028E+03</pdfrwt>
<pdfrwt beam="1">  1       -3 0.22849502E-01 0.12802028E+03</pdfrwt>
<totfact> 0.19287757E+03</totfact>
</mgrwt>
</event>
<event>
 7    1  0.6008063E-006  0.1609114E+03  0.7546771E-02  0.1195906E+00
          2   -1    0    0  501    0  0.00000000000E+00  0.00000000000E+00  0.24249736662E+03  0.24249736662E+03  0.00000000000E+00 0. -1.
         -2   -1    0    0    0  501 -0.00000000000E+00 -0.00000000000E+00 -0.89883424785E+02  0.89883424785E+02  0.00000000000E+00 0.  1.
         23    2    1    2    0    0  0.10127649741E+03 -0.34468518896E+01  0.88351556975E+02  0.18357146327E+03  0.12499469905E+03 0.  0.
          5    1    3    3  502    0  0.27843431372E+02 -0.18732669686E+02 -0.28742550958E+02  0.44434151502E+02  0.47000000000E+01 0. -1.
         -5    1    3    3    0  502  0.73433066033E+02  0.15285817797E+02  0.11709410793E+03  0.13913731176E+03  0.47000000000E+01 0. -1.
        -11    1    1    2    0    0 -0.48792909570E+02  0.45572266274E+02  0.28431114349E+02  0.72566574542E+02  0.00000000000E+00 0.  1.
         11    1    1    2    0    0 -0.52483587836E+02 -0.42125414384E+02  0.35831270507E+02  0.76242753592E+02  0.00000000000E+00 0. -1.
<mgrwt>
<rscale>  0 0.15377761E+03</rscale>
<asrwt>0</asrwt>
<pdfrwt beam="1">  1        2 0.37307287E-01 0.16091142E+03</pdfrwt>
<pdfrwt beam="2">  1       -2 0.13828219E-01 0.16091142E+03</pdfrwt>
<totfact> 0.52206579E+03</totfact>
</mgrwt>
</event>
<event>
 6    1  0.6008063E-006  0.1816028E+03  0.7546771E-02  0.1190088E+00
         -2   -1    0    0    0  501 -0.00000000000E+00  0.00000000000E+00  0.20107463731E+03  0.20107463731E+03  0.00000000000E+00 0.  1.
          2   -1    0    0  501    0  0.00000000000E+00 -0.00000000000E+00 -0.18658229853E+03  0.18658229853E+03  0.00000000000E+00 0. -1.
          5    1    1    2  502    0 -0.87365505637E+02  0.14114023676E+02 -0.14972816647E+03  0.17399008901E+03  0.47000000000E+01 0. -1.
         -5    1    1    2    0  502  0.27256586852E+02 -0.12321959512E+02  0.30719183608E+02  0.43133634841E+02  0.47000000000E+01 0.  1.
        -11    1    1    2    0    0  0.80931045359E+02  0.10963162748E+02  0.10137599951E+03  0.13018109816E+03  0.00000000000E+00 0.  1.
         11    1    1    2    0    0 -0.20822126574E+02 -0.12755226912E+02  0.32125322135E+02  0.40352113835E+02  0.00000000000E+00 0. -1.
<mgrwt>
<rscale>  0 0.15877395E+03</rscale>
<asrwt>0</asrwt>
<pdfrwt beam="2">  1        2 0.28704969E-01 0.18160279E+03</pdfrwt>
<pdfrwt beam="1">  1       -2 0.30934559E-01 0.18160279E+03</pdfrwt>
<totfact> 0.17556820E+03</totfact>
</mgrwt>
</event>
<event>
 7    1  0.6008063E-006  0.1836851E+03  0.7546771E-02  0.1169230E+00
          2   -1    0    0  501    0  0.00000000000E+00  0.00000000000E+00  0.14716997616E+03  0.14716997616E+03  0.00000000000E+00 0. -1.
         -2   -1    0    0    0  501 -0.00000000000E+00 -0.00000000000E+00 -0.23502223141E+03  0.23502223141E+03  0.00000000000E+00 0.  1.
         23    2    1    2    0    0 -0.48731731130E+02  0.12545828954E+03  0.21793715413E+02  0.18497344746E+03  0.12500258478E+03 0.  0.
          5    1    3    3  502    0 -0.25896868260E+02  0.96750322318E+01  0.55473328807E+02  0.62158138995E+02  0.47000000000E+01 0.  1.
         -5    1    3    3    0  502 -0.22834862870E+02  0.11578325731E+03 -0.33679613394E+02  0.12281530846E+03  0.47000000000E+01 0.  1.
        -11    1    1    2    0    0  0.48464529687E+02 -0.90673276063E+02 -0.12268530009E+03  0.16006916158E+03  0.00000000000E+00 0.  1.
         11    1    1    2    0    0  0.26720144262E+00 -0.34785013475E+02  0.13039329425E+02  0.37149598530E+02  0.00000000000E+00 0. -1.
<mgrwt>
<rscale>  0 0.17853359E+03</rscale>
<asrwt>0</asrwt>
<pdfrwt beam="1">  1        2 0.22641535E-01 0.18368508E+03</pdfrwt>
<pdfrwt beam="2">  1       -2 0.36157266E-01 0.18368508E+03</pdfrwt>
<totfact> 0.17146601E+03</totfact>
</mgrwt>
</event>
<event>
 7    1  0.6008063E-006  0.1397240E+03  0.7546771E-02  0.1225899E+00
          2   -1    0    0  501    0  0.00000000000E+00  0.00000000000E+00  0.13342672773E+04  0.13342672773E+04  0.00000000000E+00 0. -1.
         -2   -1    0    0    0  501 -0.00000000000E+00 -0.00000000000E+00 -0.12432585442E+02  0.12432585442E+02  0.00000000000E+00 0.  1.
         23    2    1    2    0    0 -0.45076755268E+02 -0.43177986559E+02  0.92077869780E+03  0.93131960046E+03  0.12500614182E+03 0.  0.
          5    1    3    3  502    0  0.94098349759E+01  0.20173646165E+02  0.35966876377E+02  0.42558514896E+02  0.47000000000E+01 0. -1.
         -5    1    3    3    0  502 -0.54486590244E+02 -0.63351632723E+02  0.88481182142E+03  0.88876108556E+03  0.47000000000E+01 0. -1.
        -11    1    1    2    0    0  0.12736607766E+02  0.66574803045E+02  0.27016221278E+03  0.27853553955E+03  0.00000000000E+00 0. -1.
         11    1    1    2    0    0  0.32340147502E+02 -0.23396816486E+02  0.13089378129E+03  0.13684472274E+03  0.00000000000E+00 0.  1.
<mgrwt>
<rscale>  0 0.13105468E+03</rscale>
<asrwt>0</asrwt>
<pdfrwt beam="1">  1        2 0.20527178E+00 0.13972397E+03</pdfrwt>
<pdfrwt beam="2">  1       -2 0.19127065E-02 0.13972397E+03</pdfrwt>
<totfact> 0.13433367E+04</totfact>
</mgrwt>
</event>
<event>
 7    1  0.6008063E-006  0.1329021E+03  0.7546771E-02  0.1235515E+00
         -1   -1    0    0    0  501 -0.00000000000E+00  0.00000000000E+00  0.27106176946E+02  0.27106176946E+02  0.00000000000E+00 0.  1.
          1   -1    0    0  501    0  0.00000000000E+00 -0.00000000000E+00 -0.10524649238E+04  0.10524649238E+04  0.00000000000E+00 0. -1.
         23    2    1    2    0    0 -0.43188489258E+02  0.13195513529E+02 -0.92908130765E+03  0.93853878246E+03  0.12499441092E+03 0.  0.
          5    1    3    3  502    0 -0.27750896884E+02 -0.26365646149E+02 -0.82671128807E+03  0.82761035723E+03  0.47000000000E+01 0.  1.
         -5    1    3    3    0  502 -0.15437592374E+02  0.39561159677E+02 -0.10237001959E+03  0.11092842523E+03  0.47000000000E+01 0.  1.
        -11    1    1    2    0    0 -0.26239107218E+02 -0.16217413950E+02 -0.45475102238E+02  0.54949796964E+02  0.00000000000E+00 0. -1.
         11    1    1    2    0    0  0.69427596476E+02  0.30219004213E+01 -0.50802336926E+02  0.86082521290E+02  0.00000000000E+00 0.  1.
<mgrwt>
<rscale>  0 0.12471492E+03</rscale>
<asrwt>0</asrwt>
<pdfrwt beam="2">  1        1 0.16191768E+00 0.13290211E+03</pdfrwt>
<pdfrwt beam="1">  1       -1 0.41701811E-02 0.13290211E+03</pdfrwt>
<totfact> 0.33209927E+03</totfact>
</mgrwt>
</event>
<event>
 7    1  0.6008063E-006  0.1413702E+03  0.7546771E-02  0.1222160E+00
          4   -1    0    0  501    0  0.00000000000E+00  0.00000000000E+00  0.36097390182E+03  0.36097390182E+03  0.00000000000E+00 0. -1.
         -4   -1    0    0    0  501 -0.00000000000E+00 -0.00000000000E+00 -0.44769240197E+02  0.44769240197E+02  0.00000000000E+00 0.  1.
         23    2    1    2    0    0  0.35580976891E+02 -0.55617884324E+02  0.17656374098E+03  0.22618642636E+03  0.12500475938E+03 0.  0.
          5    1    3    3  502    0  0.29695922950E+02 -0.24550293746E+02 -0.73582760875E+01  0.39506948627E+02  0.47000000000E+01 0. -1.
         -5    1    3    3    0  502  0.58850539410E+01 -0.31067590579E+02  0.18392201707E+03  0.18667947774E+03  0.47000000000E+01 0. -1.
        -11    1    1    2    0    0 -0.65785200740E+02  0.45567536264E+02  0.88482390733E+02  0.11930308658E+03  0.00000000000E+00 0.  1.
         11    1    1    2    0    0  0.30204223849E+02  0.10050348061E+02  0.51158529904E+02  0.60253629073E+02  0.00000000000E+00 0. -1.
<mgrwt>
<rscale>  0 0.13363464E+03</rscale>
<asrwt>0</asrwt>
<pdfrwt beam="1">  1        4 0.55534445E-01 0.14137024E+03</pdfrwt>
<pdfrwt beam="2">  1       -4 0.68875756E-02 0.14137024E+03</pdfrwt>
<totfact> 0.73750129E+02</totfact>
</mgrwt>
</event>
<event>
 7    1  0.6008063E-006  0.1315147E+03  0.7546771E-02  0.1239526E+00
         -2   -1    0    0    0  501 -0.00000000000E+00  0.00000000000E+00  0.44605923284E+02  0.44605923284E+02  0.00000000000E+00 0.  1.
          2   -1    0    0  501    0  0.00000000000E+00 -0.00000000000E+00 -0.29909985959E+03  0.29909985959E+03  0.00000000000E+00 0. -1.
         23    2    1    2    0    0  0.22890424726E+02  0.33877731487E+02 -0.16490983111E+03  0.21092979372E+03  0.12499781298E+03 0.  0.
          5    1    3    3  502    0 -0.48349035340E+01  0.26508007329E+02 -0.17725038566E+03  0.17934837596E+03  0.47000000000E+01 0. -1.
         -5    1    3    3    0  502  0.27725328260E+02  0.73697241582E+01  0.12340554550E+02  0.31581417762E+02  0.47000000000E+01 0. -1.
        -11    1    1    2    0    0  0.20587819748E+01  0.16640761601E+02 -0.71741433736E+02  0.73674872544E+02  0.00000000000E+00 0. -1.
         11    1    1    2    0    0 -0.24949206701E+02 -0.50518493089E+02 -0.17842671461E+02  0.59101116604E+02  0.00000000000E+00 0.  1.
<mgrwt>
<rscale>  0 0.12219071E+03</rscale>
<asrwt>0</asrwt>
<pdfrwt beam="2">  1        2 0.46015360E-01 0.13151473E+03</pdfrwt>
<pdfrwt beam="1">  1       -2 0.68624502E-02 0.13151473E+03</pdfrwt>
<totfact> 0.12394401E+04</totfact>
</mgrwt>
</event>
<event>
 7    1  0.6008063E-006  0.1317763E+03  0.7546771E-02  0.1238048E+00
          2   -1    0    0  501    0  0.00000000000E+00  0.00000000000E+00  0.58726346156E+03  0.58726346156E+03  0.00000000000E+00 0. -1.
         -2   -1    0    0    0  501 -0.00000000000E+00 -0.00000000000E+00 -0.24140664098E+02  0.24140664098E+02  0.00000000000E+00 0.  1.
         23    2    1    2    0    0 -0.41605847602E+02  0.22572333285E+01  0.38512815820E+03  0.40704874652E+03  0.12501536763E+03 0.  0.
          5    1    3    3  502    0  0.85829825597E+01  0.40940571324E+02  0.47389560779E+02  0.63385001702E+02  0.47000000000E+01 0.  1.
         -5    1    3    3    0  502 -0.50188830162E+02 -0.38683337996E+02  0.33773859742E+03  0.34366374481E+03  0.47000000000E+01 0.  1.
        -11    1    1    2    0    0  0.24782426889E+02  0.30145771345E+02  0.23388431475E+02  0.45496757460E+02  0.00000000000E+00 0.  1.
         11    1    1    2    0    0  0.16823420713E+02 -0.32403004674E+02  0.15460620778E+03  0.15885862168E+03  0.00000000000E+00 0. -1.
<mgrwt>
<rscale>  0 0.12311337E+03</rscale>
<asrwt>0</asrwt>
<pdfrwt beam="1">  1        2 0.90348214E-01 0.13177626E+03</pdfrwt>
<pdfrwt beam="2">  1       -2 0.37139488E-02 0.13177626E+03</pdfrwt>
<totfact> 0.15043407E+04</totfact>
</mgrwt>
</event>
<event>
 7    1  0.6008063E-006  0.2084918E+03  0.7546771E-02  0.1146638E+00
         -4   -1    0    0    0  501 -0.00000000000E+00  0.00000000000E+00  0.21614507010E+03  0.21614507010E+03  0.00000000000E+00 0.  1.
          4   -1    0    0  501    0  0.00000000000E+00 -0.00000000000E+00 -0.18955584075E+03  0.18955584075E+03  0.00000000000E+00 0. -1.
         23    2    1    2    0    0 -0.11248290912E+03  0.12324301772E+03  0.49468884475E+02  0.21428015416E+03  0.12501027027E+03 0.  0.
          5    1    3    3  502    0 -0.13542604489E+03  0.12340099648E+03  0.34528092259E+02  0.18650013062E+03  0.47000000000E+01 0. -1.
         -5    1    3    3    0  502  0.22943135766E+02 -0.15797875173E+00  0.14940792216E+02  0.27780023544E+02  0.47000000000E+01 0. -1.
        -11    1    1    2    0    0  0.89661818236E+02 -0.13400908800E+03 -0.32382400970E+02  0.16445758483E+03  0.00000000000E+00 0. -1.
         11    1    1    2    0    0  0.22821090889E+02  0.10766070272E+02  0.95027458481E+01  0.26963171867E+02  0.00000000000E+00 0.  1.
<mgrwt>
<rscale>  0 0.20371958E+03</rscale>
<asrwt>0</asrwt>
<pdfrwt beam="2">  1        4 0.29162437E-01 0.20849176E+03</pdfrwt>
<pdfrwt beam="1">  1       -4 0.33253088E-01 0.20849176E+03</pdfrwt>
<totfact> 0.17513041E+02</totfact>
</mgrwt>
</event>
<event>
 7    1  0.6008063E-006  0.1244625E+03  0.7546771E-02  0.1250672E+00
         -1   -1    0    0    0  501 -0.00000000000E+00  0.00000000000E+00  0.16887838396E+02  0.16887838396E+02  0.00000000000E+00 0.  1.
          1   -1    0    0  501    0  0.00000000000E+00 -0.00000000000E+00 -0.72621306198E+03  0.72621306198E+03  0.00000000000E+00 0. -1.
         23    2    1    2    0    0 -0.20839966638E+02  0.36012151426E+01 -0.47990797719E+03  0.49578481512E+03  0.12265253106E+03 0.  0.
          5    1    3    3  502    0  0.27604266852E+01 -0.13182349834E+02 -0.46024592274E+03  0.46046693008E+03  0.47000000000E+01 0. -1.
         -5    1    3    3    0  502 -0.23600393323E+02  0.16783564977E+02 -0.19662054451E+02  0.35317885038E+02  0.47000000000E+01 0.  1.
        -11    1    1    2    0    0  0.26682490538E+02  0.38858057888E+02 -0.92038218104E+02  0.10340666108E+03  0.00000000000E+00 0. -1.
         11    1    1    2    0    0 -0.58425239001E+01 -0.42459273031E+02 -0.13737902829E+03  0.14390942417E+03  0.00000000000E+00 0.  1.
<mgrwt>
<rscale>  0 0.11552247E+03</rscale>
<asrwt>0</asrwt>
<pdfrwt beam="2">  1        1 0.11172507E+00 0.12446251E+03</pdfrwt>
<pdfrwt beam="1">  1       -1 0.25981294E-02 0.12446251E+03</pdfrwt>
<totfact> 0.11832151E+04</totfact>
</mgrwt>
</event>
<event>
 7    1  0.6008063E-006  0.1535653E+03  0.7546771E-02  0.1199089E+00
         -2   -1    0    0    0  501 -0.00000000000E+00  0.00000000000E+00  0.12370127409E+03  0.12370127409E+03  0.00000000000E+00 0.  1.
          2   -1    0    0  501    0  0.00000000000E+00 -0.00000000000E+00 -0.22152036416E+03  0.22152036416E+03  0.00000000000E+00 0. -1.
         23    2    1    2    0    0 -0.47299591952E+02 -0.75627800688E+02 -0.12574653733E+03  0.19848049339E+03  0.12500199587E+03 0.  0.
          5    1    3    3  502    0 -0.16614494643E+02 -0.93641234324E+01 -0.12372851829E+03  0.12527794889E+03  0.47000000000E+01 0. -1.
         -5    1    3    3    0  502 -0.30685097309E+02 -0.66263677256E+02 -0.20180190391E+01  0.73202544499E+02  0.47000000000E+01 0. -1.
        -11    1    1    2    0    0  0.24593318518E+02  0.45298762962E+02  0.72046971957E+02  0.88586541922E+02  0.00000000000E+00 0.  1.
         11    1    1    2    0    0  0.22706273434E+02  0.30329037726E+02 -0.44119524697E+02  0.58154602932E+02  0.00000000000E+00 0. -1.
<mgrwt>
<rscale>  0 0.15113153E+03</rscale>
<asrwt>0</asrwt>
<pdfrwt beam="2">  1        2 0.34080056E-01 0.15356534E+03</pdfrwt>
<pdfrwt beam="1">  1       -2 0.19030965E-01 0.15356534E+03</pdfrwt>
<totfact> 0.33837316E+03</totfact>
</mgrwt>
</event>
<event>
 7    1  0.6008063E-006  0.1344012E+03  0.7546771E-02  0.1233402E+00
         -1   -1    0    0    0  501 -0.00000000000E+00  0.00000000000E+00  0.23203903435E+02  0.23203903435E+02  0.00000000000E+00 0.  1.
          1   -1    0    0  501    0  0.00000000000E+00 -0.00000000000E+00 -0.65675811308E+03  0.65675811308E+03  0.00000000000E+00 0. -1.
         23    2    1    2    0    0 -0.17684186366E+02  0.46106226160E+02 -0.44182748361E+03  0.46181729351E+03  0.12500069109E+03 0.  0.
          5    1    3    3  502    0 -0.46227161345E+02  0.75916716043E+02 -0.34806763121E+03  0.35926795587E+03  0.47000000000E+01 0. -1.
         -5    1    3    3    0  502  0.28542974980E+02 -0.29810489882E+02 -0.93759852399E+02  0.10254933764E+03  0.47000000000E+01 0. -1.
        -11    1    1    2    0    0  0.18973005960E+02 -0.70404346000E+02 -0.17201079135E+03  0.18682735140E+03  0.00000000000E+00 0. -1.
         11    1    1    2    0    0 -0.12888195943E+01  0.24298119840E+02 -0.19715934683E+02  0.31317371603E+02  0.00000000000E+00 0.  1.
<mgrwt>
<rscale>  0 0.12607264E+03</rscale>
<asrwt>0</asrwt>
<pdfrwt beam="2">  1        1 0.10103970E+00 0.13440122E+03</pdfrwt>
<pdfrwt beam="1">  1       -1 0.35698315E-02 0.13440122E+03</pdfrwt>
<totfact> 0.86404592E+03</totfact>
</mgrwt>
</event>
<event>
 7    1  0.6008063E-006  0.1445788E+03  0.7546771E-02  0.1219014E+00
          1   -1    0    0  501    0  0.00000000000E+00  0.00000000000E+00  0.15592708764E+03  0.15592708764E+03  0.00000000000E+00 0. -1.
         -1   -1    0    0    0  501 -0.00000000000E+00 -0.00000000000E+00 -0.11156443149E+03  0.11156443149E+03  0.00000000000E+00 0.  1.
         23    2    1    2    0    0  0.40802495858E+02 -0.60119844831E+02  0.54046943966E+02  0.15435053670E+03  0.12499510637E+03 0.  0.
          5    1    3    3  502    0  0.56203372606E+02  0.11525735941E+02  0.56794592580E+02  0.80866417180E+02  0.47000000000E+01 0. -1.
         -5    1    3    3    0  502 -0.15400876748E+02 -0.71645580772E+02 -0.27476486142E+01  0.73484119521E+02  0.47000000000E+01 0. -1.
        -11    1    1    2    0    0 -0.30628113901E+02 -0.11704359653E+02 -0.22105476998E+02  0.39543969317E+02  0.00000000000E+00 0.  1.
         11    1    1    2    0    0 -0.10174381957E+02  0.71824204485E+02  0.12421189180E+02  0.73597013110E+02  0.00000000000E+00 0. -1.
<mgrwt>
<rscale>  0 0.13585767E+03</rscale>
<asrwt>0</asrwt>
<pdfrwt beam="1">  1        1 0.23988783E-01 0.14457875E+03</pdfrwt>
<pdfrwt beam="2">  1       -1 0.17163759E-01 0.14457875E+03</pdfrwt>
<totfact> 0.50068337E+03</totfact>
</mgrwt>
</event>
<event>
 7    1  0.6008063E-006  0.1764195E+03  0.7546771E-02  0.1178877E+00
          1   -1    0    0  501    0  0.00000000000E+00  0.00000000000E+00  0.76817123612E+02  0.76817123612E+02  0.00000000000E+00 0. -1.
         -1   -1    0    0    0  501 -0.00000000000E+00 -0.00000000000E+00 -0.34421541897E+03  0.34421541897E+03  0.00000000000E+00 0.  1.
         23    2    1    2    0    0 -0.11171463911E+03 -0.54933021562E+02 -0.15202074076E+03  0.23288222031E+03  0.12500410179E+03 0.  0.
          5    1    3    3  502    0 -0.13548340469E+03 -0.56560715426E+02 -0.10700192533E+03  0.18173158641E+03  0.47000000000E+01 0. -1.
         -5    1    3    3    0  502  0.23768765581E+02  0.16276938637E+01 -0.45018815437E+02  0.51150633896E+02  0.47000000000E+01 0. -1.
        -11    1    1    2    0    0  0.73131345841E+02  0.26749855019E+02 -0.11676608824E+03  0.14034980531E+03  0.00000000000E+00 0.  1.
         11    1    1    2    0    0  0.38583293270E+02  0.28183166543E+02  0.13885336491E+01  0.47800516960E+02  0.00000000000E+00 0. -1.
<mgrwt>
<rscale>  0 0.16901715E+03</rscale>
<asrwt>0</asrwt>
<pdfrwt beam="1">  1        1 0.11818019E-01 0.17641945E+03</pdfrwt>
<pdfrwt beam="2">  1       -1 0.52956219E-01 0.17641945E+03</pdfrwt>
<totfact> 0.18590661E+03</totfact>
</mgrwt>
</event>
<event>
 7    1  0.6008063E-006  0.1451002E+03  0.7546771E-02  0.1216507E+00
          4   -1    0    0  501    0  0.00000000000E+00  0.00000000000E+00  0.50120700378E+03  0.50120700378E+03  0.00000000000E+00 0. -1.
         -4   -1    0    0    0  501 -0.00000000000E+00 -0.00000000000E+00 -0.34415003792E+02  0.34415003792E+02  0.00000000000E+00 0.  1.
         23    2    1    2    0    0 -0.14239790221E+02  0.72289591481E+02  0.25594008956E+03  0.29420979677E+03  0.12500207363E+03 0.  0.
          5    1    3    3  502    0 -0.66800025695E+02  0.34110252566E+02  0.99021563150E+02  0.12431054956E+03  0.47000000000E+01 0. -1.
         -5    1    3    3    0  502  0.52560235474E+02  0.38179338915E+02  0.15691852641E+03  0.16989924722E+03  0.47000000000E+01 0. -1.
        -11    1    1    2    0    0  0.39223958788E+02 -0.15342778852E+01  0.10117429058E+03  0.10852239412E+03  0.00000000000E+00 0.  1.
         11    1    1    2    0    0 -0.24984168568E+02 -0.70755313596E+02  0.10967761985E+03  0.13288981668E+03  0.00000000000E+00 0. -1.
<mgrwt>
<rscale>  0 0.13766381E+03</rscale>
<asrwt>0</asrwt>
<pdfrwt beam="1">  1        4 0.77108764E-01 0.14510022E+03</pdfrwt>
<pdfrwt beam="2">  1       -4 0.52946163E-02 0.14510022E+03</pdfrwt>
<totfact> 0.56438888E+02</totfact>
</mgrwt>
</event>
<event>
 6    1  0.6008063E-006  0.1455079E+03  0.7546771E-02  0.1223194E+00
         -1   -1    0    0    0  501 -0.00000000000E+00  0.00000000000E+00  0.90717293985E+02  0.90717293985E+02  0.00000000000E+00 0.  1.
          1   -1    0    0  501    0  0.00000000000E+00 -0.00000000000E+00 -0.24642407846E+03  0.24642407846E+03  0.00000000000E+00 0. -1.
          5    1    1    2  502    0 -0.34703875116E+02  0.68701770364E+02 -0.13697005991E+03  0.15718517586E+03  0.47000000000E+01 0. -1.
         -5    1    1    2    0  502  0.53297965201E+02 -0.29068812676E+02 -0.44508105820E+02  0.75423672999E+02  0.47000000000E+01 0.  1.
        -11    1    1    2    0    0  0.28512515758E+01 -0.38299979112E+02 -0.27403750017E+02  0.47180330123E+02  0.00000000000E+00 0.  1.
         11    1    1    2    0    0 -0.21445341661E+02 -0.13329785759E+01  0.53175131262E+02  0.57352193468E+02  0.00000000000E+00 0. -1.
<mgrwt>
<rscale>  0 0.13291489E+03</rscale>
<asrwt>0</asrwt>
<pdfrwt beam="2">  1        1 0.37911396E-01 0.14550791E+03</pdfrwt>
<pdfrwt beam="1">  1       -1 0.13956507E-01 0.14550791E+03</pdfrwt>
<totfact> 0.39186389E+03</totfact>
</mgrwt>
</event>
<event>
 7    1  0.6008063E-006  0.1320593E+03  0.7546771E-02  0.1235752E+00
          1   -1    0    0  501    0  0.00000000000E+00  0.00000000000E+00  0.53130926948E+02  0.53130926948E+02  0.00000000000E+00 0. -1.
         -1   -1    0    0    0  501 -0.00000000000E+00 -0.00000000000E+00 -0.39230308002E+03  0.39230308002E+03  0.00000000000E+00 0.  1.
         23    2    1    2    0    0  0.42095039928E+02 -0.63503990300E+01 -0.55744261516E+02  0.14334256736E+03  0.12500939553E+03 0.  0.
          5    1    3    3  502    0 -0.26073779555E+02 -0.27711217690E+02  0.16405641706E+02  0.41701182788E+02  0.47000000000E+01 0. -1.
         -5    1    3    3    0  502  0.68168819482E+02  0.21360818660E+02 -0.72149903222E+02  0.10164138458E+03  0.47000000000E+01 0. -1.
        -11    1    1    2    0    0  0.20379587607E+01 -0.34534589730E+02 -0.48441754703E+02  0.59526420709E+02  0.00000000000E+00 0. -1.
         11    1    1    2    0    0 -0.44132998688E+02  0.40884988760E+02 -0.23498613686E+03  0.24256501890E+03  0.00000000000E+00 0.  1.
<mgrwt>
<rscale>  0 0.12456435E+03</rscale>
<asrwt>0</asrwt>
<pdfrwt beam="1">  1        1 0.81739886E-02 0.13205934E+03</pdfrwt>
<pdfrwt beam="2">  1       -1 0.60354321E-01 0.13205934E+03</pdfrwt>
<totfact> 0.23471039E+03</totfact>
</mgrwt>
</event>
<event>
 7    1  0.6008063E-006  0.2167626E+03  0.7546771E-02  0.1139756E+00
          2   -1    0    0  501    0  0.00000000000E+00  0.00000000000E+00  0.12993385097E+04  0.12993385097E+04  0.00000000000E+00 0.  1.
         -2   -1    0    0    0  501 -0.00000000000E+00 -0.00000000000E+00 -0.39215982490E+02  0.39215982490E+02  0.00000000000E+00 0. -1.
         23    2    1    2    0    0  0.15830998051E+03  0.79367125633E+02  0.91134074529E+03  0.93676464486E+03  0.12499942111E+03 0.  0.
          5    1    3    3  502    0  0.76166115831E+02  0.92905425838E+02  0.37010422674E+03  0.38914254972E+03  0.47000000000E+01 0.  1.
         -5    1    3    3    0  502  0.82143864675E+02 -0.13538300204E+02  0.54123651855E+03  0.54762209514E+03  0.47000000000E+01 0.  1.
        -11    1    1    2    0    0 -0.81951235910E+02 -0.59357494962E+02  0.10620592708E+03  0.14669361344E+03  0.00000000000E+00 0.  1.
         11    1    1    2    0    0 -0.76358744595E+02 -0.20009630671E+02  0.24257585482E+03  0.25509623387E+03  0.00000000000E+00 0. -1.
<mgrwt>
<rscale>  0 0.21230250E+03</rscale>
<asrwt>0</asrwt>
<pdfrwt beam="1">  1        2 0.19989820E+00 0.21676265E+03</pdfrwt>
<pdfrwt beam="2">  1       -2 0.60332291E-02 0.21676265E+03</pdfrwt>
<totfact> 0.25732369E+03</totfact>
</mgrwt>
</event>
<event>
 7    1  0.6008063E-006  0.1284779E+03  0.7546771E-02  0.1244418E+00
          1   -1    0    0  501    0  0.00000000000E+00  0.00000000000E+00  0.39502219989E+03  0.39502219989E+03  0.00000000000E+00 0. -1.
         -1   -1    0    0    0  501 -0.00000000000E+00 -0.00000000000E+00 -0.31692387518E+02  0.31692387518E+02  0.00000000000E+00 0.  1.
         23    2    1    2    0    0  0.21360463343E+02  0.20651955849E+02  0.21480600761E+03  0.25029620826E+03  0.12499519308E+03 0.  0.
          5    1    3    3  502    0 -0.51657492751E+02  0.18787059829E+02  0.97630889679E+02  0.11213978239E+03  0.47000000000E+01 0. -1.
         -5    1    3    3    0  502  0.73017956094E+02  0.18648960201E+01  0.11717511793E+03  0.13815642587E+03  0.47000000000E+01 0. -1.
        -11    1    1    2    0    0  0.53238143000E+01 -0.38969191637E+02  0.13623320534E+03  0.14179713373E+03  0.00000000000E+00 0. -1.
         11    1    1    2    0    0 -0.26684277643E+02  0.18317235788E+02  0.12290599428E+02  0.34621245421E+02  0.00000000000E+00 0.  1.
<mgrwt>
<rscale>  0 0.11920296E+03</rscale>
<asrwt>0</asrwt>
<pdfrwt beam="1">  1        1 0.60772643E-01 0.12847790E+03</pdfrwt>
<pdfrwt beam="2">  1       -1 0.48757522E-02 0.12847790E+03</pdfrwt>
<totfact> 0.10625940E+04</totfact>
</mgrwt>
</event>
<event>
 7    1  0.6008063E-006  0.1563210E+03  0.7546771E-02  0.1201433E+00
         -2   -1    0    0    0  501 -0.00000000000E+00  0.00000000000E+00  0.82376958997E+02  0.82376958997E+02  0.00000000000E+00 0.  1.
          2   -1    0    0  501    0  0.00000000000E+00 -0.00000000000E+00 -0.41335171799E+03  0.41335171799E+03  0.00000000000E+00 0. -1.
         23    2    1    2    0    0  0.56513294867E+02 -0.74953994550E+02 -0.33085909342E+03  0.36592895037E+03  0.12499761288E+03 0.  0.
          5    1    3    3  502    0  0.55058293107E+02 -0.23193999637E+02 -0.29900954813E+03  0.30495602491E+03  0.47000000000E+01 0.  1.
         -5    1    3    3    0  502  0.14550017600E+01 -0.51759994913E+02 -0.31849545290E+02  0.60972925456E+02  0.47000000000E+01 0.  1.
        -11    1    1    2    0    0 -0.55983589766E+02  0.23309019212E+02 -0.32536642336E+02  0.68819370778E+02  0.00000000000E+00 0. -1.
         11    1    1    2    0    0 -0.52970510089E+00  0.51644975339E+02  0.32420976756E+02  0.60980355845E+02  0.00000000000E+00 0.  1.
<mgrwt>
<rscale>  0 0.14922150E+03</rscale>
<asrwt>0</asrwt>
<pdfrwt beam="2">  1        2 0.63592571E-01 0.15632101E+03</pdfrwt>
<pdfrwt beam="1">  1       -2 0.12673378E-01 0.15632101E+03</pdfrwt>
<totfact> 0.33959507E+03</totfact>
</mgrwt>
</event>
<event>
 7    1  0.6008063E-006  0.2304637E+03  0.7546771E-02  0.1129189E+00
          4   -1    0    0  501    0  0.00000000000E+00  0.00000000000E+00  0.66144715915E+02  0.66144715915E+02  0.00000000000E+00 0. -1.
         -4   -1    0    0    0  501 -0.00000000000E+00 -0.00000000000E+00 -0.75240788061E+03  0.75240788061E+03  0.00000000000E+00 0.  1.
         23    2    1    2    0    0 -0.27765137742E+02 -0.19161033969E+03 -0.38289954810E+03  0.44690666854E+03  0.12501232457E+03 0.  0.
          5    1    3    3  502    0 -0.74395738706E+02 -0.11503968618E+03 -0.26868025643E+03  0.30162895340E+03  0.47000000000E+01 0. -1.
         -5    1    3    3    0  502  0.46630600964E+02 -0.76570653506E+02 -0.11421929168E+03  0.14527771514E+03  0.47000000000E+01 0. -1.
        -11    1    1    2    0    0 -0.24513623030E+02  0.40457189815E+02 -0.33562460245E+02  0.58001212569E+02  0.00000000000E+00 0. -1.
         11    1    1    2    0    0  0.52278760772E+02  0.15115314987E+03 -0.26980115635E+03  0.31364471542E+03  0.00000000000E+00 0.  1.
<mgrwt>
<rscale>  0 0.22641445E+03</rscale>
<asrwt>0</asrwt>
<pdfrwt beam="1">  1        4 0.10176110E-01 0.23046368E+03</pdfrwt>
<pdfrwt beam="2">  1       -4 0.11575506E+00 0.23046368E+03</pdfrwt>
<totfact> 0.80574152E+01</totfact>
</mgrwt>
</event>
<event>
 7    1  0.6008063E-006  0.1355937E+03  0.7546771E-02  0.1233802E+00
         -2   -1    0    0    0  501 -0.00000000000E+00  0.00000000000E+00  0.11656669540E+02  0.11656669540E+02  0.00000000000E+00 0.  1.
          2   -1    0    0  501    0  0.00000000000E+00 -0.00000000000E+00 -0.16481226373E+04  0.16481226373E+04  0.00000000000E+00 0. -1.
         23    2    1    2    0    0  0.50585207331E+02  0.14314445132E+02 -0.13378203347E+04  0.13446742755E+04  0.12498757012E+03 0.  0.
          5    1    3    3  502    0 -0.11572736867E+02  0.32726033498E+02 -0.11715351347E+03  0.12227819604E+03  0.47000000000E+01 0. -1.
         -5    1    3    3    0  502  0.62157944198E+02 -0.18411588365E+02 -0.12206668212E+04  0.12223960794E+04  0.47000000000E+01 0. -1.
        -11    1    1    2    0    0 -0.31362274224E+02  0.33367976963E+02 -0.10124871654E+03  0.11112298022E+03  0.00000000000E+00 0.  1.
         11    1    1    2    0    0 -0.19222933107E+02 -0.47682422095E+02 -0.19739691655E+03  0.20398205116E+03  0.00000000000E+00 0. -1.
<mgrwt>
<rscale>  0 0.12581443E+03</rscale>
<asrwt>0</asrwt>
<pdfrwt beam="2">  1        2 0.25355732E+00 0.13559373E+03</pdfrwt>
<pdfrwt beam="1">  1       -2 0.17933339E-02 0.13559373E+03</pdfrwt>
<totfact> 0.10094553E+04</totfact>
</mgrwt>
</event>
<event>
 7    1  0.6008063E-006  0.2363998E+03  0.7546771E-02  0.1125487E+00
         -1   -1    0    0    0  501 -0.00000000000E+00  0.00000000000E+00  0.41057301243E+03  0.41057301243E+03  0.00000000000E+00 0.  1.
          1   -1    0    0  501    0  0.00000000000E+00 -0.00000000000E+00 -0.13616209871E+03  0.13616209871E+03  0.00000000000E+00 0. -1.
         23    2    1    2    0    0 -0.82894506211E+02  0.18273469984E+03  0.66623502878E+02  0.24560850937E+03  0.12498551538E+03 0.  0.
          5    1    3    3  502    0 -0.78049485369E+02  0.10483615554E+03  0.95836542368E+02  0.16213905923E+03  0.47000000000E+01 0. -1.
         -5    1    3    3    0  502 -0.48450208422E+01  0.77898544301E+02 -0.29213039490E+02  0.83469450145E+02  0.47000000000E+01 0. -1.
        -11    1    1    2    0    0  0.19230676434E+02 -0.52955853604E+02  0.11741764607E+02  0.57550068489E+02  0.00000000000E+00 0. -1.
         11    1    1    2    0    0  0.63663829777E+02 -0.12977884624E+03  0.19604564624E+03  0.24357653327E+03  0.00000000000E+00 0.  1.
<mgrwt>
<rscale>  0 0.23164548E+03</rscale>
<asrwt>0</asrwt>
<pdfrwt beam="2">  1        1 0.20948015E-01 0.23639976E+03</pdfrwt>
<pdfrwt beam="1">  1       -1 0.63165078E-01 0.23639976E+03</pdfrwt>
<totfact> 0.63324979E+02</totfact>
</mgrwt>
</event>
<event>
 7    1  0.6008063E-006  0.1304268E+03  0.7546771E-02  0.1239904E+00
          3   -1    0    0  501    0  0.00000000000E+00  0.00000000000E+00  0.31190687342E+02  0.31190687342E+02  0.00000000000E+00 0. -1.
         -3   -1    0    0    0  501 -0.00000000000E+00 -0.00000000000E+00 -0.42958748464E+03  0.42958748464E+03  0.00000000000E+00 0.  1.
         23    2    1    2    0    0 -0.12437301145E+02 -0.35091324400E+02 -0.20061024066E+03  0.23928147504E+03  0.12500027253E+03 0.  0.
          5    1    3    3  502    0 -0.14184343473E+02  0.38179423610E+02 -0.13399939987E+03  0.14013134251E+03  0.47000000000E+01 0. -1.
         -5    1    3    3    0  502  0.17470423272E+01 -0.73270748010E+02 -0.66610840787E+02  0.99150132533E+02  0.47000000000E+01 0. -1.
        -11    1    1    2    0    0 -0.31926276535E+02  0.43758056794E+02 -0.98696934220E+02  0.11258392200E+03  0.00000000000E+00 0. -1.
         11    1    1    2    0    0  0.44363577680E+02 -0.86667323944E+01 -0.99089622420E+02  0.10891277495E+03  0.00000000000E+00 0.  1.
<mgrwt>
<rscale>  0 0.12195662E+03</rscale>
<asrwt>0</asrwt>
<pdfrwt beam="1">  1        3 0.47985670E-02 0.13042682E+03</pdfrwt>
<pdfrwt beam="2">  1       -3 0.66090386E-01 0.13042682E+03</pdfrwt>
<totfact> 0.12517591E+03</totfact>
</mgrwt>
</event>
<event>
 7    1  0.6008063E-006  0.1429863E+03  0.7546771E-02  0.1230464E+00
          1   -1    0    0  501    0  0.00000000000E+00  0.00000000000E+00  0.59932153188E+02  0.59932153188E+02  0.00000000000E+00 0. -1.
         -1   -1    0    0    0  501 -0.00000000000E+00 -0.00000000000E+00 -0.27295935098E+03  0.27295935098E+03  0.00000000000E+00 0.  1.
         23    2    1    2    0    0  0.31946285860E+01  0.71731328231E+02 -0.61344330548E+02  0.15558982883E+03  0.12365063220E+03 0.  0.
          5    1    3    3  502    0  0.25371765114E+02  0.74014749711E+02 -0.89760155021E+02  0.11916746649E+03  0.47000000000E+01 0. -1.
         -5    1    3    3    0  502 -0.22177136528E+02 -0.22834214801E+01  0.28415824473E+02  0.36422362345E+02  0.47000000000E+01 0. -1.
        -11    1    1    2    0    0  0.90267546912E+00 -0.59722060072E+02 -0.15328600318E+03  0.16451181736E+03  0.00000000000E+00 0.  1.
         11    1    1    2    0    0 -0.40973040551E+01 -0.12009268159E+02  0.16031359291E+01  0.12789857976E+02  0.00000000000E+00 0. -1.
<mgrwt>
<rscale>  0 0.12799338E+03</rscale>
<asrwt>0</asrwt>
<pdfrwt beam="1">  1        1 0.92203314E-02 0.14298625E+03</pdfrwt>
<pdfrwt beam="2">  1       -1 0.41993745E-01 0.14298625E+03</pdfrwt>
<totfact> 0.38979604E+03</totfact>
</mgrwt>
</event>
<event>
 6    1  0.6008063E-006  0.1883754E+03  0.7546771E-02  0.1188043E+00
          2   -1    0    0  501    0  0.00000000000E+00  0.00000000000E+00  0.24089668892E+03  0.24089668892E+03  0.00000000000E+00 0. -1.
         -2   -1    0    0    0  501 -0.00000000000E+00 -0.00000000000E+00 -0.10234251018E+03  0.10234251018E+03  0.00000000000E+00 0.  1.
          5    1    1    2  502    0  0.41983338718E+01 -0.96971758341E+02  0.11334057070E+03  0.14929609134E+03  0.47000000000E+01 0. -1.
         -5    1    1    2    0  502 -0.13108721183E+02  0.83403298762E+02  0.39713639523E+02  0.93419548167E+02  0.47000000000E+01 0.  1.
        -11    1    1    2    0    0  0.12820582038E+02  0.54594672266E+02 -0.18658088264E+02  0.59102198109E+02  0.00000000000E+00 0.  1.
         11    1    1    2    0    0 -0.39101947274E+01 -0.41026212687E+02  0.41580567747E+01  0.41421361475E+02  0.00000000000E+00 0. -1.
<mgrwt>
<rscale>  0 0.16058082E+03</rscale>
<asrwt>0</asrwt>
<pdfrwt beam="1">  1        2 0.37061029E-01 0.18837540E+03</pdfrwt>
<pdfrwt beam="2">  1       -2 0.15745002E-01 0.18837540E+03</pdfrwt>
<totfact> 0.42848433E+03</totfact>
</mgrwt>
</event>
<event>
 7    1  0.6008063E-006  0.1890428E+03  0.7546771E-02  0.1164333E+00
         -2   -1    0    0    0  501 -0.00000000000E+00  0.00000000000E+00  0.68787534183E+02  0.68787534183E+02  0.00000000000E+00 0.  1.
          2   -1    0    0  501    0  0.00000000000E+00 -0.00000000000E+00 -0.48842364485E+03  0.48842364485E+03  0.00000000000E+00 0. -1.
         23    2    1    2    0    0  0.51634484111E+02  0.13208320446E+03 -0.28343435396E+03  0.34069373221E+03  0.12500037326E+03 0.  0.
          5    1    3    3  502    0  0.53567893753E+02  0.14496309450E+03 -0.28734820891E+03  0.32630492055E+03  0.47000000000E+01 0. -1.
         -5    1    3    3    0  502 -0.19334096415E+01 -0.12879890045E+02  0.39138549572E+01  0.14388811662E+02  0.47000000000E+01 0. -1.
        -11    1    1    2    0    0  0.42039266444E+01 -0.82512618454E+02 -0.10960211850E+03  0.13725388732E+03  0.00000000000E+00 0. -1.
         11    1    1    2    0    0 -0.55838410756E+02 -0.49570586004E+02 -0.26599638207E+02  0.79263559504E+02  0.00000000000E+00 0.  1.
<mgrwt>
<rscale>  0 0.18363219E+03</rscale>
<asrwt>0</asrwt>
<pdfrwt beam="2">  1        2 0.75142096E-01 0.18904282E+03</pdfrwt>
<pdfrwt beam="1">  1       -2 0.10582698E-01 0.18904282E+03</pdfrwt>
<totfact> 0.38063368E+03</totfact>
</mgrwt>
</event>
<event>
 7    1  0.6008063E-006  0.1442909E+03  0.7546771E-02  0.1217784E+00
         -2   -1    0    0    0  501 -0.00000000000E+00  0.00000000000E+00  0.21012977416E+02  0.21012977416E+02  0.00000000000E+00 0.  1.
          2   -1    0    0  501    0  0.00000000000E+00 -0.00000000000E+00 -0.99531631999E+03  0.99531631999E+03  0.00000000000E+00 0. -1.
         23    2    1    2    0    0  0.41880142071E+02  0.58656660526E+02 -0.74870966834E+03  0.76248673430E+03  0.12500120953E+03 0.  0.
          5    1    3    3  502    0 -0.26292510265E+01 -0.51228811173E+01  0.20375465615E+01  0.77070401512E+01  0.47000000000E+01 0. -1.
         -5    1    3    3    0  502  0.44509393097E+02  0.63779541643E+02 -0.75074721490E+03  0.75477969414E+03  0.47000000000E+01 0. -1.
        -11    1    1    2    0    0 -0.47167243917E+02 -0.44012939906E+02 -0.22899296521E+03  0.23790684289E+03  0.00000000000E+00 0. -1.
         11    1    1    2    0    0  0.52871018459E+01 -0.14643720620E+02  0.33992909860E+01  0.15935720214E+02  0.00000000000E+00 0.  1.
<mgrwt>
<rscale>  0 0.13674002E+03</rscale>
<asrwt>0</asrwt>
<pdfrwt beam="2">  1        2 0.15312559E+00 0.14429086E+03</pdfrwt>
<pdfrwt beam="1">  1       -2 0.32327656E-02 0.14429086E+03</pdfrwt>
<totfact> 0.96908618E+03</totfact>
</mgrwt>
</event>
<event>
 7    1  0.6008063E-006  0.1451043E+03  0.7546771E-02  0.1217008E+00
         -2   -1    0    0    0  501 -0.00000000000E+00  0.00000000000E+00  0.10358151222E+03  0.10358151222E+03  0.00000000000E+00 0.  1.
          2   -1    0    0  501    0  0.00000000000E+00 -0.00000000000E+00 -0.25288025205E+03  0.25288025205E+03  0.00000000000E+00 0. -1.
         23    2    1    2    0    0 -0.49082685898E+02 -0.54985723081E+02 -0.18469474304E+03  0.23487741517E+03  0.12499084866E+03 0.  0.
          5    1    3    3  502    0  0.26332068385E+02 -0.63606261649E+02 -0.84739688747E+02  0.10927963761E+03  0.47000000000E+01 0.  1.
         -5    1    3    3    0  502 -0.75414754283E+02  0.86205385681E+01 -0.99955054297E+02  0.12559777756E+03  0.47000000000E+01 0.  1.
        -11    1    1    2    0    0  0.54964689208E+02 -0.47743403294E+01  0.86389006566E+01  0.55843907366E+02  0.00000000000E+00 0.  1.
         11    1    1    2    0    0 -0.58820033098E+01  0.59760063410E+02  0.26757102561E+02  0.65740441732E+02  0.00000000000E+00 0. -1.
<mgrwt>
<rscale>  0 0.13730043E+03</rscale>
<asrwt>0</asrwt>
<pdfrwt beam="2">  1        2 0.38904654E-01 0.14510428E+03</pdfrwt>
<pdfrwt beam="1">  1       -2 0.15935617E-01 0.14510428E+03</pdfrwt>
<totfact> 0.39349805E+03</totfact>
</mgrwt>
</event>
<event>
 7    1  0.6008063E-006  0.1785954E+03  0.7546771E-02  0.1174916E+00
          1   -1    0    0  501    0  0.00000000000E+00  0.00000000000E+00  0.23767314910E+03  0.23767314910E+03  0.00000000000E+00 0. -1.
         -1   -1    0    0    0  501 -0.00000000000E+00 -0.00000000000E+00 -0.12391496494E+03  0.12391496494E+03  0.00000000000E+00 0.  1.
         23    2    1    2    0    0 -0.60807252817E+02  0.11215468848E+03  0.99060067752E+02  0.20422833719E+03  0.12498048066E+03 0.  0.
          5    1    3    3  502    0 -0.55225445676E+01  0.90481591637E+02  0.25399726267E+01  0.90807259537E+02  0.47000000000E+01 0. -1.
         -5    1    3    3    0  502 -0.55284708249E+02  0.21673096841E+02  0.96520095125E+02  0.11342107765E+03  0.47000000000E+01 0. -1.
        -11    1    1    2    0    0  0.52235902050E+01 -0.27310222592E+02 -0.34760733779E+02  0.44513399842E+02  0.00000000000E+00 0.  1.
         11    1    1    2    0    0  0.55583662612E+02 -0.84844465885E+02  0.49458850185E+02  0.11284637700E+03  0.00000000000E+00 0. -1.
<mgrwt>
<rscale>  0 0.17284246E+03</rscale>
<asrwt>0</asrwt>
<pdfrwt beam="1">  1        1 0.36565100E-01 0.17859540E+03</pdfrwt>
<pdfrwt beam="2">  1       -1 0.19063841E-01 0.17859540E+03</pdfrwt>
<totfact> 0.25232797E+03</totfact>
</mgrwt>
</event>
<event>
 7    1  0.6008063E-006  0.1281537E+03  0.7546771E-02  0.1245844E+00
         -2   -1    0    0    0  501 -0.00000000000E+00  0.00000000000E+00  0.28378340340E+02  0.28378340340E+02  0.00000000000E+00 0. -1.
          2   -1    0    0  501    0  0.00000000000E+00 -0.00000000000E+00 -0.56652964897E+03  0.56652964897E+03  0.00000000000E+00 0.  1.
         23    2    1    2    0    0  0.18661071182E+02  0.19744429415E+02 -0.44516694034E+03  0.46324611796E+03  0.12524089973E+03 0.  0.
          5    1    3    3  502    0  0.13228670176E+02 -0.53111762228E+02 -0.18822950556E+03  0.19608236475E+03  0.47000000000E+01 0.  1.
         -5    1    3    3    0  502  0.54324010057E+01  0.72856191642E+02 -0.25693743478E+03  0.26716375321E+03  0.47000000000E+01 0.  1.
        -11    1    1    2    0    0  0.10423171498E+02 -0.46972288266E+02 -0.28674483052E+02  0.56011287678E+02  0.00000000000E+00 0. -1.
         11    1    1    2    0    0 -0.29084242680E+02  0.27227858851E+02 -0.64309885232E+02  0.75650583663E+02  0.00000000000E+00 0.  1.
<mgrwt>
<rscale>  0 0.11834992E+03</rscale>
<asrwt>0</asrwt>
<pdfrwt beam="2">  1        2 0.87158397E-01 0.12815366E+03</pdfrwt>
<pdfrwt beam="1">  1       -2 0.43658990E-02 0.12815366E+03</pdfrwt>
<totfact> 0.12294110E+04</totfact>
</mgrwt>
</event>
<event>
 6    1  0.6008063E-006  0.1950873E+03  0.7546771E-02  0.1183459E+00
          1   -1    0    0  501    0  0.00000000000E+00  0.00000000000E+00  0.47545147759E+02  0.47545147759E+02  0.00000000000E+00 0. -1.
         -1   -1    0    0    0  501 -0.00000000000E+00 -0.00000000000E+00 -0.54188362060E+03  0.54188362060E+03  0.00000000000E+00 0.  1.
          5    1    1    2  502    0  0.19771703212E+02 -0.70780347797E+02 -0.20327943168E+02  0.76394326724E+02  0.47000000000E+01 0. -1.
         -5    1    1    2    0  502  0.14129903775E+02  0.92387227926E+02 -0.18210899476E+03  0.20474576928E+03  0.47000000000E+01 0.  1.
        -11    1    1    2    0    0 -0.50103600357E+02 -0.68601895838E+01 -0.27750117146E+03  0.28207150358E+03  0.00000000000E+00 0.  1.
         11    1    1    2    0    0  0.16201993369E+02 -0.14746690545E+02 -0.14400363456E+02  0.26217168780E+02  0.00000000000E+00 0. -1.
<mgrwt>
<rscale>  0 0.16472924E+03</rscale>
<asrwt>0</asrwt>
<pdfrwt beam="1">  1        1 0.73146385E-02 0.19508726E+03</pdfrwt>
<pdfrwt beam="2">  1       -1 0.83366707E-01 0.19508726E+03</pdfrwt>
<totfact> 0.14555432E+03</totfact>
</mgrwt>
</event>
<event>
 7    1  0.6008063E-006  0.1425743E+03  0.7546771E-02  0.1219699E+00
         -1   -1    0    0    0  501 -0.00000000000E+00  0.00000000000E+00  0.23341057126E+03  0.23341057126E+03  0.00000000000E+00 0.  1.
          1   -1    0    0  501    0  0.00000000000E+00 -0.00000000000E+00 -0.74006165565E+02  0.74006165565E+02  0.00000000000E+00 0. -1.
         23    2    1    2    0    0 -0.36999321327E+02  0.57738802678E+02  0.59746106228E+02  0.15458659665E+03  0.12499879816E+03 0.  0.
          5    1    3    3  502    0 -0.12944928924E+02 -0.30319928572E+02 -0.14987389326E+02  0.36518229589E+02  0.47000000000E+01 0.  1.
         -5    1    3    3    0  502 -0.24054392403E+02  0.88058731251E+02  0.74733495554E+02  0.11806836706E+03  0.47000000000E+01 0.  1.
        -11    1    1    2    0    0  0.64563217400E+02 -0.60089772594E+02  0.76389590225E+02  0.11668144371E+03  0.00000000000E+00 0.  1.
         11    1    1    2    0    0 -0.27563896073E+02  0.23509699155E+01  0.23268709243E+02  0.36148696464E+02  0.00000000000E+00 0. -1.
<mgrwt>
<rscale>  0 0.13536963E+03</rscale>
<asrwt>0</asrwt>
<pdfrwt beam="2">  1        1 0.11385564E-01 0.14257426E+03</pdfrwt>
<pdfrwt beam="1">  1       -1 0.35909318E-01 0.14257426E+03</pdfrwt>
<totfact> 0.38728536E+03</totfact>
</mgrwt>
</event>
<event>
 6    1  0.6008063E-006  0.4117609E+03  0.7546771E-02  0.1053779E+00
          2   -1    0    0  501    0  0.00000000000E+00  0.00000000000E+00  0.16594593353E+04  0.16594593353E+04  0.00000000000E+00 0. -1.
         -2   -1    0    0    0  501 -0.00000000000E+00 -0.00000000000E+00 -0.81228305424E+02  0.81228305424E+02  0.00000000000E+00 0.  1.
          5    1    1    2  502    0 -0.13029445353E+03 -0.38669808378E+02  0.42543851637E+03  0.44664529541E+03  0.47000000000E+01 0. -1.
         -5    1    1    2    0  502  0.16797923195E+03 -0.21838177819E+03  0.80190848907E+03  0.84793097494E+03  0.47000000000E+01 0.  1.
        -11    1    1    2    0    0  0.21960040552E+02  0.90763788838E+02  0.81380584898E+02  0.12386730135E+03  0.00000000000E+00 0.  1.
         11    1    1    2    0    0 -0.59644818970E+02  0.16628779773E+03  0.26950343956E+03  0.32224406905E+03  0.00000000000E+00 0. -1.
<mgrwt>
<rscale>  0 0.37240116E+03</rscale>
<asrwt>0</asrwt>
<pdfrwt beam="1">  1        2 0.25530141E+00 0.41176091E+03</pdfrwt>
<pdfrwt beam="2">  1       -2 0.12496664E-01 0.41176091E+03</pdfrwt>
<totfact> 0.51224782E+02</totfact>
</mgrwt>
</event>
<event>
 7    1  0.6008063E-006  0.2543467E+03  0.7546771E-02  0.1113053E+00
          1   -1    0    0  501    0  0.00000000000E+00  0.00000000000E+00  0.10188949843E+04  0.10188949843E+04  0.00000000000E+00 0. -1.
         -1   -1    0    0    0  501 -0.00000000000E+00 -0.00000000000E+00 -0.85043638843E+02  0.85043638843E+02  0.00000000000E+00 0.  1.
         23    2    1    2    0    0  0.17605473261E+03  0.13443464103E+03  0.77839876674E+03  0.81889980456E+03  0.12499723304E+03 0.  0.
          5    1    3    3  502    0  0.46997965835E+02  0.61223304997E+02  0.47361041692E+03  0.47988125498E+03  0.47000000000E+01 0. -1.
         -5    1    3    3    0  502  0.12905676678E+03  0.73211336033E+02  0.30478834982E+03  0.33901854958E+03  0.47000000000E+01 0. -1.
        -11    1    1    2    0    0 -0.17274329579E+02 -0.37211816083E+02  0.67823348846E+02  0.79266186785E+02  0.00000000000E+00 0. -1.
         11    1    1    2    0    0 -0.15878040303E+03 -0.97222824947E+02  0.87629229912E+02  0.20577263184E+03  0.00000000000E+00 0.  1.
<mgrwt>
<rscale>  0 0.25039845E+03</rscale>
<asrwt>0</asrwt>
<pdfrwt beam="1">  1        1 0.15675307E+00 0.25434671E+03</pdfrwt>
<pdfrwt beam="2">  1       -1 0.13083637E-01 0.25434671E+03</pdfrwt>
<totfact> 0.62146308E+02</totfact>
</mgrwt>
</event>
<event>
 7    1  0.6008063E-006  0.1327776E+03  0.7546771E-02  0.1236573E+00
         -3   -1    0    0    0  501 -0.00000000000E+00  0.00000000000E+00  0.31559010641E+02  0.31559010641E+02  0.00000000000E+00 0.  1.
          3   -1    0    0  501    0  0.00000000000E+00 -0.00000000000E+00 -0.43370312597E+03  0.43370312597E+03  0.00000000000E+00 0. -1.
         23    2    1    2    0    0 -0.44671719773E+02  0.31079945193E+01 -0.22258405471E+03  0.25917862228E+03  0.12499869862E+03 0.  0.
          5    1    3    3  502    0 -0.41460821063E+02  0.50897063756E+02 -0.18995488778E+03  0.20103348023E+03  0.47000000000E+01 0. -1.
         -5    1    3    3    0  502 -0.32108987090E+01 -0.47789069237E+02 -0.32629166931E+02  0.58145142046E+02  0.47000000000E+01 0. -1.
        -11    1    1    2    0    0  0.58117811839E+02  0.18312698215E+02 -0.16715227072E+03  0.17791266558E+03  0.00000000000E+00 0. -1.
         11    1    1    2    0    0 -0.13446092067E+02 -0.21420692734E+02 -0.12407789901E+02  0.28170848750E+02  0.00000000000E+00 0.  1.
<mgrwt>
<rscale>  0 0.12404255E+03</rscale>
<asrwt>0</asrwt>
<pdfrwt beam="2">  1        3 0.66723560E-01 0.13277762E+03</pdfrwt>
<pdfrwt beam="1">  1       -3 0.48552322E-02 0.13277762E+03</pdfrwt>
<totfact> 0.12092585E+03</totfact>
</mgrwt>
</event>
<event>
 7    1  0.6008063E-006  0.1359086E+03  0.7546771E-02  0.1230921E+00
         -1   -1    0    0    0  501 -0.00000000000E+00  0.00000000000E+00  0.80533900760E+02  0.80533900760E+02  0.00000000000E+00 0.  1.
          1   -1    0    0  501    0  0.00000000000E+00 -0.00000000000E+00 -0.20486396544E+03  0.20486396544E+03  0.00000000000E+00 0. -1.
         23    2    1    2    0    0 -0.20339392948E+02 -0.49329635303E+02 -0.11684087240E+03  0.17922871812E+03  0.12499616039E+03 0.  0.
          5    1    3    3  502    0 -0.18710863556E+02 -0.79240368397E+02 -0.12367717880E+03  0.14814610003E+03  0.47000000000E+01 0.  1.
         -5    1    3    3    0  502 -0.16285293923E+01  0.29910733095E+02  0.68363063983E+01  0.31082618092E+02  0.47000000000E+01 0.  1.
        -11    1    1    2    0    0  0.47809526895E+02  0.22735927081E+02  0.22553395930E+02  0.57544147488E+02  0.00000000000E+00 0.  1.
         11    1    1    2    0    0 -0.27470133947E+02  0.26593708222E+02 -0.30042588212E+02  0.48625000591E+02  0.00000000000E+00 0. -1.
<mgrwt>
<rscale>  0 0.12769208E+03</rscale>
<asrwt>0</asrwt>
<pdfrwt beam="2">  1        1 0.31517533E-01 0.13590859E+03</pdfrwt>
<pdfrwt beam="1">  1       -1 0.12389831E-01 0.13590859E+03</pdfrwt>
<totfact> 0.59057985E+03</totfact>
</mgrwt>
</event>
<event>
 7    1  0.6008063E-006  0.1542567E+03  0.7546771E-02  0.1203834E+00
         -2   -1    0    0    0  501 -0.00000000000E+00  0.00000000000E+00  0.35160424270E+02  0.35160424270E+02  0.00000000000E+00 0.  1.
          2   -1    0    0  501    0  0.00000000000E+00 -0.00000000000E+00 -0.61086555361E+03  0.61086555361E+03  0.00000000000E+00 0. -1.
         23    2    1    2    0    0 -0.18540329663E+02  0.88461165290E+02 -0.39823152582E+03  0.42706377727E+03  0.12500400039E+03 0.  0.
          5    1    3    3  502    0 -0.41377919343E+02 -0.10878900442E+02 -0.19452068555E+03  0.19922567553E+03  0.47000000000E+01 0.  1.
         -5    1    3    3    0  502  0.22837589680E+02  0.99340065732E+02 -0.20371084027E+03  0.22783810174E+03  0.47000000000E+01 0.  1.
        -11    1    1    2    0    0 -0.19923353203E+02 -0.38980637448E+02 -0.17491097423E+02  0.47142004495E+02  0.00000000000E+00 0.  1.
         11    1    1    2    0    0  0.38463682866E+02 -0.49480527842E+02 -0.15998250610E+03  0.17182019611E+03  0.00000000000E+00 0. -1.
<mgrwt>
<rscale>  0 0.14729760E+03</rscale>
<asrwt>0</asrwt>
<pdfrwt beam="2">  1        2 0.93979306E-01 0.15425667E+03</pdfrwt>
<pdfrwt beam="1">  1       -2 0.54092966E-02 0.15425667E+03</pdfrwt>
<totfact> 0.82831292E+03</totfact>
</mgrwt>
</event>
<event>
 7    1  0.6008063E-006  0.1292420E+03  0.7546771E-02  0.1241014E+00
          3   -1    0    0  501    0  0.00000000000E+00  0.00000000000E+00  0.10985089783E+03  0.10985089783E+03  0.00000000000E+00 0. -1.
         -3   -1    0    0    0  501 -0.00000000000E+00 -0.00000000000E+00 -0.12280593943E+03  0.12280593943E+03  0.00000000000E+00 0.  1.
         23    2    1    2    0    0 -0.16575760339E+02  0.28351492990E+02  0.10788538587E+02  0.12969154191E+03  0.12499976197E+03 0.  0.
          5    1    3    3  502    0  0.16284824553E+02 -0.45319243882E+02  0.58379898239E+01  0.48736039047E+02  0.47000000000E+01 0. -1.
         -5    1    3    3    0  502 -0.32860584892E+02  0.73670736873E+02  0.49505487631E+01  0.80955502863E+02  0.47000000000E+01 0. -1.
        -11    1    1    2    0    0  0.19158779592E+02  0.33234152554E+02 -0.12196811014E+02  0.40253321979E+02  0.00000000000E+00 0.  1.
         11    1    1    2    0    0 -0.25830192531E+01 -0.61585645544E+02 -0.11546769177E+02  0.62711973370E+02  0.00000000000E+00 0. -1.
<mgrwt>
<rscale>  0 0.12127164E+03</rscale>
<asrwt>0</asrwt>
<pdfrwt beam="1">  1        3 0.16900138E-01 0.12924203E+03</pdfrwt>
<pdfrwt beam="2">  1       -3 0.18893222E-01 0.12924203E+03</pdfrwt>
<totfact> 0.17052264E+03</totfact>
</mgrwt>
</event>
<event>
 7    1  0.6008063E-006  0.1618344E+03  0.7546771E-02  0.1194273E+00
          1   -1    0    0  501    0  0.00000000000E+00  0.00000000000E+00  0.15117479417E+04  0.15117479417E+04  0.00000000000E+00 0. -1.
         -1   -1    0    0    0  501 -0.00000000000E+00 -0.00000000000E+00 -0.22262024917E+02  0.22262024917E+02  0.00000000000E+00 0.  1.
         23    2    1    2    0    0 -0.20028794780E+01 -0.10269274853E+03  0.12309176985E+04  0.12415106742E+04  0.12506223063E+03 0.  0.
          5    1    3    3  502    0  0.52432838635E+02 -0.22113395367E+02  0.28986212251E+03  0.29543247095E+03  0.47000000000E+01 0. -1.
         -5    1    3    3    0  502 -0.54435718113E+02 -0.80579353168E+02  0.94105557602E+03  0.94607820328E+03  0.47000000000E+01 0. -1.
        -11    1    1    2    0    0 -0.32625570774E+02  0.54742026693E+02  0.19731295407E+03  0.20734878635E+03  0.00000000000E+00 0. -1.
         11    1    1    2    0    0  0.34628450252E+02  0.47950721841E+02  0.61255264223E+02  0.85150506088E+02  0.00000000000E+00 0.  1.
<mgrwt>
<rscale>  0 0.15515952E+03</rscale>
<asrwt>0</asrwt>
<pdfrwt beam="1">  1        1 0.23257653E+00 0.16183440E+03</pdfrwt>
<pdfrwt beam="2">  1       -1 0.34249281E-02 0.16183440E+03</pdfrwt>
<totfact> 0.21756002E+03</totfact>
</mgrwt>
</event>
<event>
 6    1  0.6008063E-006  0.1723695E+03  0.7546771E-02  0.1196953E+00
         -1   -1    0    0    0  501 -0.00000000000E+00  0.00000000000E+00  0.11444922430E+03  0.11444922430E+03  0.00000000000E+00 0.  1.
          1   -1    0    0  501    0  0.00000000000E+00 -0.00000000000E+00 -0.40775155919E+03  0.40775155919E+03  0.00000000000E+00 0. -1.
          5    1    1    2  502    0  0.28736927495E+02  0.10099957507E+03 -0.26920250979E+03  0.28899620489E+03  0.47000000000E+01 0. -1.
         -5    1    1    2    0  502  0.27628613308E+02 -0.55386855987E+02 -0.88842649961E+02  0.10837965926E+03  0.47000000000E+01 0.  1.
        -11    1    1    2    0    0 -0.23760564733E+02 -0.22658860702E+02 -0.14671841406E+02  0.35961803834E+02  0.00000000000E+00 0. -1.
         11    1    1    2    0    0 -0.32604976070E+02 -0.22953858382E+02  0.79414666262E+02  0.88863115501E+02  0.00000000000E+00 0.  1.
<mgrwt>
<rscale>  0 0.15290053E+03</rscale>
<asrwt>0</asrwt>
<pdfrwt beam="2">  1        1 0.62731009E-01 0.17236949E+03</pdfrwt>
<pdfrwt beam="1">  1       -1 0.17607573E-01 0.17236949E+03</pdfrwt>
<totfact> 0.14556908E+03</totfact>
</mgrwt>
</event>
<event>
 7    1  0.6008063E-006  0.1319592E+03  0.7546771E-02  0.1237876E+00
         -2   -1    0    0    0  501 -0.00000000000E+00  0.00000000000E+00  0.18206593559E+03  0.18206593559E+03  0.00000000000E+00 0.  1.
          2   -1    0    0  501    0  0.00000000000E+00 -0.00000000000E+00 -0.79515433479E+02  0.79515433479E+02  0.00000000000E+00 0. -1.
         23    2    1    2    0    0 -0.35599839124E+02 -0.22787284945E+02  0.23913754278E+02  0.13410857768E+03  0.12500653609E+03 0.  0.
          5    1    3    3  502    0  0.96404244976E+01 -0.41737428991E+02  0.59400972622E+02  0.73386077097E+02  0.47000000000E+01 0.  1.
         -5    1    3    3    0  502 -0.45240263621E+02  0.18950144046E+02 -0.35487218344E+02  0.60722500588E+02  0.47000000000E+01 0.  1.
        -11    1    1    2    0    0 -0.65004555801E+01  0.20330324105E+02  0.82412994998E+02  0.85132131099E+02  0.00000000000E+00 0.  1.
         11    1    1    2    0    0  0.42100294704E+02  0.24569608400E+01 -0.37762471654E+01  0.42340660285E+02  0.00000000000E+00 0. -1.
<mgrwt>
<rscale>  0 0.12322099E+03</rscale>
<asrwt>0</asrwt>
<pdfrwt beam="2">  1        2 0.12233144E-01 0.13195925E+03</pdfrwt>
<pdfrwt beam="1">  1       -2 0.28010144E-01 0.13195925E+03</pdfrwt>
<totfact> 0.54836383E+03</totfact>
</mgrwt>
</event>
<event>
 7    1  0.6008063E-006  0.1698886E+03  0.7546771E-02  0.1184159E+00
         -1   -1    0    0    0  501 -0.00000000000E+00  0.00000000000E+00  0.67059899219E+02  0.67059899219E+02  0.00000000000E+00 0.  1.
          1   -1    0    0  501    0  0.00000000000E+00 -0.00000000000E+00 -0.39740043122E+03  0.39740043122E+03  0.00000000000E+00 0. -1.
         23    2    1    2    0    0 -0.11189066749E+03 -0.26787410362E+02 -0.22935069031E+03  0.28541876735E+03  0.12500018712E+03 0.  0.
          5    1    3    3  502    0 -0.10317914845E+03 -0.60086505589E+02 -0.21847399437E+03  0.24901666821E+03  0.47000000000E+01 0.  1.
         -5    1    3    3    0  502 -0.87115190410E+01  0.33299095227E+02 -0.10876695942E+02  0.36402099137E+02  0.47000000000E+01 0.  1.
        -11    1    1    2    0    0  0.46380674196E+02  0.58781719557E+02 -0.53701568765E+02  0.92142910638E+02  0.00000000000E+00 0.  1.
         11    1    1    2    0    0  0.65509993297E+02 -0.31994309195E+02 -0.47288272920E+02  0.86898652454E+02  0.00000000000E+00 0. -1.
<mgrwt>
<rscale>  0 0.16408611E+03</rscale>
<asrwt>0</asrwt>
<pdfrwt beam="2">  1        1 0.61138529E-01 0.16988859E+03</pdfrwt>
<pdfrwt beam="1">  1       -1 0.10316907E-01 0.16988859E+03</pdfrwt>
<totfact> 0.34705351E+03</totfact>
</mgrwt>
</event>
<event>
 6    1  0.6008063E-006  0.2528250E+03  0.7546771E-02  0.1142904E+00
          2   -1    0    0  501    0  0.00000000000E+00  0.00000000000E+00  0.13571242925E+04  0.13571242925E+04  0.00000000000E+00 0. -1.
         -2   -1    0    0    0  501 -0.00000000000E+00 -0.00000000000E+00 -0.47378545325E+02  0.47378545325E+02  0.00000000000E+00 0.  1.
          5    1    1    2  502    0  0.27076549479E+02 -0.97218762815E+02  0.12244157962E+04  0.12285767210E+04  0.47000000000E+01 0. -1.
         -5    1    1    2    0  502 -0.28805947279E+02  0.23197222470E+02  0.22142794039E+02  0.43362276888E+02  0.47000000000E+01 0.  1.
        -11    1    1    2    0    0 -0.24804727690E+02  0.30192563181E+02  0.70701118499E+02  0.80780650803E+02  0.00000000000E+00 0. -1.
         11    1    1    2    0    0  0.26534125490E+02  0.43828977164E+02 -0.75139616035E+01  0.51783189104E+02  0.00000000000E+00 0.  1.
<mgrwt>
<rscale>  0 0.20831941E+03</rscale>
<asrwt>0</asrwt>
<pdfrwt beam="1">  1        2 0.20878832E+00 0.25282503E+03</pdfrwt>
<pdfrwt beam="2">  1       -2 0.72890080E-02 0.25282503E+03</pdfrwt>
<totfact> 0.17860800E+03</totfact>
</mgrwt>
</event>
<event>
 7    1  0.6008063E-006  0.1373549E+03  0.7546771E-02  0.1230761E+00
         -3   -1    0    0    0  501 -0.00000000000E+00  0.00000000000E+00  0.13773491625E+03  0.13773491625E+03  0.00000000000E+00 0.  1.
          3   -1    0    0  501    0  0.00000000000E+00 -0.00000000000E+00 -0.10552514196E+03  0.10552514196E+03  0.00000000000E+00 0. -1.
         23    2    1    2    0    0 -0.40353386125E+02  0.40152547871E+02  0.28375553828E+02  0.14025527354E+03  0.12500298728E+03 0.  0.
          5    1    3    3  502    0  0.27741967822E+02 -0.83575460109E+00  0.50328257330E+02  0.57665750236E+02  0.47000000000E+01 0. -1.
         -5    1    3    3    0  502 -0.68095353946E+02  0.40988302472E+02 -0.21952703502E+02  0.82589523305E+02  0.47000000000E+01 0. -1.
        -11    1    1    2    0    0  0.64482262121E+01 -0.16982167753E+02  0.42737138899E+02  0.46437449156E+02  0.00000000000E+00 0.  1.
         11    1    1    2    0    0  0.33905159913E+02 -0.23170380118E+02 -0.38902918443E+02  0.56567335512E+02  0.00000000000E+00 0. -1.
<mgrwt>
<rscale>  0 0.12779745E+03</rscale>
<asrwt>0</asrwt>
<pdfrwt beam="2">  1        3 0.16234637E-01 0.13735490E+03</pdfrwt>
<pdfrwt beam="1">  1       -3 0.21189987E-01 0.13735490E+03</pdfrwt>
<totfact> 0.15088639E+03</totfact>
</mgrwt>
</event>
<event>
 7    1  0.6008063E-006  0.1896693E+03  0.7546771E-02  0.1163817E+00
         -1   -1    0    0    0  501 -0.00000000000E+00  0.00000000000E+00  0.40911806237E+02  0.40911806237E+02  0.00000000000E+00 0.  1.
          1   -1    0    0  501    0  0.00000000000E+00 -0.00000000000E+00 -0.26283514181E+04  0.26283514181E+04  0.00000000000E+00 0. -1.
         23    2    1    2    0    0  0.58262053818E+02 -0.13021521483E+03 -0.24336239307E+04  0.24410038640E+04  0.12499583451E+03 0.  0.
          5    1    3    3  502    0  0.14939969186E+02 -0.12369967627E+03 -0.11726383255E+04  0.11792487205E+04  0.47000000000E+01 0. -1.
         -5    1    3    3    0  502  0.43322084632E+02 -0.65155385545E+01 -0.12609856053E+04  0.12617551435E+04  0.47000000000E+01 0. -1.
        -11    1    1    2    0    0 -0.21695869740E+02  0.12577753591E+03 -0.96004997315E+02  0.15971117310E+03  0.00000000000E+00 0.  1.
         11    1    1    2    0    0 -0.36566184078E+02  0.44376789114E+01 -0.57810683803E+02  0.68548187241E+02  0.00000000000E+00 0. -1.
<mgrwt>
<rscale>  0 0.18418098E+03</rscale>
<asrwt>0</asrwt>
<pdfrwt beam="2">  1        1 0.40436162E+00 0.18966926E+03</pdfrwt>
<pdfrwt beam="1">  1       -1 0.62941262E-02 0.18966926E+03</pdfrwt>
<totfact> 0.16586726E+02</totfact>
</mgrwt>
</event>
<event>
 7    1  0.6008063E-006  0.1680669E+03  0.7546771E-02  0.1186305E+00
          1   -1    0    0  501    0  0.00000000000E+00  0.00000000000E+00  0.73896994377E+03  0.73896994377E+03  0.00000000000E+00 0. -1.
         -1   -1    0    0    0  501 -0.00000000000E+00 -0.00000000000E+00 -0.33431812478E+02  0.33431812478E+02  0.00000000000E+00 0.  1.
         23    2    1    2    0    0 -0.56685585768E+02  0.96961948397E+02  0.35197844847E+03  0.39004526388E+03  0.12502641568E+03 0.  0.
          5    1    3    3  502    0 -0.51435846270E+02 -0.15923484286E+02  0.13348855425E+03  0.14401558162E+03  0.47000000000E+01 0. -1.
         -5    1    3    3    0  502 -0.52497394979E+01  0.11288543268E+03  0.21848989422E+03  0.24602968226E+03  0.47000000000E+01 0. -1.
        -11    1    1    2    0    0  0.48669255072E+02 -0.11482482666E+03  0.28581331963E+03  0.31183760338E+03  0.00000000000E+00 0.  1.
         11    1    1    2    0    0  0.80163306957E+01  0.17862878264E+02  0.67746363199E+02  0.70518888990E+02  0.00000000000E+00 0. -1.
<mgrwt>
<rscale>  0 0.16213740E+03</rscale>
<asrwt>0</asrwt>
<pdfrwt beam="1">  1        1 0.11368767E+00 0.16806689E+03</pdfrwt>
<pdfrwt beam="2">  1       -1 0.51433563E-02 0.16806689E+03</pdfrwt>
<totfact> 0.43048607E+03</totfact>
</mgrwt>
</event>
<event>
 7    1  0.6008063E-006  0.1176541E+03  0.7546771E-02  0.1268692E+00
          2   -1    0    0  501    0  0.00000000000E+00  0.00000000000E+00  0.44210198799E+03  0.44210198799E+03  0.00000000000E+00 0. -1.
         -2   -1    0    0    0  501 -0.00000000000E+00 -0.00000000000E+00 -0.25995610486E+02  0.25995610486E+02  0.00000000000E+00 0.  1.
         23    2    1    2    0    0  0.29240075685E+02 -0.18031601031E+02  0.34101567079E+03  0.36074116060E+03  0.11252722588E+03 0.  0.
          5    1    3    3  502    0  0.15500466549E+02 -0.32736115660E+02  0.33786830306E+03  0.33983672248E+03  0.47000000000E+01 0. -1.
         -5    1    3    3    0  502  0.13739609136E+02  0.14704514628E+02  0.31473677351E+01  0.20904438125E+02  0.47000000000E+01 0.  1.
        -11    1    1    2    0    0  0.15287655697E+02 -0.14851062673E+02  0.19021178901E+02  0.28566969143E+02  0.00000000000E+00 0. -1.
         11    1    1    2    0    0 -0.44527731382E+02  0.32882663705E+02  0.56069527814E+02  0.78789468736E+02  0.00000000000E+00 0.  1.
<mgrwt>
<rscale>  0 0.10572805E+03</rscale>
<asrwt>0</asrwt>
<pdfrwt beam="1">  1        2 0.68015685E-01 0.11765414E+03</pdfrwt>
<pdfrwt beam="2">  1       -2 0.39993250E-02 0.11765414E+03</pdfrwt>
<totfact> 0.18244703E+04</totfact>
</mgrwt>
</event>
<event>
 7    1  0.6008063E-006  0.1269041E+03  0.7546771E-02  0.1245907E+00
          1   -1    0    0  501    0  0.00000000000E+00  0.00000000000E+00  0.57604466913E+02  0.57604466913E+02  0.00000000000E+00 0. -1.
         -1   -1    0    0    0  501 -0.00000000000E+00 -0.00000000000E+00 -0.21723916893E+03  0.21723916893E+03  0.00000000000E+00 0.  1.
         23    2    1    2    0    0  0.13306084490E+02  0.17432220648E+02 -0.10339786778E+03  0.16369411035E+03  0.12499483390E+03 0.  0.
          5    1    3    3  502    0 -0.21116671305E+02  0.62762583829E+02 -0.74157732300E+02  0.99531477412E+02  0.47000000000E+01 0. -1.
         -5    1    3    3    0  502  0.34422755794E+02 -0.45330363181E+02 -0.29240135477E+02  0.64162632936E+02  0.47000000000E+01 0. -1.
        -11    1    1    2    0    0 -0.19697449216E+01 -0.27471863413E+02  0.19607137781E+02  0.33808623551E+02  0.00000000000E+00 0. -1.
         11    1    1    2    0    0 -0.11336339568E+02  0.10039642764E+02 -0.75843972025E+02  0.77340901949E+02  0.00000000000E+00 0.  1.
<mgrwt>
<rscale>  0 0.11831253E+03</rscale>
<asrwt>0</asrwt>
<pdfrwt beam="1">  1        1 0.88622258E-02 0.12690407E+03</pdfrwt>
<pdfrwt beam="2">  1       -1 0.33421410E-01 0.12690407E+03</pdfrwt>
<totfact> 0.60580610E+03</totfact>
</mgrwt>
</event>
<event>
 7    1  0.6008063E-006  0.1834068E+03  0.7546771E-02  0.1169945E+00
          2   -1    0    0  501    0  0.00000000000E+00  0.00000000000E+00  0.31124668987E+03  0.31124668987E+03  0.00000000000E+00 0. -1.
         -2   -1    0    0    0  501 -0.00000000000E+00 -0.00000000000E+00 -0.97280012136E+02  0.97280012136E+02  0.00000000000E+00 0.  1.
         23    2    1    2    0    0 -0.39806271899E+02 -0.12817596825E+03  0.13839636557E+03  0.22976424618E+03  0.12499774679E+03 0.  0.
          5    1    3    3  502    0 -0.53995692520E+02 -0.14837224414E+03  0.11456005015E+03  0.19513060429E+03  0.47000000000E+01 0. -1.
         -5    1    3    3    0  502  0.14189420622E+02  0.20196275893E+02  0.23836315422E+02  0.34633641888E+02  0.47000000000E+01 0. -1.
        -11    1    1    2    0    0  0.23729344204E+02  0.26261291084E+01 -0.10097752729E+02  0.25921862214E+02  0.00000000000E+00 0.  1.
         11    1    1    2    0    0  0.16076927695E+02  0.12554983914E+03  0.85668064896E+02  0.15284059361E+03  0.00000000000E+00 0. -1.
<mgrwt>
<rscale>  0 0.17780448E+03</rscale>
<asrwt>0</asrwt>
<pdfrwt beam="1">  1        2 0.47884106E-01 0.18340680E+03</pdfrwt>
<pdfrwt beam="2">  1       -2 0.14966156E-01 0.18340680E+03</pdfrwt>
<totfact> 0.35352403E+03</totfact>
</mgrwt>
</event>
<event>
 7    1  0.6008063E-006  0.1601441E+03  0.7546771E-02  0.1196501E+00
          1   -1    0    0  501    0  0.00000000000E+00  0.00000000000E+00  0.61514458130E+03  0.61514458130E+03  0.00000000000E+00 0. -1.
         -1   -1    0    0    0  501 -0.00000000000E+00 -0.00000000000E+00 -0.51106504324E+02  0.51106504324E+02  0.00000000000E+00 0.  1.
         23    2    1    2    0    0 -0.76258094658E+02  0.64857092006E+02  0.48404399501E+03  0.50984774948E+03  0.12499759662E+03 0.  0.
          5    1    3    3  502    0 -0.22245250592E+02  0.76774047066E+02  0.40750971179E+03  0.41530152983E+03  0.47000000000E+01 0. -1.
         -5    1    3    3    0  502 -0.54012844066E+02 -0.11916955060E+02  0.76534283218E+02  0.94546219647E+02  0.47000000000E+01 0. -1.
        -11    1    1    2    0    0 -0.65497067085E+00  0.18573908042E+02  0.22536906646E+02  0.29211833351E+02  0.00000000000E+00 0. -1.
         11    1    1    2    0    0  0.76913065329E+02 -0.83431000049E+02  0.57457175323E+02  0.12719150280E+03  0.00000000000E+00 0.  1.
<mgrwt>
<rscale>  0 0.15327871E+03</rscale>
<asrwt>0</asrwt>
<pdfrwt beam="1">  1        1 0.94637623E-01 0.16014412E+03</pdfrwt>
<pdfrwt beam="2">  1       -1 0.78625395E-02 0.16014412E+03</pdfrwt>
<totfact> 0.29506775E+03</totfact>
</mgrwt>
</event>
<event>
 7    1  0.6008063E-006  0.1279912E+03  0.7546771E-02  0.1237344E+00
         -2   -1    0    0    0  501 -0.00000000000E+00  0.00000000000E+00  0.18889626897E+02  0.18889626897E+02  0.00000000000E+00 0. -1.
          2   -1    0    0  501    0  0.00000000000E+00 -0.00000000000E+00 -0.75865198057E+03  0.75865198057E+03  0.00000000000E+00 0.  1.
         23    2    1    2    0    0  0.64129827929E+01 -0.26740769700E+02 -0.41465926564E+03  0.43396318452E+03  0.12500217529E+03 0.  0.
          5    1    3    3  502    0 -0.23270768550E+02 -0.18694063658E+02 -0.39708004710E+03  0.39822813875E+03  0.47000000000E+01 0.  1.
         -5    1    3    3    0  502  0.29683751343E+02 -0.80467060422E+01 -0.17579218535E+02  0.35735045771E+02  0.47000000000E+01 0.  1.
        -11    1    1    2    0    0  0.16841731622E+02 -0.36906274824E+02 -0.86510627560E+02  0.95550016882E+02  0.00000000000E+00 0. -1.
         11    1    1    2    0    0 -0.23254714415E+02  0.63647044524E+02 -0.23859246047E+03  0.24802840606E+03  0.00000000000E+00 0.  1.
<mgrwt>
<rscale>  0 0.12355532E+03</rscale>
<asrwt>0</asrwt>
<pdfrwt beam="2">  1        2 0.11671568E+00 0.12799117E+03</pdfrwt>
<pdfrwt beam="1">  1       -2 0.29060968E-02 0.12799117E+03</pdfrwt>
<totfact> 0.15964562E+04</totfact>
</mgrwt>
</event>
<event>
 7    1  0.6008063E-006  0.1323085E+03  0.7546771E-02  0.1238673E+00
          3   -1    0    0  501    0  0.00000000000E+00  0.00000000000E+00  0.17870906016E+04  0.17870906016E+04  0.00000000000E+00 0. -1.
         -3   -1    0    0    0  501 -0.00000000000E+00 -0.00000000000E+00 -0.18323615255E+02  0.18323615255E+02  0.00000000000E+00 0.  1.
         23    2    1    2    0    0  0.42106579347E+02  0.10246503286E+02  0.16311563864E+04  0.16365135835E+04  0.12501038775E+03 0.  0.
          5    1    3    3  502    0 -0.36662853513E+02 -0.24511050889E+02  0.43566074937E+03  0.43791247412E+03  0.47000000000E+01 0.  1.
         -5    1    3    3    0  502  0.78769432860E+02  0.34757554175E+02  0.11954956370E+04  0.11986011093E+04  0.47000000000E+01 0.  1.
        -11    1    1    2    0    0  0.10189966071E+02 -0.31834598875E+02  0.21511034194E+02  0.39749235038E+02  0.00000000000E+00 0.  1.
         11    1    1    2    0    0 -0.52296545418E+02  0.21588095589E+02  0.11609956572E+03  0.12915139835E+03  0.00000000000E+00 0. -1.
<mgrwt>
<rscale>  0 0.12272202E+03</rscale>
<asrwt>0</asrwt>
<pdfrwt beam="1">  1        3 0.27493688E+00 0.13230855E+03</pdfrwt>
<pdfrwt beam="2">  1       -3 0.28190191E-02 0.13230855E+03</pdfrwt>
<totfact> 0.81669095E+01</totfact>
</mgrwt>
</event>
<event>
 7    1  0.6008063E-006  0.1782575E+03  0.7546771E-02  0.1174912E+00
          1   -1    0    0  501    0  0.00000000000E+00  0.00000000000E+00  0.61468018225E+03  0.61468018225E+03  0.00000000000E+00 0. -1.
         -1   -1    0    0    0  501 -0.00000000000E+00 -0.00000000000E+00 -0.49422404767E+02  0.49422404767E+02  0.00000000000E+00 0.  1.
         23    2    1    2    0    0  0.11840285887E+03  0.46176353642E+02  0.38763780334E+03  0.42666004889E+03  0.12499695243E+03 0.  0.
          5    1    3    3  502    0  0.14398001770E+03  0.42533899633E+02  0.30553435660E+03  0.34045955880E+03  0.47000000000E+01 0. -1.
         -5    1    3    3    0  502 -0.25577158833E+02  0.36424540095E+01  0.82103446744E+02  0.86200490094E+02  0.47000000000E+01 0. -1.
        -11    1    1    2    0    0 -0.99813464295E+02 -0.58317516656E+02  0.88471698490E+02  0.14557095121E+03  0.00000000000E+00 0.  1.
         11    1    1    2    0    0 -0.18589394574E+02  0.12141163014E+02  0.89148275649E+02  0.91871586909E+02  0.00000000000E+00 0. -1.
<mgrwt>
<rscale>  0 0.17284553E+03</rscale>
<asrwt>0</asrwt>
<pdfrwt beam="1">  1        1 0.94566176E-01 0.17825748E+03</pdfrwt>
<pdfrwt beam="2">  1       -1 0.76034473E-02 0.17825748E+03</pdfrwt>
<totfact> 0.31180616E+03</totfact>
</mgrwt>
</event>
<event>
 7    1  0.6008063E-006  0.1338459E+03  0.7546771E-02  0.1235058E+00
         -1   -1    0    0    0  501 -0.00000000000E+00  0.00000000000E+00  0.95217136270E+02  0.95217136270E+02  0.00000000000E+00 0.  1.
          1   -1    0    0  501    0  0.00000000000E+00 -0.00000000000E+00 -0.16444005057E+03  0.16444005057E+03  0.00000000000E+00 0. -1.
         23    2    1    2    0    0 -0.41095981298E+02  0.24516326727E+02 -0.82077447527E+02  0.15700775540E+03  0.12499919163E+03 0.  0.
          5    1    3    3  502    0 -0.36769528783E+01  0.37622020673E+02  0.23071200251E+02  0.44534331734E+02  0.47000000000E+01 0. -1.
         -5    1    3    3    0  502 -0.37419028420E+02 -0.13105693946E+02 -0.10514864778E+03  0.11247342367E+03  0.47000000000E+01 0. -1.
        -11    1    1    2    0    0  0.35670061824E+02 -0.36390832477E+02 -0.29120372853E+02  0.58691073547E+02  0.00000000000E+00 0. -1.
         11    1    1    2    0    0  0.54259194738E+01  0.11874505750E+02  0.41974906076E+02  0.43958357897E+02  0.00000000000E+00 0.  1.
<mgrwt>
<rscale>  0 0.12500716E+03</rscale>
<asrwt>0</asrwt>
<pdfrwt beam="2">  1        1 0.25298469E-01 0.13384591E+03</pdfrwt>
<pdfrwt beam="1">  1       -1 0.14648790E-01 0.13384591E+03</pdfrwt>
<totfact> 0.59816287E+03</totfact>
</mgrwt>
</event>
<event>
 7    1  0.6008063E-006  0.2376887E+03  0.7546771E-02  0.1124328E+00
          1   -1    0    0  501    0  0.00000000000E+00  0.00000000000E+00  0.33857503745E+03  0.33857503745E+03  0.00000000000E+00 0. -1.
         -1   -1    0    0    0  501 -0.00000000000E+00 -0.00000000000E+00 -0.15586814052E+03  0.15586814052E+03  0.00000000000E+00 0.  1.
         23    2    1    2    0    0  0.77796650028E+02 -0.18659709911E+03  0.77730677317E+02  0.25007595827E+03  0.12500052222E+03 0.  0.
          5    1    3    3  502    0  0.13271542667E+02 -0.32294579248E+01 -0.25961583249E+02  0.29709544730E+02  0.47000000000E+01 0.  1.
         -5    1    3    3    0  502  0.64525107362E+02 -0.18336764118E+03  0.10369226057E+03  0.22036641354E+03  0.47000000000E+01 0.  1.
        -11    1    1    2    0    0 -0.76154879068E+02  0.14691984103E+03  0.43373021170E+02  0.17107373924E+03  0.00000000000E+00 0.  1.
         11    1    1    2    0    0 -0.16417709605E+01  0.39677258080E+02  0.61603198435E+02  0.73293480461E+02  0.00000000000E+00 0. -1.
<mgrwt>
<rscale>  0 0.23331483E+03</rscale>
<asrwt>0</asrwt>
<pdfrwt beam="1">  1        1 0.52088467E-01 0.23768872E+03</pdfrwt>
<pdfrwt beam="2">  1       -1 0.23979714E-01 0.23768872E+03</pdfrwt>
<totfact> 0.11207047E+03</totfact>
</mgrwt>
</event>
<event>
 7    1  0.6008063E-006  0.1336117E+03  0.7546771E-02  0.1235187E+00
          2   -1    0    0  501    0  0.00000000000E+00  0.00000000000E+00  0.46983675813E+03  0.46983675813E+03  0.00000000000E+00 0.  1.
         -2   -1    0    0    0  501 -0.00000000000E+00 -0.00000000000E+00 -0.31768152383E+02  0.31768152383E+02  0.00000000000E+00 0. -1.
         23    2    1    2    0    0 -0.46869988529E+02  0.53698575939E+01  0.31176549832E+03  0.33918991927E+03  0.12500577666E+03 0.  0.
          5    1    3    3  502    0 -0.77395039855E+02 -0.25167566438E+02  0.13987019201E+03  0.16189243098E+03  0.47000000000E+01 0.  1.
         -5    1    3    3    0  502  0.30525051326E+02  0.30537424032E+02  0.17189530631E+03  0.17729748830E+03  0.47000000000E+01 0.  1.
        -11    1    1    2    0    0 -0.21877656035E+02  0.34143097005E+01  0.69067266370E+02  0.72529832677E+02  0.00000000000E+00 0.  1.
         11    1    1    2    0    0  0.68747644564E+02 -0.87841672945E+01  0.57235841055E+02  0.89885158560E+02  0.00000000000E+00 0. -1.
<mgrwt>
<rscale>  0 0.12492484E+03</rscale>
<asrwt>0</asrwt>
<pdfrwt beam="1">  1        2 0.72282573E-01 0.13361166E+03</pdfrwt>
<pdfrwt beam="2">  1       -2 0.48874084E-02 0.13361166E+03</pdfrwt>
<totfact> 0.12807505E+04</totfact>
</mgrwt>
</event>
<event>
 7    1  0.6008063E-006  0.1276689E+03  0.7546771E-02  0.1245640E+00
          1   -1    0    0  501    0  0.00000000000E+00  0.00000000000E+00  0.55062789852E+03  0.55062789852E+03  0.00000000000E+00 0. -1.
         -1   -1    0    0    0  501 -0.00000000000E+00 -0.00000000000E+00 -0.25061296174E+02  0.25061296174E+02  0.00000000000E+00 0.  1.
         23    2    1    2    0    0  0.22040049781E+02  0.13794083433E+02  0.38980757519E+03  0.41018201406E+03  0.12499319361E+03 0.  0.
          5    1    3    3  502    0 -0.25227928905E+02  0.14359152525E+02  0.16213388192E+02  0.33579720290E+02  0.47000000000E+01 0. -1.
         -5    1    3    3    0  502  0.47267978687E+02 -0.56506909119E+00  0.37359418700E+03  0.37660229377E+03  0.47000000000E+01 0. -1.
        -11    1    1    2    0    0 -0.22037357618E+00 -0.25927772350E+02 -0.15229878691E+01  0.25973398614E+02  0.00000000000E+00 0.  1.
         11    1    1    2    0    0 -0.21819676205E+02  0.12133688916E+02  0.13728201502E+03  0.13953378202E+03  0.00000000000E+00 0. -1.
<mgrwt>
<rscale>  0 0.11847182E+03</rscale>
<asrwt>0</asrwt>
<pdfrwt beam="1">  1        1 0.84711975E-01 0.12766886E+03</pdfrwt>
<pdfrwt beam="2">  1       -1 0.38555845E-02 0.12766886E+03</pdfrwt>
<totfact> 0.97794122E+03</totfact>
</mgrwt>
</event>
<event>
 7    1  0.6008063E-006  0.1254852E+03  0.7546771E-02  0.1250637E+00
          4   -1    0    0  501    0  0.00000000000E+00  0.00000000000E+00  0.67603815781E+03  0.67603815781E+03  0.00000000000E+00 0. -1.
         -4   -1    0    0    0  501 -0.00000000000E+00 -0.00000000000E+00 -0.17228311495E+02  0.17228311495E+02  0.00000000000E+00 0.  1.
         23    2    1    2    0    0  0.87356485026E+01 -0.65981387160E+01  0.39639771017E+03  0.41578562517E+03  0.12500677776E+03 0.  0.
          5    1    3    3  502    0  0.65152394116E+02  0.74664554818E+01  0.17880852637E+03  0.19051289069E+03  0.47000000000E+01 0. -1.
         -5    1    3    3    0  502 -0.56416745613E+02 -0.14064594198E+02  0.21758918379E+03  0.22527273448E+03  0.47000000000E+01 0. -1.
        -11    1    1    2    0    0  0.32816170450E+02 -0.41679695500E+01  0.44877639889E+02  0.55751910955E+02  0.00000000000E+00 0.  1.
         11    1    1    2    0    0 -0.41551818952E+02  0.10766108266E+02  0.21753449626E+03  0.22172893318E+03  0.00000000000E+00 0. -1.
<mgrwt>
<rscale>  0 0.11554267E+03</rscale>
<asrwt>0</asrwt>
<pdfrwt beam="1">  1        4 0.10400585E+00 0.12548522E+03</pdfrwt>
<pdfrwt beam="2">  1       -4 0.26505100E-02 0.12548522E+03</pdfrwt>
<totfact> 0.83395772E+02</totfact>
</mgrwt>
</event>
<event>
 7    1  0.6008063E-006  0.1547505E+03  0.7546771E-02  0.1204182E+00
          2   -1    0    0  501    0  0.00000000000E+00  0.00000000000E+00  0.14954437690E+04  0.14954437690E+04  0.00000000000E+00 0.  1.
         -2   -1    0    0    0  501 -0.00000000000E+00 -0.00000000000E+00 -0.16125041126E+02  0.16125041126E+02  0.00000000000E+00 0. -1.
         23    2    1    2    0    0  0.76740735524E+02  0.49344744818E+02  0.11228257624E+04  0.11334396372E+04  0.12499469676E+03 0.  0.
          5    1    3    3  502    0  0.10318354126E+03  0.12496110200E+02  0.63272089057E+03  0.64121822441E+03  0.47000000000E+01 0. -1.
         -5    1    3    3    0  502 -0.26442805735E+02  0.36848634617E+02  0.49010487183E+03  0.49222141283E+03  0.47000000000E+01 0. -1.
        -11    1    1    2    0    0 -0.91171354697E+02 -0.20761301533E+02  0.28017447620E+03  0.29536584886E+03  0.00000000000E+00 0.  1.
         11    1    1    2    0    0  0.14430619173E+02 -0.28583443285E+02  0.76318489291E+02  0.82763324048E+02  0.00000000000E+00 0. -1.
<mgrwt>
<rscale>  0 0.14702111E+03</rscale>
<asrwt>0</asrwt>
<pdfrwt beam="1">  1        2 0.23006816E+00 0.15475050E+03</pdfrwt>
<pdfrwt beam="2">  1       -2 0.24807767E-02 0.15475050E+03</pdfrwt>
<totfact> 0.75872198E+03</totfact>
</mgrwt>
</event>
<event>
 7    1  0.6008063E-006  0.2334000E+03  0.7546771E-02  0.1127316E+00
         -2   -1    0    0    0  501 -0.00000000000E+00  0.00000000000E+00  0.88125984367E+02  0.88125984367E+02  0.00000000000E+00 0.  1.
          2   -1    0    0  501    0  0.00000000000E+00 -0.00000000000E+00 -0.57423847148E+03  0.57423847148E+03  0.00000000000E+00 0. -1.
         23    2    1    2    0    0 -0.14587975473E+03  0.13255214991E+03 -0.25763694801E+03  0.34763824021E+03  0.12499829516E+03 0.  0.
          5    1    3    3  502    0 -0.12207519720E+02 -0.20448152227E+02 -0.57489603109E+02  0.62404286174E+02  0.47000000000E+01 0.  1.
         -5    1    3    3    0  502 -0.13367223501E+03  0.15300030213E+03 -0.20014734490E+03  0.28523395404E+03  0.47000000000E+01 0.  1.
        -11    1    1    2    0    0  0.57087132432E+02 -0.81550848040E+02 -0.16947126784E+03  0.19654514018E+03  0.00000000000E+00 0. -1.
         11    1    1    2    0    0  0.88792622301E+02 -0.51001301868E+02 -0.59004271259E+02  0.11818107545E+03  0.00000000000E+00 0.  1.
<mgrwt>
<rscale>  0 0.22904249E+03</rscale>
<asrwt>0</asrwt>
<pdfrwt beam="2">  1        2 0.88344378E-01 0.23339998E+03</pdfrwt>
<pdfrwt beam="1">  1       -2 0.13557844E-01 0.23339998E+03</pdfrwt>
<totfact> 0.21398973E+03</totfact>
</mgrwt>
</event>
<event>
 7    1  0.6008063E-006  0.1347581E+03  0.7546771E-02  0.1231208E+00
          1   -1    0    0  501    0  0.00000000000E+00  0.00000000000E+00  0.86351195926E+02  0.86351195926E+02  0.00000000000E+00 0. -1.
         -1   -1    0    0    0  501 -0.00000000000E+00 -0.00000000000E+00 -0.20132926415E+03  0.20132926415E+03  0.00000000000E+00 0.  1.
         23    2    1    2    0    0 -0.50355812177E+02 -0.80360446052E+00 -0.69684549946E+01  0.13493811654E+03  0.12499352916E+03 0.  0.
          5    1    3    3  502    0 -0.14460530206E+02  0.58680475243E+02 -0.20520354948E+02  0.63997500543E+02  0.47000000000E+01 0. -1.
         -5    1    3    3    0  502 -0.35895281970E+02 -0.59484079704E+02  0.13551899953E+02  0.70940615999E+02  0.47000000000E+01 0. -1.
        -11    1    1    2    0    0  0.52176845573E+02 -0.28887019281E+02 -0.25187233906E+02  0.64740094599E+02  0.00000000000E+00 0. -1.
         11    1    1    2    0    0 -0.18210333962E+01  0.29690623742E+02 -0.82822379328E+02  0.88002248939E+02  0.00000000000E+00 0.  1.
<mgrwt>
<rscale>  0 0.12750367E+03</rscale>
<asrwt>0</asrwt>
<pdfrwt beam="1">  1        1 0.13284799E-01 0.13475806E+03</pdfrwt>
<pdfrwt beam="2">  1       -1 0.30973733E-01 0.13475806E+03</pdfrwt>
<totfact> 0.40577295E+03</totfact>
</mgrwt>
</event>
<event>
 7    1  0.6008063E-006  0.1453874E+03  0.7546771E-02  0.1215631E+00
          3   -1    0    0  501    0  0.00000000000E+00  0.00000000000E+00  0.71135229132E+02  0.71135229132E+02  0.00000000000E+00 0. -1.
         -3   -1    0    0    0  501 -0.00000000000E+00 -0.00000000000E+00 -0.28436462378E+03  0.28436462378E+03  0.00000000000E+00 0.  1.
         23    2    1    2    0    0 -0.51569770945E+02 -0.53419642044E+02 -0.50581444917E+02  0.15393496539E+03  0.12499756625E+03 0.  0.
          5    1    3    3  502    0  0.12462277131E+02 -0.30679340161E+02 -0.74565675269E+02  0.81723070135E+02  0.47000000000E+01 0.  1.
         -5    1    3    3    0  502 -0.64032048076E+02 -0.22740301882E+02  0.23984230352E+02  0.72211895253E+02  0.47000000000E+01 0.  1.
        -11    1    1    2    0    0  0.29074889297E+02 -0.21745975511E+02 -0.78635478587E+02  0.86612788497E+02  0.00000000000E+00 0.  1.
         11    1    1    2    0    0  0.22494881648E+02  0.75165617555E+02 -0.84012471140E+02  0.11495209902E+03  0.00000000000E+00 0. -1.
<mgrwt>
<rscale>  0 0.13830306E+03</rscale>
<asrwt>0</asrwt>
<pdfrwt beam="1">  1        3 0.10943881E-01 0.14538738E+03</pdfrwt>
<pdfrwt beam="2">  1       -3 0.43748404E-01 0.14538738E+03</pdfrwt>
<totfact> 0.77222465E+02</totfact>
</mgrwt>
</event>
<event>
 7    1  0.6008063E-006  0.2844148E+03  0.7546771E-02  0.1095059E+00
         -2   -1    0    0    0  501 -0.00000000000E+00  0.00000000000E+00  0.27955355503E+03  0.27955355503E+03  0.00000000000E+00 0.  1.
          2   -1    0    0  501    0  0.00000000000E+00 -0.00000000000E+00 -0.30913327565E+03  0.30913327565E+03  0.00000000000E+00 0. -1.
         23    2    1    2    0    0 -0.23161468064E+03 -0.10779703964E+03 -0.11074415818E+03  0.30521477912E+03  0.12500492301E+03 0.  0.
          5    1    3    3  502    0 -0.22360998439E+03 -0.54422535351E+02 -0.87302365839E+02  0.24618495192E+03  0.47000000000E+01 0. -1.
         -5    1    3    3    0  502 -0.80046962500E+01 -0.53374504288E+02 -0.23441792345E+02  0.59029827193E+02  0.47000000000E+01 0. -1.
        -11    1    1    2    0    0  0.48800589853E+02 -0.15226312343E+02  0.18731357051E+02  0.54444484519E+02  0.00000000000E+00 0.  1.
         11    1    1    2    0    0  0.18281409079E+03  0.12302335198E+03  0.62433080515E+02  0.22902756704E+03  0.00000000000E+00 0. -1.
<mgrwt>
<rscale>  0 0.28115656E+03</rscale>
<asrwt>0</asrwt>
<pdfrwt beam="2">  1        2 0.47558965E-01 0.28441483E+03</pdfrwt>
<pdfrwt beam="1">  1       -2 0.43008240E-01 0.28441483E+03</pdfrwt>
<totfact> 0.54998518E+02</totfact>
</mgrwt>
</event>
<event>
 7    1  0.6008063E-006  0.1263967E+03  0.7546771E-02  0.1248415E+00
         -1   -1    0    0    0  501 -0.00000000000E+00  0.00000000000E+00  0.32899477425E+03  0.32899477425E+03  0.00000000000E+00 0.  1.
          1   -1    0    0  501    0  0.00000000000E+00 -0.00000000000E+00 -0.36547609347E+02  0.36547609347E+02  0.00000000000E+00 0. -1.
         23    2    1    2    0    0 -0.11988038886E+02  0.14506008364E+02  0.18271418849E+03  0.22217243828E+03  0.12498792062E+03 0.  0.
          5    1    3    3  502    0  0.40504830318E+01  0.60995338845E+02  0.15225337814E+03  0.16413414918E+03  0.47000000000E+01 0. -1.
         -5    1    3    3    0  502 -0.16038521918E+02 -0.46489330480E+02  0.30460810353E+02  0.58038289096E+02  0.47000000000E+01 0. -1.
        -11    1    1    2    0    0  0.11715024801E+02 -0.41657977551E+02  0.10778423876E+03  0.11614676502E+03  0.00000000000E+00 0.  1.
         11    1    1    2    0    0  0.27301408455E+00  0.27151969187E+02  0.19487376585E+01  0.27223180304E+02  0.00000000000E+00 0. -1.
<mgrwt>
<rscale>  0 0.11683312E+03</rscale>
<asrwt>0</asrwt>
<pdfrwt beam="2">  1        1 0.56227094E-02 0.12639667E+03</pdfrwt>
<pdfrwt beam="1">  1       -1 0.50614579E-01 0.12639667E+03</pdfrwt>
<totfact> 0.53812662E+03</totfact>
</mgrwt>
</event>
<event>
 7    1  0.6008063E-006  0.1333874E+03  0.7546771E-02  0.1236569E+00
          2   -1    0    0  501    0  0.00000000000E+00  0.00000000000E+00  0.11133888206E+04  0.11133888206E+04  0.00000000000E+00 0. -1.
         -2   -1    0    0    0  501 -0.00000000000E+00 -0.00000000000E+00 -0.13499979859E+02  0.13499979859E+02  0.00000000000E+00 0.  1.
         23    2    1    2    0    0 -0.38416296426E+02 -0.92873520175E+01  0.79444368414E+03  0.80556375576E+03  0.12739752972E+03 0.  0.
          5    1    3    3  502    0 -0.13041023685E+02 -0.19172472716E+02  0.76431244328E+03  0.76467852916E+03  0.47000000000E+01 0. -1.
         -5    1    3    3    0  502 -0.25375272741E+02  0.98851206989E+01  0.30131240863E+02  0.40885226596E+02  0.47000000000E+01 0.  1.
        -11    1    1    2    0    0  0.64106817516E+02 -0.12568633060E+02  0.21887313000E+03  0.22841432010E+03  0.00000000000E+00 0. -1.
         11    1    1    2    0    0 -0.25690521090E+02  0.21855985077E+02  0.86572026624E+02  0.92910724630E+02  0.00000000000E+00 0.  1.
<mgrwt>
<rscale>  0 0.12404537E+03</rscale>
<asrwt>0</asrwt>
<pdfrwt beam="1">  1        2 0.17129052E+00 0.13338740E+03</pdfrwt>
<pdfrwt beam="2">  1       -2 0.20769209E-02 0.13338740E+03</pdfrwt>
<totfact> 0.15728924E+04</totfact>
</mgrwt>
</event>
<event>
 7    1  0.6008063E-006  0.1692643E+03  0.7546771E-02  0.1183198E+00
         -2   -1    0    0    0  501 -0.00000000000E+00  0.00000000000E+00  0.39304783153E+02  0.39304783153E+02  0.00000000000E+00 0.  1.
          2   -1    0    0  501    0  0.00000000000E+00 -0.00000000000E+00 -0.66689821255E+03  0.66689821255E+03  0.00000000000E+00 0. -1.
         23    2    1    2    0    0 -0.16043803670E+02 -0.12135388137E+03 -0.29246352836E+03  0.33791316037E+03  0.11690261062E+03 0.  0.
          5    1    3    3  502    0  0.35682613420E+02 -0.10860579630E+03 -0.17843856192E+03  0.21196905027E+03  0.47000000000E+01 0. -1.
         -5    1    3    3    0  502 -0.51726417091E+02 -0.12748085070E+02 -0.11402496644E+03  0.12594411010E+03  0.47000000000E+01 0.  1.
        -11    1    1    2    0    0 -0.23764351244E+02  0.72666519649E+02 -0.25622556419E+03  0.26738868191E+03  0.00000000000E+00 0. -1.
         11    1    1    2    0    0  0.39808154915E+02  0.48687361722E+02 -0.78904336847E+02  0.10090115342E+03  0.00000000000E+00 0.  1.
<mgrwt>
<rscale>  0 0.16496905E+03</rscale>
<asrwt>0</asrwt>
<pdfrwt beam="2">  1        2 0.10259971E+00 0.16926426E+03</pdfrwt>
<pdfrwt beam="1">  1       -2 0.60468906E-02 0.16926426E+03</pdfrwt>
<totfact> 0.63454533E+03</totfact>
</mgrwt>
</event>
<event>
 7    1  0.6008063E-006  0.1839147E+03  0.7546771E-02  0.1171921E+00
          2   -1    0    0  501    0  0.00000000000E+00  0.00000000000E+00  0.52439167388E+03  0.52439167388E+03  0.00000000000E+00 0.  1.
         -2   -1    0    0    0  501 -0.00000000000E+00 -0.00000000000E+00 -0.56004908042E+02  0.56004908042E+02  0.00000000000E+00 0. -1.
         23    2    1    2    0    0 -0.87096634862E+02  0.10301464380E+03  0.20418964966E+03  0.27480543271E+03  0.12500708851E+03 0.  0.
          5    1    3    3  502    0 -0.11317455039E+03  0.10741656625E+03  0.16355788427E+03  0.22609747692E+03  0.47000000000E+01 0.  1.
         -5    1    3    3    0  502  0.26077915528E+02 -0.44019224404E+01  0.40631765385E+02  0.48707955795E+02  0.47000000000E+01 0.  1.
        -11    1    1    2    0    0  0.20173775431E+02 -0.58637297001E+02  0.17455678050E+03  0.18524411848E+03  0.00000000000E+00 0.  1.
         11    1    1    2    0    0  0.66922859430E+02 -0.44377346804E+02  0.89640335679E+02  0.12034703072E+03  0.00000000000E+00 0. -1.
<mgrwt>
<rscale>  0 0.17581006E+03</rscale>
<asrwt>0</asrwt>
<pdfrwt beam="1">  1        2 0.80675639E-01 0.18391469E+03</pdfrwt>
<pdfrwt beam="2">  1       -2 0.86161401E-02 0.18391469E+03</pdfrwt>
<totfact> 0.48582379E+03</totfact>
</mgrwt>
</event>
<event>
 7    1  0.6008063E-006  0.2794454E+03  0.7546771E-02  0.1098009E+00
          2   -1    0    0  501    0  0.00000000000E+00  0.00000000000E+00  0.16428433576E+04  0.16428433576E+04  0.00000000000E+00 0. -1.
         -2   -1    0    0    0  501 -0.00000000000E+00 -0.00000000000E+00 -0.45628671339E+02  0.45628671339E+02  0.00000000000E+00 0.  1.
         23    2    1    2    0    0  0.88192761852E+02 -0.23385155830E+03  0.90775710180E+03  0.94979613943E+03  0.12500094422E+03 0.  0.
          5    1    3    3  502    0  0.72360348380E+02 -0.18742137577E+03  0.85201492107E+03  0.87539380158E+03  0.47000000000E+01 0. -1.
         -5    1    3    3    0  502  0.15832413472E+02 -0.46430182528E+02  0.55742180721E+02  0.74402337849E+02  0.47000000000E+01 0. -1.
        -11    1    1    2    0    0 -0.10014024837E+03  0.15245463782E+03  0.49466916396E+03  0.52722677067E+03  0.00000000000E+00 0.  1.
         11    1    1    2    0    0  0.11947486515E+02  0.81396920477E+02  0.19478842053E+03  0.21144911886E+03  0.00000000000E+00 0. -1.
<mgrwt>
<rscale>  0 0.27579392E+03</rscale>
<asrwt>0</asrwt>
<pdfrwt beam="1">  1        2 0.25274509E+00 0.27944543E+03</pdfrwt>
<pdfrwt beam="2">  1       -2 0.70197969E-02 0.27944543E+03</pdfrwt>
<totfact> 0.13287365E+03</totfact>
</mgrwt>
</event>
<event>
 6    1  0.6008063E-006  0.5428407E+03  0.7546771E-02  0.1003165E+00
          2   -1    0    0  501    0  0.00000000000E+00  0.00000000000E+00  0.19308124670E+04  0.19308124670E+04  0.00000000000E+00 0. -1.
         -2   -1    0    0    0  501 -0.00000000000E+00 -0.00000000000E+00 -0.38154401013E+02  0.38154401013E+02  0.00000000000E+00 0.  1.
          5    1    1    2  502    0  0.25202508056E+02 -0.20694989742E+02  0.48414752315E+03  0.48526731106E+03  0.47000000000E+01 0. -1.
         -5    1    1    2    0  502 -0.36563177526E+02  0.14220341029E+03  0.12676898948E+04  0.12761733563E+04  0.47000000000E+01 0.  1.
        -11    1    1    2    0    0  0.46681390048E+02 -0.80224034057E+02  0.61358110077E+02  0.11126484391E+03  0.00000000000E+00 0.  1.
         11    1    1    2    0    0 -0.35320720578E+02 -0.41284386486E+02  0.79462537917E+02  0.96261356743E+02  0.00000000000E+00 0. -1.
<mgrwt>
<rscale>  0 0.54284065E+03</rscale>
<asrwt>0</asrwt>
<pdfrwt beam="1">  1        2 0.29704800E+00 0.54284065E+03</pdfrwt>
<pdfrwt beam="2">  1       -2 0.58699094E-02 0.54284065E+03</pdfrwt>
<totfact> 0.12120779E+03</totfact>
</mgrwt>
</event>
<event>
 7    1  0.6008063E-006  0.1680050E+03  0.7546771E-02  0.1186607E+00
          2   -1    0    0  501    0  0.00000000000E+00  0.00000000000E+00  0.20137947091E+04  0.20137947091E+04  0.00000000000E+00 0. -1.
         -2   -1    0    0    0  501 -0.00000000000E+00 -0.00000000000E+00 -0.18027761102E+02  0.18027761102E+02  0.00000000000E+00 0.  1.
         23    2    1    2    0    0  0.85614242630E+02 -0.72599794532E+02  0.16271455111E+04  0.16357958932E+04  0.12500064424E+03 0.  0.
          5    1    3    3  502    0 -0.32556237326E+02 -0.15233776788E+02  0.31238942915E+03  0.31448564672E+03  0.47000000000E+01 0.  1.
         -5    1    3    3    0  502  0.11817047996E+03 -0.57366017743E+02  0.13147560820E+04  0.13213102465E+04  0.47000000000E+01 0.  1.
        -11    1    1    2    0    0 -0.37084369175E+02  0.78315442781E+02  0.16214446752E+03  0.18384609695E+03  0.00000000000E+00 0.  1.
         11    1    1    2    0    0 -0.48529873455E+02 -0.57156482499E+01  0.20647696936E+03  0.21218048008E+03  0.00000000000E+00 0. -1.
<mgrwt>
<rscale>  0 0.16186517E+03</rscale>
<asrwt>0</asrwt>
<pdfrwt beam="1">  1        2 0.30981439E+00 0.16800503E+03</pdfrwt>
<pdfrwt beam="2">  1       -2 0.27735033E-02 0.16800503E+03</pdfrwt>
<totfact> 0.34798991E+03</totfact>
</mgrwt>
</event>
<event>
 7    1  0.6008063E-006  0.1418751E+03  0.7546771E-02  0.1220169E+00
         -2   -1    0    0    0  501 -0.00000000000E+00  0.00000000000E+00  0.10525445667E+03  0.10525445667E+03  0.00000000000E+00 0.  1.
          2   -1    0    0  501    0  0.00000000000E+00 -0.00000000000E+00 -0.23952364124E+03  0.23952364124E+03  0.00000000000E+00 0. -1.
         23    2    1    2    0    0  0.52248678885E+02 -0.45787519380E+02 -0.17146209720E+03  0.22254839823E+03  0.12370172757E+03 0.  0.
          5    1    3    3  502    0  0.90568607704E+02 -0.44629033164E+02 -0.14031427669E+03  0.17292949299E+03  0.47000000000E+01 0. -1.
         -5    1    3    3    0  502 -0.38319928819E+02 -0.11584862157E+01 -0.31147820511E+02  0.49618905243E+02  0.47000000000E+01 0. -1.
        -11    1    1    2    0    0  0.27264977784E+02  0.14897751387E+02  0.11689303684E+02  0.33195810437E+02  0.00000000000E+00 0.  1.
         11    1    1    2    0    0 -0.79513656669E+02  0.30889767993E+02  0.25503608956E+02  0.89033889240E+02  0.00000000000E+00 0. -1.
<mgrwt>
<rscale>  0 0.13503588E+03</rscale>
<asrwt>0</asrwt>
<pdfrwt beam="2">  1        2 0.36849791E-01 0.14187508E+03</pdfrwt>
<pdfrwt beam="1">  1       -2 0.16192993E-01 0.14187508E+03</pdfrwt>
<totfact> 0.40563849E+03</totfact>
</mgrwt>
</event>
<event>
 6    1  0.6008063E-006  0.1875466E+03  0.7546771E-02  0.1192145E+00
         -1   -1    0    0    0  501 -0.00000000000E+00  0.00000000000E+00  0.82146337985E+02  0.82146337985E+02  0.00000000000E+00 0.  1.
          1   -1    0    0  501    0  0.00000000000E+00 -0.00000000000E+00 -0.27565506818E+03  0.27565506818E+03  0.00000000000E+00 0. -1.
          5    1    1    2  502    0  0.42842636680E+02 -0.30680273419E+02 -0.21416496831E+03  0.22060257104E+03  0.47000000000E+01 0. -1.
         -5    1    1    2    0  502 -0.12725100664E+02  0.33995966567E+02  0.26131132047E+02  0.44973102982E+02  0.47000000000E+01 0.  1.
        -11    1    1    2    0    0  0.15604390667E+02  0.30210480135E+02  0.55917631733E+01  0.34459221313E+02  0.00000000000E+00 0.  1.
         11    1    1    2    0    0 -0.45721926683E+02 -0.33526173284E+02 -0.11066657100E+02  0.57766510835E+02  0.00000000000E+00 0. -1.
<mgrwt>
<rscale>  0 0.15698321E+03</rscale>
<asrwt>0</asrwt>
<pdfrwt beam="2">  1        1 0.42408472E-01 0.18754657E+03</pdfrwt>
<pdfrwt beam="1">  1       -1 0.12637898E-01 0.18754657E+03</pdfrwt>
<totfact> 0.40294842E+03</totfact>
</mgrwt>
</event>
<event>
 7    1  0.6008063E-006  0.1434973E+03  0.7546771E-02  0.1218132E+00
         -2   -1    0    0    0  501 -0.00000000000E+00  0.00000000000E+00  0.51032399769E+02  0.51032399769E+02  0.00000000000E+00 0.  1.
          2   -1    0    0  501    0  0.00000000000E+00 -0.00000000000E+00 -0.33456330530E+03  0.33456330530E+03  0.00000000000E+00 0. -1.
         23    2    1    2    0    0  0.53054945847E+02  0.46387919977E+02 -0.16621055914E+03  0.21958467581E+03  0.12499925391E+03 0.  0.
          5    1    3    3  502    0  0.44895377794E+02  0.28221501635E+02 -0.18456959765E+03  0.19209392098E+03  0.47000000000E+01 0. -1.
         -5    1    3    3    0  502  0.81595680538E+01  0.18166418342E+02  0.18359038502E+02  0.27490754826E+02  0.47000000000E+01 0. -1.
        -11    1    1    2    0    0 -0.73673424063E+02 -0.57619885355E+02 -0.99310402407E+02  0.13641986889E+03  0.00000000000E+00 0. -1.
         11    1    1    2    0    0  0.20618478215E+02  0.11231965378E+02 -0.18009943981E+02  0.29591160376E+02  0.00000000000E+00 0.  1.
<mgrwt>
<rscale>  0 0.13648986E+03</rscale>
<asrwt>0</asrwt>
<pdfrwt beam="2">  1        2 0.51471276E-01 0.14349732E+03</pdfrwt>
<pdfrwt beam="1">  1       -2 0.78511386E-02 0.14349732E+03</pdfrwt>
<totfact> 0.90089905E+03</totfact>
</mgrwt>
</event>
<event>
 7    1  0.6008063E-006  0.1273059E+03  0.7546771E-02  0.1246809E+00
         -3   -1    0    0    0  501 -0.00000000000E+00  0.00000000000E+00  0.32261880178E+02  0.32261880178E+02  0.00000000000E+00 0.  1.
          3   -1    0    0  501    0  0.00000000000E+00 -0.00000000000E+00 -0.40188550916E+03  0.40188550916E+03  0.00000000000E+00 0. -1.
         23    2    1    2    0    0  0.24122018221E+02 -0.11591557271E+01 -0.26498656867E+03  0.29398071750E+03  0.12499426099E+03 0.  0.
          5    1    3    3  502    0  0.73134054351E+02 -0.13464730870E+02 -0.18259155846E+03  0.19720967548E+03  0.47000000000E+01 0.  1.
         -5    1    3    3    0  502 -0.49012036130E+02  0.12305575143E+02 -0.82395010208E+02  0.96771042014E+02  0.47000000000E+01 0.  1.
        -11    1    1    2    0    0  0.13097947632E+02 -0.53311803585E+01  0.11380672267E+02  0.18152063724E+02  0.00000000000E+00 0.  1.
         11    1    1    2    0    0 -0.37219965854E+02  0.64903360856E+01 -0.11601773258E+03  0.12201460812E+03  0.00000000000E+00 0. -1.
<mgrwt>
<rscale>  0 0.11777750E+03</rscale>
<asrwt>0</asrwt>
<pdfrwt beam="2">  1        3 0.61828539E-01 0.12730585E+03</pdfrwt>
<pdfrwt beam="1">  1       -3 0.49633662E-02 0.12730585E+03</pdfrwt>
<totfact> 0.13588062E+03</totfact>
</mgrwt>
</event>
<event>
 7    1  0.6008063E-006  0.1581936E+03  0.7546771E-02  0.1197446E+00
          1   -1    0    0  501    0  0.00000000000E+00  0.00000000000E+00  0.58999941103E+02  0.58999941103E+02  0.00000000000E+00 0. -1.
         -1   -1    0    0    0  501 -0.00000000000E+00 -0.00000000000E+00 -0.39375401271E+03  0.39375401271E+03  0.00000000000E+00 0.  1.
         23    2    1    2    0    0 -0.91857414141E+02  0.31044983372E+02 -0.23637827085E+03  0.28442907201E+03  0.12499453808E+03 0.  0.
          5    1    3    3  502    0 -0.45493758737E+01  0.33312364173E+02 -0.17103659242E+01  0.33991554528E+02  0.47000000000E+01 0. -1.
         -5    1    3    3    0  502 -0.87308038267E+02 -0.22673808013E+01 -0.23466790492E+03  0.25043751748E+03  0.47000000000E+01 0. -1.
        -11    1    1    2    0    0  0.98649739777E+02  0.60577679252E+01 -0.69612428046E+02  0.12088985834E+03  0.00000000000E+00 0.  1.
         11    1    1    2    0    0 -0.67923256361E+01 -0.37102751297E+02 -0.28763372712E+02  0.47435023465E+02  0.00000000000E+00 0. -1.
<mgrwt>
<rscale>  0 0.15249037E+03</rscale>
<asrwt>0</asrwt>
<pdfrwt beam="1">  1        1 0.90769141E-02 0.15819358E+03</pdfrwt>
<pdfrwt beam="2">  1       -1 0.60577540E-01 0.15819358E+03</pdfrwt>
<totfact> 0.20419391E+03</totfact>
</mgrwt>
</event>
<event>
 7    1  0.6008063E-006  0.1339143E+03  0.7546771E-02  0.1234026E+00
          2   -1    0    0  501    0  0.00000000000E+00  0.00000000000E+00  0.21893127244E+03  0.21893127244E+03  0.00000000000E+00 0. -1.
         -2   -1    0    0    0  501 -0.00000000000E+00 -0.00000000000E+00 -0.79622769441E+02  0.79622769441E+02  0.00000000000E+00 0.  1.
         23    2    1    2    0    0  0.40047475187E+02  0.26526416344E+02  0.14130049667E+03  0.19467635338E+03  0.12500240466E+03 0.  0.
          5    1    3    3  502    0  0.45626163425E+02  0.61184342866E+02  0.13965653420E+03  0.15922094129E+03  0.47000000000E+01 0.  1.
         -5    1    3    3    0  502 -0.55786882377E+01 -0.34657926522E+02  0.16439624685E+01  0.35455412081E+02  0.47000000000E+01 0.  1.
        -11    1    1    2    0    0 -0.11572643136E+02 -0.52030190445E+01 -0.45753964068E+02  0.47480761412E+02  0.00000000000E+00 0.  1.
         11    1    1    2    0    0 -0.28474832051E+02 -0.21323397299E+02  0.43761970390E+02  0.56396927090E+02  0.00000000000E+00 0. -1.
<mgrwt>
<rscale>  0 0.12566980E+03</rscale>
<asrwt>0</asrwt>
<pdfrwt beam="1">  1        2 0.33681734E-01 0.13391435E+03</pdfrwt>
<pdfrwt beam="2">  1       -2 0.12249657E-01 0.13391435E+03</pdfrwt>
<totfact> 0.70026913E+03</totfact>
</mgrwt>
</event>
<event>
 7    1  0.6008063E-006  0.1433001E+03  0.7546771E-02  0.1218574E+00
         -1   -1    0    0    0  501 -0.00000000000E+00  0.00000000000E+00  0.52928064826E+02  0.52928064826E+02  0.00000000000E+00 0.  1.
          1   -1    0    0  501    0  0.00000000000E+00 -0.00000000000E+00 -0.36262549571E+03  0.36262549571E+03  0.00000000000E+00 0. -1.
         23    2    1    2    0    0 -0.68575899334E+02  0.14432632744E+02 -0.23991915141E+03  0.27945684918E+03  0.12499590586E+03 0.  0.
          5    1    3    3  502    0 -0.81942027419E+02  0.47700122131E+02 -0.21644116568E+03  0.23634437948E+03  0.47000000000E+01 0. -1.
         -5    1    3    3    0  502  0.13366128084E+02 -0.33267489387E+02 -0.23477985730E+02  0.43112469705E+02  0.47000000000E+01 0. -1.
        -11    1    1    2    0    0  0.41994453442E+02  0.38909127857E+02 -0.34354338321E+02  0.66765821436E+02  0.00000000000E+00 0.  1.
         11    1    1    2    0    0  0.26581445892E+02 -0.53341760602E+02 -0.35423941146E+02  0.69330889913E+02  0.00000000000E+00 0. -1.
<mgrwt>
<rscale>  0 0.13617259E+03</rscale>
<asrwt>0</asrwt>
<pdfrwt beam="2">  1        1 0.55788539E-01 0.14330014E+03</pdfrwt>
<pdfrwt beam="1">  1       -1 0.81427790E-02 0.14330014E+03</pdfrwt>
<totfact> 0.55409490E+03</totfact>
</mgrwt>
</event>
<event>
 7    1  0.6008063E-006  0.2220960E+03  0.7546771E-02  0.1135355E+00
         -1   -1    0    0    0  501 -0.00000000000E+00  0.00000000000E+00  0.17997289632E+03  0.17997289632E+03  0.00000000000E+00 0.  1.
          1   -1    0    0  501    0  0.00000000000E+00 -0.00000000000E+00 -0.27453795343E+03  0.27453795343E+03  0.00000000000E+00 0. -1.
         23    2    1    2    0    0 -0.17859889488E+03 -0.45373000509E+02 -0.10959340727E+03  0.24766375473E+03  0.12397719977E+03 0.  0.
          5    1    3    3  502    0 -0.16811910206E+03 -0.65960026005E+02 -0.56036243929E+02  0.18914784731E+03  0.47000000000E+01 0. -1.
         -5    1    3    3    0  502 -0.10479792814E+02  0.20587025496E+02 -0.53557163336E+02  0.58515907417E+02  0.47000000000E+01 0.  1.
        -11    1    1    2    0    0  0.18016937076E+03  0.31922611568E+02  0.31347209702E+02  0.18564132850E+03  0.00000000000E+00 0.  1.
         11    1    1    2    0    0 -0.15704758881E+01  0.13450388941E+02 -0.16318859544E+02  0.21205766527E+02  0.00000000000E+00 0. -1.
<mgrwt>
<rscale>  0 0.21803718E+03</rscale>
<asrwt>0</asrwt>
<pdfrwt beam="2">  1        1 0.42236608E-01 0.22209597E+03</pdfrwt>
<pdfrwt beam="1">  1       -1 0.27688138E-01 0.22209597E+03</pdfrwt>
<totfact> 0.11468991E+03</totfact>
</mgrwt>
</event>
<event>
 7    1  0.6008063E-006  0.2069933E+03  0.7546771E-02  0.1147654E+00
          2   -1    0    0  501    0  0.00000000000E+00  0.00000000000E+00  0.12257707225E+04  0.12257707225E+04  0.00000000000E+00 0. -1.
         -2   -1    0    0    0  501 -0.00000000000E+00 -0.00000000000E+00 -0.37675129990E+02  0.37675129990E+02  0.00000000000E+00 0.  1.
         23    2    1    2    0    0  0.14249204320E+03  0.83174763330E+02  0.85965857818E+03  0.88422796598E+03  0.12499680456E+03 0.  0.
          5    1    3    3  502    0 -0.20521876219E+02 -0.12063802883E+01  0.55472616454E+02  0.59345631122E+02  0.47000000000E+01 0. -1.
         -5    1    3    3    0  502  0.16301391942E+03  0.84381143618E+02  0.80418596173E+03  0.82488233486E+03  0.47000000000E+01 0. -1.
        -11    1    1    2    0    0 -0.96292407896E+02 -0.29430907385E+02  0.10794670735E+03  0.14761740330E+03  0.00000000000E+00 0.  1.
         11    1    1    2    0    0 -0.46199635307E+02 -0.53743855945E+02  0.22049030702E+03  0.23160048326E+03  0.00000000000E+00 0. -1.
<mgrwt>
<rscale>  0 0.20249179E+03</rscale>
<asrwt>0</asrwt>
<pdfrwt beam="1">  1        2 0.18858008E+00 0.20699330E+03</pdfrwt>
<pdfrwt beam="2">  1       -2 0.57961748E-02 0.20699330E+03</pdfrwt>
<totfact> 0.30044348E+03</totfact>
</mgrwt>
</event>
<event>
 7    1  0.6008063E-006  0.1361378E+03  0.7546771E-02  0.1229948E+00
         -2   -1    0    0    0  501 -0.00000000000E+00  0.00000000000E+00  0.36534590779E+02  0.36534590779E+02  0.00000000000E+00 0.  1.
          2   -1    0    0  501    0  0.00000000000E+00 -0.00000000000E+00 -0.49285755347E+03  0.49285755347E+03  0.00000000000E+00 0. -1.
         23    2    1    2    0    0  0.53360877003E+02  0.77129814289E+01 -0.36061279514E+03  0.38545439525E+03  0.12500651793E+03 0.  0.
          5    1    3    3  502    0  0.43672086690E+02  0.14229301686E+02 -0.31026507548E+02  0.55627855909E+02  0.47000000000E+01 0.  1.
         -5    1    3    3    0  502  0.96887903128E+01 -0.65163202573E+01 -0.32958628759E+03  0.32982653934E+03  0.47000000000E+01 0.  1.
        -11    1    1    2    0    0 -0.80093065328E+02 -0.31765911313E+01 -0.75560185900E+02  0.11015594191E+03  0.00000000000E+00 0. -1.
         11    1    1    2    0    0  0.26732188325E+02 -0.45363902976E+01 -0.20149981655E+02  0.33781807091E+02  0.00000000000E+00 0.  1.
<mgrwt>
<rscale>  0 0.12833429E+03</rscale>
<asrwt>0</asrwt>
<pdfrwt beam="2">  1        2 0.75824237E-01 0.13613781E+03</pdfrwt>
<pdfrwt beam="1">  1       -2 0.56207064E-02 0.13613781E+03</pdfrwt>
<totfact> 0.98629643E+03</totfact>
</mgrwt>
</event>
<event>
 7    1  0.6008063E-006  0.2252931E+03  0.7546771E-02  0.1133375E+00
         -2   -1    0    0    0  501 -0.00000000000E+00  0.00000000000E+00  0.38891121278E+03  0.38891121278E+03  0.00000000000E+00 0.  1.
          2   -1    0    0  501    0  0.00000000000E+00 -0.00000000000E+00 -0.13472961943E+03  0.13472961943E+03  0.00000000000E+00 0. -1.
         23    2    1    2    0    0 -0.18395938059E+03  0.35943482289E+02  0.46335963731E+02  0.23000874536E+03  0.12499605505E+03 0.  0.
          5    1    3    3  502    0 -0.16535765546E+03 -0.50670798576E+01  0.69080158140E+02  0.17934042424E+03  0.47000000000E+01 0. -1.
         -5    1    3    3    0  502 -0.18601725137E+02  0.41010562147E+02 -0.22744194410E+02  0.50668321119E+02  0.47000000000E+01 0. -1.
        -11    1    1    2    0    0  0.68787689309E+02 -0.39541265538E+02  0.13714712949E+03  0.15844428992E+03  0.00000000000E+00 0.  1.
         11    1    1    2    0    0  0.11517169129E+03  0.35977832484E+01  0.70698500132E+02  0.13518779693E+03  0.00000000000E+00 0. -1.
<mgrwt>
<rscale>  0 0.22068346E+03</rscale>
<asrwt>0</asrwt>
<pdfrwt beam="2">  1        2 0.20727634E-01 0.22529315E+03</pdfrwt>
<pdfrwt beam="1">  1       -2 0.59832494E-01 0.22529315E+03</pdfrwt>
<totfact> 0.70771365E+02</totfact>
</mgrwt>
</event>
<event>
 7    1  0.6008063E-006  0.1171001E+03  0.7546771E-02  0.1255783E+00
          3   -1    0    0  501    0  0.00000000000E+00  0.00000000000E+00  0.25350722681E+02  0.25350722681E+02  0.00000000000E+00 0. -1.
         -3   -1    0    0    0  501 -0.00000000000E+00 -0.00000000000E+00 -0.51039168751E+03  0.51039168751E+03  0.00000000000E+00 0.  1.
         23    2    1    2    0    0  0.10635792379E+02 -0.36613300049E+02 -0.18065315334E+03  0.21528582023E+03  0.11071932423E+03 0.  0.
          5    1    3    3  502    0 -0.46420270301E+02 -0.15553376526E+02 -0.45483927458E+02  0.66989750509E+02  0.47000000000E+01 0. -1.
         -5    1    3    3    0  502  0.57056062680E+02 -0.21059923523E+02 -0.13516922589E+03  0.14829606972E+03  0.47000000000E+01 0.  1.
        -11    1    1    2    0    0  0.81122460195E+00  0.65592127803E+02 -0.24183140756E+03  0.25057017979E+03  0.00000000000E+00 0. -1.
         11    1    1    2    0    0 -0.11447016981E+02 -0.28978827754E+02 -0.62556403929E+02  0.69886410183E+02  0.00000000000E+00 0.  1.
<mgrwt>
<rscale>  0 0.11262561E+03</rscale>
<asrwt>0</asrwt>
<pdfrwt beam="1">  1        3 0.39001111E-02 0.11710005E+03</pdfrwt>
<pdfrwt beam="2">  1       -3 0.78521800E-01 0.11710005E+03</pdfrwt>
<totfact> 0.11793907E+03</totfact>
</mgrwt>
</event>
<event>
 7    1  0.6008063E-006  0.2476414E+03  0.7546771E-02  0.1117259E+00
         -2   -1    0    0    0  501 -0.00000000000E+00  0.00000000000E+00  0.16152313927E+03  0.16152313927E+03  0.00000000000E+00 0.  1.
          2   -1    0    0  501    0  0.00000000000E+00 -0.00000000000E+00 -0.36860394189E+03  0.36860394189E+03  0.00000000000E+00 0. -1.
         23    2    1    2    0    0 -0.20751837974E+03  0.51410862961E+02 -0.15313542546E+03  0.29116439686E+03  0.12497716875E+03 0.  0.
          5    1    3    3  502    0 -0.21213571154E+03  0.18886036827E+02 -0.12111405848E+03  0.24504886790E+03  0.47000000000E+01 0. -1.
         -5    1    3    3    0  502  0.46173317999E+01  0.32524826134E+02 -0.32021366982E+02  0.46115528962E+02  0.47000000000E+01 0. -1.
        -11    1    1    2    0    0  0.17078894034E+03 -0.75040265012E+02 -0.29357636286E+02  0.18884325332E+03  0.00000000000E+00 0.  1.
         11    1    1    2    0    0  0.36729439404E+02  0.23629402051E+02 -0.24587740870E+02  0.50119430975E+02  0.00000000000E+00 0. -1.
<mgrwt>
<rscale>  0 0.24384304E+03</rscale>
<asrwt>0</asrwt>
<pdfrwt beam="2">  1        2 0.56708298E-01 0.24764137E+03</pdfrwt>
<pdfrwt beam="1">  1       -2 0.24849714E-01 0.24764137E+03</pdfrwt>
<totfact> 0.12534214E+03</totfact>
</mgrwt>
</event>
<event>
 7    1  0.6008063E-006  0.1410626E+03  0.7546771E-02  0.1221902E+00
          2   -1    0    0  501    0  0.00000000000E+00  0.00000000000E+00  0.46411271248E+03  0.46411271248E+03  0.00000000000E+00 0. -1.
         -2   -1    0    0    0  501 -0.00000000000E+00 -0.00000000000E+00 -0.64788097015E+02  0.64788097015E+02  0.00000000000E+00 0.  1.
         23    2    1    2    0    0 -0.44361526092E+02 -0.48010698402E+02  0.38948812789E+03  0.41424590809E+03  0.12500279374E+03 0.  0.
          5    1    3    3  502    0 -0.30201409994E+02  0.24181750071E+02  0.27716977103E+03  0.27989650618E+03  0.47000000000E+01 0. -1.
         -5    1    3    3    0  502 -0.14160116098E+02 -0.72192448473E+02  0.11231835686E+03  0.13434940190E+03  0.47000000000E+01 0. -1.
        -11    1    1    2    0    0  0.43815997281E+02 -0.18097555392E+02  0.10436980604E+02  0.48541669657E+02  0.00000000000E+00 0. -1.
         11    1    1    2    0    0  0.54552881108E+00  0.66108253794E+02 -0.60049302233E+00  0.66113231756E+02  0.00000000000E+00 0.  1.
<mgrwt>
<rscale>  0 0.13381541E+03</rscale>
<asrwt>0</asrwt>
<pdfrwt beam="1">  1        2 0.71401954E-01 0.14106265E+03</pdfrwt>
<pdfrwt beam="2">  1       -2 0.99673998E-02 0.14106265E+03</pdfrwt>
<totfact> 0.43696219E+03</totfact>
</mgrwt>
</event>
<event>
 7    1  0.6008063E-006  0.1531274E+03  0.7546771E-02  0.1205062E+00
          2   -1    0    0  501    0  0.00000000000E+00  0.00000000000E+00  0.36835023603E+03  0.36835023603E+03  0.00000000000E+00 0. -1.
         -2   -1    0    0    0  501 -0.00000000000E+00 -0.00000000000E+00 -0.69424075407E+02  0.69424075407E+02  0.00000000000E+00 0.  1.
         23    2    1    2    0    0 -0.22173665421E+02 -0.85625696668E+02  0.26434415255E+03  0.30549276849E+03  0.12499827696E+03 0.  0.
          5    1    3    3  502    0 -0.62666075027E+02 -0.92117079540E+02  0.20168130280E+03  0.23045613726E+03  0.47000000000E+01 0.  1.
         -5    1    3    3    0  502  0.40492409606E+02  0.64913828721E+01  0.62662849751E+02  0.75036631229E+02  0.47000000000E+01 0.  1.
        -11    1    1    2    0    0  0.38554779144E+02  0.54468518557E+02 -0.17896006853E+02  0.69090936960E+02  0.00000000000E+00 0.  1.
         11    1    1    2    0    0 -0.16381113723E+02  0.31157178110E+02  0.52478014929E+02  0.63190605990E+02  0.00000000000E+00 0. -1.
<mgrwt>
<rscale>  0 0.14632598E+03</rscale>
<asrwt>0</asrwt>
<pdfrwt beam="1">  1        2 0.56669266E-01 0.15312740E+03</pdfrwt>
<pdfrwt beam="2">  1       -2 0.10680627E-01 0.15312740E+03</pdfrwt>
<totfact> 0.50449583E+03</totfact>
</mgrwt>
</event>
<event>
 7    1  0.6008063E-006  0.1630232E+03  0.7546771E-02  0.1196413E+00
          3   -1    0    0  501    0  0.00000000000E+00  0.00000000000E+00  0.73610786254E+02  0.73610786254E+02  0.00000000000E+00 0. -1.
         -3   -1    0    0    0  501 -0.00000000000E+00 -0.00000000000E+00 -0.33171521496E+03  0.33171521496E+03  0.00000000000E+00 0.  1.
         23    2    1    2    0    0 -0.39122575756E+02 -0.96903493084E+02 -0.68665869839E+02  0.17689426646E+03  0.12512280735E+03 0.  0.
          5    1    3    3  502    0 -0.40761865290E+02 -0.43429301540E+02  0.28252785244E+02  0.66090421153E+02  0.47000000000E+01 0. -1.
         -5    1    3    3    0  502  0.16392895345E+01 -0.53474191544E+02 -0.96918655083E+02  0.11080384531E+03  0.47000000000E+01 0. -1.
        -11    1    1    2    0    0 -0.37487771996E+01  0.57099829201E+02 -0.14206110243E+03  0.15315286693E+03  0.00000000000E+00 0.  1.
         11    1    1    2    0    0  0.42871352955E+02  0.39803663883E+02 -0.47377456441E+02  0.75278867828E+02  0.00000000000E+00 0. -1.
<mgrwt>
<rscale>  0 0.15335252E+03</rscale>
<asrwt>0</asrwt>
<pdfrwt beam="1">  1        3 0.11324736E-01 0.16302325E+03</pdfrwt>
<pdfrwt beam="2">  1       -3 0.51033110E-01 0.16302325E+03</pdfrwt>
<totfact> 0.54620904E+02</totfact>
</mgrwt>
</event>
<event>
 7    1  0.6008063E-006  0.2899076E+03  0.7546771E-02  0.1092119E+00
         -3   -1    0    0    0  501 -0.00000000000E+00  0.00000000000E+00  0.40659770993E+03  0.40659770993E+03  0.00000000000E+00 0.  1.
          3   -1    0    0  501    0  0.00000000000E+00 -0.00000000000E+00 -0.21896380966E+03  0.21896380966E+03  0.00000000000E+00 0. -1.
         23    2    1    2    0    0  0.19609741797E+03  0.17311160023E+03 -0.18660390065E+01  0.28991365119E+03  0.12499847830E+03 0.  0.
          5    1    3    3  502    0  0.14224964141E+03  0.89089129272E+02  0.52815564270E+02  0.17602104211E+03  0.47000000000E+01 0.  1.
         -5    1    3    3    0  502  0.53847776556E+02  0.84022470961E+02 -0.54681603277E+02  0.11389260908E+03  0.47000000000E+01 0.  1.
        -11    1    1    2    0    0 -0.11358608071E+03 -0.10953119805E+03  0.16566893007E+03  0.22879046193E+03  0.00000000000E+00 0.  1.
         11    1    1    2    0    0 -0.82511337260E+02 -0.63580402181E+02  0.23831009205E+02  0.10685740647E+03  0.00000000000E+00 0. -1.
<mgrwt>
<rscale>  0 0.28663487E+03</rscale>
<asrwt>0</asrwt>
<pdfrwt beam="2">  1        3 0.33686740E-01 0.28990765E+03</pdfrwt>
<pdfrwt beam="1">  1       -3 0.62553494E-01 0.28990765E+03</pdfrwt>
<totfact> 0.54618705E+01</totfact>
</mgrwt>
</event>
<event>
 7    1  0.6008063E-006  0.1506542E+03  0.7546771E-02  0.1209262E+00
         -2   -1    0    0    0  501 -0.00000000000E+00  0.00000000000E+00  0.52566931483E+03  0.52566931483E+03  0.00000000000E+00 0.  1.
          2   -1    0    0  501    0  0.00000000000E+00 -0.00000000000E+00 -0.36707980973E+02  0.36707980973E+02  0.00000000000E+00 0. -1.
         23    2    1    2    0    0 -0.43257470705E+02 -0.72118736937E+02  0.21786485053E+03  0.26488069774E+03  0.12499747978E+03 0.  0.
          5    1    3    3  502    0 -0.36467653174E+02 -0.96199656141E+02  0.97382409438E+02  0.14173809381E+03  0.47000000000E+01 0.  1.
         -5    1    3    3    0  502 -0.67898175312E+01  0.24080919204E+02  0.12048244109E+03  0.12314260393E+03  0.47000000000E+01 0.  1.
        -11    1    1    2    0    0 -0.15243276510E+02  0.24009498624E+02  0.18838741410E+02  0.34113218564E+02  0.00000000000E+00 0. -1.
         11    1    1    2    0    0  0.58500747215E+02  0.48109238313E+02  0.25225774192E+03  0.26338337949E+03  0.00000000000E+00 0.  1.
<mgrwt>
<rscale>  0 0.14306615E+03</rscale>
<asrwt>0</asrwt>
<pdfrwt beam="2">  1        2 0.56473821E-02 0.15065421E+03</pdfrwt>
<pdfrwt beam="1">  1       -2 0.80872197E-01 0.15065421E+03</pdfrwt>
<totfact> 0.18030451E+03</totfact>
</mgrwt>
</event>
<event>
 7    1  0.6008063E-006  0.1352445E+03  0.7546771E-02  0.1230309E+00
         -1   -1    0    0    0  501 -0.00000000000E+00  0.00000000000E+00  0.21638892681E+03  0.21638892681E+03  0.00000000000E+00 0.  1.
          1   -1    0    0  501    0  0.00000000000E+00 -0.00000000000E+00 -0.69648232390E+02  0.69648232390E+02  0.00000000000E+00 0. -1.
         23    2    1    2    0    0  0.31857899638E+02  0.40629650896E+02  0.65799616185E+02  0.15040170065E+03  0.12500155106E+03 0.  0.
          5    1    3    3  502    0  0.79590020263E+02  0.27127958713E+02  0.31524877401E+02  0.89924442531E+02  0.47000000000E+01 0.  1.
         -5    1    3    3    0  502 -0.47732120625E+02  0.13501692183E+02  0.34274738784E+02  0.60477258122E+02  0.47000000000E+01 0.  1.
        -11    1    1    2    0    0 -0.96218738977E+01  0.19533429672E+02  0.66383440793E+02  0.69863413483E+02  0.00000000000E+00 0.  1.
         11    1    1    2    0    0 -0.22236025740E+02 -0.60163080568E+02  0.14557637446E+02  0.65772045066E+02  0.00000000000E+00 0. -1.
<mgrwt>
<rscale>  0 0.12809555E+03</rscale>
<asrwt>0</asrwt>
<pdfrwt beam="2">  1        1 0.10715113E-01 0.13524453E+03</pdfrwt>
<pdfrwt beam="1">  1       -1 0.33290604E-01 0.13524453E+03</pdfrwt>
<totfact> 0.47620595E+03</totfact>
</mgrwt>
</event>
<event>
 6    1  0.6008063E-006  0.1424131E+03  0.7546771E-02  0.1224903E+00
         -1   -1    0    0    0  501 -0.00000000000E+00  0.00000000000E+00  0.19659135585E+02  0.19659135585E+02  0.00000000000E+00 0.  1.
          1   -1    0    0  501    0  0.00000000000E+00 -0.00000000000E+00 -0.84476253430E+03  0.84476253430E+03  0.00000000000E+00 0. -1.
          5    1    1    2  502    0  0.22728139378E+02 -0.76805844003E+02 -0.55772780222E+03  0.56346969515E+03  0.47000000000E+01 0. -1.
         -5    1    1    2    0  502 -0.16715567939E+02  0.25348005860E+02 -0.37110386344E+02  0.48178858301E+02  0.47000000000E+01 0.  1.
        -11    1    1    2    0    0  0.38809337959E+02  0.13087351575E+02 -0.13145196962E+03  0.13768465347E+03  0.00000000000E+00 0. -1.
         11    1    1    2    0    0 -0.44821909398E+02  0.38370486568E+02 -0.98813240531E+02  0.11508846296E+03  0.00000000000E+00 0.  1.
<mgrwt>
<rscale>  0 0.13173524E+03</rscale>
<asrwt>0</asrwt>
<pdfrwt beam="2">  1        1 0.12996351E+00 0.14241307E+03</pdfrwt>
<pdfrwt beam="1">  1       -1 0.30244813E-02 0.14241307E+03</pdfrwt>
<totfact> 0.76343721E+03</totfact>
</mgrwt>
</event>
<event>
 7    1  0.6008063E-006  0.1392946E+03  0.7546771E-02  0.1224962E+00
         -1   -1    0    0    0  501 -0.00000000000E+00  0.00000000000E+00  0.37849370173E+03  0.37849370173E+03  0.00000000000E+00 0.  1.
          1   -1    0    0  501    0  0.00000000000E+00 -0.00000000000E+00 -0.44361615647E+02  0.44361615647E+02  0.00000000000E+00 0. -1.
         23    2    1    2    0    0 -0.56175390877E+02  0.24952260075E+02  0.23811389465E+03  0.27586447526E+03  0.12499876824E+03 0.  0.
          5    1    3    3  502    0 -0.45708057120E+02 -0.46940941396E+02  0.98225091072E+02  0.11816487203E+03  0.47000000000E+01 0.  1.
         -5    1    3    3    0  502 -0.10467333757E+02  0.71893201471E+02  0.13988880358E+03  0.15769960324E+03  0.47000000000E+01 0.  1.
        -11    1    1    2    0    0  0.11518169108E+02  0.34666315401E+02  0.36547974857E+02  0.51673746809E+02  0.00000000000E+00 0. -1.
         11    1    1    2    0    0  0.44657221769E+02 -0.59618575477E+02  0.59470216571E+02  0.95317095303E+02  0.00000000000E+00 0.  1.
<mgrwt>
<rscale>  0 0.13169541E+03</rscale>
<asrwt>0</asrwt>
<pdfrwt beam="2">  1        1 0.68248642E-02 0.13929459E+03</pdfrwt>
<pdfrwt beam="1">  1       -1 0.58229798E-01 0.13929459E+03</pdfrwt>
<totfact> 0.32106092E+03</totfact>
</mgrwt>
</event>
<event>
 7    1  0.6008063E-006  0.2388649E+03  0.7546771E-02  0.1123280E+00
          4   -1    0    0  501    0  0.00000000000E+00  0.00000000000E+00  0.13497359100E+03  0.13497359100E+03  0.00000000000E+00 0. -1.
         -4   -1    0    0    0  501 -0.00000000000E+00 -0.00000000000E+00 -0.40645215968E+03  0.40645215968E+03  0.00000000000E+00 0.  1.
         23    2    1    2    0    0  0.16560249180E+03 -0.11835093544E+03 -0.95587909131E+02  0.25728096067E+03  0.12500126056E+03 0.  0.
          5    1    3    3  502    0  0.12506478975E+03 -0.13784470361E+03 -0.49374244143E+02  0.19261949520E+03  0.47000000000E+01 0. -1.
         -5    1    3    3    0  502  0.40537702047E+02  0.19493768167E+02 -0.46213664988E+02  0.64661465466E+02  0.47000000000E+01 0. -1.
        -11    1    1    2    0    0 -0.11986867549E+03  0.36409663848E+02 -0.12676666807E+03  0.17822444030E+03  0.00000000000E+00 0.  1.
         11    1    1    2    0    0 -0.45733816301E+02  0.81941271592E+02 -0.49123991481E+02  0.10592034971E+03  0.00000000000E+00 0. -1.
<mgrwt>
<rscale>  0 0.23483820E+03</rscale>
<asrwt>0</asrwt>
<pdfrwt beam="1">  1        4 0.20765168E-01 0.23886491E+03</pdfrwt>
<pdfrwt beam="2">  1       -4 0.62531101E-01 0.23886491E+03</pdfrwt>
<totfact> 0.93109255E+01</totfact>
</mgrwt>
</event>
<event>
 7    1  0.6008063E-006  0.1398292E+03  0.7546771E-02  0.1224757E+00
         -2   -1    0    0    0  501 -0.00000000000E+00  0.00000000000E+00  0.49426257651E+03  0.49426257651E+03  0.00000000000E+00 0. -1.
          2   -1    0    0  501    0  0.00000000000E+00 -0.00000000000E+00 -0.41416510520E+02  0.41416510520E+02  0.00000000000E+00 0.  1.
         23    2    1    2    0    0 -0.99197140192E+01 -0.61880799661E+02  0.11764631909E+03  0.18273712215E+03  0.12499826128E+03 0.  0.
          5    1    3    3  502    0  0.43046882420E+02  0.64695109899E+01  0.73457287621E+02  0.85515798324E+02  0.47000000000E+01 0. -1.
         -5    1    3    3    0  502 -0.52966596439E+02 -0.68350310651E+02  0.44189031470E+02  0.97221323827E+02  0.47000000000E+01 0. -1.
        -11    1    1    2    0    0 -0.27805772398E+02 -0.83722357975E+01  0.11940317793E+03  0.12288357990E+03  0.00000000000E+00 0.  1.
         11    1    1    2    0    0  0.37725486418E+02  0.70253035459E+02  0.21579656897E+03  0.23005838497E+03  0.00000000000E+00 0. -1.
<mgrwt>
<rscale>  0 0.13183602E+03</rscale>
<asrwt>0</asrwt>
<pdfrwt beam="2">  1        2 0.63717712E-02 0.13982918E+03</pdfrwt>
<pdfrwt beam="1">  1       -2 0.76040392E-01 0.13982918E+03</pdfrwt>
<totfact> 0.17577349E+03</totfact>
</mgrwt>
</event>
<event>
 7    1  0.6008063E-006  0.1449881E+03  0.7546771E-02  0.1215715E+00
          1   -1    0    0  501    0  0.00000000000E+00  0.00000000000E+00  0.36023253753E+04  0.36023253753E+04  0.00000000000E+00 0. -1.
         -1   -1    0    0    0  501 -0.00000000000E+00 -0.00000000000E+00 -0.31205530266E+02  0.31205530266E+02  0.00000000000E+00 0.  1.
         23    2    1    2    0    0 -0.65580693649E+02  0.24338588473E+02  0.34799344669E+04  0.34829535509E+04  0.12699743733E+03 0.  0.
          5    1    3    3  502    0 -0.82348756077E+02  0.58636425169E+02  0.28866595317E+04  0.28884329471E+04  0.47000000000E+01 0. -1.
         -5    1    3    3    0  502  0.16768062428E+02 -0.34297836695E+02  0.59327493525E+03  0.59452060378E+03  0.47000000000E+01 0.  1.
        -11    1    1    2    0    0  0.54188721580E+02 -0.38462775543E+02  0.97718728869E+01  0.67166153296E+02  0.00000000000E+00 0.  1.
         11    1    1    2    0    0  0.11391972069E+02  0.14124187069E+02  0.81413505186E+02  0.83411201374E+02  0.00000000000E+00 0. -1.
<mgrwt>
<rscale>  0 0.13824164E+03</rscale>
<asrwt>0</asrwt>
<pdfrwt beam="1">  1        1 0.55420357E+00 0.14498808E+03</pdfrwt>
<pdfrwt beam="2">  1       -1 0.48008537E-02 0.14498808E+03</pdfrwt>
<totfact> 0.52291265E+01</totfact>
</mgrwt>
</event>
<event>
 7    1  0.6008063E-006  0.1413203E+03  0.7546771E-02  0.1222486E+00
         -2   -1    0    0    0  501 -0.00000000000E+00  0.00000000000E+00  0.33253533621E+03  0.33253533621E+03  0.00000000000E+00 0. -1.
          2   -1    0    0  501    0  0.00000000000E+00 -0.00000000000E+00 -0.49636950423E+02  0.49636950423E+02  0.00000000000E+00 0.  1.
         23    2    1    2    0    0 -0.45316386053E+02 -0.47836945047E+02  0.12645520275E+03  0.18963739346E+03  0.12501789688E+03 0.  0.
          5    1    3    3  502    0 -0.59607861619E+02 -0.21447669584E+02  0.41965963636E+01  0.63661614168E+02  0.47000000000E+01 0.  1.
         -5    1    3    3    0  502  0.14291475566E+02 -0.26389275462E+02  0.12225860639E+03  0.12597577929E+03  0.47000000000E+01 0.  1.
        -11    1    1    2    0    0  0.53832144965E+02  0.69794563872E+02  0.13069982294E+03  0.15764398084E+03  0.00000000000E+00 0. -1.
         11    1    1    2    0    0 -0.85157589120E+01 -0.21957618825E+02  0.25743360095E+02  0.34890912332E+02  0.00000000000E+00 0.  1.
<mgrwt>
<rscale>  0 0.13340714E+03</rscale>
<asrwt>0</asrwt>
<pdfrwt beam="2">  1        2 0.76364541E-02 0.14132028E+03</pdfrwt>
<pdfrwt beam="1">  1       -2 0.51159281E-01 0.14132028E+03</pdfrwt>
<totfact> 0.31776211E+03</totfact>
</mgrwt>
</event>
<event>
 7    1  0.6008063E-006  0.1297691E+03  0.7546771E-02  0.1242211E+00
          1   -1    0    0  501    0  0.00000000000E+00  0.00000000000E+00  0.28366447065E+03  0.28366447065E+03  0.00000000000E+00 0. -1.
         -1   -1    0    0    0  501 -0.00000000000E+00 -0.00000000000E+00 -0.75164915564E+02  0.75164915564E+02  0.00000000000E+00 0.  1.
         23    2    1    2    0    0 -0.11839751674E+02 -0.32768499130E+02  0.22604420273E+03  0.26064534414E+03  0.12500423824E+03 0.  0.
          5    1    3    3  502    0 -0.38459533579E+02 -0.22245945794E+02  0.14281122006E+02  0.46904778788E+02  0.47000000000E+01 0. -1.
         -5    1    3    3    0  502  0.26619781906E+02 -0.10522553335E+02  0.21176308073E+03  0.21374056535E+03  0.47000000000E+01 0. -1.
        -11    1    1    2    0    0  0.38330181485E+02  0.48381702707E+02 -0.24914947886E+02  0.66563853537E+02  0.00000000000E+00 0. -1.
         11    1    1    2    0    0 -0.26490429811E+02 -0.15613203577E+02  0.73703002370E+01  0.31620188537E+02  0.00000000000E+00 0.  1.
<mgrwt>
<rscale>  0 0.12053882E+03</rscale>
<asrwt>0</asrwt>
<pdfrwt beam="1">  1        1 0.43640687E-01 0.12976908E+03</pdfrwt>
<pdfrwt beam="2">  1       -1 0.11563833E-01 0.12976908E+03</pdfrwt>
<totfact> 0.43800353E+03</totfact>
</mgrwt>
</event>
<event>
 7    1  0.6008063E-006  0.1291865E+03  0.7546771E-02  0.1242777E+00
         -1   -1    0    0    0  501 -0.00000000000E+00  0.00000000000E+00  0.27192234268E+03  0.27192234268E+03  0.00000000000E+00 0.  1.
          1   -1    0    0  501    0  0.00000000000E+00 -0.00000000000E+00 -0.56632157149E+02  0.56632157149E+02  0.00000000000E+00 0. -1.
         23    2    1    2    0    0  0.21043558819E+02  0.24941569747E+02  0.53102408000E+02  0.13967469738E+03  0.12499696830E+03 0.  0.
          5    1    3    3  502    0  0.93211842647E+01 -0.50851415868E+02  0.27074787766E+02  0.58548143476E+02  0.47000000000E+01 0. -1.
         -5    1    3    3    0  502  0.11722374554E+02  0.75792985615E+02  0.26027620233E+02  0.81126553906E+02  0.47000000000E+01 0. -1.
        -11    1    1    2    0    0 -0.43956289780E+01 -0.48484720362E+02  0.39046620383E+02  0.62407757739E+02  0.00000000000E+00 0.  1.
         11    1    1    2    0    0 -0.16647929841E+02  0.23543150615E+02  0.12314115714E+03  0.12647204470E+03  0.00000000000E+00 0. -1.
<mgrwt>
<rscale>  0 0.12019445E+03</rscale>
<asrwt>0</asrwt>
<pdfrwt beam="2">  1        1 0.87126397E-02 0.12918651E+03</pdfrwt>
<pdfrwt beam="1">  1       -1 0.41834206E-01 0.12918651E+03</pdfrwt>
<totfact> 0.42062053E+03</totfact>
</mgrwt>
</event>
<event>
 6    1  0.6008063E-006  0.1702940E+03  0.7546771E-02  0.1201581E+00
          2   -1    0    0  501    0  0.00000000000E+00  0.00000000000E+00  0.25233035034E+03  0.25233035034E+03  0.00000000000E+00 0. -1.
         -2   -1    0    0    0  501 -0.00000000000E+00 -0.00000000000E+00 -0.73384218413E+02  0.73384218413E+02  0.00000000000E+00 0.  1.
          5    1    1    2  502    0 -0.11331005146E+02 -0.87806829541E+02  0.10547912785E+03  0.13779102802E+03  0.47000000000E+01 0. -1.
         -5    1    1    2    0  502  0.26854321616E+02  0.67211698777E+02  0.24911580411E+02  0.76689268353E+02  0.47000000000E+01 0.  1.
        -11    1    1    2    0    0  0.79914184436E+01  0.36184233665E+02 -0.16319234701E+02  0.40490479818E+02  0.00000000000E+00 0.  1.
         11    1    1    2    0    0 -0.23514734914E+02 -0.15589102901E+02  0.64874658372E+02  0.70743792563E+02  0.00000000000E+00 0. -1.
<mgrwt>
<rscale>  0 0.14910195E+03</rscale>
<asrwt>0</asrwt>
<pdfrwt beam="1">  1        2 0.38820053E-01 0.17029404E+03</pdfrwt>
<pdfrwt beam="2">  1       -2 0.11289880E-01 0.17029404E+03</pdfrwt>
<totfact> 0.69583180E+03</totfact>
</mgrwt>
</event>
<event>
 7    1  0.6008063E-006  0.1879064E+03  0.7546771E-02  0.1165380E+00
          2   -1    0    0  501    0  0.00000000000E+00  0.00000000000E+00  0.88788528617E+03  0.88788528617E+03  0.00000000000E+00 0. -1.
         -2   -1    0    0    0  501 -0.00000000000E+00 -0.00000000000E+00 -0.40931728387E+02  0.40931728387E+02  0.00000000000E+00 0.  1.
         23    2    1    2    0    0 -0.72535049110E+02 -0.12009234617E+03  0.61334448198E+03  0.64148285508E+03  0.12500117932E+03 0.  0.
          5    1    3    3  502    0  0.73128114087E+01  0.13895633733E+02  0.18277332264E+03  0.18350679366E+03  0.47000000000E+01 0.  1.
         -5    1    3    3    0  502 -0.79847860518E+02 -0.13398797990E+03  0.43057115934E+03  0.45797606143E+03  0.47000000000E+01 0.  1.
        -11    1    1    2    0    0  0.35546526602E+02  0.11455977150E+03  0.12856520964E+03  0.17583091290E+03  0.00000000000E+00 0.  1.
         11    1    1    2    0    0  0.36988522508E+02  0.55325746652E+01  0.10504386615E+03  0.11150324657E+03  0.00000000000E+00 0. -1.
<mgrwt>
<rscale>  0 0.18252697E+03</rscale>
<asrwt>0</asrwt>
<pdfrwt beam="1">  1        2 0.13659772E+00 0.18790636E+03</pdfrwt>
<pdfrwt beam="2">  1       -2 0.62971896E-02 0.18790636E+03</pdfrwt>
<totfact> 0.41962202E+03</totfact>
</mgrwt>
</event>
<event>
 7    1  0.6008063E-006  0.1616816E+03  0.7546771E-02  0.1192382E+00
          2   -1    0    0  501    0  0.00000000000E+00  0.00000000000E+00  0.26014214633E+03  0.26014214633E+03  0.00000000000E+00 0. -1.
         -2   -1    0    0    0  501 -0.00000000000E+00 -0.00000000000E+00 -0.95940713934E+02  0.95940713934E+02  0.00000000000E+00 0.  1.
         23    2    1    2    0    0 -0.28522798405E+02  0.98499852603E+02  0.13397858586E+03  0.20997901129E+03  0.12500061088E+03 0.  0.
          5    1    3    3  502    0 -0.35029760079E+02  0.37789482159E+02 -0.10733008893E+02  0.52843320608E+02  0.47000000000E+01 0.  1.
         -5    1    3    3    0  502  0.65069616741E+01  0.60710370445E+02  0.14471159476E+03  0.15713569068E+03  0.47000000000E+01 0.  1.
        -11    1    1    2    0    0  0.50538948266E+02 -0.36630078917E+02 -0.17616820277E+02  0.64855996870E+02  0.00000000000E+00 0.  1.
         11    1    1    2    0    0 -0.22016149861E+02 -0.61869773687E+02  0.47839666808E+02  0.81247852101E+02  0.00000000000E+00 0. -1.
<mgrwt>
<rscale>  0 0.15677855E+03</rscale>
<asrwt>0</asrwt>
<pdfrwt beam="1">  1        2 0.40021868E-01 0.16168155E+03</pdfrwt>
<pdfrwt beam="2">  1       -2 0.14760110E-01 0.16168155E+03</pdfrwt>
<totfact> 0.43545165E+03</totfact>
</mgrwt>
</event>
<event>
 7    1  0.6008063E-006  0.1396764E+03  0.7546771E-02  0.1224535E+00
         -1   -1    0    0    0  501 -0.00000000000E+00  0.00000000000E+00  0.47314791818E+02  0.47314791818E+02  0.00000000000E+00 0.  1.
          1   -1    0    0  501    0  0.00000000000E+00 -0.00000000000E+00 -0.33425104048E+03  0.33425104048E+03  0.00000000000E+00 0. -1.
         23    2    1    2    0    0  0.50191117021E+02  0.36940292776E+02 -0.17114414394E+03  0.22090683057E+03  0.12500310528E+03 0.  0.
          5    1    3    3  502    0  0.34220287167E+01  0.32384337526E+02 -0.17053293495E+03  0.17367794190E+03  0.47000000000E+01 0. -1.
         -5    1    3    3    0  502  0.46769088304E+02  0.45559552500E+01 -0.61120898848E+00  0.47228888675E+02  0.47000000000E+01 0. -1.
        -11    1    1    2    0    0 -0.41319109290E+02  0.40919269615E+01 -0.11087135396E+03  0.11839117276E+03  0.00000000000E+00 0. -1.
         11    1    1    2    0    0 -0.88720077309E+01 -0.41032219737E+02 -0.49207507637E+01  0.42267828970E+02  0.00000000000E+00 0.  1.
<mgrwt>
<rscale>  0 0.13198830E+03</rscale>
<asrwt>0</asrwt>
<pdfrwt beam="2">  1        1 0.51423237E-01 0.13967645E+03</pdfrwt>
<pdfrwt beam="1">  1       -1 0.72791988E-02 0.13967645E+03</pdfrwt>
<totfact> 0.72525351E+03</totfact>
</mgrwt>
</event>
<event>
 7    1  0.6008063E-006  0.2315219E+03  0.7546771E-02  0.1127964E+00
         -1   -1    0    0    0  501 -0.00000000000E+00  0.00000000000E+00  0.38199972500E+03  0.38199972500E+03  0.00000000000E+00 0.  1.
          1   -1    0    0  501    0  0.00000000000E+00 -0.00000000000E+00 -0.27349319573E+03  0.27349319573E+03  0.00000000000E+00 0. -1.
         23    2    1    2    0    0  0.77892462741E+02  0.17863305568E+03 -0.18033658932E+03  0.29346834620E+03  0.12500152177E+03 0.  0.
          5    1    3    3  502    0  0.87559852991E+02  0.18442693637E+03 -0.18919477553E+03  0.27838242725E+03  0.47000000000E+01 0. -1.
         -5    1    3    3    0  502 -0.96673902504E+01 -0.57938806877E+01  0.88581862136E+01  0.15085918954E+02  0.47000000000E+01 0. -1.
        -11    1    1    2    0    0 -0.26814379958E+02 -0.91352057684E+02  0.61874648764E+02  0.11354594478E+03  0.00000000000E+00 0. -1.
         11    1    1    2    0    0 -0.51078082783E+02 -0.87280997993E+02  0.22696846982E+03  0.24847862975E+03  0.00000000000E+00 0.  1.
<mgrwt>
<rscale>  0 0.22812914E+03</rscale>
<asrwt>0</asrwt>
<pdfrwt beam="2">  1        1 0.42075876E-01 0.23152189E+03</pdfrwt>
<pdfrwt beam="1">  1       -1 0.58769188E-01 0.23152189E+03</pdfrwt>
<totfact> 0.30093600E+02</totfact>
</mgrwt>
</event>
<event>
 6    1  0.6008063E-006  0.3912882E+03  0.7546771E-02  0.1046839E+00
         -2   -1    0    0    0  501 -0.00000000000E+00  0.00000000000E+00  0.34268929363E+02  0.34268929363E+02  0.00000000000E+00 0.  1.
          2   -1    0    0  501    0  0.00000000000E+00 -0.00000000000E+00 -0.11169480937E+04  0.11169480937E+04  0.00000000000E+00 0. -1.
          5    1    1    2  502    0 -0.17714025677E+03 -0.45844489910E+02 -0.54708369990E+03  0.57689084975E+03  0.47000000000E+01 0. -1.
         -5    1    1    2    0  502  0.24969912603E+02  0.71827122372E+00 -0.67830712498E+02  0.72436924334E+02  0.47000000000E+01 0.  1.
        -11    1    1    2    0    0  0.12389493540E+03  0.76004970251E+00 -0.37863615079E+03  0.39839160054E+03  0.00000000000E+00 0.  1.
         11    1    1    2    0    0  0.28275408766E+02  0.44366168984E+02 -0.89128601151E+02  0.10349764845E+03  0.00000000000E+00 0. -1.
<mgrwt>
<rscale>  0 0.39128821E+03</rscale>
<asrwt>0</asrwt>
<pdfrwt beam="2">  1        2 0.17183816E+00 0.39128821E+03</pdfrwt>
<pdfrwt beam="1">  1       -2 0.52721433E-02 0.39128821E+03</pdfrwt>
<totfact> 0.40466266E+03</totfact>
</mgrwt>
</event>
<event>
 7    1  0.6008063E-006  0.1470924E+03  0.7546771E-02  0.1213601E+00
         -2   -1    0    0    0  501 -0.00000000000E+00  0.00000000000E+00  0.92754893999E+02  0.92754893999E+02  0.00000000000E+00 0.  1.
          2   -1    0    0  501    0  0.00000000000E+00 -0.00000000000E+00 -0.19236389470E+03  0.19236389470E+03  0.00000000000E+00 0. -1.
         23    2    1    2    0    0  0.36784997726E+02 -0.68242418969E+02 -0.57470123240E+02  0.15792083387E+03  0.12500404354E+03 0.  0.
          5    1    3    3  502    0 -0.37736089798E+02 -0.57084623646E+02 -0.43269440865E+02  0.81098712954E+02  0.47000000000E+01 0.  1.
         -5    1    3    3    0  502  0.74521087525E+02 -0.11157795323E+02 -0.14200682375E+02  0.76822120918E+02  0.47000000000E+01 0.  1.
        -11    1    1    2    0    0 -0.10482533174E+02  0.36478047646E+02  0.27080041995E+02  0.46624673042E+02  0.00000000000E+00 0.  1.
         11    1    1    2    0    0 -0.26302464553E+02  0.31764371322E+02 -0.69218919458E+02  0.80573281787E+02  0.00000000000E+00 0. -1.
<mgrwt>
<rscale>  0 0.13979824E+03</rscale>
<asrwt>0</asrwt>
<pdfrwt beam="2">  1        2 0.29594445E-01 0.14709240E+03</pdfrwt>
<pdfrwt beam="1">  1       -2 0.14269984E-01 0.14709240E+03</pdfrwt>
<totfact> 0.63335858E+03</totfact>
</mgrwt>
</event>
<event>
 7    1  0.6008063E-006  0.1274564E+03  0.7546771E-02  0.1245754E+00
         -1   -1    0    0    0  501 -0.00000000000E+00  0.00000000000E+00  0.12851973314E+03  0.12851973314E+03  0.00000000000E+00 0.  1.
          1   -1    0    0  501    0  0.00000000000E+00 -0.00000000000E+00 -0.13504601236E+03  0.13504601236E+03  0.00000000000E+00 0. -1.
         23    2    1    2    0    0 -0.21515298190E+02 -0.12573754412E+02 -0.73743417216E+02  0.14725221807E+03  0.12499646710E+03 0.  0.
          5    1    3    3  502    0 -0.17424031274E+02 -0.52866713715E+02 -0.87851896329E+02  0.10410827044E+03  0.47000000000E+01 0. -1.
         -5    1    3    3    0  502 -0.40912669162E+01  0.40292959303E+02  0.14108479113E+02  0.43143947632E+02  0.47000000000E+01 0. -1.
        -11    1    1    2    0    0  0.40307988095E+02 -0.14320179105E+02  0.71405597499E+02  0.83237976838E+02  0.00000000000E+00 0.  1.
         11    1    1    2    0    0 -0.18792689905E+02  0.26893933517E+02 -0.41884594992E+01  0.33075550590E+02  0.00000000000E+00 0. -1.
<mgrwt>
<rscale>  0 0.11840387E+03</rscale>
<asrwt>0</asrwt>
<pdfrwt beam="2">  1        1 0.20776310E-01 0.12745636E+03</pdfrwt>
<pdfrwt beam="1">  1       -1 0.19772267E-01 0.12745636E+03</pdfrwt>
<totfact> 0.47550740E+03</totfact>
</mgrwt>
</event>
<event>
 7    1  0.6008063E-006  0.1489784E+03  0.7546771E-02  0.1211953E+00
         -1   -1    0    0    0  501 -0.00000000000E+00  0.00000000000E+00  0.73297989257E+02  0.73297989257E+02  0.00000000000E+00 0.  1.
          1   -1    0    0  501    0  0.00000000000E+00 -0.00000000000E+00 -0.31555353284E+03  0.31555353284E+03  0.00000000000E+00 0. -1.
         23    2    1    2    0    0  0.78170195748E+02 -0.21004829517E+02 -0.22224510321E+03  0.26755829898E+03  0.12507108012E+03 0.  0.
          5    1    3    3  502    0  0.42549316275E+02  0.45337807278E+02 -0.51446511510E+02  0.80838076615E+02  0.47000000000E+01 0.  1.
         -5    1    3    3    0  502  0.35620879474E+02 -0.66342636795E+02 -0.17079859170E+03  0.18672022236E+03  0.47000000000E+01 0.  1.
        -11    1    1    2    0    0 -0.42278241594E+02 -0.14287297251E+02  0.27215547235E+02  0.52271049218E+02  0.00000000000E+00 0.  1.
         11    1    1    2    0    0 -0.35891954154E+02  0.35292126768E+02 -0.47225987604E+02  0.69022173901E+02  0.00000000000E+00 0. -1.
<mgrwt>
<rscale>  0 0.14102742E+03</rscale>
<asrwt>0</asrwt>
<pdfrwt beam="2">  1        1 0.48546698E-01 0.14897838E+03</pdfrwt>
<pdfrwt beam="1">  1       -1 0.11276614E-01 0.14897838E+03</pdfrwt>
<totfact> 0.40187717E+03</totfact>
</mgrwt>
</event>
<event>
 7    1  0.6008063E-006  0.1339251E+03  0.7546771E-02  0.1233918E+00
         -1   -1    0    0    0  501 -0.00000000000E+00  0.00000000000E+00  0.34335550457E+02  0.34335550457E+02  0.00000000000E+00 0.  1.
          1   -1    0    0  501    0  0.00000000000E+00 -0.00000000000E+00 -0.47270337151E+03  0.47270337151E+03  0.00000000000E+00 0. -1.
         23    2    1    2    0    0  0.15441645130E+02  0.45531604802E+02 -0.33310586496E+03  0.35902013569E+03  0.12499747647E+03 0.  0.
          5    1    3    3  502    0  0.51510839812E+02  0.70754029695E+02 -0.19032614130E+03  0.20953670179E+03  0.47000000000E+01 0. -1.
         -5    1    3    3    0  502 -0.36069194682E+02 -0.25222424893E+02 -0.14277972366E+03  0.14948343390E+03  0.47000000000E+01 0. -1.
        -11    1    1    2    0    0 -0.17880498308E+02 -0.18449721330E+02 -0.11597962380E+03  0.11879131944E+03  0.00000000000E+00 0. -1.
         11    1    1    2    0    0  0.24388531787E+01 -0.27081883472E+02  0.10717667698E+02  0.29227466844E+02  0.00000000000E+00 0.  1.
<mgrwt>
<rscale>  0 0.12573973E+03</rscale>
<asrwt>0</asrwt>
<pdfrwt beam="2">  1        1 0.72723600E-01 0.13392513E+03</pdfrwt>
<pdfrwt beam="1">  1       -1 0.52823920E-02 0.13392513E+03</pdfrwt>
<totfact> 0.75338738E+03</totfact>
</mgrwt>
</event>
<event>
 7    1  0.6008063E-006  0.1761021E+03  0.7546771E-02  0.1177268E+00
          2   -1    0    0  501    0  0.00000000000E+00  0.00000000000E+00  0.82295765179E+02  0.82295765179E+02  0.00000000000E+00 0. -1.
         -2   -1    0    0    0  501 -0.00000000000E+00 -0.00000000000E+00 -0.38309109850E+03  0.38309109850E+03  0.00000000000E+00 0.  1.
         23    2    1    2    0    0  0.50571077938E+02 -0.11328334792E+03 -0.74697276117E+02  0.19128941640E+03  0.12498562689E+03 0.  0.
          5    1    3    3  502    0  0.39519052805E+01 -0.67584168627E+02  0.24751247355E+02  0.72235390565E+02  0.47000000000E+01 0.  1.
         -5    1    3    3    0  502  0.46619172658E+02 -0.45699179293E+02 -0.99448523473E+02  0.11905402584E+03  0.47000000000E+01 0.  1.
        -11    1    1    2    0    0  0.27002682139E+02  0.36549674985E+02 -0.57823811850E+02  0.73543298818E+02  0.00000000000E+00 0. -1.
         11    1    1    2    0    0 -0.77573760077E+02  0.76733672936E+02 -0.16827424536E+03  0.20055414846E+03  0.00000000000E+00 0.  1.
<mgrwt>
<rscale>  0 0.17055733E+03</rscale>
<asrwt>0</asrwt>
<pdfrwt beam="1">  1        2 0.12660887E-01 0.17610212E+03</pdfrwt>
<pdfrwt beam="2">  1       -2 0.58937091E-01 0.17610212E+03</pdfrwt>
<totfact> 0.12930409E+03</totfact>
</mgrwt>
</event>
<event>
 7    1  0.6008063E-006  0.1485007E+03  0.7546771E-02  0.1211249E+00
          2   -1    0    0  501    0  0.00000000000E+00  0.00000000000E+00  0.27457287979E+03  0.27457287979E+03  0.00000000000E+00 0. -1.
         -2   -1    0    0    0  501 -0.00000000000E+00 -0.00000000000E+00 -0.88634030001E+02  0.88634030001E+02  0.00000000000E+00 0.  1.
         23    2    1    2    0    0  0.27102007925E+02 -0.75587117334E+02  0.18923921899E+03  0.24054926555E+03  0.12491811723E+03 0.  0.
          5    1    3    3  502    0 -0.40151363244E+02 -0.64941166534E+02  0.72913601412E+02  0.10567861823E+03  0.47000000000E+01 0. -1.
         -5    1    3    3    0  502  0.67253371169E+02 -0.10645950801E+02  0.11632561758E+03  0.13487064731E+03  0.47000000000E+01 0. -1.
        -11    1    1    2    0    0 -0.11064035472E+02  0.23714663343E+02 -0.46443524971E+02  0.53308527931E+02  0.00000000000E+00 0.  1.
         11    1    1    2    0    0 -0.16037972453E+02  0.51872453991E+02  0.43143155772E+02  0.69349116314E+02  0.00000000000E+00 0. -1.
<mgrwt>
<rscale>  0 0.14155681E+03</rscale>
<asrwt>0</asrwt>
<pdfrwt beam="1">  1        2 0.42241981E-01 0.14850073E+03</pdfrwt>
<pdfrwt beam="2">  1       -2 0.13636005E-01 0.14850073E+03</pdfrwt>
<totfact> 0.46559592E+03</totfact>
</mgrwt>
</event>
<event>
 7    1  0.6008063E-006  0.1927258E+03  0.7546771E-02  0.1161423E+00
         -2   -1    0    0    0  501 -0.00000000000E+00  0.00000000000E+00  0.12073198526E+02  0.12073198526E+02  0.00000000000E+00 0.  1.
          2   -1    0    0  501    0  0.00000000000E+00 -0.00000000000E+00 -0.38144825154E+04  0.38144825154E+04  0.00000000000E+00 0. -1.
         23    2    1    2    0    0 -0.13378974466E+03 -0.60164571802E+02 -0.30084432223E+04  0.30146100644E+04  0.12499498859E+03 0.  0.
          5    1    3    3  502    0 -0.82987010129E+02  0.22506062022E+02 -0.18881598982E+04  0.18901225510E+04  0.47000000000E+01 0. -1.
         -5    1    3    3    0  502 -0.50802734535E+02 -0.82670633824E+02 -0.11202833241E+04  0.11244875134E+04  0.47000000000E+01 0. -1.
        -11    1    1    2    0    0  0.50287200822E+02 -0.16521655457E+02 -0.18090847409E+03  0.18849308652E+03  0.00000000000E+00 0.  1.
         11    1    1    2    0    0  0.83502543842E+02  0.76686227259E+02 -0.61305762049E+03  0.62345256301E+03  0.00000000000E+00 0. -1.
<mgrwt>
<rscale>  0 0.18675292E+03</rscale>
<asrwt>0</asrwt>
<pdfrwt beam="2">  1        2 0.58684317E+00 0.19272576E+03</pdfrwt>
<pdfrwt beam="1">  1       -2 0.18574161E-02 0.19272576E+03</pdfrwt>
<totfact> 0.54378352E+02</totfact>
</mgrwt>
</event>
<event>
 7    1  0.6008063E-006  0.1489513E+03  0.7546771E-02  0.1210771E+00
          1   -1    0    0  501    0  0.00000000000E+00  0.00000000000E+00  0.36018191260E+02  0.36018191260E+02  0.00000000000E+00 0. -1.
         -1   -1    0    0    0  501 -0.00000000000E+00 -0.00000000000E+00 -0.51632393818E+03  0.51632393818E+03  0.00000000000E+00 0.  1.
         23    2    1    2    0    0  0.65656150038E+02  0.47421088409E+02 -0.23914613997E+03  0.28173991219E+03  0.12500804852E+03 0.  0.
          5    1    3    3  502    0  0.58132803520E+02  0.71180144220E+02 -0.23929431044E+03  0.25637841716E+03  0.47000000000E+01 0. -1.
         -5    1    3    3    0  502  0.75233465174E+01 -0.23759055811E+02  0.14817046683E+00  0.25361495034E+02  0.47000000000E+01 0. -1.
        -11    1    1    2    0    0  0.48630537664E+01 -0.33050467286E+02 -0.15394362774E+03  0.15752657935E+03  0.00000000000E+00 0. -1.
         11    1    1    2    0    0 -0.70519203804E+02 -0.14370621123E+02 -0.87215979201E+02  0.11307563789E+03  0.00000000000E+00 0.  1.
<mgrwt>
<rscale>  0 0.14191844E+03</rscale>
<asrwt>0</asrwt>
<pdfrwt beam="1">  1        1 0.55412603E-02 0.14895134E+03</pdfrwt>
<pdfrwt beam="2">  1       -1 0.79434450E-01 0.14895134E+03</pdfrwt>
<totfact> 0.23241354E+03</totfact>
</mgrwt>
</event>
<event>
 7    1  0.6008063E-006  0.1165853E+03  0.7546771E-02  0.1261316E+00
          2   -1    0    0  501    0  0.00000000000E+00  0.00000000000E+00  0.79628514462E+03  0.79628514462E+03  0.00000000000E+00 0. -1.
         -2   -1    0    0    0  501 -0.00000000000E+00 -0.00000000000E+00 -0.16379659381E+02  0.16379659381E+02  0.00000000000E+00 0.  1.
         23    2    1    2    0    0  0.40403103111E+01  0.11030657323E+02  0.59783731046E+03  0.60909898268E+03  0.11599190234E+03 0.  0.
          5    1    3    3  502    0  0.43104389065E+02  0.17731854461E+02  0.51522699184E+03  0.51735224957E+03  0.47000000000E+01 0. -1.
         -5    1    3    3    0  502 -0.39064078754E+02 -0.67011971387E+01  0.82610318624E+02  0.91746733103E+02  0.47000000000E+01 0.  1.
        -11    1    1    2    0    0  0.66095908270E+01  0.30056958003E+02  0.21650630992E+02  0.37627878464E+02  0.00000000000E+00 0. -1.
         11    1    1    2    0    0 -0.10649901138E+02 -0.41087615326E+02  0.16041754378E+03  0.16593794286E+03  0.00000000000E+00 0.  1.
<mgrwt>
<rscale>  0 0.10959822E+03</rscale>
<asrwt>0</asrwt>
<pdfrwt beam="1">  1        2 0.12250538E+00 0.11658525E+03</pdfrwt>
<pdfrwt beam="2">  1       -2 0.25199482E-02 0.11658525E+03</pdfrwt>
<totfact> 0.18394335E+04</totfact>
</mgrwt>
</event>
<event>
 7    1  0.6008063E-006  0.1958850E+03  0.7546771E-02  0.1157727E+00
          2   -1    0    0  501    0  0.00000000000E+00  0.00000000000E+00  0.12968841116E+03  0.12968841116E+03  0.00000000000E+00 0. -1.
         -2   -1    0    0    0  501 -0.00000000000E+00 -0.00000000000E+00 -0.32761994842E+03  0.32761994842E+03  0.00000000000E+00 0.  1.
         23    2    1    2    0    0  0.13563268342E+03  0.65958201457E+02 -0.50668093632E+01  0.19595053822E+03  0.12499692685E+03 0.  0.
          5    1    3    3  502    0  0.13686630783E+03  0.83997888190E+02 -0.31368234245E+02  0.16368899645E+03  0.47000000000E+01 0.  1.
         -5    1    3    3    0  502 -0.12336244128E+01 -0.18039686733E+02  0.26301424881E+02  0.32261541771E+02  0.47000000000E+01 0.  1.
        -11    1    1    2    0    0 -0.14850418903E+02 -0.20021504007E+02  0.46196774574E+01  0.25352257969E+02  0.00000000000E+00 0.  1.
         11    1    1    2    0    0 -0.12078226451E+03 -0.45936697450E+02 -0.19748440535E+03  0.23600556339E+03  0.00000000000E+00 0. -1.
<mgrwt>
<rscale>  0 0.19081625E+03</rscale>
<asrwt>0</asrwt>
<pdfrwt beam="1">  1        2 0.19952063E-01 0.19588502E+03</pdfrwt>
<pdfrwt beam="2">  1       -2 0.50403070E-01 0.19588502E+03</pdfrwt>
<totfact> 0.10445213E+03</totfact>
</mgrwt>
</event>
<event>
 7    1  0.6008063E-006  0.2071808E+03  0.7546771E-02  0.1147926E+00
          2   -1    0    0  501    0  0.00000000000E+00  0.00000000000E+00  0.18129065417E+03  0.18129065417E+03  0.00000000000E+00 0. -1.
         -2   -1    0    0    0  501 -0.00000000000E+00 -0.00000000000E+00 -0.39458154224E+03  0.39458154224E+03  0.00000000000E+00 0.  1.
         23    2    1    2    0    0  0.61565031231E+02 -0.15332519727E+03  0.84534574277E+02  0.22376321328E+03  0.12500004872E+03 0.  0.
          5    1    3    3  502    0 -0.31846975753E+02 -0.64269107680E+02  0.49209293920E+01  0.72048966770E+02  0.47000000000E+01 0. -1.
         -5    1    3    3    0  502  0.93412006984E+02 -0.89056089592E+02  0.79613644885E+02  0.15171424651E+03  0.47000000000E+01 0. -1.
        -11    1    1    2    0    0 -0.60393142472E+02  0.13707751061E+03 -0.30034458823E+03  0.33562545680E+03  0.00000000000E+00 0.  1.
         11    1    1    2    0    0 -0.11718887584E+01  0.16247686666E+02  0.25191258760E+01  0.16483526335E+02  0.00000000000E+00 0. -1.
<mgrwt>
<rscale>  0 0.20216423E+03</rscale>
<asrwt>0</asrwt>
<pdfrwt beam="1">  1        2 0.27890870E-01 0.20718079E+03</pdfrwt>
<pdfrwt beam="2">  1       -2 0.60704853E-01 0.20718079E+03</pdfrwt>
<totfact> 0.49167865E+02</totfact>
</mgrwt>
</event>
<event>
 7    1  0.6008063E-006  0.1509618E+03  0.7546771E-02  0.1208155E+00
          1   -1    0    0  501    0  0.00000000000E+00  0.00000000000E+00  0.20228201397E+04  0.20228201397E+04  0.00000000000E+00 0. -1.
         -1   -1    0    0    0  501 -0.00000000000E+00 -0.00000000000E+00 -0.10762249354E+02  0.10762249354E+02  0.00000000000E+00 0.  1.
         23    2    1    2    0    0  0.26686348428E+02  0.80326295425E+02  0.14512141215E+04  0.14590448512E+04  0.12499990641E+03 0.  0.
          5    1    3    3  502    0  0.67095491932E+02  0.45908259983E+02  0.11697287728E+04  0.11725599623E+04  0.47000000000E+01 0. -1.
         -5    1    3    3    0  502 -0.40409143504E+02  0.34418035442E+02  0.28148534870E+03  0.28648488891E+03  0.47000000000E+01 0. -1.
        -11    1    1    2    0    0  0.29968166283E+02 -0.52191478206E+02  0.31415906887E+03  0.31987178985E+03  0.00000000000E+00 0.  1.
         11    1    1    2    0    0 -0.56654514712E+02 -0.28134817219E+02  0.24668470000E+03  0.25466574798E+03  0.00000000000E+00 0. -1.
<mgrwt>
<rscale>  0 0.14391574E+03</rscale>
<asrwt>0</asrwt>
<pdfrwt beam="1">  1        1 0.31120280E+00 0.15096176E+03</pdfrwt>
<pdfrwt beam="2">  1       -1 0.16557323E-02 0.15096176E+03</pdfrwt>
<totfact> 0.29406160E+03</totfact>
</mgrwt>
</event>
<event>
 7    1  0.6008063E-006  0.1301308E+03  0.7546771E-02  0.1240387E+00
          1   -1    0    0  501    0  0.00000000000E+00  0.00000000000E+00  0.19204928127E+02  0.19204928127E+02  0.00000000000E+00 0. -1.
         -1   -1    0    0    0  501 -0.00000000000E+00 -0.00000000000E+00 -0.68666176584E+03  0.68666176584E+03  0.00000000000E+00 0.  1.
         23    2    1    2    0    0 -0.29308829571E+02 -0.21421086512E+02 -0.39027655303E+03  0.41139981333E+03  0.12496458750E+03 0.  0.
          5    1    3    3  502    0 -0.21638211159E+02  0.26741982251E+02 -0.24832631584E+02  0.42686009280E+02  0.47000000000E+01 0.  1.
         -5    1    3    3    0  502 -0.76706184121E+01 -0.48163068763E+02 -0.36544392144E+03  0.36871380405E+03  0.47000000000E+01 0.  1.
        -11    1    1    2    0    0  0.40184367295E+02  0.30846023745E+02 -0.27533662159E+03  0.27995806069E+03  0.00000000000E+00 0.  1.
         11    1    1    2    0    0 -0.10875537724E+02 -0.94249372334E+01 -0.18436630975E+01  0.14508819947E+02  0.00000000000E+00 0. -1.
<mgrwt>
<rscale>  0 0.12165773E+03</rscale>
<asrwt>0</asrwt>
<pdfrwt beam="1">  1        1 0.29546043E-02 0.13013077E+03</pdfrwt>
<pdfrwt beam="2">  1       -1 0.10564027E+00 0.13013077E+03</pdfrwt>
<totfact> 0.29796041E+03</totfact>
</mgrwt>
</event>
<event>
 7    1  0.6008063E-006  0.1346034E+03  0.7546771E-02  0.1235695E+00
         -2   -1    0    0    0  501 -0.00000000000E+00  0.00000000000E+00  0.10789816462E+02  0.10789816462E+02  0.00000000000E+00 0.  1.
          2   -1    0    0  501    0  0.00000000000E+00 -0.00000000000E+00 -0.14390312159E+04  0.14390312159E+04  0.00000000000E+00 0. -1.
         23    2    1    2    0    0 -0.17593372246E+02  0.46628366382E+02 -0.10613174286E+04  0.10698190277E+04  0.12503734035E+03 0.  0.
          5    1    3    3  502    0 -0.52151368002E+01  0.44616555350E+02 -0.10531803196E+04  0.10541483340E+04  0.47000000000E+01 0.  1.
         -5    1    3    3    0  502 -0.12378235446E+02  0.20118110320E+01 -0.81371090594E+01  0.15670693674E+02  0.47000000000E+01 0.  1.
        -11    1    1    2    0    0 -0.55239845969E+01  0.10412668294E+02 -0.48695440704E+01  0.12753451544E+02  0.00000000000E+00 0.  1.
         11    1    1    2    0    0  0.23117356843E+02 -0.57041034677E+02 -0.36205442675E+03  0.36724855310E+03  0.00000000000E+00 0. -1.
<mgrwt>
<rscale>  0 0.12460041E+03</rscale>
<asrwt>0</asrwt>
<pdfrwt beam="2">  1        2 0.22138939E+00 0.13460337E+03</pdfrwt>
<pdfrwt beam="1">  1       -2 0.16599719E-02 0.13460337E+03</pdfrwt>
<totfact> 0.14484366E+04</totfact>
</mgrwt>
</event>
<event>
 7    1  0.6008063E-006  0.1517480E+03  0.7546771E-02  0.1207551E+00
          1   -1    0    0  501    0  0.00000000000E+00  0.00000000000E+00  0.97318849643E+02  0.97318849643E+02  0.00000000000E+00 0. -1.
         -1   -1    0    0    0  501 -0.00000000000E+00 -0.00000000000E+00 -0.22922332830E+03  0.22922332830E+03  0.00000000000E+00 0.  1.
         23    2    1    2    0    0 -0.70976651016E+02  0.48630345304E+02 -0.94980260973E+01  0.15204493782E+03  0.12499942058E+03 0.  0.
          5    1    3    3  502    0 -0.10121025633E+03  0.17472185027E+02  0.11744220658E+02  0.10348338009E+03  0.47000000000E+01 0.  1.
         -5    1    3    3    0  502  0.30233605316E+02  0.31158160276E+02 -0.21242246755E+02  0.48561557732E+02  0.47000000000E+01 0.  1.
        -11    1    1    2    0    0  0.13230010506E+02 -0.62104451475E+02 -0.77040469486E+02  0.99836015594E+02  0.00000000000E+00 0.  1.
         11    1    1    2    0    0  0.57746640510E+02  0.13474106171E+02 -0.45365983074E+02  0.74661224525E+02  0.00000000000E+00 0. -1.
<mgrwt>
<rscale>  0 0.14438240E+03</rscale>
<asrwt>0</asrwt>
<pdfrwt beam="1">  1        1 0.14972131E-01 0.15174798E+03</pdfrwt>
<pdfrwt beam="2">  1       -1 0.35265127E-01 0.15174798E+03</pdfrwt>
<totfact> 0.28014770E+03</totfact>
</mgrwt>
</event>
<event>
 7    1  0.6008063E-006  0.1773526E+03  0.7546771E-02  0.1176007E+00
         -2   -1    0    0    0  501 -0.00000000000E+00  0.00000000000E+00  0.72145611020E+02  0.72145611020E+02  0.00000000000E+00 0.  1.
          2   -1    0    0  501    0  0.00000000000E+00 -0.00000000000E+00 -0.40901591174E+03  0.40901591174E+03  0.00000000000E+00 0. -1.
         23    2    1    2    0    0 -0.12262675471E+03 -0.28131316978E+02 -0.23643155254E+03  0.29555680182E+03  0.12500100839E+03 0.  0.
          5    1    3    3  502    0 -0.14487212335E+03 -0.19241882891E+02 -0.16704356965E+03  0.22199960888E+03  0.47000000000E+01 0.  1.
         -5    1    3    3    0  502  0.22245368632E+02 -0.88894340873E+01 -0.69387982887E+02  0.73557192939E+02  0.47000000000E+01 0.  1.
        -11    1    1    2    0    0  0.12778912467E+03  0.15978262933E+02 -0.58152512795E+02  0.14130491858E+03  0.00000000000E+00 0.  1.
         11    1    1    2    0    0 -0.51623699586E+01  0.12153054045E+02 -0.42286235387E+02  0.44299802364E+02  0.00000000000E+00 0. -1.
<mgrwt>
<rscale>  0 0.17177717E+03</rscale>
<asrwt>0</asrwt>
<pdfrwt beam="2">  1        2 0.62925524E-01 0.17735260E+03</pdfrwt>
<pdfrwt beam="1">  1       -2 0.11099325E-01 0.17735260E+03</pdfrwt>
<totfact> 0.42714473E+03</totfact>
</mgrwt>
</event>
<event>
 7    1  0.6008063E-006  0.1398814E+03  0.7546771E-02  0.1225392E+00
         -1   -1    0    0    0  501 -0.00000000000E+00  0.00000000000E+00  0.13453522464E+02  0.13453522464E+02  0.00000000000E+00 0.  1.
          1   -1    0    0  501    0  0.00000000000E+00 -0.00000000000E+00 -0.11564933038E+04  0.11564933038E+04  0.00000000000E+00 0. -1.
         23    2    1    2    0    0  0.15826965064E+02  0.60752482444E+02 -0.68474082879E+03  0.69888254999E+03  0.12500183652E+03 0.  0.
          5    1    3    3  502    0 -0.31109622758E+02  0.79410577978E+02 -0.34727017441E+03  0.35762062659E+03  0.47000000000E+01 0.  1.
         -5    1    3    3    0  502  0.46936587822E+02 -0.18658095533E+02 -0.33747065437E+03  0.34126192341E+03  0.47000000000E+01 0.  1.
        -11    1    1    2    0    0  0.22038617654E+02 -0.57877398438E+02 -0.36690276425E+03  0.37209290819E+03  0.00000000000E+00 0. -1.
         11    1    1    2    0    0 -0.37865582718E+02 -0.28750840060E+01 -0.91396188338E+02  0.98971368109E+02  0.00000000000E+00 0.  1.
<mgrwt>
<rscale>  0 0.13140056E+03</rscale>
<asrwt>0</asrwt>
<pdfrwt beam="2">  1        1 0.17792203E+00 0.13988144E+03</pdfrwt>
<pdfrwt beam="1">  1       -1 0.20697729E-02 0.13988144E+03</pdfrwt>
<totfact> 0.77954049E+03</totfact>
</mgrwt>
</event>
<event>
 7    1  0.6008063E-006  0.1348367E+03  0.7546771E-02  0.1232916E+00
          1   -1    0    0  501    0  0.00000000000E+00  0.00000000000E+00  0.54187551838E+03  0.54187551838E+03  0.00000000000E+00 0. -1.
         -1   -1    0    0    0  501 -0.00000000000E+00 -0.00000000000E+00 -0.34647741024E+02  0.34647741024E+02  0.00000000000E+00 0.  1.
         23    2    1    2    0    0  0.36520965882E+02 -0.34955183549E+02  0.41871528709E+03  0.43989023909E+03  0.12500114001E+03 0.  0.
          5    1    3    3  502    0  0.68382024669E+01 -0.68004894860E+02  0.35809250780E+03  0.36458711014E+03  0.47000000000E+01 0.  1.
         -5    1    3    3    0  502  0.29682763415E+02  0.33049711311E+02  0.60622779293E+02  0.75303128958E+02  0.47000000000E+01 0.  1.
        -11    1    1    2    0    0 -0.17722579447E+02  0.95940883828E+01 -0.17083427479E+02  0.26419308254E+02  0.00000000000E+00 0.  1.
         11    1    1    2    0    0 -0.18798386435E+02  0.25361095166E+02  0.10559591774E+03  0.11021371205E+03  0.00000000000E+00 0. -1.
<mgrwt>
<rscale>  0 0.12638783E+03</rscale>
<asrwt>0</asrwt>
<pdfrwt beam="1">  1        1 0.83365458E-01 0.13483668E+03</pdfrwt>
<pdfrwt beam="2">  1       -1 0.53304221E-02 0.13483668E+03</pdfrwt>
<totfact> 0.62206440E+03</totfact>
</mgrwt>
</event>
<event>
 7    1  0.6008063E-006  0.1201520E+03  0.7546771E-02  0.1254302E+00
         -1   -1    0    0    0  501 -0.00000000000E+00  0.00000000000E+00  0.10120427930E+02  0.10120427930E+02  0.00000000000E+00 0.  1.
          1   -1    0    0  501    0  0.00000000000E+00 -0.00000000000E+00 -0.17892494869E+04  0.17892494869E+04  0.00000000000E+00 0. -1.
         23    2    1    2    0    0  0.28988545074E+01  0.21418018356E+02 -0.14907103635E+04  0.14955446784E+04  0.11819205728E+03 0.  0.
          5    1    3    3  502    0 -0.38139534808E+02  0.30108387708E+02 -0.28907740093E+03  0.29317055250E+03  0.47000000000E+01 0. -1.
         -5    1    3    3    0  502  0.41038389315E+02 -0.86903693515E+01 -0.12016329626E+04  0.12023741259E+04  0.47000000000E+01 0.  1.
        -11    1    1    2    0    0  0.18140926584E+02  0.28278143627E+02 -0.17532963956E+03  0.17851954833E+03  0.00000000000E+00 0. -1.
         11    1    1    2    0    0 -0.21039781092E+02 -0.49696161984E+02 -0.11308905594E+03  0.12530568813E+03  0.00000000000E+00 0.  1.
<mgrwt>
<rscale>  0 0.11345507E+03</rscale>
<asrwt>0</asrwt>
<pdfrwt beam="2">  1        1 0.27526910E+00 0.12015198E+03</pdfrwt>
<pdfrwt beam="1">  1       -1 0.15569892E-02 0.12015198E+03</pdfrwt>
<totfact> 0.45039356E+03</totfact>
</mgrwt>
</event>
<event>
 7    1  0.6008063E-006  0.1300511E+03  0.7546771E-02  0.1240957E+00
         -2   -1    0    0    0  501 -0.00000000000E+00  0.00000000000E+00  0.14019483221E+02  0.14019483221E+02  0.00000000000E+00 0. -1.
          2   -1    0    0  501    0  0.00000000000E+00 -0.00000000000E+00 -0.11037600607E+04  0.11037600607E+04  0.00000000000E+00 0.  1.
         23    2    1    2    0    0 -0.26433880491E+01 -0.35764713256E+02 -0.82774505347E+03  0.83789925218E+03  0.12500872393E+03 0.  0.
          5    1    3    3  502    0  0.20309301868E+02  0.23217708446E+02 -0.60861034685E+02  0.68393605481E+02  0.47000000000E+01 0.  1.
         -5    1    3    3    0  502 -0.22952689917E+02 -0.58982421702E+02 -0.76688401878E+03  0.76950564670E+03  0.47000000000E+01 0.  1.
        -11    1    1    2    0    0 -0.39839060279E+02  0.18534341347E+02 -0.18607266552E+03  0.19119024397E+03  0.00000000000E+00 0. -1.
         11    1    1    2    0    0  0.42482448328E+02  0.17230371908E+02 -0.75922858482E+02  0.88690047763E+02  0.00000000000E+00 0.  1.
<mgrwt>
<rscale>  0 0.12130630E+03</rscale>
<asrwt>0</asrwt>
<pdfrwt beam="2">  1        2 0.16980920E+00 0.13005108E+03</pdfrwt>
<pdfrwt beam="1">  1       -2 0.21568441E-02 0.13005108E+03</pdfrwt>
<totfact> 0.15053929E+04</totfact>
</mgrwt>
</event>
<event>
 7    1  0.6008063E-006  0.1437375E+03  0.7546771E-02  0.1218562E+00
         -1   -1    0    0    0  501 -0.00000000000E+00  0.00000000000E+00  0.61170906837E+02  0.61170906837E+02  0.00000000000E+00 0.  1.
          1   -1    0    0  501    0  0.00000000000E+00 -0.00000000000E+00 -0.30386848136E+03  0.30386848136E+03  0.00000000000E+00 0. -1.
         23    2    1    2    0    0 -0.29907349035E+02  0.64346346872E+02 -0.18882675595E+03  0.23730993129E+03  0.12500223137E+03 0.  0.
          5    1    3    3  502    0 -0.46618140889E+02  0.90022063092E+02 -0.96970759182E+02  0.14036609648E+03  0.47000000000E+01 0.  1.
         -5    1    3    3    0  502  0.16710791854E+02 -0.25675716221E+02 -0.91855996765E+02  0.96943834819E+02  0.47000000000E+01 0.  1.
        -11    1    1    2    0    0  0.53132252949E+02 -0.17254699388E+02 -0.51506202204E+01  0.56100711610E+02  0.00000000000E+00 0.  1.
         11    1    1    2    0    0 -0.23224903914E+02 -0.47091647484E+02 -0.48720198357E+02  0.71628745294E+02  0.00000000000E+00 0. -1.
<mgrwt>
<rscale>  0 0.13618122E+03</rscale>
<asrwt>0</asrwt>
<pdfrwt beam="2">  1        1 0.46748996E-01 0.14373747E+03</pdfrwt>
<pdfrwt beam="1">  1       -1 0.94109089E-02 0.14373747E+03</pdfrwt>
<totfact> 0.55453235E+03</totfact>
</mgrwt>
</event>
<event>
 7    1  0.6008063E-006  0.1349113E+03  0.7546771E-02  0.1233559E+00
         -1   -1    0    0    0  501 -0.00000000000E+00  0.00000000000E+00  0.35700113304E+02  0.35700113304E+02  0.00000000000E+00 0.  1.
          1   -1    0    0  501    0  0.00000000000E+00 -0.00000000000E+00 -0.46984527147E+03  0.46984527147E+03  0.00000000000E+00 0. -1.
         23    2    1    2    0    0  0.50338434442E+02 -0.64987316547E+01 -0.34211240850E+03  0.36775259500E+03  0.12499951835E+03 0.  0.
          5    1    3    3  502    0  0.23366852260E+02 -0.25494406475E+02 -0.33069015463E+03  0.33252675519E+03  0.47000000000E+01 0.  1.
         -5    1    3    3    0  502  0.26971582182E+02  0.18995674820E+02 -0.11422253866E+02  0.35225839814E+02  0.47000000000E+01 0.  1.
        -11    1    1    2    0    0 -0.40306331747E+02 -0.39323608765E+01 -0.10853445507E+03  0.11584382495E+03  0.00000000000E+00 0. -1.
         11    1    1    2    0    0 -0.10032102695E+02  0.10431092531E+02  0.16501705400E+02  0.21948964827E+02  0.00000000000E+00 0.  1.
<mgrwt>
<rscale>  0 0.12597140E+03</rscale>
<asrwt>0</asrwt>
<pdfrwt beam="2">  1        1 0.72283879E-01 0.13491135E+03</pdfrwt>
<pdfrwt beam="1">  1       -1 0.54923258E-02 0.13491135E+03</pdfrwt>
<totfact> 0.71698822E+03</totfact>
</mgrwt>
</event>
<event>
 7    1  0.6008063E-006  0.1731120E+03  0.7546771E-02  0.1178632E+00
          1   -1    0    0  501    0  0.00000000000E+00  0.00000000000E+00  0.23951824136E+03  0.23951824136E+03  0.00000000000E+00 0. -1.
         -1   -1    0    0    0  501 -0.00000000000E+00 -0.00000000000E+00 -0.19246473271E+03  0.19246473271E+03  0.00000000000E+00 0.  1.
         23    2    1    2    0    0  0.82260923773E+02  0.99556495944E+02  0.16149864802E+03  0.23674793497E+03  0.11527972908E+03 0.  0.
          5    1    3    3  502    0  0.10576569565E+03  0.54017047706E+02  0.13119187483E+03  0.17702435380E+03  0.47000000000E+01 0. -1.
         -5    1    3    3    0  502 -0.23504771872E+02  0.45539448238E+02  0.30306773192E+02  0.59723581171E+02  0.47000000000E+01 0.  1.
        -11    1    1    2    0    0  0.54438304708E+01  0.13064482483E+02 -0.38681776009E+01  0.14672381903E+02  0.00000000000E+00 0. -1.
         11    1    1    2    0    0 -0.87704754244E+02 -0.11262097843E+03 -0.11057696177E+03  0.18056265720E+03  0.00000000000E+00 0.  1.
<mgrwt>
<rscale>  0 0.16925021E+03</rscale>
<asrwt>0</asrwt>
<pdfrwt beam="1">  1        1 0.36848960E-01 0.17311202E+03</pdfrwt>
<pdfrwt beam="2">  1       -1 0.29609959E-01 0.17311202E+03</pdfrwt>
<totfact> 0.12098498E+03</totfact>
</mgrwt>
</event>
<event>
 7    1  0.6008063E-006  0.1411684E+03  0.7546771E-02  0.1222399E+00
          2   -1    0    0  501    0  0.00000000000E+00  0.00000000000E+00  0.59515740580E+03  0.59515740580E+03  0.00000000000E+00 0.  1.
         -2   -1    0    0    0  501 -0.00000000000E+00 -0.00000000000E+00 -0.27887130495E+02  0.27887130495E+02  0.00000000000E+00 0. -1.
         23    2    1    2    0    0 -0.51302410938E+02 -0.40870127904E+02  0.36668411988E+03  0.39291953672E+03  0.12500485528E+03 0.  0.
          5    1    3    3  502    0 -0.66979986047E+02 -0.74560535896E+02  0.22482645555E+03  0.24620035978E+03  0.47000000000E+01 0.  1.
         -5    1    3    3    0  502  0.15677575109E+02  0.33690407992E+02  0.14185766433E+03  0.14671917694E+03  0.47000000000E+01 0.  1.
        -11    1    1    2    0    0  0.66191630034E+02  0.32303680175E+01  0.85814172057E+02  0.10842434823E+03  0.00000000000E+00 0. -1.
         11    1    1    2    0    0 -0.14889219096E+02  0.37639759886E+02  0.11477198336E+03  0.12170065133E+03  0.00000000000E+00 0.  1.
<mgrwt>
<rscale>  0 0.13346752E+03</rscale>
<asrwt>0</asrwt>
<pdfrwt beam="1">  1        2 0.91562668E-01 0.14116840E+03</pdfrwt>
<pdfrwt beam="2">  1       -2 0.42903282E-02 0.14116840E+03</pdfrwt>
<totfact> 0.12018244E+04</totfact>
</mgrwt>
</event>
<event>
 7    1  0.6008063E-006  0.1373300E+03  0.7546771E-02  0.1227675E+00
         -2   -1    0    0    0  501 -0.00000000000E+00  0.00000000000E+00  0.12636397665E+02  0.12636397665E+02  0.00000000000E+00 0.  1.
          2   -1    0    0  501    0  0.00000000000E+00 -0.00000000000E+00 -0.13696508435E+04  0.13696508435E+04  0.00000000000E+00 0. -1.
         23    2    1    2    0    0 -0.54117918586E+01 -0.56608515209E+02 -0.98134951478E+03  0.99091190168E+03  0.12500286089E+03 0.  0.
          5    1    3    3  502    0 -0.39136890043E+02  0.24162777530E+02 -0.24131760343E+03  0.24570675959E+03  0.47000000000E+01 0. -1.
         -5    1    3    3    0  502  0.33725098184E+02 -0.80771292740E+02 -0.74003191135E+03  0.74520514209E+03  0.47000000000E+01 0. -1.
        -11    1    1    2    0    0 -0.24815028525E+02 -0.50283204430E+01 -0.31419763910E+02  0.40351842725E+02  0.00000000000E+00 0.  1.
         11    1    1    2    0    0  0.30226820384E+02  0.61636835652E+02 -0.34424516714E+03  0.35102349676E+03  0.00000000000E+00 0. -1.
<mgrwt>
<rscale>  0 0.12985233E+03</rscale>
<asrwt>0</asrwt>
<pdfrwt beam="2">  1        2 0.21071559E+00 0.13732999E+03</pdfrwt>
<pdfrwt beam="1">  1       -2 0.19440605E-02 0.13732999E+03</pdfrwt>
<totfact> 0.12550492E+04</totfact>
</mgrwt>
</event>
<event>
 7    1  0.6008063E-006  0.1821638E+03  0.7546771E-02  0.1171145E+00
         -2   -1    0    0    0  501 -0.00000000000E+00  0.00000000000E+00  0.42050559708E+03  0.42050559708E+03  0.00000000000E+00 0. -1.
          2   -1    0    0  501    0  0.00000000000E+00 -0.00000000000E+00 -0.70070163492E+02  0.70070163492E+02  0.00000000000E+00 0.  1.
         23    2    1    2    0    0  0.10555708943E+03 -0.80081596167E+02  0.19581505419E+03  0.26744565921E+03  0.12501313534E+03 0.  0.
          5    1    3    3  502    0 -0.17660568498E+02 -0.16866784588E+02 -0.30607258847E+01  0.25056778423E+02  0.47000000000E+01 0. -1.
         -5    1    3    3    0  502  0.12321765793E+03 -0.63214811579E+02  0.19887578007E+03  0.24238888079E+03  0.47000000000E+01 0. -1.
        -11    1    1    2    0    0 -0.11033662940E+03  0.35316577007E+02  0.11169557010E+03  0.16092648253E+03  0.00000000000E+00 0.  1.
         11    1    1    2    0    0  0.47795399709E+01  0.44765019160E+02  0.42924809296E+02  0.62203618832E+02  0.00000000000E+00 0. -1.
<mgrwt>
<rscale>  0 0.17659003E+03</rscale>
<asrwt>0</asrwt>
<pdfrwt beam="2">  1        2 0.10780025E-01 0.18216379E+03</pdfrwt>
<pdfrwt beam="1">  1       -2 0.64693167E-01 0.18216379E+03</pdfrwt>
<totfact> 0.12971442E+03</totfact>
</mgrwt>
</event>
<event>
 6    1  0.6008063E-006  0.1359907E+03  0.7546771E-02  0.1234424E+00
          1   -1    0    0  501    0  0.00000000000E+00  0.00000000000E+00  0.95318236657E+03  0.95318236657E+03  0.00000000000E+00 0. -1.
         -1   -1    0    0    0  501 -0.00000000000E+00 -0.00000000000E+00 -0.14688313408E+02  0.14688313408E+02  0.00000000000E+00 0.  1.
          5    1    1    2  502    0  0.50905105139E+01  0.25550145179E+02  0.44564388647E+03  0.44642948689E+03  0.47000000000E+01 0. -1.
         -5    1    1    2    0  502 -0.13423229904E+02 -0.68206045491E+02  0.16379405148E+03  0.17799671076E+03  0.47000000000E+01 0.  1.
        -11    1    1    2    0    0 -0.25948519855E+01 -0.23092144001E+02  0.35586098691E+02  0.42501185765E+02  0.00000000000E+00 0. -1.
         11    1    1    2    0    0  0.10927571375E+02  0.65748044313E+02  0.29347001652E+03  0.30094329656E+03  0.00000000000E+00 0.  1.
<mgrwt>
<rscale>  0 0.12541370E+03</rscale>
<asrwt>0</asrwt>
<pdfrwt beam="1">  1        1 0.14664339E+00 0.13599072E+03</pdfrwt>
<pdfrwt beam="2">  1       -1 0.22597413E-02 0.13599072E+03</pdfrwt>
<totfact> 0.95938008E+03</totfact>
</mgrwt>
</event>
<event>
 7    1  0.6008063E-006  0.1262509E+03  0.7546771E-02  0.1248087E+00
          2   -1    0    0  501    0  0.00000000000E+00  0.00000000000E+00  0.32068469062E+03  0.32068469062E+03  0.00000000000E+00 0.  1.
         -2   -1    0    0    0  501 -0.00000000000E+00 -0.00000000000E+00 -0.37751396275E+02  0.37751396275E+02  0.00000000000E+00 0. -1.
         23    2    1    2    0    0 -0.61292718903E+01  0.16626373217E+02  0.17581016710E+03  0.21644513295E+03  0.12500110586E+03 0.  0.
          5    1    3    3  502    0  0.21076856620E+02  0.28411978676E+02 -0.23588010307E+01  0.35764904020E+02  0.47000000000E+01 0.  1.
         -5    1    3    3    0  502 -0.27206128510E+02 -0.11785605459E+02  0.17816896813E+03  0.18068022893E+03  0.47000000000E+01 0.  1.
        -11    1    1    2    0    0 -0.25503484886E+02 -0.33051053531E+02  0.16999743482E+02  0.45075394167E+02  0.00000000000E+00 0. -1.
         11    1    1    2    0    0  0.31632756776E+02  0.16424680314E+02  0.90123383771E+02  0.96915559778E+02  0.00000000000E+00 0.  1.
<mgrwt>
<rscale>  0 0.11702500E+03</rscale>
<asrwt>0</asrwt>
<pdfrwt beam="1">  1        2 0.49336105E-01 0.12625086E+03</pdfrwt>
<pdfrwt beam="2">  1       -2 0.58079073E-02 0.12625086E+03</pdfrwt>
<totfact> 0.14783391E+04</totfact>
</mgrwt>
</event>
<event>
 7    1  0.6008063E-006  0.1312731E+03  0.7546771E-02  0.1237105E+00
         -1   -1    0    0    0  501 -0.00000000000E+00  0.00000000000E+00  0.57080402009E+02  0.57080402009E+02  0.00000000000E+00 0.  1.
          1   -1    0    0  501    0  0.00000000000E+00 -0.00000000000E+00 -0.33089072217E+03  0.33089072217E+03  0.00000000000E+00 0. -1.
         23    2    1    2    0    0 -0.40045837634E+02  0.18781620651E+01 -0.24904682278E+03  0.28152612211E+03  0.12500176354E+03 0.  0.
          5    1    3    3  502    0 -0.54235778602E+02 -0.27814478669E+02 -0.23915176684E+03  0.24684169519E+03  0.47000000000E+01 0. -1.
         -5    1    3    3    0  502  0.14189940967E+02  0.29692640734E+02 -0.98950559452E+01  0.34684426918E+02  0.47000000000E+01 0. -1.
        -11    1    1    2    0    0 -0.18423758461E+02 -0.31823910788E+02 -0.16633467941E+01  0.36809820649E+02  0.00000000000E+00 0.  1.
         11    1    1    2    0    0  0.58469596096E+02  0.29945748723E+02 -0.23100150582E+02  0.69635181418E+02  0.00000000000E+00 0. -1.
<mgrwt>
<rscale>  0 0.12370653E+03</rscale>
<asrwt>0</asrwt>
<pdfrwt beam="2">  1        1 0.50906266E-01 0.13127314E+03</pdfrwt>
<pdfrwt beam="1">  1       -1 0.87816001E-02 0.13127314E+03</pdfrwt>
<totfact> 0.55126003E+03</totfact>
</mgrwt>
</event>
<event>
 7    1  0.6008063E-006  0.1331012E+03  0.7546771E-02  0.1245639E+00
          2   -1    0    0  501    0  0.00000000000E+00  0.00000000000E+00  0.62996467944E+02  0.62996467944E+02  0.00000000000E+00 0. -1.
         -2   -1    0    0    0  501 -0.00000000000E+00 -0.00000000000E+00 -0.18630767261E+03  0.18630767261E+03  0.00000000000E+00 0.  1.
         23    2    1    2    0    0 -0.36645103374E+02 -0.11161902169E+02 -0.77663008089E+02  0.15410211878E+03  0.12746948076E+03 0.  0.
          5    1    3    3  502    0 -0.25976756450E+02 -0.68317523071E+02 -0.54700433438E+02  0.91412817769E+02  0.47000000000E+01 0. -1.
         -5    1    3    3    0  502 -0.10668346924E+02  0.57155620902E+02 -0.22962574651E+02  0.62689301012E+02  0.47000000000E+01 0.  1.
        -11    1    1    2    0    0  0.47743632434E+02 -0.84455791180E+01 -0.52683581169E+02  0.71598477424E+02  0.00000000000E+00 0. -1.
         11    1    1    2    0    0 -0.11098529061E+02  0.19607481287E+02  0.70353845872E+01  0.23603544353E+02  0.00000000000E+00 0.  1.
<mgrwt>
<rscale>  0 0.11847200E+03</rscale>
<asrwt>0</asrwt>
<pdfrwt beam="1">  1        2 0.96917643E-02 0.13310117E+03</pdfrwt>
<pdfrwt beam="2">  1       -2 0.28662719E-01 0.13310117E+03</pdfrwt>
<totfact> 0.69882351E+03</totfact>
</mgrwt>
</event>
<event>
 7    1  0.6008063E-006  0.2034071E+03  0.7546771E-02  0.1151097E+00
         -2   -1    0    0    0  501 -0.00000000000E+00  0.00000000000E+00  0.95598813159E+02  0.95598813159E+02  0.00000000000E+00 0.  1.
          2   -1    0    0  501    0  0.00000000000E+00 -0.00000000000E+00 -0.47999469502E+03  0.47999469502E+03  0.00000000000E+00 0. -1.
         23    2    1    2    0    0  0.67430293959E+02  0.14561078186E+03 -0.32264311920E+03  0.38140927986E+03  0.12500044823E+03 0.  0.
          5    1    3    3  502    0  0.15320314450E+02 -0.10589535836E+02 -0.69518251626E-01  0.19207944628E+02  0.47000000000E+01 0.  1.
         -5    1    3    3    0  502  0.52109979509E+02  0.15620031769E+03 -0.32257360095E+03  0.36220133523E+03  0.47000000000E+01 0.  1.
        -11    1    1    2    0    0 -0.67749286767E+02 -0.74896880312E+02 -0.70160465452E+02  0.12297153919E+03  0.00000000000E+00 0. -1.
         11    1    1    2    0    0  0.31899280793E+00 -0.70713901545E+02  0.84077027879E+01  0.71212689138E+02  0.00000000000E+00 0.  1.
<mgrwt>
<rscale>  0 0.19839930E+03</rscale>
<asrwt>0</asrwt>
<pdfrwt beam="2">  1        2 0.73845339E-01 0.20340712E+03</pdfrwt>
<pdfrwt beam="1">  1       -2 0.14707509E-01 0.20340712E+03</pdfrwt>
<totfact> 0.22842403E+03</totfact>
</mgrwt>
</event>
<event>
 7    1  0.6008063E-006  0.1254312E+03  0.7546771E-02  0.1249918E+00
          1   -1    0    0  501    0  0.00000000000E+00  0.00000000000E+00  0.23295773999E+03  0.23295773999E+03  0.00000000000E+00 0. -1.
         -1   -1    0    0    0  501 -0.00000000000E+00 -0.00000000000E+00 -0.52741136260E+02  0.52741136260E+02  0.00000000000E+00 0.  1.
         23    2    1    2    0    0  0.68661863773E+01  0.77343806340E+01  0.13228867241E+03  0.18229995267E+03  0.12500405887E+03 0.  0.
          5    1    3    3  502    0  0.59284275985E+02  0.31385102162E+02  0.63141618490E+02  0.92242094525E+02  0.47000000000E+01 0. -1.
         -5    1    3    3    0  502 -0.52418089608E+02 -0.23650721528E+02  0.69147053921E+02  0.90057858141E+02  0.47000000000E+01 0. -1.
        -11    1    1    2    0    0 -0.43968613180E+01  0.23995194795E+02  0.63458705323E+02  0.67986094490E+02  0.00000000000E+00 0. -1.
         11    1    1    2    0    0 -0.24693250593E+01 -0.31729575429E+02 -0.15530774005E+02  0.35412829093E+02  0.00000000000E+00 0.  1.
<mgrwt>
<rscale>  0 0.11595831E+03</rscale>
<asrwt>0</asrwt>
<pdfrwt beam="1">  1        1 0.35839652E-01 0.12543118E+03</pdfrwt>
<pdfrwt beam="2">  1       -1 0.81140211E-02 0.12543118E+03</pdfrwt>
<totfact> 0.95517893E+03</totfact>
</mgrwt>
</event>
<event>
 7    1  0.6008063E-006  0.1906260E+03  0.7546771E-02  0.1162713E+00
          1   -1    0    0  501    0  0.00000000000E+00  0.00000000000E+00  0.69500222425E+03  0.69500222425E+03  0.00000000000E+00 0. -1.
         -1   -1    0    0    0  501 -0.00000000000E+00 -0.00000000000E+00 -0.47307251744E+02  0.47307251744E+02  0.00000000000E+00 0.  1.
         23    2    1    2    0    0  0.11558813263E+02 -0.14346039726E+03  0.37660198878E+03  0.42209870068E+03  0.12499505359E+03 0.  0.
          5    1    3    3  502    0 -0.32085983958E+02 -0.33674084603E+02  0.22518456832E+03  0.22998616077E+03  0.47000000000E+01 0. -1.
         -5    1    3    3    0  502  0.43644797221E+02 -0.10978631266E+03  0.15141742046E+03  0.19211253991E+03  0.47000000000E+01 0. -1.
        -11    1    1    2    0    0 -0.25213248254E+02  0.89586079806E+02  0.23794641486E+03  0.25549925621E+03  0.00000000000E+00 0. -1.
         11    1    1    2    0    0  0.13654434991E+02  0.53874317454E+02  0.33146568875E+02  0.64711519099E+02  0.00000000000E+00 0.  1.
<mgrwt>
<rscale>  0 0.18536072E+03</rscale>
<asrwt>0</asrwt>
<pdfrwt beam="1">  1        1 0.10692341E+00 0.19062596E+03</pdfrwt>
<pdfrwt beam="2">  1       -1 0.72780392E-02 0.19062596E+03</pdfrwt>
<totfact> 0.28064437E+03</totfact>
</mgrwt>
</event>
<event>
 7    1  0.6008063E-006  0.1570081E+03  0.7546771E-02  0.1200487E+00
         -1   -1    0    0    0  501 -0.00000000000E+00  0.00000000000E+00  0.16185370143E+03  0.16185370143E+03  0.00000000000E+00 0.  1.
          1   -1    0    0  501    0  0.00000000000E+00 -0.00000000000E+00 -0.13049809385E+03  0.13049809385E+03  0.00000000000E+00 0. -1.
         23    2    1    2    0    0 -0.33608364038E+02 -0.88872812703E+02 -0.34371664527E+01  0.15704568892E+03  0.12499454118E+03 0.  0.
          5    1    3    3  502    0  0.25666183217E+02 -0.82396509523E+02  0.26173085023E+02  0.90305360428E+02  0.47000000000E+01 0. -1.
         -5    1    3    3    0  502 -0.59274547255E+02 -0.64763031799E+01 -0.29610251475E+02  0.66740328494E+02  0.47000000000E+01 0. -1.
        -11    1    1    2    0    0  0.10333446017E+02  0.34341677401E+02  0.60779170188E+02  0.70570804459E+02  0.00000000000E+00 0. -1.
         11    1    1    2    0    0  0.23274918021E+02  0.54531135302E+02 -0.25986396156E+02  0.64735301895E+02  0.00000000000E+00 0.  1.
<mgrwt>
<rscale>  0 0.14998821E+03</rscale>
<asrwt>0</asrwt>
<pdfrwt beam="2">  1        1 0.20076630E-01 0.15700807E+03</pdfrwt>
<pdfrwt beam="1">  1       -1 0.24900569E-01 0.15700807E+03</pdfrwt>
<totfact> 0.34555487E+03</totfact>
</mgrwt>
</event>
<event>
 7    1  0.6008063E-006  0.1405795E+03  0.7546771E-02  0.1222458E+00
          2   -1    0    0  501    0  0.00000000000E+00  0.00000000000E+00  0.42048150326E+03  0.42048150326E+03  0.00000000000E+00 0. -1.
         -2   -1    0    0    0  501 -0.00000000000E+00 -0.00000000000E+00 -0.39322419941E+02  0.39322419941E+02  0.00000000000E+00 0.  1.
         23    2    1    2    0    0 -0.23446871668E+02 -0.59902521377E+02  0.24192943255E+03  0.27980789023E+03  0.12499814895E+03 0.  0.
          5    1    3    3  502    0  0.35810594161E+02 -0.19920958579E+02  0.18137333086E+03  0.18600435046E+03  0.47000000000E+01 0. -1.
         -5    1    3    3    0  502 -0.59257465829E+02 -0.39981562798E+02  0.60556101697E+02  0.93803539768E+02  0.47000000000E+01 0. -1.
        -11    1    1    2    0    0  0.48695180350E+02  0.65751024850E+02  0.76040812741E+02  0.11169880510E+03  0.00000000000E+00 0.  1.
         11    1    1    2    0    0 -0.25248308683E+02 -0.58485034721E+01  0.63188838021E+02  0.68297227869E+02  0.00000000000E+00 0. -1.
<mgrwt>
<rscale>  0 0.13342634E+03</rscale>
<asrwt>0</asrwt>
<pdfrwt beam="1">  1        2 0.64689459E-01 0.14057953E+03</pdfrwt>
<pdfrwt beam="2">  1       -2 0.60496034E-02 0.14057953E+03</pdfrwt>
<totfact> 0.10505351E+04</totfact>
</mgrwt>
</event>
<event>
 7    1  0.6008063E-006  0.1504958E+03  0.7546771E-02  0.1211342E+00
         -1   -1    0    0    0  501 -0.00000000000E+00  0.00000000000E+00  0.31707209360E+03  0.31707209360E+03  0.00000000000E+00 0. -1.
          1   -1    0    0  501    0  0.00000000000E+00 -0.00000000000E+00 -0.56791699182E+02  0.56791699182E+02  0.00000000000E+00 0.  1.
         23    2    1    2    0    0  0.75021871365E+02 -0.37366082311E+02  0.13709415821E+03  0.20357752157E+03  0.12499797513E+03 0.  0.
          5    1    3    3  502    0  0.90387519077E+02 -0.54579559178E+02  0.56978165848E+02  0.12007261665E+03  0.47000000000E+01 0.  1.
         -5    1    3    3    0  502 -0.15365647712E+02  0.17213476867E+02  0.80115992357E+02  0.83504904927E+02  0.47000000000E+01 0.  1.
        -11    1    1    2    0    0 -0.77889707603E+02  0.16523145500E+02  0.49731464215E+02  0.93877789815E+02  0.00000000000E+00 0.  1.
         11    1    1    2    0    0  0.28678362377E+01  0.20842936811E+02  0.73454771998E+02  0.76408481394E+02  0.00000000000E+00 0. -1.
<mgrwt>
<rscale>  0 0.14148714E+03</rscale>
<asrwt>0</asrwt>
<pdfrwt beam="2">  1        1 0.87371847E-02 0.15049584E+03</pdfrwt>
<pdfrwt beam="1">  1       -1 0.48780321E-01 0.15049584E+03</pdfrwt>
<totfact> 0.32102215E+03</totfact>
</mgrwt>
</event>
<event>
 7    1  0.6008063E-006  0.1448632E+03  0.7546771E-02  0.1217167E+00
         -2   -1    0    0    0  501 -0.00000000000E+00  0.00000000000E+00  0.16151764769E+03  0.16151764769E+03  0.00000000000E+00 0.  1.
          2   -1    0    0  501    0  0.00000000000E+00 -0.00000000000E+00 -0.14916986805E+03  0.14916986805E+03  0.00000000000E+00 0. -1.
         23    2    1    2    0    0 -0.15417256071E+02  0.71568482390E+02 -0.76820892279E+02  0.16397196844E+03  0.12500246992E+03 0.  0.
          5    1    3    3  502    0  0.50452748521E+02  0.54918975034E+02 -0.26460367594E+02  0.79270515990E+02  0.47000000000E+01 0.  1.
         -5    1    3    3    0  502 -0.65870004592E+02  0.16649507356E+02 -0.50360524685E+02  0.84701452447E+02  0.47000000000E+01 0.  1.
        -11    1    1    2    0    0  0.40683589508E+02 -0.75643194614E+01  0.11498628141E+02  0.42948711661E+02  0.00000000000E+00 0. -1.
         11    1    1    2    0    0 -0.25266333438E+02 -0.64004162928E+02  0.77670043780E+02  0.10376683564E+03  0.00000000000E+00 0.  1.
<mgrwt>
<rscale>  0 0.13718566E+03</rscale>
<asrwt>0</asrwt>
<pdfrwt beam="2">  1        2 0.22949210E-01 0.14486324E+03</pdfrwt>
<pdfrwt beam="1">  1       -2 0.24848869E-01 0.14486324E+03</pdfrwt>
<totfact> 0.32906751E+03</totfact>
</mgrwt>
</event>
<event>
 7    1  0.6008063E-006  0.3097681E+03  0.7546771E-02  0.1081968E+00
          2   -1    0    0  501    0  0.00000000000E+00  0.00000000000E+00  0.28924418245E+04  0.28924418245E+04  0.00000000000E+00 0. -1.
         -2   -1    0    0    0  501 -0.00000000000E+00 -0.00000000000E+00 -0.39527022787E+02  0.39527022787E+02  0.00000000000E+00 0.  1.
         23    2    1    2    0    0 -0.60998344960E+02 -0.27678501650E+03  0.20949958266E+04  0.21177733050E+04  0.12500205753E+03 0.  0.
          5    1    3    3  502    0 -0.65340738011E+02 -0.28683031653E+03  0.20575481453E+04  0.20784772077E+04  0.47000000000E+01 0.  1.
         -5    1    3    3    0  502  0.43423930511E+01  0.10045300038E+02  0.37447681279E+02  0.39296097305E+02  0.47000000000E+01 0.  1.
        -11    1    1    2    0    0  0.48071599757E+02  0.47525922248E+02  0.18588786484E+03  0.19779759929E+03  0.00000000000E+00 0. -1.
         11    1    1    2    0    0  0.12926745202E+02  0.22925909425E+03  0.57203111030E+03  0.61639794304E+03  0.00000000000E+00 0.  1.
<mgrwt>
<rscale>  0 0.30664011E+03</rscale>
<asrwt>0</asrwt>
<pdfrwt beam="1">  1        2 0.44499088E+00 0.30976807E+03</pdfrwt>
<pdfrwt beam="2">  1       -2 0.60810827E-02 0.30976807E+03</pdfrwt>
<totfact> 0.34620487E+02</totfact>
</mgrwt>
</event>
<event>
 6    1  0.6008063E-006  0.1916744E+03  0.7546771E-02  0.1187525E+00
          2   -1    0    0  501    0  0.00000000000E+00  0.00000000000E+00  0.41800264938E+03  0.41800264938E+03  0.00000000000E+00 0. -1.
         -2   -1    0    0    0  501 -0.00000000000E+00 -0.00000000000E+00 -0.59977480217E+02  0.59977480217E+02  0.00000000000E+00 0.  1.
          5    1    1    2  502    0 -0.75937716915E+02  0.59991637200E+02  0.18087077283E+03  0.20518737741E+03  0.47000000000E+01 0. -1.
         -5    1    1    2    0  502  0.53783130676E+02 -0.77023498832E+02  0.14338884834E+03  0.17148672353E+03  0.47000000000E+01 0.  1.
        -11    1    1    2    0    0  0.24057872341E+02  0.52995684101E+02  0.28847286672E+02  0.64957599273E+02  0.00000000000E+00 0.  1.
         11    1    1    2    0    0 -0.19032861022E+01 -0.35963822469E+02  0.49182613224E+01  0.36348429389E+02  0.00000000000E+00 0. -1.
<mgrwt>
<rscale>  0 0.16104198E+03</rscale>
<asrwt>0</asrwt>
<pdfrwt beam="1">  1        2 0.64308098E-01 0.19167440E+03</pdfrwt>
<pdfrwt beam="2">  1       -2 0.92273049E-02 0.19167440E+03</pdfrwt>
<totfact> 0.56113928E+03</totfact>
</mgrwt>
</event>
<event>
 7    1  0.6008063E-006  0.1290256E+03  0.7546771E-02  0.1242907E+00
          2   -1    0    0  501    0  0.00000000000E+00  0.00000000000E+00  0.73312099110E+03  0.73312099110E+03  0.00000000000E+00 0. -1.
         -2   -1    0    0    0  501 -0.00000000000E+00 -0.00000000000E+00 -0.17412772822E+02  0.17412772822E+02  0.00000000000E+00 0.  1.
         23    2    1    2    0    0  0.30025852028E+01 -0.31832403843E+02  0.41528440442E+03  0.43486635014E+03  0.12500115390E+03 0.  0.
          5    1    3    3  502    0 -0.48744736646E+02  0.20878370278E+02  0.21012689166E+03  0.21676567140E+03  0.47000000000E+01 0.  1.
         -5    1    3    3    0  502  0.51747321849E+02 -0.52710774121E+02  0.20515751276E+03  0.21810067875E+03  0.47000000000E+01 0.  1.
        -11    1    1    2    0    0  0.40380173102E+02  0.13565110249E+02  0.83999798994E+02  0.94183527365E+02  0.00000000000E+00 0.  1.
         11    1    1    2    0    0 -0.43382758305E+02  0.18267293594E+02  0.21642401487E+03  0.22148388642E+03  0.00000000000E+00 0. -1.
<mgrwt>
<rscale>  0 0.12011534E+03</rscale>
<asrwt>0</asrwt>
<pdfrwt beam="1">  1        2 0.11278782E+00 0.12902560E+03</pdfrwt>
<pdfrwt beam="2">  1       -2 0.26788887E-02 0.12902560E+03</pdfrwt>
<totfact> 0.18757215E+04</totfact>
</mgrwt>
</event>
<event>
 7    1  0.6008063E-006  0.1887320E+03  0.7546771E-02  0.1165069E+00
          3   -1    0    0  501    0  0.00000000000E+00  0.00000000000E+00  0.10605904095E+03  0.10605904095E+03  0.00000000000E+00 0. -1.
         -3   -1    0    0    0  501 -0.00000000000E+00 -0.00000000000E+00 -0.34365312791E+03  0.34365312791E+03  0.00000000000E+00 0.  1.
         23    2    1    2    0    0  0.62917053442E+02 -0.12663552272E+03 -0.42679740025E+02  0.19349763042E+03  0.12499864616E+03 0.  0.
          5    1    3    3  502    0  0.55609317021E+02 -0.13029691618E+03  0.79781214043E+01  0.14196979582E+03  0.47000000000E+01 0. -1.
         -5    1    3    3    0  502  0.73077364213E+01  0.36613934577E+01 -0.50657861430E+02  0.51527834597E+02  0.47000000000E+01 0. -1.
        -11    1    1    2    0    0 -0.83276671218E+02  0.83445707735E+02 -0.12808544585E+03  0.17408064667E+03  0.00000000000E+00 0. -1.
         11    1    1    2    0    0  0.20359617776E+02  0.43189814986E+02 -0.66828901090E+02  0.82133891758E+02  0.00000000000E+00 0.  1.
<mgrwt>
<rscale>  0 0.18285401E+03</rscale>
<asrwt>0</asrwt>
<pdfrwt beam="1">  1        3 0.16316776E-01 0.18873201E+03</pdfrwt>
<pdfrwt beam="2">  1       -3 0.52869712E-01 0.18873201E+03</pdfrwt>
<totfact> 0.27784958E+02</totfact>
</mgrwt>
</event>
<event>
 7    1  0.6008063E-006  0.1263369E+03  0.7546771E-02  0.1244766E+00
         -2   -1    0    0    0  501 -0.00000000000E+00  0.00000000000E+00  0.24974739952E+02  0.24974739952E+02  0.00000000000E+00 0.  1.
          2   -1    0    0  501    0  0.00000000000E+00 -0.00000000000E+00 -0.25970410595E+04  0.25970410595E+04  0.00000000000E+00 0. -1.
         23    2    1    2    0    0  0.15535762821E+02 -0.97506026314E+01 -0.24896972835E+04  0.24929006370E+04  0.12499835305E+03 0.  0.
          5    1    3    3  502    0  0.32430469112E+02  0.50406948911E+02 -0.15140114025E+04  0.15152046769E+04  0.47000000000E+01 0.  1.
         -5    1    3    3    0  502 -0.16894706291E+02 -0.60157551542E+02 -0.97568588102E+03  0.97769596017E+03  0.47000000000E+01 0.  1.
        -11    1    1    2    0    0 -0.54692265152E+02  0.43172195991E+01 -0.27173165256E+02  0.61223060708E+02  0.00000000000E+00 0.  1.
         11    1    1    2    0    0  0.39156502331E+02  0.54333830323E+01 -0.55195870716E+02  0.67892101677E+02  0.00000000000E+00 0. -1.
<mgrwt>
<rscale>  0 0.11899418E+03</rscale>
<asrwt>0</asrwt>
<pdfrwt beam="2">  1        2 0.39954498E+00 0.12633694E+03</pdfrwt>
<pdfrwt beam="1">  1       -2 0.38422658E-02 0.12633694E+03</pdfrwt>
<totfact> 0.10672700E+03</totfact>
</mgrwt>
</event>
<event>
 7    1  0.6008063E-006  0.1880586E+03  0.7546771E-02  0.1165575E+00
         -2   -1    0    0    0  501 -0.00000000000E+00  0.00000000000E+00  0.31924522967E+02  0.31924522967E+02  0.00000000000E+00 0.  1.
          2   -1    0    0  501    0  0.00000000000E+00 -0.00000000000E+00 -0.15560174004E+04  0.15560174004E+04  0.00000000000E+00 0. -1.
         23    2    1    2    0    0 -0.11963250291E+03  0.73689842050E+02 -0.12732872833E+04  0.12871000501E+04  0.12499561876E+03 0.  0.
          5    1    3    3  502    0 -0.91318168973E+02  0.10387477411E+03 -0.11095985955E+04  0.11181950231E+04  0.47000000000E+01 0.  1.
         -5    1    3    3    0  502 -0.28314333936E+02 -0.30184932056E+02 -0.16368868781E+03  0.16890502700E+03  0.47000000000E+01 0.  1.
        -11    1    1    2    0    0  0.10902109584E+02 -0.53243786870E+02 -0.99871848969E+02  0.11370199229E+03  0.00000000000E+00 0. -1.
         11    1    1    2    0    0  0.10873039332E+03 -0.20446055180E+02 -0.15093374516E+03  0.18713988092E+03  0.00000000000E+00 0.  1.
<mgrwt>
<rscale>  0 0.18232164E+03</rscale>
<asrwt>0</asrwt>
<pdfrwt beam="2">  1        2 0.23938730E+00 0.18805859E+03</pdfrwt>
<pdfrwt beam="1">  1       -2 0.49114649E-02 0.18805859E+03</pdfrwt>
<totfact> 0.25624630E+03</totfact>
</mgrwt>
</event>
<event>
 7    1  0.6008063E-006  0.1448693E+03  0.7546771E-02  0.1215443E+00
         -3   -1    0    0    0  501 -0.00000000000E+00  0.00000000000E+00  0.11334431353E+03  0.11334431353E+03  0.00000000000E+00 0.  1.
          3   -1    0    0  501    0  0.00000000000E+00 -0.00000000000E+00 -0.16264636494E+03  0.16264636494E+03  0.00000000000E+00 0. -1.
         23    2    1    2    0    0  0.27604176733E+02 -0.67868027612E+02 -0.55207470860E+02  0.15503221710E+03  0.12497625276E+03 0.  0.
          5    1    3    3  502    0 -0.42716604520E+02 -0.46328524887E+02 -0.51021497363E+02  0.81217754913E+02  0.47000000000E+01 0.  1.
         -5    1    3    3    0  502  0.70320781253E+02 -0.21539502725E+02 -0.41859734969E+01  0.73814462186E+02  0.47000000000E+01 0.  1.
        -11    1    1    2    0    0 -0.47110579762E+01 -0.23073839637E+02 -0.10449203124E+02  0.25763966868E+02  0.00000000000E+00 0.  1.
         11    1    1    2    0    0 -0.22893118757E+02  0.90941867249E+02  0.16354622575E+02  0.95194494508E+02  0.00000000000E+00 0. -1.
<mgrwt>
<rscale>  0 0.13844008E+03</rscale>
<asrwt>0</asrwt>
<pdfrwt beam="2">  1        3 0.25022518E-01 0.14486933E+03</pdfrwt>
<pdfrwt beam="1">  1       -3 0.17437587E-01 0.14486933E+03</pdfrwt>
<totfact> 0.99846972E+02</totfact>
</mgrwt>
</event>
<event>
 7    1  0.6008063E-006  0.1407001E+03  0.7546771E-02  0.1223008E+00
          1   -1    0    0  501    0  0.00000000000E+00  0.00000000000E+00  0.93446586219E+02  0.93446586219E+02  0.00000000000E+00 0. -1.
         -1   -1    0    0    0  501 -0.00000000000E+00 -0.00000000000E+00 -0.17155787662E+03  0.17155787662E+03  0.00000000000E+00 0.  1.
         23    2    1    2    0    0 -0.48761633368E+02  0.42351858042E+02 -0.45903260727E+02  0.14799876113E+03  0.12500058873E+03 0.  0.
          5    1    3    3  502    0 -0.50471035998E+02 -0.31970495072E+02 -0.42426798890E+02  0.73427251712E+02  0.47000000000E+01 0.  1.
         -5    1    3    3    0  502  0.17094026295E+01  0.74322353113E+02 -0.34764618362E+01  0.74571509416E+02  0.47000000000E+01 0.  1.
        -11    1    1    2    0    0  0.51881206290E+02 -0.53063734737E+02  0.85920177467E+01  0.74707712314E+02  0.00000000000E+00 0. -1.
         11    1    1    2    0    0 -0.31195729213E+01  0.10711876695E+02 -0.40800047417E+02  0.42297989394E+02  0.00000000000E+00 0.  1.
<mgrwt>
<rscale>  0 0.13304389E+03</rscale>
<asrwt>0</asrwt>
<pdfrwt beam="1">  1        1 0.14376398E-01 0.14070012E+03</pdfrwt>
<pdfrwt beam="2">  1       -1 0.26393519E-01 0.14070012E+03</pdfrwt>
<totfact> 0.47956201E+03</totfact>
</mgrwt>
</event>
<event>
 6    1  0.6008063E-006  0.1887733E+03  0.7546771E-02  0.1185572E+00
          3   -1    0    0  501    0  0.00000000000E+00  0.00000000000E+00  0.31664522130E+03  0.31664522130E+03  0.00000000000E+00 0. -1.
         -3   -1    0    0    0  501 -0.00000000000E+00 -0.00000000000E+00 -0.10682194632E+03  0.10682194632E+03  0.00000000000E+00 0.  1.
          5    1    1    2  502    0  0.46062926980E+02 -0.10299314591E+03  0.14787618962E+03  0.18606138450E+03  0.47000000000E+01 0. -1.
         -5    1    1    2    0  502 -0.52871045231E+02  0.54180479432E+02  0.10066240028E+03  0.12603920265E+03  0.47000000000E+01 0.  1.
        -11    1    1    2    0    0  0.15363599888E+02  0.67073286791E+02 -0.52830284034E+02  0.86751973543E+02  0.00000000000E+00 0.  1.
         11    1    1    2    0    0 -0.85554816375E+01 -0.18260620315E+02  0.14114969113E+02  0.24614606912E+02  0.00000000000E+00 0. -1.
<mgrwt>
<rscale>  0 0.16279903E+03</rscale>
<asrwt>0</asrwt>
<pdfrwt beam="1">  1        3 0.48714649E-01 0.18877327E+03</pdfrwt>
<pdfrwt beam="2">  1       -3 0.16434146E-01 0.18877327E+03</pdfrwt>
<totfact> 0.32377836E+02</totfact>
</mgrwt>
</event>
<event>
 7    1  0.6008063E-006  0.1504591E+03  0.7546771E-02  0.1208242E+00
          2   -1    0    0  501    0  0.00000000000E+00  0.00000000000E+00  0.47678271555E+03  0.47678271555E+03  0.00000000000E+00 0. -1.
         -2   -1    0    0    0  501 -0.00000000000E+00 -0.00000000000E+00 -0.45399219708E+02  0.45399219708E+02  0.00000000000E+00 0.  1.
         23    2    1    2    0    0 -0.83299290901E+02 -0.87126604714E+01  0.32250839230E+03  0.35587861999E+03  0.12499298679E+03 0.  0.
          5    1    3    3  502    0 -0.90443590365E+02 -0.46988764168E+02  0.28015159707E+03  0.29815263597E+03  0.47000000000E+01 0. -1.
         -5    1    3    3    0  502  0.71442994646E+01  0.38276103696E+02  0.42356795224E+02  0.57725984016E+02  0.47000000000E+01 0. -1.
        -11    1    1    2    0    0  0.30568703771E+02 -0.42384194749E+02  0.46944058442E+02  0.70246780978E+02  0.00000000000E+00 0.  1.
         11    1    1    2    0    0  0.52730587129E+02  0.51096855220E+02  0.61931045108E+02  0.96056534294E+02  0.00000000000E+00 0. -1.
<mgrwt>
<rscale>  0 0.14384879E+03</rscale>
<asrwt>0</asrwt>
<pdfrwt beam="1">  1        2 0.73351183E-01 0.15045906E+03</pdfrwt>
<pdfrwt beam="2">  1       -2 0.69844957E-02 0.15045906E+03</pdfrwt>
<totfact> 0.73948689E+03</totfact>
</mgrwt>
</event>
<event>
 7    1  0.6008063E-006  0.1376496E+03  0.7546771E-02  0.1228833E+00
          1   -1    0    0  501    0  0.00000000000E+00  0.00000000000E+00  0.54558030262E+03  0.54558030262E+03  0.00000000000E+00 0. -1.
         -1   -1    0    0    0  501 -0.00000000000E+00 -0.00000000000E+00 -0.27325060316E+02  0.27325060316E+02  0.00000000000E+00 0.  1.
         23    2    1    2    0    0  0.48934439124E+02 -0.30451975181E+02  0.30104925391E+03  0.33102579557E+03  0.12500208769E+03 0.  0.
          5    1    3    3  502    0  0.61346747811E+02 -0.63559457707E+02  0.26864827213E+03  0.28283778434E+03  0.47000000000E+01 0.  1.
         -5    1    3    3    0  502 -0.12412308688E+02  0.33107482526E+02  0.32400981782E+02  0.48188011233E+02  0.47000000000E+01 0.  1.
        -11    1    1    2    0    0 -0.14189060830E+02  0.24618887356E+02  0.77111204370E+01  0.29442833428E+02  0.00000000000E+00 0.  1.
         11    1    1    2    0    0 -0.34745378294E+02  0.58330878253E+01  0.20949486796E+03  0.21243673394E+03  0.00000000000E+00 0. -1.
<mgrwt>
<rscale>  0 0.12907646E+03</rscale>
<asrwt>0</asrwt>
<pdfrwt beam="1">  1        1 0.83935423E-01 0.13764964E+03</pdfrwt>
<pdfrwt beam="2">  1       -1 0.42038558E-02 0.13764964E+03</pdfrwt>
<totfact> 0.87642110E+03</totfact>
</mgrwt>
</event>
<event>
 7    1  0.6008063E-006  0.1277019E+03  0.7546771E-02  0.1245798E+00
          2   -1    0    0  501    0  0.00000000000E+00  0.00000000000E+00  0.22857020203E+04  0.22857020203E+04  0.00000000000E+00 0. -1.
         -2   -1    0    0    0  501 -0.00000000000E+00 -0.00000000000E+00 -0.14650672644E+02  0.14650672644E+02  0.00000000000E+00 0.  1.
         23    2    1    2    0    0 -0.14266923253E+02  0.21889446539E+02  0.21090129080E+04  0.21128755820E+04  0.12500034346E+03 0.  0.
          5    1    3    3  502    0 -0.44287932033E+02  0.46805894930E+02  0.18265539189E+04  0.18276962333E+04  0.47000000000E+01 0. -1.
         -5    1    3    3    0  502  0.30021008780E+02 -0.24916448391E+02  0.28245898913E+03  0.28517934867E+03  0.47000000000E+01 0. -1.
        -11    1    1    2    0    0 -0.13351304060E+02 -0.50721216124E+02  0.11020848379E+03  0.12205248455E+03  0.00000000000E+00 0. -1.
         11    1    1    2    0    0  0.27618227313E+02  0.28831769585E+02  0.51829955918E+02  0.65424626462E+02  0.00000000000E+00 0.  1.
<mgrwt>
<rscale>  0 0.11837723E+03</rscale>
<asrwt>0</asrwt>
<pdfrwt beam="1">  1        2 0.35164618E+00 0.12770191E+03</pdfrwt>
<pdfrwt beam="2">  1       -2 0.22539514E-02 0.12770191E+03</pdfrwt>
<totfact> 0.34090273E+03</totfact>
</mgrwt>
</event>
<event>
 6    1  0.6008063E-006  0.2160628E+03  0.7546771E-02  0.1155998E+00
          2   -1    0    0  501    0  0.00000000000E+00  0.00000000000E+00  0.65572420137E+03  0.65572420137E+03  0.00000000000E+00 0. -1.
         -2   -1    0    0    0  501 -0.00000000000E+00 -0.00000000000E+00 -0.53018260913E+02  0.53018260913E+02  0.00000000000E+00 0.  1.
          5    1    1    2  502    0 -0.12370673159E+03 -0.77294606013E+02  0.42031831993E+03  0.44493526678E+03  0.47000000000E+01 0. -1.
         -5    1    1    2    0  502  0.31015677804E+02  0.43592911287E+02  0.53430783943E+02  0.75757856734E+02  0.47000000000E+01 0.  1.
        -11    1    1    2    0    0  0.81438606333E+02  0.61661382354E+02  0.11777801263E+03  0.15590392213E+03  0.00000000000E+00 0.  1.
         11    1    1    2    0    0  0.11252447451E+02 -0.27959687628E+02  0.11178823953E+02  0.32145416639E+02  0.00000000000E+00 0. -1.
<mgrwt>
<rscale>  0 0.19275691E+03</rscale>
<asrwt>0</asrwt>
<pdfrwt beam="1">  1        2 0.10088064E+00 0.21606276E+03</pdfrwt>
<pdfrwt beam="2">  1       -2 0.81566560E-02 0.21606276E+03</pdfrwt>
<totfact> 0.41188472E+03</totfact>
</mgrwt>
</event>
<event>
 7    1  0.6008063E-006  0.1949769E+03  0.7546771E-02  0.1160007E+00
         -2   -1    0    0    0  501 -0.00000000000E+00  0.00000000000E+00  0.46420989859E+02  0.46420989859E+02  0.00000000000E+00 0.  1.
          2   -1    0    0  501    0  0.00000000000E+00 -0.00000000000E+00 -0.72480182840E+03  0.72480182840E+03  0.00000000000E+00 0. -1.
         23    2    1    2    0    0 -0.14962133345E+03 -0.20502533097E+01 -0.31964069020E+03  0.37441444858E+03  0.12500104605E+03 0.  0.
          5    1    3    3  502    0 -0.95637224045E+02  0.56945537896E+02 -0.21970333384E+03  0.24633497074E+03  0.47000000000E+01 0.  1.
         -5    1    3    3    0  502 -0.53984109401E+02 -0.58995791206E+02 -0.99937356358E+02  0.12807947784E+03  0.47000000000E+01 0.  1.
        -11    1    1    2    0    0  0.35710118572E+02 -0.26032500307E+02 -0.16031035518E+03  0.16628984821E+03  0.00000000000E+00 0. -1.
         11    1    1    2    0    0  0.11391121487E+03  0.28082753616E+02 -0.19842979317E+03  0.23051852147E+03  0.00000000000E+00 0.  1.
<mgrwt>
<rscale>  0 0.18829577E+03</rscale>
<asrwt>0</asrwt>
<pdfrwt beam="2">  1        2 0.11150798E+00 0.19497694E+03</pdfrwt>
<pdfrwt beam="1">  1       -2 0.71416904E-02 0.19497694E+03</pdfrwt>
<totfact> 0.44741539E+03</totfact>
</mgrwt>
</event>
<event>
 7    1  0.6008063E-006  0.1197924E+03  0.7546771E-02  0.1255108E+00
         -1   -1    0    0    0  501 -0.00000000000E+00  0.00000000000E+00  0.43318362297E+02  0.43318362297E+02  0.00000000000E+00 0.  1.
          1   -1    0    0  501    0  0.00000000000E+00 -0.00000000000E+00 -0.31358844470E+03  0.31358844470E+03  0.00000000000E+00 0. -1.
         23    2    1    2    0    0 -0.30428868474E+02  0.98993086817E+01 -0.21763214067E+03  0.24842298016E+03  0.11543966421E+03 0.  0.
          5    1    3    3  502    0 -0.38907685696E+02 -0.35935673435E+02 -0.18187275801E+03  0.18948607004E+03  0.47000000000E+01 0. -1.
         -5    1    3    3    0  502  0.84788172218E+01  0.45834982117E+02 -0.35759382654E+02  0.58936910124E+02  0.47000000000E+01 0.  1.
        -11    1    1    2    0    0 -0.24025542162E+02  0.19938637446E+02 -0.27105736992E+02  0.41346062899E+02  0.00000000000E+00 0. -1.
         11    1    1    2    0    0  0.54454410636E+02 -0.29837946127E+02 -0.25532204741E+02  0.67137763932E+02  0.00000000000E+00 0.  1.
<mgrwt>
<rscale>  0 0.11300307E+03</rscale>
<asrwt>0</asrwt>
<pdfrwt beam="2">  1        1 0.48244374E-01 0.11979244E+03</pdfrwt>
<pdfrwt beam="1">  1       -1 0.66643637E-02 0.11979244E+03</pdfrwt>
<totfact> 0.88619903E+03</totfact>
</mgrwt>
</event>
<event>
 7    1  0.6008063E-006  0.1256606E+03  0.7546771E-02  0.1252328E+00
         -1   -1    0    0    0  501 -0.00000000000E+00  0.00000000000E+00  0.90519863202E+02  0.90519863202E+02  0.00000000000E+00 0.  1.
          1   -1    0    0  501    0  0.00000000000E+00 -0.00000000000E+00 -0.12476965018E+03  0.12476965018E+03  0.00000000000E+00 0. -1.
         23    2    1    2    0    0  0.79362119731E+01 -0.10129072422E+02 -0.22419845221E+02  0.12764492990E+03  0.12499998840E+03 0.  0.
          5    1    3    3  502    0 -0.53726264486E+02 -0.24441851624E+02  0.29543076436E+01  0.59285188202E+02  0.47000000000E+01 0.  1.
         -5    1    3    3    0  502  0.61662476459E+02  0.14312779202E+02 -0.25374152865E+02  0.68359741699E+02  0.47000000000E+01 0.  1.
        -11    1    1    2    0    0  0.24372395878E+02  0.12091090494E+01 -0.37972613019E+02  0.45137511728E+02  0.00000000000E+00 0. -1.
         11    1    1    2    0    0 -0.32308607851E+02  0.89199633725E+01  0.26142671266E+02  0.42507071750E+02  0.00000000000E+00 0.  1.
<mgrwt>
<rscale>  0 0.11457303E+03</rscale>
<asrwt>0</asrwt>
<pdfrwt beam="2">  1        1 0.19195331E-01 0.12566057E+03</pdfrwt>
<pdfrwt beam="1">  1       -1 0.13926133E-01 0.12566057E+03</pdfrwt>
<totfact> 0.91283346E+03</totfact>
</mgrwt>
</event>
<event>
 7    1  0.6008063E-006  0.1309618E+03  0.7546771E-02  0.1247094E+00
         -1   -1    0    0    0  501 -0.00000000000E+00  0.00000000000E+00  0.93836593985E+03  0.93836593985E+03  0.00000000000E+00 0.  1.
          1   -1    0    0  501    0  0.00000000000E+00 -0.00000000000E+00 -0.12561267215E+02  0.12561267215E+02  0.00000000000E+00 0. -1.
         23    2    1    2    0    0 -0.27923666401E+02  0.27313227789E+02  0.51559211310E+03  0.53196449331E+03  0.12500100599E+03 0.  0.
          5    1    3    3  502    0 -0.53515096619E+02  0.53760439978E+02  0.45196704945E+03  0.45831250721E+03  0.47000000000E+01 0. -1.
         -5    1    3    3    0  502  0.25591430218E+02 -0.26447212190E+02  0.63625063647E+02  0.73651986106E+02  0.47000000000E+01 0. -1.
        -11    1    1    2    0    0  0.26620285506E+00 -0.49381687994E+02  0.21832048159E+03  0.22383577608E+03  0.00000000000E+00 0. -1.
         11    1    1    2    0    0  0.27657463546E+02  0.22068460205E+02  0.19189207794E+03  0.19512693767E+03  0.00000000000E+00 0.  1.
<mgrwt>
<rscale>  0 0.11760919E+03</rscale>
<asrwt>0</asrwt>
<pdfrwt beam="2">  1        1 0.19325034E-02 0.13096181E+03</pdfrwt>
<pdfrwt beam="1">  1       -1 0.14436394E+00 0.13096181E+03</pdfrwt>
<totfact> 0.25567184E+03</totfact>
</mgrwt>
</event>
<event>
 7    1  0.6008063E-006  0.1363894E+03  0.7546771E-02  0.1235275E+00
         -1   -1    0    0    0  501 -0.00000000000E+00  0.00000000000E+00  0.50473516776E+02  0.50473516776E+02  0.00000000000E+00 0.  1.
          1   -1    0    0  501    0  0.00000000000E+00 -0.00000000000E+00 -0.30382686448E+03  0.30382686448E+03  0.00000000000E+00 0. -1.
         23    2    1    2    0    0 -0.17082032668E+02 -0.51819392959E+02 -0.20690260950E+03  0.24781194141E+03  0.12500009265E+03 0.  0.
          5    1    3    3  502    0 -0.77134773488E+00  0.38876090409E+02 -0.34159644218E+02  0.51970344197E+02  0.47000000000E+01 0. -1.
         -5    1    3    3    0  502 -0.16310684933E+02 -0.90695483368E+02 -0.17274296528E+03  0.19584159722E+03  0.47000000000E+01 0. -1.
        -11    1    1    2    0    0  0.31473209766E+02  0.24404246796E+02 -0.60544346160E+02  0.72468945395E+02  0.00000000000E+00 0. -1.
         11    1    1    2    0    0 -0.14391177098E+02  0.27415146162E+02  0.14093607954E+02  0.34019494448E+02  0.00000000000E+00 0.  1.
<mgrwt>
<rscale>  0 0.12486862E+03</rscale>
<asrwt>0</asrwt>
<pdfrwt beam="2">  1        1 0.46742594E-01 0.13638940E+03</pdfrwt>
<pdfrwt beam="1">  1       -1 0.77651566E-02 0.13638940E+03</pdfrwt>
<totfact> 0.73966643E+03</totfact>
</mgrwt>
</event>
<event>
 7    1  0.6008063E-006  0.1316040E+03  0.7546771E-02  0.1239495E+00
         -2   -1    0    0    0  501 -0.00000000000E+00  0.00000000000E+00  0.35089078327E+02  0.35089078327E+02  0.00000000000E+00 0.  1.
          2   -1    0    0  501    0  0.00000000000E+00 -0.00000000000E+00 -0.42181012368E+03  0.42181012368E+03  0.00000000000E+00 0. -1.
         23    2    1    2    0    0 -0.30490678261E+02 -0.27652306239E+02 -0.29389035314E+03  0.32201112551E+03  0.12500117513E+03 0.  0.
          5    1    3    3  502    0 -0.37857666200E+02  0.42312078553E+02 -0.17208975514E+03  0.18127462235E+03  0.47000000000E+01 0. -1.
         -5    1    3    3    0  502  0.73669879387E+01 -0.69964384791E+02 -0.12180059800E+03  0.14073650316E+03  0.47000000000E+01 0. -1.
        -11    1    1    2    0    0 -0.23874001395E+02  0.22739727099E+02 -0.78598745589E+01  0.33894553533E+02  0.00000000000E+00 0.  1.
         11    1    1    2    0    0  0.54364679656E+02  0.49125791393E+01 -0.84970817658E+02  0.10099352297E+03  0.00000000000E+00 0. -1.
<mgrwt>
<rscale>  0 0.12221009E+03</rscale>
<asrwt>0</asrwt>
<pdfrwt beam="2">  1        2 0.64893868E-01 0.13160405E+03</pdfrwt>
<pdfrwt beam="1">  1       -2 0.53983195E-02 0.13160405E+03</pdfrwt>
<totfact> 0.12377511E+04</totfact>
</mgrwt>
</event>
<event>
 7    1  0.6008063E-006  0.1308511E+03  0.7546771E-02  0.1245454E+00
          2   -1    0    0  501    0  0.00000000000E+00  0.00000000000E+00  0.17102651535E+03  0.17102651535E+03  0.00000000000E+00 0. -1.
         -2   -1    0    0    0  501 -0.00000000000E+00 -0.00000000000E+00 -0.91266513857E+02  0.91266513857E+02  0.00000000000E+00 0.  1.
         23    2    1    2    0    0  0.27309519437E+02 -0.27482857862E+02  0.10796134548E+03  0.16963979746E+03  0.12498356466E+03 0.  0.
          5    1    3    3  502    0  0.41379724946E+01 -0.54692832154E+02  0.11968148094E+03  0.13173524808E+03  0.47000000000E+01 0.  1.
         -5    1    3    3    0  502  0.23171546942E+02  0.27209974292E+02 -0.11720135460E+02  0.37904549383E+02  0.47000000000E+01 0.  1.
        -11    1    1    2    0    0  0.24935948868E+02 -0.11485590119E+01 -0.21042548563E+02  0.32648270763E+02  0.00000000000E+00 0.  1.
         11    1    1    2    0    0 -0.52245468305E+02  0.28631416874E+02 -0.71587954281E+01  0.60004960983E+02  0.00000000000E+00 0. -1.
<mgrwt>
<rscale>  0 0.11858243E+03</rscale>
<asrwt>0</asrwt>
<pdfrwt beam="1">  1        2 0.26311772E-01 0.13085109E+03</pdfrwt>
<pdfrwt beam="2">  1       -2 0.14041002E-01 0.13085109E+03</pdfrwt>
<totfact> 0.73336847E+03</totfact>
</mgrwt>
</event>
<event>
 7    1  0.6008063E-006  0.1475652E+03  0.7546771E-02  0.1213439E+00
         -2   -1    0    0    0  501 -0.00000000000E+00  0.00000000000E+00  0.25004948871E+02  0.25004948871E+02  0.00000000000E+00 0.  1.
          2   -1    0    0  501    0  0.00000000000E+00 -0.00000000000E+00 -0.76477700467E+03  0.76477700467E+03  0.00000000000E+00 0. -1.
         23    2    1    2    0    0  0.73730871610E+02 -0.26728761825E+02 -0.50969376354E+03  0.53062532074E+03  0.12499932114E+03 0.  0.
          5    1    3    3  502    0  0.56252027198E+02 -0.48856467786E+02 -0.13041796931E+03  0.15027368941E+03  0.47000000000E+01 0.  1.
         -5    1    3    3    0  502  0.17478844412E+02  0.22127705961E+02 -0.37927579422E+03  0.38035163133E+03  0.47000000000E+01 0.  1.
        -11    1    1    2    0    0  0.10655536319E+02  0.32975922765E+02 -0.66302050855E+02  0.74812524914E+02  0.00000000000E+00 0.  1.
         11    1    1    2    0    0 -0.84386407929E+02 -0.62471609397E+01 -0.16377624140E+03  0.18434410788E+03  0.00000000000E+00 0. -1.
<mgrwt>
<rscale>  0 0.13991811E+03</rscale>
<asrwt>0</asrwt>
<pdfrwt beam="2">  1        2 0.11765801E+00 0.14756523E+03</pdfrwt>
<pdfrwt beam="1">  1       -2 0.38469149E-02 0.14756523E+03</pdfrwt>
<totfact> 0.10550882E+04</totfact>
</mgrwt>
</event>
<event>
 7    1  0.6008063E-006  0.3205621E+03  0.7546771E-02  0.1076688E+00
         -4   -1    0    0    0  501 -0.00000000000E+00  0.00000000000E+00  0.65684435679E+02  0.65684435679E+02  0.00000000000E+00 0.  1.
          4   -1    0    0  501    0  0.00000000000E+00 -0.00000000000E+00 -0.28393368098E+04  0.28393368098E+04  0.00000000000E+00 0. -1.
         23    2    1    2    0    0  0.25969647762E+03  0.14032684332E+03 -0.23932940268E+04  0.24146669251E+04  0.12500470800E+03 0.  0.
          5    1    3    3  502    0 -0.77096794350E+01  0.21008380775E+02 -0.31666041289E+03  0.31748495761E+03  0.47000000000E+01 0. -1.
         -5    1    3    3    0  502  0.26740615706E+03  0.11931846254E+03 -0.20766336139E+04  0.20971819675E+04  0.47000000000E+01 0. -1.
        -11    1    1    2    0    0 -0.84653354153E+02 -0.73135055124E+01 -0.70393426046E+02  0.11033998442E+03  0.00000000000E+00 0.  1.
         11    1    1    2    0    0 -0.17504312347E+03 -0.13301333780E+03 -0.30996492126E+03  0.38001433594E+03  0.00000000000E+00 0. -1.
<mgrwt>
<rscale>  0 0.31775368E+03</rscale>
<asrwt>0</asrwt>
<pdfrwt beam="2">  1        4 0.43682115E+00 0.32056210E+03</pdfrwt>
<pdfrwt beam="1">  1       -4 0.10105295E-01 0.32056210E+03</pdfrwt>
<totfact> 0.64469986E-01</totfact>
</mgrwt>
</event>
<event>
 7    1  0.6008063E-006  0.2260039E+03  0.7546771E-02  0.1132676E+00
          2   -1    0    0  501    0  0.00000000000E+00  0.00000000000E+00  0.12798068968E+04  0.12798068968E+04  0.00000000000E+00 0. -1.
         -2   -1    0    0    0  501 -0.00000000000E+00 -0.00000000000E+00 -0.39398872141E+02  0.39398872141E+02  0.00000000000E+00 0.  1.
         23    2    1    2    0    0 -0.18828392975E+03  0.66474948900E+00  0.80679719028E+03  0.83785407455E+03  0.12500585548E+03 0.  0.
          5    1    3    3  502    0 -0.16012574053E+03  0.43317117405E+02  0.69947551078E+03  0.71889130307E+03  0.47000000000E+01 0. -1.
         -5    1    3    3    0  502 -0.28158189214E+02 -0.42652367916E+02  0.10732167949E+03  0.11896277148E+03  0.47000000000E+01 0. -1.
        -11    1    1    2    0    0  0.19359955342E+03  0.13297906575E+02  0.40181541799E+03  0.44622107922E+03  0.00000000000E+00 0.  1.
         11    1    1    2    0    0 -0.53156236730E+01 -0.13962656064E+02  0.31795416436E+02  0.35130615220E+02  0.00000000000E+00 0. -1.
<mgrwt>
<rscale>  0 0.22162747E+03</rscale>
<asrwt>0</asrwt>
<pdfrwt beam="1">  1        2 0.19689334E+00 0.22600386E+03</pdfrwt>
<pdfrwt beam="2">  1       -2 0.60613659E-02 0.22600386E+03</pdfrwt>
<totfact> 0.26198722E+03</totfact>
</mgrwt>
</event>
<event>
 7    1  0.6008063E-006  0.1925180E+03  0.7546771E-02  0.1160483E+00
         -1   -1    0    0    0  501 -0.00000000000E+00  0.00000000000E+00  0.13341573157E+03  0.13341573157E+03  0.00000000000E+00 0.  1.
          1   -1    0    0  501    0  0.00000000000E+00 -0.00000000000E+00 -0.26681163751E+03  0.26681163751E+03  0.00000000000E+00 0. -1.
         23    2    1    2    0    0 -0.14497127075E+03  0.20529004996E+02 -0.11685182398E+03  0.22520553414E+03  0.12500029780E+03 0.  0.
          5    1    3    3  502    0 -0.65514244135E+02  0.52845322860E+02 -0.11060946403E+03  0.13907295879E+03  0.47000000000E+01 0. -1.
         -5    1    3    3    0  502 -0.79457026618E+02 -0.32316317864E+02 -0.62423599480E+01  0.86132575353E+02  0.47000000000E+01 0. -1.
        -11    1    1    2    0    0  0.14061661004E+02 -0.40717978173E+01  0.31396803790E+02  0.34642014028E+02  0.00000000000E+00 0.  1.
         11    1    1    2    0    0  0.13090960975E+03 -0.16457207178E+02 -0.47940885747E+02  0.14037982091E+03  0.00000000000E+00 0. -1.
<mgrwt>
<rscale>  0 0.18777568E+03</rscale>
<asrwt>0</asrwt>
<pdfrwt beam="2">  1        1 0.41047944E-01 0.19251801E+03</pdfrwt>
<pdfrwt beam="1">  1       -1 0.20525497E-01 0.19251801E+03</pdfrwt>
<totfact> 0.19430976E+03</totfact>
</mgrwt>
</event>
<event>
 7    1  0.6008063E-006  0.1647609E+03  0.7546771E-02  0.1190511E+00
          2   -1    0    0  501    0  0.00000000000E+00  0.00000000000E+00  0.21973864897E+04  0.21973864897E+04  0.00000000000E+00 0. -1.
         -2   -1    0    0    0  501 -0.00000000000E+00 -0.00000000000E+00 -0.15045402978E+02  0.15045402978E+02  0.00000000000E+00 0.  1.
         23    2    1    2    0    0 -0.10282743895E+03  0.30781842290E+02  0.17502895523E+04  0.17580272129E+04  0.12500064223E+03 0.  0.
          5    1    3    3  502    0 -0.62599099530E+02 -0.28603387815E+02  0.40614244637E+03  0.41195943708E+03  0.47000000000E+01 0. -1.
         -5    1    3    3    0  502 -0.40228339417E+02  0.59385230104E+02  0.13441471059E+04  0.13460677758E+04  0.47000000000E+01 0. -1.
        -11    1    1    2    0    0  0.80431082555E+01  0.27339603047E+02  0.67346003431E+02  0.73127489108E+02  0.00000000000E+00 0.  1.
         11    1    1    2    0    0  0.94784330692E+02 -0.58121445337E+02  0.36470553099E+03  0.38127719062E+03  0.00000000000E+00 0. -1.
<mgrwt>
<rscale>  0 0.15840364E+03</rscale>
<asrwt>0</asrwt>
<pdfrwt beam="1">  1        2 0.33805921E+00 0.16476093E+03</pdfrwt>
<pdfrwt beam="2">  1       -2 0.23146791E-02 0.16476093E+03</pdfrwt>
<totfact> 0.36446060E+03</totfact>
</mgrwt>
</event>
<event>
 7    1  0.6008063E-006  0.1451860E+03  0.7546771E-02  0.1217343E+00
          2   -1    0    0  501    0  0.00000000000E+00  0.00000000000E+00  0.15775298517E+03  0.15775298517E+03  0.00000000000E+00 0. -1.
         -2   -1    0    0    0  501 -0.00000000000E+00 -0.00000000000E+00 -0.11014342219E+03  0.11014342219E+03  0.00000000000E+00 0.  1.
         23    2    1    2    0    0 -0.74082611778E+02  0.92999715466E+01  0.46957574659E+02  0.15259089782E+03  0.12451604491E+03 0.  0.
          5    1    3    3  502    0 -0.10448156079E+03  0.20815847382E+02  0.53177219167E+02  0.11916208577E+03  0.47000000000E+01 0. -1.
         -5    1    3    3    0  502  0.30398949008E+02 -0.11515875836E+02 -0.62196445078E+01  0.33428812047E+02  0.47000000000E+01 0.  1.
        -11    1    1    2    0    0  0.13172880618E+02  0.29713649871E+02 -0.22301392737E+02  0.39417989427E+02  0.00000000000E+00 0. -1.
         11    1    1    2    0    0  0.60909731161E+02 -0.39013621417E+02  0.22953381059E+02  0.75887520108E+02  0.00000000000E+00 0.  1.
<mgrwt>
<rscale>  0 0.13705797E+03</rscale>
<asrwt>0</asrwt>
<pdfrwt beam="1">  1        2 0.24269690E-01 0.14518598E+03</pdfrwt>
<pdfrwt beam="2">  1       -2 0.16945142E-01 0.14518598E+03</pdfrwt>
<totfact> 0.59319179E+03</totfact>
</mgrwt>
</event>
<event>
 6    1  0.6008063E-006  0.5307205E+03  0.7546771E-02  0.1017663E+00
         -1   -1    0    0    0  501 -0.00000000000E+00  0.00000000000E+00  0.14773319215E+03  0.14773319215E+03  0.00000000000E+00 0.  1.
          1   -1    0    0  501    0  0.00000000000E+00 -0.00000000000E+00 -0.20266836124E+04  0.20266836124E+04  0.00000000000E+00 0. -1.
          5    1    1    2  502    0 -0.43172758331E+03  0.48110542787E+02 -0.14932776260E+04  0.15551859981E+04  0.47000000000E+01 0. -1.
         -5    1    1    2    0  502  0.79868618172E+02  0.31964825211E+02 -0.16796538957E+03  0.18877290143E+03  0.47000000000E+01 0.  1.
        -11    1    1    2    0    0  0.23066256117E+02  0.76419603497E+01 -0.39373352554E+02  0.46267835702E+02  0.00000000000E+00 0. -1.
         11    1    1    2    0    0  0.32879270902E+03 -0.87717328348E+02 -0.17833405217E+03  0.38419006932E+03  0.00000000000E+00 0.  1.
<mgrwt>
<rscale>  0 0.48539351E+03</rscale>
<asrwt>0</asrwt>
<pdfrwt beam="2">  1        1 0.31179748E+00 0.53072054E+03</pdfrwt>
<pdfrwt beam="1">  1       -1 0.22728183E-01 0.53072054E+03</pdfrwt>
<totfact> 0.50238063E+01</totfact>
</mgrwt>
</event>
<event>
 7    1  0.6008063E-006  0.1383259E+03  0.7546771E-02  0.1227139E+00
         -1   -1    0    0    0  501 -0.00000000000E+00  0.00000000000E+00  0.38449728238E+03  0.38449728238E+03  0.00000000000E+00 0.  1.
          1   -1    0    0  501    0  0.00000000000E+00 -0.00000000000E+00 -0.61693032458E+02  0.61693032458E+02  0.00000000000E+00 0. -1.
         23    2    1    2    0    0 -0.47973843739E+02  0.34804996806E+02  0.41150988411E+02  0.14431722246E+03  0.12498471652E+03 0.  0.
          5    1    3    3  502    0 -0.10569932230E+01  0.51503261071E+02  0.69641839391E+02  0.86751247423E+02  0.47000000000E+01 0. -1.
         -5    1    3    3    0  502 -0.46916850516E+02 -0.16698264265E+02 -0.28490850981E+02  0.57565975033E+02  0.47000000000E+01 0. -1.
        -11    1    1    2    0    0 -0.25464512131E+01 -0.44089801715E+02  0.20429526542E+03  0.20901423516E+03  0.00000000000E+00 0.  1.
         11    1    1    2    0    0  0.50520294952E+02  0.92848049094E+01  0.77357996096E+02  0.92858857221E+02  0.00000000000E+00 0. -1.
<mgrwt>
<rscale>  0 0.13021392E+03</rscale>
<asrwt>0</asrwt>
<pdfrwt beam="2">  1        1 0.94912360E-02 0.13832591E+03</pdfrwt>
<pdfrwt beam="1">  1       -1 0.59153427E-01 0.13832591E+03</pdfrwt>
<totfact> 0.20017125E+03</totfact>
</mgrwt>
</event>
<event>
 6    1  0.6008063E-006  0.1852593E+03  0.7546771E-02  0.1173326E+00
          2   -1    0    0  501    0  0.00000000000E+00  0.00000000000E+00  0.62798896475E+02  0.62798896475E+02  0.00000000000E+00 0. -1.
         -2   -1    0    0    0  501 -0.00000000000E+00 -0.00000000000E+00 -0.48670416177E+03  0.48670416177E+03  0.00000000000E+00 0.  1.
          5    1    1    2  502    0  0.83978566508E+02  0.65565872059E+02 -0.40450295487E+02  0.11405963184E+03  0.47000000000E+01 0. -1.
         -5    1    1    2    0  502 -0.48591629283E+02 -0.36029613764E+02 -0.10582919574E+03  0.12198847559E+03  0.47000000000E+01 0.  1.
        -11    1    1    2    0    0 -0.19300987668E+02 -0.55664384167E+02 -0.27654709305E+03  0.28275315465E+03  0.00000000000E+00 0.  1.
         11    1    1    2    0    0 -0.16085949557E+02  0.26128125872E+02 -0.10786810097E+01  0.30701796160E+02  0.00000000000E+00 0. -1.
<mgrwt>
<rscale>  0 0.17440965E+03</rscale>
<asrwt>0</asrwt>
<pdfrwt beam="1">  1        2 0.96613688E-02 0.18525933E+03</pdfrwt>
<pdfrwt beam="2">  1       -2 0.74877562E-01 0.18525933E+03</pdfrwt>
<totfact> 0.10878843E+03</totfact>
</mgrwt>
</event>
<event>
 7    1  0.6008063E-006  0.1462549E+03  0.7546771E-02  0.1228365E+00
         -2   -1    0    0    0  501 -0.00000000000E+00  0.00000000000E+00  0.42851763272E+02  0.42851763272E+02  0.00000000000E+00 0.  1.
          2   -1    0    0  501    0  0.00000000000E+00 -0.00000000000E+00 -0.33538034935E+03  0.33538034935E+03  0.00000000000E+00 0. -1.
         23    2    1    2    0    0  0.51823427603E+02  0.55492310079E+02 -0.21335038069E+03  0.25866753764E+03  0.12500178384E+03 0.  0.
          5    1    3    3  502    0  0.68185706206E+01  0.29300708206E+02 -0.20312425000E+03  0.20539370814E+03  0.47000000000E+01 0. -1.
         -5    1    3    3    0  502  0.45004856982E+02  0.26191601873E+02 -0.10226130691E+02  0.53273829500E+02  0.47000000000E+01 0. -1.
        -11    1    1    2    0    0 -0.20212049177E+02 -0.53182484467E+02 -0.59152508911E+02  0.82072668388E+02  0.00000000000E+00 0.  1.
         11    1    1    2    0    0 -0.31611378426E+02 -0.23098256127E+01 -0.20025696476E+02  0.37491906589E+02  0.00000000000E+00 0. -1.
<mgrwt>
<rscale>  0 0.12938940E+03</rscale>
<asrwt>0</asrwt>
<pdfrwt beam="2">  1        2 0.51596978E-01 0.14625495E+03</pdfrwt>
<pdfrwt beam="1">  1       -2 0.65925789E-02 0.14625495E+03</pdfrwt>
<totfact> 0.11767481E+04</totfact>
</mgrwt>
</event>
<event>
 7    1  0.6008063E-006  0.1609742E+03  0.7546771E-02  0.1194279E+00
         -1   -1    0    0    0  501 -0.00000000000E+00  0.00000000000E+00  0.72451426126E+02  0.72451426126E+02  0.00000000000E+00 0.  1.
          1   -1    0    0  501    0  0.00000000000E+00 -0.00000000000E+00 -0.74305443808E+03  0.74305443808E+03  0.00000000000E+00 0. -1.
         23    2    1    2    0    0 -0.59362130490E+02  0.82235282343E+02 -0.65640688550E+03  0.67585701742E+03  0.12500481775E+03 0.  0.
          5    1    3    3  502    0 -0.33037204606E+01  0.70294258485E+02 -0.55346533216E+03  0.55794100159E+03  0.47000000000E+01 0. -1.
         -5    1    3    3    0  502 -0.56058410030E+02  0.11941023858E+02 -0.10294155334E+03  0.11791601583E+03  0.47000000000E+01 0. -1.
        -11    1    1    2    0    0  0.35148515078E+02 -0.52388227353E+02 -0.54926938769E+02  0.83647552743E+02  0.00000000000E+00 0. -1.
         11    1    1    2    0    0  0.24213615412E+02 -0.29847054991E+02  0.40730812316E+02  0.56001294046E+02  0.00000000000E+00 0.  1.
<mgrwt>
<rscale>  0 0.15515391E+03</rscale>
<asrwt>0</asrwt>
<pdfrwt beam="2">  1        1 0.11431607E+00 0.16097425E+03</pdfrwt>
<pdfrwt beam="1">  1       -1 0.11146373E-01 0.16097425E+03</pdfrwt>
<totfact> 0.13235837E+03</totfact>
</mgrwt>
</event>
<event>
 7    1  0.6008063E-006  0.1317918E+03  0.7546771E-02  0.1233744E+00
          1   -1    0    0  501    0  0.00000000000E+00  0.00000000000E+00  0.14106196040E+03  0.14106196040E+03  0.00000000000E+00 0. -1.
         -1   -1    0    0    0  501 -0.00000000000E+00 -0.00000000000E+00 -0.11828356259E+03  0.11828356259E+03  0.00000000000E+00 0.  1.
         23    2    1    2    0    0 -0.80250865135E+01  0.40996966965E+02  0.58344903705E+02  0.14412914570E+03  0.12499571808E+03 0.  0.
          5    1    3    3  502    0  0.40159934078E+02 -0.25122924703E+02  0.89288565112E+01  0.48433419550E+02  0.47000000000E+01 0. -1.
         -5    1    3    3    0  502 -0.48185020591E+02  0.66119891667E+02  0.49416047194E+02  0.95695726152E+02  0.47000000000E+01 0. -1.
        -11    1    1    2    0    0 -0.10880875852E+02  0.11563009050E+02  0.27013473387E+02  0.31334077009E+02  0.00000000000E+00 0. -1.
         11    1    1    2    0    0  0.18905962365E+02 -0.52559976015E+02 -0.62579979284E+02  0.83882300272E+02  0.00000000000E+00 0.  1.
<mgrwt>
<rscale>  0 0.12585152E+03</rscale>
<asrwt>0</asrwt>
<pdfrwt beam="1">  1        1 0.21701840E-01 0.13179182E+03</pdfrwt>
<pdfrwt beam="2">  1       -1 0.18197471E-01 0.13179182E+03</pdfrwt>
<totfact> 0.51484816E+03</totfact>
</mgrwt>
</event>
<event>
 7    1  0.6008063E-006  0.1532658E+03  0.7546771E-02  0.1203313E+00
          1   -1    0    0  501    0  0.00000000000E+00  0.00000000000E+00  0.58607657756E+03  0.58607657756E+03  0.00000000000E+00 0. -1.
         -1   -1    0    0    0  501 -0.00000000000E+00 -0.00000000000E+00 -0.37310943533E+02  0.37310943533E+02  0.00000000000E+00 0.  1.
         23    2    1    2    0    0  0.61076687209E+02 -0.64299473073E+02  0.37438049751E+03  0.40453821079E+03  0.12500249244E+03 0.  0.
          5    1    3    3  502    0 -0.10548743345E+02 -0.65029621411E+01 -0.49697677506E+01  0.14154613886E+02  0.47000000000E+01 0.  1.
         -5    1    3    3    0  502  0.71625430554E+02 -0.57796510932E+02  0.37935026526E+03  0.39038359690E+03  0.47000000000E+01 0.  1.
        -11    1    1    2    0    0  0.22213403437E+02  0.27061043632E+02  0.22338453664E+02  0.41530011881E+02  0.00000000000E+00 0.  1.
         11    1    1    2    0    0 -0.83290090646E+02  0.37238429440E+02  0.15204668286E+03  0.17731929843E+03  0.00000000000E+00 0. -1.
<mgrwt>
<rscale>  0 0.14771231E+03</rscale>
<asrwt>0</asrwt>
<pdfrwt beam="1">  1        1 0.90165620E-01 0.15326581E+03</pdfrwt>
<pdfrwt beam="2">  1       -1 0.57401456E-02 0.15326581E+03</pdfrwt>
<totfact> 0.50488374E+03</totfact>
</mgrwt>
</event>
<event>
 7    1  0.6008063E-006  0.1254051E+03  0.7546771E-02  0.1251525E+00
         -2   -1    0    0    0  501 -0.00000000000E+00  0.00000000000E+00  0.28756993173E+02  0.28756993173E+02  0.00000000000E+00 0.  1.
          2   -1    0    0  501    0  0.00000000000E+00 -0.00000000000E+00 -0.39887519517E+03  0.39887519517E+03  0.00000000000E+00 0. -1.
         23    2    1    2    0    0 -0.81416841909E+01 -0.58951875190E+01 -0.21450594032E+03  0.24847383212E+03  0.12500162623E+03 0.  0.
          5    1    3    3  502    0  0.12745326633E+02  0.24543134745E+02 -0.20897754233E+03  0.21085187221E+03  0.47000000000E+01 0.  1.
         -5    1    3    3    0  502 -0.20887010824E+02 -0.30438322264E+02 -0.55283979845E+01  0.37621959913E+02  0.47000000000E+01 0.  1.
        -11    1    1    2    0    0  0.26686591562E+02  0.42285574465E+01 -0.15808302887E+03  0.16037549341E+03  0.00000000000E+00 0. -1.
         11    1    1    2    0    0 -0.18544907372E+02  0.16666300725E+01  0.24707671906E+01  0.18782862820E+02  0.00000000000E+00 0.  1.
<mgrwt>
<rscale>  0 0.11503229E+03</rscale>
<asrwt>0</asrwt>
<pdfrwt beam="2">  1        2 0.61365408E-01 0.12540513E+03</pdfrwt>
<pdfrwt beam="1">  1       -2 0.44241533E-02 0.12540513E+03</pdfrwt>
<totfact> 0.17631143E+04</totfact>
</mgrwt>
</event>
<event>
 7    1  0.6008063E-006  0.1412299E+03  0.7546771E-02  0.1221042E+00
          1   -1    0    0  501    0  0.00000000000E+00  0.00000000000E+00  0.11669398271E+03  0.11669398271E+03  0.00000000000E+00 0. -1.
         -1   -1    0    0    0  501 -0.00000000000E+00 -0.00000000000E+00 -0.17236273441E+03  0.17236273441E+03  0.00000000000E+00 0.  1.
         23    2    1    2    0    0  0.50866792344E+00  0.65732123039E+02  0.30689738304E+02  0.14452597514E+03  0.12499970685E+03 0.  0.
          5    1    3    3  502    0  0.16855791853E+02 -0.38190448852E+01 -0.40051015239E+02  0.43873416148E+02  0.47000000000E+01 0.  1.
         -5    1    3    3    0  502 -0.16347123929E+02  0.69551167925E+02  0.70740753543E+02  0.10065255900E+03  0.47000000000E+01 0.  1.
        -11    1    1    2    0    0 -0.16411462637E+02 -0.45084077133E+02  0.61961648390E+01  0.48376673879E+02  0.00000000000E+00 0. -1.
         11    1    1    2    0    0  0.15902794714E+02 -0.20648045906E+02 -0.92554654844E+02  0.96154068103E+02  0.00000000000E+00 0.  1.
<mgrwt>
<rscale>  0 0.13441881E+03</rscale>
<asrwt>0</asrwt>
<pdfrwt beam="1">  1        1 0.17952920E-01 0.14122995E+03</pdfrwt>
<pdfrwt beam="2">  1       -1 0.26517344E-01 0.14122995E+03</pdfrwt>
<totfact> 0.35734144E+03</totfact>
</mgrwt>
</event>
<event>
 7    1  0.6008063E-006  0.1272414E+03  0.7546771E-02  0.1245554E+00
          2   -1    0    0  501    0  0.00000000000E+00  0.00000000000E+00  0.23487237019E+03  0.23487237019E+03  0.00000000000E+00 0.  1.
         -2   -1    0    0    0  501 -0.00000000000E+00 -0.00000000000E+00 -0.55634205749E+02  0.55634205749E+02  0.00000000000E+00 0. -1.
         23    2    1    2    0    0  0.18605078159E+01 -0.23801516537E+02  0.13326806181E+03  0.18425729391E+03  0.12498160018E+03 0.  0.
          5    1    3    3  502    0 -0.31735944288E+02 -0.35191479635E+02  0.13997135191E+03  0.14785019362E+03  0.47000000000E+01 0.  1.
         -5    1    3    3    0  502  0.33596452104E+02  0.11389963097E+02 -0.67032901007E+01  0.36407100290E+02  0.47000000000E+01 0.  1.
        -11    1    1    2    0    0 -0.31698777520E+02  0.28976715497E+02  0.59253077813E+02  0.73180528609E+02  0.00000000000E+00 0.  1.
         11    1    1    2    0    0  0.29838269704E+02 -0.51751989593E+01 -0.13282975178E+02  0.33068753420E+02  0.00000000000E+00 0. -1.
<mgrwt>
<rscale>  0 0.11852255E+03</rscale>
<asrwt>0</asrwt>
<pdfrwt beam="1">  1        2 0.36134210E-01 0.12724140E+03</pdfrwt>
<pdfrwt beam="2">  1       -2 0.85591087E-02 0.12724140E+03</pdfrwt>
<totfact> 0.11373002E+04</totfact>
</mgrwt>
</event>
<event>
 7    1  0.6008063E-006  0.1731885E+03  0.7546771E-02  0.1180864E+00
         -1   -1    0    0    0  501 -0.00000000000E+00  0.00000000000E+00  0.15333015824E+03  0.15333015824E+03  0.00000000000E+00 0.  1.
          1   -1    0    0  501    0  0.00000000000E+00 -0.00000000000E+00 -0.38111480213E+03  0.38111480213E+03  0.00000000000E+00 0. -1.
         23    2    1    2    0    0 -0.11984305695E+03  0.28558110634E+01 -0.31591383667E+03  0.36027186203E+03  0.12499499356E+03 0.  0.
          5    1    3    3  502    0 -0.20682697924E+02 -0.54442191696E+02 -0.11359340739E+03  0.12773910299E+03  0.47000000000E+01 0. -1.
         -5    1    3    3    0  502 -0.99160359029E+02  0.57298002759E+02 -0.20232042928E+03  0.23253275904E+03  0.47000000000E+01 0. -1.
        -11    1    1    2    0    0  0.29319518166E+02  0.23290463401E+02  0.68291902453E+02  0.77883655356E+02  0.00000000000E+00 0.  1.
         11    1    1    2    0    0  0.90523538788E+02 -0.26146274465E+02  0.19837290321E+02  0.96289442985E+02  0.00000000000E+00 0. -1.
<mgrwt>
<rscale>  0 0.16713969E+03</rscale>
<asrwt>0</asrwt>
<pdfrwt beam="2">  1        1 0.58633045E-01 0.17318852E+03</pdfrwt>
<pdfrwt beam="1">  1       -1 0.23589256E-01 0.17318852E+03</pdfrwt>
<totfact> 0.98798096E+02</totfact>
</mgrwt>
</event>
<event>
 7    1  0.6008063E-006  0.1264389E+03  0.7546771E-02  0.1248086E+00
         -1   -1    0    0    0  501 -0.00000000000E+00  0.00000000000E+00  0.36165721338E+02  0.36165721338E+02  0.00000000000E+00 0.  1.
          1   -1    0    0  501    0  0.00000000000E+00 -0.00000000000E+00 -0.34852799978E+03  0.34852799978E+03  0.00000000000E+00 0. -1.
         23    2    1    2    0    0 -0.18663224866E+02 -0.38462704932E+01 -0.22017043390E+03  0.25389330742E+03  0.12499472719E+03 0.  0.
          5    1    3    3  502    0 -0.65444057720E+02  0.22233743113E+02 -0.15223278091E+03  0.16725481639E+03  0.47000000000E+01 0. -1.
         -5    1    3    3    0  502  0.46780832854E+02 -0.26080013606E+02 -0.67937652994E+02  0.86638491022E+02  0.47000000000E+01 0. -1.
        -11    1    1    2    0    0 -0.14124817712E+02  0.40686147754E+02 -0.49064665894E+02  0.65285638036E+02  0.00000000000E+00 0. -1.
         11    1    1    2    0    0  0.32788042578E+02 -0.36839877261E+02 -0.43127178642E+02  0.65514775665E+02  0.00000000000E+00 0.  1.
<mgrwt>
<rscale>  0 0.11702595E+03</rscale>
<asrwt>0</asrwt>
<pdfrwt beam="2">  1        1 0.53619694E-01 0.12643888E+03</pdfrwt>
<pdfrwt beam="1">  1       -1 0.55639570E-02 0.12643888E+03</pdfrwt>
<totfact> 0.10209174E+04</totfact>
</mgrwt>
</event>
<event>
 7    1  0.6008063E-006  0.2070162E+03  0.7546771E-02  0.1147916E+00
         -2   -1    0    0    0  501 -0.00000000000E+00  0.00000000000E+00  0.15529066485E+03  0.15529066485E+03  0.00000000000E+00 0.  1.
          2   -1    0    0  501    0  0.00000000000E+00 -0.00000000000E+00 -0.40577448073E+03  0.40577448073E+03  0.00000000000E+00 0. -1.
         23    2    1    2    0    0 -0.13425242345E+03 -0.95940554725E+02 -0.30170788333E+03  0.36590072617E+03  0.12500956485E+03 0.  0.
          5    1    3    3  502    0 -0.78259774944E+02 -0.90504747908E+01 -0.49168860461E+02  0.92984785353E+02  0.47000000000E+01 0.  1.
         -5    1    3    3    0  502 -0.55992648502E+02 -0.86890079934E+02 -0.25253902287E+03  0.27291594082E+03  0.47000000000E+01 0.  1.
        -11    1    1    2    0    0  0.71024504199E+02  0.73278006631E+02  0.71960311681E+02  0.12486966369E+03  0.00000000000E+00 0.  1.
         11    1    1    2    0    0  0.63227919246E+02  0.22662548094E+02 -0.20736244224E+02  0.70294755728E+02  0.00000000000E+00 0. -1.
<mgrwt>
<rscale>  0 0.20217552E+03</rscale>
<asrwt>0</asrwt>
<pdfrwt beam="2">  1        2 0.62426842E-01 0.20701617E+03</pdfrwt>
<pdfrwt beam="1">  1       -2 0.23890872E-01 0.20701617E+03</pdfrwt>
<totfact> 0.12070964E+03</totfact>
</mgrwt>
</event>
<event>
 7    1  0.6008063E-006  0.1355263E+03  0.7546771E-02  0.1231925E+00
          3   -1    0    0  501    0  0.00000000000E+00  0.00000000000E+00  0.47505568367E+02  0.47505568367E+02  0.00000000000E+00 0. -1.
         -3   -1    0    0    0  501 -0.00000000000E+00 -0.00000000000E+00 -0.32175205984E+03  0.32175205984E+03  0.00000000000E+00 0.  1.
         23    2    1    2    0    0 -0.13690889130E+02  0.50562231453E+02 -0.11012124554E+03  0.17462552211E+03  0.12499361806E+03 0.  0.
          5    1    3    3  502    0  0.37399178760E+02  0.68518552088E+02 -0.46650154563E+02  0.91059417266E+02  0.47000000000E+01 0.  1.
         -5    1    3    3    0  502 -0.51090067890E+02 -0.17956320635E+02 -0.63471090981E+02  0.83566104839E+02  0.47000000000E+01 0.  1.
        -11    1    1    2    0    0 -0.22794536943E+02 -0.88608815364E+01 -0.12356997174E+03  0.12596683711E+03  0.00000000000E+00 0.  1.
         11    1    1    2    0    0  0.36485426073E+02 -0.41701349916E+02 -0.40555274182E+02  0.68665268983E+02  0.00000000000E+00 0. -1.
<mgrwt>
<rscale>  0 0.12703329E+03</rscale>
<asrwt>0</asrwt>
<pdfrwt beam="1">  1        3 0.73085488E-02 0.13552632E+03</pdfrwt>
<pdfrwt beam="2">  1       -3 0.49500318E-01 0.13552632E+03</pdfrwt>
<totfact> 0.11610792E+03</totfact>
</mgrwt>
</event>
<event>
 7    1  0.6008063E-006  0.1376997E+03  0.7546771E-02  0.1227913E+00
         -2   -1    0    0    0  501 -0.00000000000E+00  0.00000000000E+00  0.47154349465E+02  0.47154349465E+02  0.00000000000E+00 0.  1.
          2   -1    0    0  501    0  0.00000000000E+00 -0.00000000000E+00 -0.35665138009E+03  0.35665138009E+03  0.00000000000E+00 0. -1.
         23    2    1    2    0    0  0.57757173567E+02  0.12045722399E+01 -0.23478930720E+03  0.27218967713E+03  0.12499543779E+03 0.  0.
          5    1    3    3  502    0 -0.38105562846E+02  0.92833307195E+01 -0.49193611809E+02  0.63089742367E+02  0.47000000000E+01 0. -1.
         -5    1    3    3    0  502  0.95862736413E+02 -0.80787584796E+01 -0.18559569539E+03  0.20909993477E+03  0.47000000000E+01 0. -1.
        -11    1    1    2    0    0 -0.31335620193E+02 -0.34157077415E+02 -0.76381033419E+02  0.89345896921E+02  0.00000000000E+00 0. -1.
         11    1    1    2    0    0 -0.26421553374E+02  0.32952505176E+02  0.16733099919E+01  0.42270155504E+02  0.00000000000E+00 0.  1.
<mgrwt>
<rscale>  0 0.12969264E+03</rscale>
<asrwt>0</asrwt>
<pdfrwt beam="2">  1        2 0.54869444E-01 0.13769968E+03</pdfrwt>
<pdfrwt beam="1">  1       -2 0.72545152E-02 0.13769968E+03</pdfrwt>
<totfact> 0.94786485E+03</totfact>
</mgrwt>
</event>
<event>
 7    1  0.6008063E-006  0.1257445E+03  0.7546771E-02  0.1248515E+00
          1   -1    0    0  501    0  0.00000000000E+00  0.00000000000E+00  0.26428727174E+03  0.26428727174E+03  0.00000000000E+00 0. -1.
         -1   -1    0    0    0  501 -0.00000000000E+00 -0.00000000000E+00 -0.46414892068E+02  0.46414892068E+02  0.00000000000E+00 0.  1.
         23    2    1    2    0    0 -0.63821602086E+01  0.11787562297E+02  0.14644060171E+03  0.19301951306E+03  0.12502801286E+03 0.  0.
          5    1    3    3  502    0 -0.61097627530E+02  0.28433926999E+02  0.68227141291E+02  0.96012713237E+02  0.47000000000E+01 0. -1.
         -5    1    3    3    0  502  0.54715467321E+02 -0.16646364702E+02  0.78213460416E+02  0.97006799825E+02  0.47000000000E+01 0. -1.
        -11    1    1    2    0    0 -0.21903893659E+02 -0.17135751334E+02 -0.11350809575E+02  0.30037566633E+02  0.00000000000E+00 0.  1.
         11    1    1    2    0    0  0.28286053868E+02  0.53481890364E+01  0.82782587544E+02  0.87645084117E+02  0.00000000000E+00 0. -1.
<mgrwt>
<rscale>  0 0.11677432E+03</rscale>
<asrwt>0</asrwt>
<pdfrwt beam="1">  1        1 0.40659579E-01 0.12574451E+03</pdfrwt>
<pdfrwt beam="2">  1       -1 0.71407528E-02 0.12574451E+03</pdfrwt>
<totfact> 0.99063897E+03</totfact>
</mgrwt>
</event>
<event>
 7    1  0.6008063E-006  0.1579657E+03  0.7546771E-02  0.1197345E+00
          2   -1    0    0  501    0  0.00000000000E+00  0.00000000000E+00  0.17040370555E+03  0.17040370555E+03  0.00000000000E+00 0. -1.
         -2   -1    0    0    0  501 -0.00000000000E+00 -0.00000000000E+00 -0.39002137336E+03  0.39002137336E+03  0.00000000000E+00 0.  1.
         23    2    1    2    0    0 -0.96508109792E+02  0.64886624898E+01  0.11715738356E+03  0.19666979335E+03  0.12488889902E+03 0.  0.
          5    1    3    3  502    0 -0.87082664950E+02 -0.38542874513E+02  0.33463891809E+02  0.10104882862E+03  0.47000000000E+01 0. -1.
         -5    1    3    3    0  502 -0.94254448418E+01  0.45031537003E+02  0.83693491748E+02  0.95620964732E+02  0.47000000000E+01 0. -1.
        -11    1    1    2    0    0  0.19888527003E+02  0.40412326543E+02 -0.14786580447E+03  0.15457362574E+03  0.00000000000E+00 0.  1.
         11    1    1    2    0    0  0.76619582789E+02 -0.46900989032E+02 -0.18890924690E+03  0.20918165981E+03  0.00000000000E+00 0. -1.
<mgrwt>
<rscale>  0 0.15257421E+03</rscale>
<asrwt>0</asrwt>
<pdfrwt beam="1">  1        2 0.26215955E-01 0.15796568E+03</pdfrwt>
<pdfrwt beam="2">  1       -2 0.60003287E-01 0.15796568E+03</pdfrwt>
<totfact> 0.53775001E+02</totfact>
</mgrwt>
</event>
<event>
 7    1  0.6008063E-006  0.1462956E+03  0.7546771E-02  0.1214683E+00
          3   -1    0    0  501    0  0.00000000000E+00  0.00000000000E+00  0.16417351667E+03  0.16417351667E+03  0.00000000000E+00 0. -1.
         -3   -1    0    0    0  501 -0.00000000000E+00 -0.00000000000E+00 -0.11670070300E+03  0.11670070300E+03  0.00000000000E+00 0.  1.
         23    2    1    2    0    0 -0.68919151037E+02 -0.32062292582E+02  0.65518834396E+02  0.16029699471E+03  0.12499827546E+03 0.  0.
          5    1    3    3  502    0 -0.58620906709E+02 -0.44158409886E+02  0.98773058542E+02  0.12314456123E+03  0.47000000000E+01 0. -1.
         -5    1    3    3    0  502 -0.10298244328E+02  0.12096117304E+02 -0.33254224146E+02  0.37152433482E+02  0.47000000000E+01 0. -1.
        -11    1    1    2    0    0  0.16040658761E+02 -0.17150375846E+02  0.26737489971E+02  0.35585551774E+02  0.00000000000E+00 0. -1.
         11    1    1    2    0    0  0.52878492276E+02  0.49212668428E+02 -0.44783510696E+02  0.84991673177E+02  0.00000000000E+00 0.  1.
<mgrwt>
<rscale>  0 0.13899847E+03</rscale>
<asrwt>0</asrwt>
<pdfrwt beam="1">  1        3 0.25257464E-01 0.14629562E+03</pdfrwt>
<pdfrwt beam="2">  1       -3 0.17953954E-01 0.14629562E+03</pdfrwt>
<totfact> 0.93449732E+02</totfact>
</mgrwt>
</event>
<event>
 7    1  0.6008063E-006  0.1279834E+03  0.7546771E-02  0.1246340E+00
          2   -1    0    0  501    0  0.00000000000E+00  0.00000000000E+00  0.87061604634E+02  0.87061604634E+02  0.00000000000E+00 0.  1.
         -2   -1    0    0    0  501 -0.00000000000E+00 -0.00000000000E+00 -0.13993062449E+03  0.13993062449E+03  0.00000000000E+00 0. -1.
         23    2    1    2    0    0 -0.17768869952E+02 -0.21013631979E+02 -0.27139190236E+02  0.13082924292E+03  0.12498979833E+03 0.  0.
          5    1    3    3  502    0  0.42855210964E+02  0.26322369503E+02 -0.56339364978E+01  0.50825854479E+02  0.47000000000E+01 0. -1.
         -5    1    3    3    0  502 -0.60624080915E+02 -0.47336001482E+02 -0.21505253738E+02  0.80003388438E+02  0.47000000000E+01 0. -1.
        -11    1    1    2    0    0  0.49482559170E+02 -0.22926701630E+01 -0.73670140383E+00  0.49541121580E+02  0.00000000000E+00 0.  1.
         11    1    1    2    0    0 -0.31713689218E+02  0.23306302142E+02 -0.24993128218E+02  0.46621864629E+02  0.00000000000E+00 0. -1.
<mgrwt>
<rscale>  0 0.11805508E+03</rscale>
<asrwt>0</asrwt>
<pdfrwt beam="1">  1        2 0.13394093E-01 0.12798342E+03</pdfrwt>
<pdfrwt beam="2">  1       -2 0.21527788E-01 0.12798342E+03</pdfrwt>
<totfact> 0.77642940E+03</totfact>
</mgrwt>
</event>
<event>
 7    1  0.6008063E-006  0.1382749E+03  0.7546771E-02  0.1226686E+00
         -2   -1    0    0    0  501 -0.00000000000E+00  0.00000000000E+00  0.26231082496E+02  0.26231082496E+02  0.00000000000E+00 0.  1.
          2   -1    0    0  501    0  0.00000000000E+00 -0.00000000000E+00 -0.59649102549E+03  0.59649102549E+03  0.00000000000E+00 0. -1.
         23    2    1    2    0    0  0.29526074240E+02  0.51267121898E+02 -0.35760425135E+03  0.38340676514E+03  0.12497935880E+03 0.  0.
          5    1    3    3  502    0  0.52147009881E+02  0.40439111299E+02 -0.35082186597E+03  0.35700518765E+03  0.47000000000E+01 0. -1.
         -5    1    3    3    0  502 -0.22620935641E+02  0.10828010599E+02 -0.67823853770E+01  0.26401577495E+02  0.47000000000E+01 0. -1.
        -11    1    1    2    0    0 -0.50459845795E+02 -0.34896754755E+02 -0.20125477794E+03  0.21039834879E+03  0.00000000000E+00 0. -1.
         11    1    1    2    0    0  0.20933771554E+02 -0.16370367143E+02 -0.11400913706E+02  0.28916994055E+02  0.00000000000E+00 0.  1.
<mgrwt>
<rscale>  0 0.13052032E+03</rscale>
<asrwt>0</asrwt>
<pdfrwt beam="2">  1        2 0.91767849E-01 0.13827490E+03</pdfrwt>
<pdfrwt beam="1">  1       -2 0.40355512E-02 0.13827490E+03</pdfrwt>
<totfact> 0.13113134E+04</totfact>
</mgrwt>
</event>
<event>
 7    1  0.6008063E-006  0.1652357E+03  0.7546771E-02  0.1190231E+00
          2   -1    0    0  501    0  0.00000000000E+00  0.00000000000E+00  0.56877469866E+03  0.56877469866E+03  0.00000000000E+00 0. -1.
         -2   -1    0    0    0  501 -0.00000000000E+00 -0.00000000000E+00 -0.49890276705E+02  0.49890276705E+02  0.00000000000E+00 0.  1.
         23    2    1    2    0    0  0.10406994842E+03  0.29167423475E+02  0.40653106593E+03  0.43882837679E+03  0.12498617507E+03 0.  0.
          5    1    3    3  502    0  0.49715673294E+02  0.46531210517E+02  0.35593958239E+03  0.36242499643E+03  0.47000000000E+01 0.  1.
         -5    1    3    3    0  502  0.54354275123E+02 -0.17363787042E+02  0.50591483539E+02  0.76403380366E+02  0.47000000000E+01 0.  1.
        -11    1    1    2    0    0 -0.34797865917E+02  0.84645833387E+01  0.91547954097E+02  0.98303451327E+02  0.00000000000E+00 0. -1.
         11    1    1    2    0    0 -0.69272082500E+02 -0.37632006813E+02  0.20805401932E+02  0.81533147249E+02  0.00000000000E+00 0.  1.
<mgrwt>
<rscale>  0 0.15864835E+03</rscale>
<asrwt>0</asrwt>
<pdfrwt beam="1">  1        2 0.87503795E-01 0.16523570E+03</pdfrwt>
<pdfrwt beam="2">  1       -2 0.76754276E-02 0.16523570E+03</pdfrwt>
<totfact> 0.52814636E+03</totfact>
</mgrwt>
</event>
<event>
 6    1  0.6008063E-006  0.1384462E+03  0.7546771E-02  0.1229179E+00
          1   -1    0    0  501    0  0.00000000000E+00  0.00000000000E+00  0.26435050326E+03  0.26435050326E+03  0.00000000000E+00 0. -1.
         -1   -1    0    0    0  501 -0.00000000000E+00 -0.00000000000E+00 -0.67841252891E+02  0.67841252891E+02  0.00000000000E+00 0.  1.
          5    1    1    2  502    0  0.22576805437E+02  0.69430106756E+02  0.72606126439E+02  0.10307274841E+03  0.47000000000E+01 0. -1.
         -5    1    1    2    0  502 -0.52997112076E+02 -0.31877470643E+02  0.10731162926E+03  0.12394653201E+03  0.47000000000E+01 0.  1.
        -11    1    1    2    0    0  0.50981363407E+02 -0.56322742364E+02  0.13524933882E+02  0.77163945977E+02  0.00000000000E+00 0.  1.
         11    1    1    2    0    0 -0.20561056768E+02  0.18770106252E+02  0.30665607904E+01  0.28008529758E+02  0.00000000000E+00 0. -1.
<mgrwt>
<rscale>  0 0.12884520E+03</rscale>
<asrwt>0</asrwt>
<pdfrwt beam="1">  1        1 0.40669308E-01 0.13844622E+03</pdfrwt>
<pdfrwt beam="2">  1       -1 0.10437116E-01 0.13844622E+03</pdfrwt>
<totfact> 0.56133480E+03</totfact>
</mgrwt>
</event>
<event>
 7    1  0.6008063E-006  0.1344701E+03  0.7546771E-02  0.1233386E+00
         -2   -1    0    0    0  501 -0.00000000000E+00  0.00000000000E+00  0.39641416201E+03  0.39641416201E+03  0.00000000000E+00 0.  1.
          2   -1    0    0  501    0  0.00000000000E+00 -0.00000000000E+00 -0.36443762465E+02  0.36443762465E+02  0.00000000000E+00 0. -1.
         23    2    1    2    0    0  0.16826004826E+02 -0.46624401810E+02  0.17511407949E+03  0.22078758568E+03  0.12500107148E+03 0.  0.
          5    1    3    3  502    0 -0.18566887068E+01 -0.47688632228E+02  0.19029030280E+03  0.19624001191E+03  0.47000000000E+01 0. -1.
         -5    1    3    3    0  502  0.18682693533E+02  0.10642304181E+01 -0.15176223305E+02  0.24547573767E+02  0.47000000000E+01 0. -1.
        -11    1    1    2    0    0 -0.39694774536E+02  0.62839083820E+02  0.14942423670E+03  0.16688926896E+03  0.00000000000E+00 0.  1.
         11    1    1    2    0    0  0.22868769710E+02 -0.16214682011E+02  0.35432083355E+02  0.45181069837E+02  0.00000000000E+00 0. -1.
<mgrwt>
<rscale>  0 0.12608321E+03</rscale>
<asrwt>0</asrwt>
<pdfrwt beam="2">  1        2 0.56067330E-02 0.13447013E+03</pdfrwt>
<pdfrwt beam="1">  1       -2 0.60986791E-01 0.13447013E+03</pdfrwt>
<totfact> 0.32946898E+03</totfact>
</mgrwt>
</event>
<event>
 7    1  0.6008063E-006  0.1449182E+03  0.7546771E-02  0.1218760E+00
          2   -1    0    0  501    0  0.00000000000E+00  0.00000000000E+00  0.28697449827E+03  0.28697449827E+03  0.00000000000E+00 0. -1.
         -2   -1    0    0    0  501 -0.00000000000E+00 -0.00000000000E+00 -0.60449485107E+02  0.60449485107E+02  0.00000000000E+00 0.  1.
         23    2    1    2    0    0  0.71667834550E+02 -0.15487433494E+02  0.16335213360E+03  0.21836940804E+03  0.12500055884E+03 0.  0.
          5    1    3    3  502    0  0.10512932227E+03 -0.30113812286E+01  0.98428315142E+02  0.14412309336E+03  0.47000000000E+01 0.  1.
         -5    1    3    3    0  502 -0.33461487721E+02 -0.12476052266E+02  0.64923818460E+02  0.74246314683E+02  0.47000000000E+01 0.  1.
        -11    1    1    2    0    0 -0.14535144706E+02 -0.10817504315E+02  0.63625902804E+02  0.66155455851E+02  0.00000000000E+00 0.  1.
         11    1    1    2    0    0 -0.57132689844E+02  0.26304937809E+02 -0.45302324145E+00  0.62899119485E+02  0.00000000000E+00 0. -1.
<mgrwt>
<rscale>  0 0.13603939E+03</rscale>
<asrwt>0</asrwt>
<pdfrwt beam="1">  1        2 0.44149922E-01 0.14491818E+03</pdfrwt>
<pdfrwt beam="2">  1       -2 0.92999209E-02 0.14491818E+03</pdfrwt>
<totfact> 0.81550230E+03</totfact>
</mgrwt>
</event>
<event>
 7    1  0.6008063E-006  0.1440675E+03  0.7546771E-02  0.1218301E+00
         -2   -1    0    0    0  501 -0.00000000000E+00  0.00000000000E+00  0.17370197588E+02  0.17370197588E+02  0.00000000000E+00 0.  1.
          2   -1    0    0  501    0  0.00000000000E+00 -0.00000000000E+00 -0.11320346886E+04  0.11320346886E+04  0.00000000000E+00 0. -1.
         23    2    1    2    0    0 -0.59915146422E+01 -0.71375904824E+02 -0.82537595393E+03  0.83785495306E+03  0.12500015600E+03 0.  0.
          5    1    3    3  502    0 -0.23049733502E+02 -0.94165910071E+01 -0.65824757164E+03  0.65873508938E+03  0.47000000000E+01 0.  1.
         -5    1    3    3    0  502  0.17058218860E+02 -0.61959313817E+02 -0.16712838228E+03  0.17911986368E+03  0.47000000000E+01 0.  1.
        -11    1    1    2    0    0 -0.33007362161E+02  0.51109754322E+02 -0.98587352131E+02  0.11584972570E+03  0.00000000000E+00 0. -1.
         11    1    1    2    0    0  0.38998876803E+02  0.20266150502E+02 -0.19070118493E+03  0.19570020741E+03  0.00000000000E+00 0.  1.
<mgrwt>
<rscale>  0 0.13636829E+03</rscale>
<asrwt>0</asrwt>
<pdfrwt beam="2">  1        2 0.17415917E+00 0.14406754E+03</pdfrwt>
<pdfrwt beam="1">  1       -2 0.26723383E-02 0.14406754E+03</pdfrwt>
<totfact> 0.10672952E+04</totfact>
</mgrwt>
</event>
<event>
 7    1  0.6008063E-006  0.1285229E+03  0.7546771E-02  0.1244645E+00
          1   -1    0    0  501    0  0.00000000000E+00  0.00000000000E+00  0.26078353814E+03  0.26078353814E+03  0.00000000000E+00 0. -1.
         -1   -1    0    0    0  501 -0.00000000000E+00 -0.00000000000E+00 -0.50388275877E+02  0.50388275877E+02  0.00000000000E+00 0.  1.
         23    2    1    2    0    0 -0.25216180188E+02  0.16067790418E+02  0.15549102058E+03  0.20173151019E+03  0.12499646030E+03 0.  0.
          5    1    3    3  502    0  0.43423082691E+02 -0.22175249574E+02  0.70975970813E+02  0.86237951256E+02  0.47000000000E+01 0.  1.
         -5    1    3    3    0  502 -0.68639262879E+02  0.38243039993E+02  0.84515049770E+02  0.11549355893E+03  0.47000000000E+01 0.  1.
        -11    1    1    2    0    0 -0.90780776225E+01 -0.38785869139E+02  0.55480717828E+02  0.68299818367E+02  0.00000000000E+00 0.  1.
         11    1    1    2    0    0  0.34294257810E+02  0.22718078721E+02 -0.57647614780E+00  0.41140485465E+02  0.00000000000E+00 0. -1.
<mgrwt>
<rscale>  0 0.11906671E+03</rscale>
<asrwt>0</asrwt>
<pdfrwt beam="1">  1        1 0.40120544E-01 0.12852293E+03</pdfrwt>
<pdfrwt beam="2">  1       -1 0.77520426E-02 0.12852293E+03</pdfrwt>
<totfact> 0.89177854E+03</totfact>
</mgrwt>
</event>
<event>
 6    1  0.6008063E-006  0.2650826E+03  0.7546771E-02  0.1145559E+00
          2   -1    0    0  501    0  0.00000000000E+00  0.00000000000E+00  0.11285731336E+04  0.11285731336E+04  0.00000000000E+00 0. -1.
         -2   -1    0    0    0  501 -0.00000000000E+00 -0.00000000000E+00 -0.28800626231E+02  0.28800626231E+02  0.00000000000E+00 0.  1.
          5    1    1    2  502    0  0.10988419388E+03  0.15336314503E+02  0.71562240093E+03  0.72418730265E+03  0.47000000000E+01 0. -1.
         -5    1    1    2    0  502 -0.94263403071E+02  0.99796524393E+01  0.12315677157E+03  0.15548267751E+03  0.47000000000E+01 0.  1.
        -11    1    1    2    0    0  0.96260184836E+00  0.23239663553E+02  0.18160821789E+02  0.29509727421E+02  0.00000000000E+00 0.  1.
         11    1    1    2    0    0 -0.16583392657E+02 -0.48555630496E+02  0.24283251304E+03  0.24819405222E+03  0.00000000000E+00 0. -1.
<mgrwt>
<rscale>  0 0.20503475E+03</rscale>
<asrwt>0</asrwt>
<pdfrwt beam="1">  1        2 0.17362660E+00 0.26508258E+03</pdfrwt>
<pdfrwt beam="2">  1       -2 0.44308664E-02 0.26508258E+03</pdfrwt>
<totfact> 0.51609908E+03</totfact>
</mgrwt>
</event>
<event>
 7    1  0.6008063E-006  0.1304014E+03  0.7546771E-02  0.1241085E+00
          1   -1    0    0  501    0  0.00000000000E+00  0.00000000000E+00  0.69551655059E+03  0.69551655059E+03  0.00000000000E+00 0. -1.
         -1   -1    0    0    0  501 -0.00000000000E+00 -0.00000000000E+00 -0.23087165762E+02  0.23087165762E+02  0.00000000000E+00 0.  1.
         23    2    1    2    0    0  0.15366026914E+01  0.37111399944E+02  0.53169019086E+03  0.54744769676E+03  0.12499961792E+03 0.  0.
          5    1    3    3  502    0 -0.20529426465E+02 -0.38222182256E+02  0.29053966142E+03  0.29379887240E+03  0.47000000000E+01 0.  1.
         -5    1    3    3    0  502  0.22066029157E+02  0.75333582200E+02  0.24115052944E+03  0.25364882436E+03  0.47000000000E+01 0.  1.
        -11    1    1    2    0    0 -0.32643437217E+02 -0.53166265841E+02  0.89164276324E+02  0.10882331547E+03  0.00000000000E+00 0. -1.
         11    1    1    2    0    0  0.31106834526E+02  0.16054865898E+02  0.51574917642E+02  0.62332704120E+02  0.00000000000E+00 0.  1.
<mgrwt>
<rscale>  0 0.12122773E+03</rscale>
<asrwt>0</asrwt>
<pdfrwt beam="1">  1        1 0.10700253E+00 0.13040139E+03</pdfrwt>
<pdfrwt beam="2">  1       -1 0.35518722E-02 0.13040139E+03</pdfrwt>
<totfact> 0.80130491E+03</totfact>
</mgrwt>
</event>
<event>
 7    1  0.6008063E-006  0.1317788E+03  0.7546771E-02  0.1238385E+00
          1   -1    0    0  501    0  0.00000000000E+00  0.00000000000E+00  0.70201144000E+02  0.70201144000E+02  0.00000000000E+00 0. -1.
         -1   -1    0    0    0  501 -0.00000000000E+00 -0.00000000000E+00 -0.19722817546E+03  0.19722817546E+03  0.00000000000E+00 0.  1.
         23    2    1    2    0    0 -0.21913636527E+02 -0.35500878906E+02 -0.48148135175E+02  0.14029930743E+03  0.12500053150E+03 0.  0.
          5    1    3    3  502    0  0.40071922894E+02 -0.27581027110E+02  0.15210442434E+02  0.51185150384E+02  0.47000000000E+01 0. -1.
         -5    1    3    3    0  502 -0.61985559421E+02 -0.79198517963E+01 -0.63358577608E+02  0.89114157045E+02  0.47000000000E+01 0. -1.
        -11    1    1    2    0    0  0.81934141417E+01  0.47255565360E+02 -0.92707167562E+02  0.10437834742E+03  0.00000000000E+00 0.  1.
         11    1    1    2    0    0  0.13720222386E+02 -0.11754686454E+02  0.13828271278E+02  0.22751664610E+02  0.00000000000E+00 0. -1.
<mgrwt>
<rscale>  0 0.12290183E+03</rscale>
<asrwt>0</asrwt>
<pdfrwt beam="1">  1        1 0.10800176E-01 0.13177880E+03</pdfrwt>
<pdfrwt beam="2">  1       -1 0.30342796E-01 0.13177880E+03</pdfrwt>
<totfact> 0.55037372E+03</totfact>
</mgrwt>
</event>
<event>
 7    1  0.6008063E-006  0.1190485E+03  0.7546771E-02  0.1252780E+00
          1   -1    0    0  501    0  0.00000000000E+00  0.00000000000E+00  0.83880708803E+03  0.83880708803E+03  0.00000000000E+00 0. -1.
         -1   -1    0    0    0  501 -0.00000000000E+00 -0.00000000000E+00 -0.24843314797E+02  0.24843314797E+02  0.00000000000E+00 0.  1.
         23    2    1    2    0    0 -0.41761388548E+02 -0.14567639644E+02  0.70479650984E+03  0.71478015248E+03  0.11052744636E+03 0.  0.
          5    1    3    3  502    0 -0.31414945256E+02  0.36384065642E+02  0.15118101848E+03  0.15870881944E+03  0.47000000000E+01 0. -1.
         -5    1    3    3    0  502 -0.10346443292E+02 -0.50951705286E+02  0.55361549136E+03  0.55607133304E+03  0.47000000000E+01 0.  1.
        -11    1    1    2    0    0  0.48942765913E+02 -0.12187836912E+02  0.17945471396E+02  0.53534826491E+02  0.00000000000E+00 0.  1.
         11    1    1    2    0    0 -0.71813773645E+01  0.26755476556E+02  0.91221791995E+02  0.95335423854E+02  0.00000000000E+00 0. -1.
<mgrwt>
<rscale>  0 0.11431579E+03</rscale>
<asrwt>0</asrwt>
<pdfrwt beam="1">  1        1 0.12904722E+00 0.11904850E+03</pdfrwt>
<pdfrwt beam="2">  1       -1 0.38220491E-02 0.11904850E+03</pdfrwt>
<totfact> 0.54347799E+03</totfact>
</mgrwt>
</event>
<event>
 7    1  0.6008063E-006  0.2106707E+03  0.7546771E-02  0.1144812E+00
         -3   -1    0    0    0  501 -0.00000000000E+00  0.00000000000E+00  0.91546080551E+03  0.91546080551E+03  0.00000000000E+00 0.  1.
          3   -1    0    0  501    0  0.00000000000E+00 -0.00000000000E+00 -0.44574269865E+02  0.44574269865E+02  0.00000000000E+00 0. -1.
         23    2    1    2    0    0 -0.47278079681E+02 -0.16285723680E+03  0.42276484367E+03  0.47234758311E+03  0.12499771930E+03 0.  0.
          5    1    3    3  502    0 -0.72283933697E+01 -0.73316873387E+02  0.55987725250E+02  0.92651653912E+02  0.47000000000E+01 0.  1.
         -5    1    3    3    0  502 -0.40049686312E+02 -0.89540363411E+02  0.36677711842E+03  0.37969592919E+03  0.47000000000E+01 0.  1.
        -11    1    1    2    0    0  0.23977317644E+02  0.10080854237E+02  0.20881290243E+02  0.33355114537E+02  0.00000000000E+00 0. -1.
         11    1    1    2    0    0  0.23300762037E+02  0.15277638256E+03  0.42724040173E+03  0.45433237773E+03  0.00000000000E+00 0.  1.
<mgrwt>
<rscale>  0 0.20595221E+03</rscale>
<asrwt>0</asrwt>
<pdfrwt beam="2">  1        3 0.68575807E-02 0.21067066E+03</pdfrwt>
<pdfrwt beam="1">  1       -3 0.14084011E+00 0.21067066E+03</pdfrwt>
<totfact> 0.13496379E+02</totfact>
</mgrwt>
</event>
<event>
 7    1  0.6008063E-006  0.1755347E+03  0.7546771E-02  0.1178294E+00
         -2   -1    0    0    0  501 -0.00000000000E+00  0.00000000000E+00  0.87180735505E+02  0.87180735505E+02  0.00000000000E+00 0.  1.
          2   -1    0    0  501    0  0.00000000000E+00 -0.00000000000E+00 -0.33148412236E+03  0.33148412236E+03  0.00000000000E+00 0. -1.
         23    2    1    2    0    0 -0.12478811596E+03  0.19663373923E+02 -0.18407551574E+03  0.25435449628E+03  0.12187572410E+03 0.  0.
          5    1    3    3  502    0 -0.28508699178E+02 -0.28264949678E+02 -0.12539417063E+03  0.13174764262E+03  0.47000000000E+01 0. -1.
         -5    1    3    3    0  502 -0.96279416782E+02  0.47928323601E+02 -0.58681345106E+02  0.12260685365E+03  0.47000000000E+01 0.  1.
        -11    1    1    2    0    0  0.92670302010E+02  0.16989639430E+02 -0.66292687872E+02  0.11520049127E+03  0.00000000000E+00 0.  1.
         11    1    1    2    0    0  0.32117813950E+02 -0.36653013352E+02  0.60648167543E+01  0.49109870322E+02  0.00000000000E+00 0. -1.
<mgrwt>
<rscale>  0 0.16957259E+03</rscale>
<asrwt>0</asrwt>
<pdfrwt beam="2">  1        2 0.50997559E-01 0.17553465E+03</pdfrwt>
<pdfrwt beam="1">  1       -2 0.13412421E-01 0.17553465E+03</pdfrwt>
<totfact> 0.39456031E+03</totfact>
</mgrwt>
</event>
<event>
 7    1  0.6008063E-006  0.1290421E+03  0.7546771E-02  0.1243901E+00
          1   -1    0    0  501    0  0.00000000000E+00  0.00000000000E+00  0.18625888749E+03  0.18625888749E+03  0.00000000000E+00 0. -1.
         -1   -1    0    0    0  501 -0.00000000000E+00 -0.00000000000E+00 -0.67455836290E+02  0.67455836290E+02  0.00000000000E+00 0.  1.
         23    2    1    2    0    0  0.30765348682E+02  0.89609878785E+01  0.73616152447E+02  0.14856379932E+03  0.12500023433E+03 0.  0.
          5    1    3    3  502    0  0.36822307092E+02 -0.27241704057E+02 -0.18246272282E+02  0.49527862782E+02  0.47000000000E+01 0. -1.
         -5    1    3    3    0  502 -0.60569584104E+01  0.36202691936E+02  0.91862424729E+02  0.99035936536E+02  0.47000000000E+01 0. -1.
        -11    1    1    2    0    0 -0.55907726637E+02 -0.23444670597E+02  0.13353055939E+02  0.62077617384E+02  0.00000000000E+00 0.  1.
         11    1    1    2    0    0  0.25142377955E+02  0.14483682719E+02  0.31833842811E+02  0.43073307076E+02  0.00000000000E+00 0. -1.
<mgrwt>
<rscale>  0 0.11951391E+03</rscale>
<asrwt>0</asrwt>
<pdfrwt beam="1">  1        1 0.28655213E-01 0.12904210E+03</pdfrwt>
<pdfrwt beam="2">  1       -1 0.10377821E-01 0.12904210E+03</pdfrwt>
<totfact> 0.86962669E+03</totfact>
</mgrwt>
</event>
<event>
 7    1  0.6008063E-006  0.1599408E+03  0.7546771E-02  0.1196248E+00
         -1   -1    0    0    0  501 -0.00000000000E+00  0.00000000000E+00  0.29789470011E+02  0.29789470011E+02  0.00000000000E+00 0.  1.
          1   -1    0    0  501    0  0.00000000000E+00 -0.00000000000E+00 -0.73792364836E+03  0.73792364836E+03  0.00000000000E+00 0. -1.
         23    2    1    2    0    0  0.92038361506E+02 -0.38525628892E+02 -0.41323788728E+03  0.44311016543E+03  0.12500313256E+03 0.  0.
          5    1    3    3  502    0 -0.11901989078E+02  0.60918612595E+01 -0.20992764472E+03  0.21040549930E+03  0.47000000000E+01 0.  1.
         -5    1    3    3    0  502  0.10394035058E+03 -0.44617490152E+02 -0.20331024256E+03  0.23270466613E+03  0.47000000000E+01 0.  1.
        -11    1    1    2    0    0 -0.86283512579E+02  0.18469494016E+02 -0.29005995454E+03  0.30318433993E+03  0.00000000000E+00 0. -1.
         11    1    1    2    0    0 -0.57548489272E+01  0.20056134877E+02 -0.48363365258E+01  0.21418613012E+02  0.00000000000E+00 0.  1.
<mgrwt>
<rscale>  0 0.15349044E+03</rscale>
<asrwt>0</asrwt>
<pdfrwt beam="2">  1        1 0.11352671E+00 0.15994082E+03</pdfrwt>
<pdfrwt beam="1">  1       -1 0.45829956E-02 0.15994082E+03</pdfrwt>
<totfact> 0.51097415E+03</totfact>
</mgrwt>
</event>
<event>
 7    1  0.6008063E-006  0.1911795E+03  0.7546771E-02  0.1162771E+00
         -3   -1    0    0    0  501 -0.00000000000E+00  0.00000000000E+00  0.54529817373E+03  0.54529817373E+03  0.00000000000E+00 0.  1.
          3   -1    0    0  501    0  0.00000000000E+00 -0.00000000000E+00 -0.63977265143E+02  0.63977265143E+02  0.00000000000E+00 0. -1.
         23    2    1    2    0    0 -0.13750794330E+03 -0.44879870043E+02  0.17312352303E+03  0.25791733537E+03  0.12500784157E+03 0.  0.
          5    1    3    3  502    0 -0.46093300021E+02 -0.16120663849E+02  0.15193532756E+03  0.15965870433E+03  0.47000000000E+01 0.  1.
         -5    1    3    3    0  502 -0.91414643274E+02 -0.28759206194E+02  0.21188195476E+02  0.98258631038E+02  0.47000000000E+01 0.  1.
        -11    1    1    2    0    0  0.21377750135E+02  0.35193395543E+02  0.14561645426E+03  0.15132658405E+03  0.00000000000E+00 0.  1.
         11    1    1    2    0    0  0.11613019316E+03  0.96864745003E+01  0.16258093130E+03  0.20003151945E+03  0.00000000000E+00 0. -1.
<mgrwt>
<rscale>  0 0.18529917E+03</rscale>
<asrwt>0</asrwt>
<pdfrwt beam="2">  1        3 0.98426565E-02 0.19117949E+03</pdfrwt>
<pdfrwt beam="1">  1       -3 0.83892024E-01 0.19117949E+03</pdfrwt>
<totfact> 0.24725424E+02</totfact>
</mgrwt>
</event>
<event>
 6    1  0.6008063E-006  0.1717903E+03  0.7546771E-02  0.1190701E+00
         -1   -1    0    0    0  501 -0.00000000000E+00  0.00000000000E+00  0.11296316016E+03  0.11296316016E+03  0.00000000000E+00 0.  1.
          1   -1    0    0  501    0  0.00000000000E+00 -0.00000000000E+00 -0.34767296954E+03  0.34767296954E+03  0.00000000000E+00 0. -1.
          5    1    1    2  502    0 -0.32747384577E+01 -0.11219497396E+03 -0.14259506186E+03  0.18153202958E+03  0.47000000000E+01 0. -1.
         -5    1    1    2    0  502  0.38123803217E+02  0.35140404341E+02 -0.13777282434E+03  0.14728106978E+03  0.47000000000E+01 0.  1.
        -11    1    1    2    0    0 -0.42334207005E+02  0.94747851929E+02  0.33330841088E+02  0.10899672241E+03  0.00000000000E+00 0. -1.
         11    1    1    2    0    0  0.74851422458E+01 -0.17693282307E+02  0.12327235731E+02  0.22826307936E+02  0.00000000000E+00 0.  1.
<mgrwt>
<rscale>  0 0.15823746E+03</rscale>
<asrwt>0</asrwt>
<pdfrwt beam="2">  1        1 0.53488148E-01 0.17179029E+03</pdfrwt>
<pdfrwt beam="1">  1       -1 0.17378948E-01 0.17179029E+03</pdfrwt>
<totfact> 0.18180192E+03</totfact>
</mgrwt>
</event>
<event>
 7    1  0.6008063E-006  0.1351271E+03  0.7546771E-02  0.1232875E+00
         -4   -1    0    0    0  501 -0.00000000000E+00  0.00000000000E+00  0.14189204315E+03  0.14189204315E+03  0.00000000000E+00 0.  1.
          4   -1    0    0  501    0  0.00000000000E+00 -0.00000000000E+00 -0.10334824707E+03  0.10334824707E+03  0.00000000000E+00 0. -1.
         23    2    1    2    0    0  0.35053775033E+02 -0.37495590249E+02  0.97933351274E+00  0.13513067352E+03  0.12499861359E+03 0.  0.
          5    1    3    3  502    0  0.23042708364E+02 -0.57208598316E+02 -0.49632513328E+02  0.79304895872E+02  0.47000000000E+01 0.  1.
         -5    1    3    3    0  502  0.12011066669E+02  0.19713008068E+02  0.50611846841E+02  0.55825777650E+02  0.47000000000E+01 0.  1.
        -11    1    1    2    0    0  0.96152319116E+01 -0.21543851235E+02 -0.58215609290E+01  0.24299810336E+02  0.00000000000E+00 0. -1.
         11    1    1    2    0    0 -0.44669006944E+02  0.59039441483E+02  0.43386023494E+02  0.85809806355E+02  0.00000000000E+00 0.  1.
<mgrwt>
<rscale>  0 0.12641424E+03</rscale>
<asrwt>0</asrwt>
<pdfrwt beam="2">  1        4 0.15899730E-01 0.13512712E+03</pdfrwt>
<pdfrwt beam="1">  1       -4 0.21829545E-01 0.13512712E+03</pdfrwt>
<totfact> 0.10786652E+03</totfact>
</mgrwt>
</event>
<event>
 7    1  0.6008063E-006  0.1481901E+03  0.7546771E-02  0.1211358E+00
         -2   -1    0    0    0  501 -0.00000000000E+00  0.00000000000E+00  0.32845257598E+02  0.32845257598E+02  0.00000000000E+00 0. -1.
          2   -1    0    0  501    0  0.00000000000E+00 -0.00000000000E+00 -0.59841438674E+03  0.59841438674E+03  0.00000000000E+00 0.  1.
         23    2    1    2    0    0 -0.67838338994E+02  0.41587602234E+02 -0.38672059984E+03  0.41414143704E+03  0.12501495364E+03 0.  0.
          5    1    3    3  502    0 -0.46365546328E+02  0.79162820127E+02 -0.33054729307E+03  0.34307450930E+03  0.47000000000E+01 0. -1.
         -5    1    3    3    0  502 -0.21472792666E+02 -0.37575217893E+02 -0.56173306777E+02  0.71066927743E+02  0.47000000000E+01 0. -1.
        -11    1    1    2    0    0  0.35041661543E+02 -0.17263151891E+02 -0.60111732948E+01  0.39523014325E+02  0.00000000000E+00 0. -1.
         11    1    1    2    0    0  0.32796677451E+02 -0.24324450343E+02 -0.17283735600E+03  0.17759519297E+03  0.00000000000E+00 0.  1.
<mgrwt>
<rscale>  0 0.14147464E+03</rscale>
<asrwt>0</asrwt>
<pdfrwt beam="2">  1        2 0.92063740E-01 0.14819011E+03</pdfrwt>
<pdfrwt beam="1">  1       -2 0.50531172E-02 0.14819011E+03</pdfrwt>
<totfact> 0.93759174E+03</totfact>
</mgrwt>
</event>
<event>
 7    1  0.6008063E-006  0.1772814E+03  0.7546771E-02  0.1176106E+00
          2   -1    0    0  501    0  0.00000000000E+00  0.00000000000E+00  0.62773138927E+03  0.62773138927E+03  0.00000000000E+00 0. -1.
         -2   -1    0    0    0  501 -0.00000000000E+00 -0.00000000000E+00 -0.44435713252E+02  0.44435713252E+02  0.00000000000E+00 0.  1.
         23    2    1    2    0    0  0.10057556430E+03  0.75427456045E+02  0.33382676402E+03  0.37798014668E+03  0.12499575052E+03 0.  0.
          5    1    3    3  502    0 -0.26514008407E+02  0.31248365987E+02  0.99837233459E+02  0.10802322067E+03  0.47000000000E+01 0.  1.
         -5    1    3    3    0  502  0.12708957270E+03  0.44179090058E+02  0.23398953056E+03  0.26995692601E+03  0.47000000000E+01 0.  1.
        -11    1    1    2    0    0 -0.41368729126E+02 -0.84818667602E+02  0.13146205311E+03  0.16182660329E+03  0.00000000000E+00 0.  1.
         11    1    1    2    0    0 -0.59206835169E+02  0.93912115564E+01  0.11800685888E+03  0.13236035256E+03  0.00000000000E+00 0. -1.
<mgrwt>
<rscale>  0 0.17168137E+03</rscale>
<asrwt>0</asrwt>
<pdfrwt beam="1">  1        2 0.96574053E-01 0.17728137E+03</pdfrwt>
<pdfrwt beam="2">  1       -2 0.68362640E-02 0.17728137E+03</pdfrwt>
<totfact> 0.56568489E+03</totfact>
</mgrwt>
</event>
<event>
 7    1  0.6008063E-006  0.1317875E+03  0.7546771E-02  0.1237790E+00
          1   -1    0    0  501    0  0.00000000000E+00  0.00000000000E+00  0.29127491922E+03  0.29127491922E+03  0.00000000000E+00 0. -1.
         -1   -1    0    0    0  501 -0.00000000000E+00 -0.00000000000E+00 -0.48257082826E+02  0.48257082826E+02  0.00000000000E+00 0.  1.
         23    2    1    2    0    0  0.40235836953E+02  0.11131439507E+02  0.16943213328E+03  0.21465134117E+03  0.12500047583E+03 0.  0.
          5    1    3    3  502    0  0.26071982170E+02  0.63687809294E+02  0.56372858827E+02  0.89083525521E+02  0.47000000000E+01 0.  1.
         -5    1    3    3    0  502  0.14163854783E+02 -0.52556369787E+02  0.11305927445E+03  0.12556781565E+03  0.47000000000E+01 0.  1.
        -11    1    1    2    0    0  0.15810551650E+02 -0.68843621032E+01  0.65938086250E+02  0.68155698246E+02  0.00000000000E+00 0. -1.
         11    1    1    2    0    0 -0.56046388603E+02 -0.42470774040E+01  0.76476168695E+01  0.56724962633E+02  0.00000000000E+00 0.  1.
<mgrwt>
<rscale>  0 0.12327526E+03</rscale>
<asrwt>0</asrwt>
<pdfrwt beam="1">  1        1 0.44811525E-01 0.13178752E+03</pdfrwt>
<pdfrwt beam="2">  1       -1 0.74241668E-02 0.13178752E+03</pdfrwt>
<totfact> 0.83180179E+03</totfact>
</mgrwt>
</event>
<event>
 7    1  0.6008063E-006  0.1439897E+03  0.7546771E-02  0.1218125E+00
         -1   -1    0    0    0  501 -0.00000000000E+00  0.00000000000E+00  0.27912018299E+03  0.27912018299E+03  0.00000000000E+00 0.  1.
          1   -1    0    0  501    0  0.00000000000E+00 -0.00000000000E+00 -0.74080469386E+02  0.74080469386E+02  0.00000000000E+00 0. -1.
         23    2    1    2    0    0 -0.70101157061E+02  0.13913428165E+02  0.36670075697E+02  0.14858577982E+03  0.12500113522E+03 0.  0.
          5    1    3    3  502    0 -0.75112259764E+02  0.45359832062E+02  0.62069790930E+02  0.10758306037E+03  0.47000000000E+01 0. -1.
         -5    1    3    3    0  502  0.50111027030E+01 -0.31446403897E+02 -0.25399715234E+02  0.41002719450E+02  0.47000000000E+01 0. -1.
        -11    1    1    2    0    0  0.63423933824E+02  0.26927380128E+02  0.13456376200E+03  0.15117898407E+03  0.00000000000E+00 0.  1.
         11    1    1    2    0    0  0.66772232362E+01 -0.40840808293E+02  0.33805875904E+02  0.53435888482E+02  0.00000000000E+00 0. -1.
<mgrwt>
<rscale>  0 0.13649487E+03</rscale>
<asrwt>0</asrwt>
<pdfrwt beam="2">  1        1 0.11396995E-01 0.14398972E+03</pdfrwt>
<pdfrwt beam="1">  1       -1 0.42941566E-01 0.14398972E+03</pdfrwt>
<totfact> 0.28298136E+03</totfact>
</mgrwt>
</event>
<event>
 7    1  0.6008063E-006  0.1505934E+03  0.7546771E-02  0.1208295E+00
         -2   -1    0    0    0  501 -0.00000000000E+00  0.00000000000E+00  0.47282034037E+02  0.47282034037E+02  0.00000000000E+00 0.  1.
          2   -1    0    0  501    0  0.00000000000E+00 -0.00000000000E+00 -0.40243688781E+03  0.40243688781E+03  0.00000000000E+00 0. -1.
         23    2    1    2    0    0 -0.39737993615E+02  0.73988463081E+02 -0.19856244865E+03  0.24920955892E+03  0.12499982975E+03 0.  0.
          5    1    3    3  502    0  0.13113379864E+02  0.57412549455E+02 -0.20280784540E+02  0.62462483044E+02  0.47000000000E+01 0. -1.
         -5    1    3    3    0  502 -0.52851373479E+02  0.16575913626E+02 -0.17828166411E+03  0.18674707587E+03  0.47000000000E+01 0. -1.
        -11    1    1    2    0    0 -0.12326723654E+01 -0.43056778015E+02 -0.14012639944E+03  0.14659745371E+03  0.00000000000E+00 0.  1.
         11    1    1    2    0    0  0.40970665980E+02 -0.30931685066E+02 -0.16466005680E+02  0.53911909213E+02  0.00000000000E+00 0. -1.
<mgrwt>
<rscale>  0 0.14380778E+03</rscale>
<asrwt>0</asrwt>
<pdfrwt beam="2">  1        2 0.61913368E-01 0.15059335E+03</pdfrwt>
<pdfrwt beam="1">  1       -2 0.72741590E-02 0.15059335E+03</pdfrwt>
<totfact> 0.83476201E+03</totfact>
</mgrwt>
</event>
<event>
 7    1  0.1048240E-005  0.1901269E+03  0.7546771E-02  0.1163344E+00
          1   -1    0    0  501    0  0.00000000000E+00  0.00000000000E+00  0.68195872361E+03  0.68195872361E+03  0.00000000000E+00 0. -1.
         -1   -1    0    0    0  501 -0.00000000000E+00 -0.00000000000E+00 -0.49463857927E+02  0.49463857927E+02  0.00000000000E+00 0.  1.
         23    2    1    2    0    0 -0.82032733830E+02  0.11744458932E+03  0.40922469541E+03  0.45123507426E+03  0.12500255966E+03 0.  0.
          5    1    3    3  502    0 -0.39076618792E+02  0.11756110125E+03  0.18377940635E+03  0.22168571190E+03  0.47000000000E+01 0. -1.
         -5    1    3    3    0  502 -0.42956115038E+02 -0.11651193743E+00  0.22544528907E+03  0.22954936235E+03  0.47000000000E+01 0. -1.
        -11    1    1    2    0    0  0.79539192504E+01 -0.29671443029E+02  0.18789316209E+01  0.30776447926E+02  0.00000000000E+00 0.  1.
         11    1    1    2    0    0  0.74078814580E+02 -0.87773146287E+02  0.22139123864E+03  0.24941105935E+03  0.00000000000E+00 0. -1.
<mgrwt>
<rscale>  0 0.18468585E+03</rscale>
<asrwt>0</asrwt>
<pdfrwt beam="1">  1        1 0.10491672E+00 0.19012691E+03</pdfrwt>
<pdfrwt beam="2">  1       -1 0.76098248E-02 0.19012691E+03</pdfrwt>
<totfact> 0.26953349E+03</totfact>
</mgrwt>
</event>
<event>
 7    1  0.6008063E-006  0.1658507E+03  0.7546771E-02  0.1189473E+00
         -3   -1    0    0    0  501 -0.00000000000E+00  0.00000000000E+00  0.26684016183E+03  0.26684016183E+03  0.00000000000E+00 0.  1.
          3   -1    0    0  501    0  0.00000000000E+00 -0.00000000000E+00 -0.88466229286E+02  0.88466229286E+02  0.00000000000E+00 0. -1.
         23    2    1    2    0    0  0.71041652673E+02  0.82695804638E+02  0.89562213115E+02  0.18848832243E+03  0.12498377957E+03 0.  0.
          5    1    3    3  502    0 -0.27563232304E+02  0.50252888168E+02  0.11810755049E+02  0.58708333983E+02  0.47000000000E+01 0.  1.
         -5    1    3    3    0  502  0.98604884976E+02  0.32442916471E+02  0.77751458067E+02  0.12977998845E+03  0.47000000000E+01 0.  1.
        -11    1    1    2    0    0 -0.81964725053E+02 -0.94321936872E+02  0.82065499985E+02  0.14949779335E+03  0.00000000000E+00 0.  1.
         11    1    1    2    0    0  0.10923072380E+02  0.11626132234E+02  0.67462194441E+01  0.17320275336E+02  0.00000000000E+00 0. -1.
<mgrwt>
<rscale>  0 0.15931464E+03</rscale>
<asrwt>0</asrwt>
<pdfrwt beam="2">  1        3 0.13610189E-01 0.16585071E+03</pdfrwt>
<pdfrwt beam="1">  1       -3 0.41052332E-01 0.16585071E+03</pdfrwt>
<totfact> 0.61698142E+02</totfact>
</mgrwt>
</event>
<event>
 7    1  0.6008063E-006  0.1288681E+03  0.7546771E-02  0.1244517E+00
         -1   -1    0    0    0  501 -0.00000000000E+00  0.00000000000E+00  0.12122058080E+03  0.12122058080E+03  0.00000000000E+00 0.  1.
          1   -1    0    0  501    0  0.00000000000E+00 -0.00000000000E+00 -0.12622686542E+03  0.12622686542E+03  0.00000000000E+00 0. -1.
         23    2    1    2    0    0  0.30786237232E+02 -0.57763864756E+01 -0.55840979873E+02  0.14044646867E+03  0.12500334589E+03 0.  0.
          5    1    3    3  502    0 -0.33112591469E+02 -0.42168773620E+02 -0.13604004746E+02  0.55514035410E+02  0.47000000000E+01 0.  1.
         -5    1    3    3    0  502  0.63898828701E+02  0.36392387145E+02 -0.42236975127E+02  0.84932433259E+02  0.47000000000E+01 0.  1.
        -11    1    1    2    0    0  0.16810761623E+02 -0.28280721387E+02  0.31002026342E+02  0.45205381824E+02  0.00000000000E+00 0.  1.
         11    1    1    2    0    0 -0.47596998855E+02  0.34057107863E+02  0.19832668913E+02  0.61795595734E+02  0.00000000000E+00 0. -1.
<mgrwt>
<rscale>  0 0.11914320E+03</rscale>
<asrwt>0</asrwt>
<pdfrwt beam="2">  1        1 0.19419518E-01 0.12886813E+03</pdfrwt>
<pdfrwt beam="1">  1       -1 0.18649320E-01 0.12886813E+03</pdfrwt>
<totfact> 0.56916579E+03</totfact>
</mgrwt>
</event>
<event>
 7    1  0.6008063E-006  0.1255070E+03  0.7546771E-02  0.1246220E+00
          1   -1    0    0  501    0  0.00000000000E+00  0.00000000000E+00  0.25950496741E+03  0.25950496741E+03  0.00000000000E+00 0. -1.
         -1   -1    0    0    0  501 -0.00000000000E+00 -0.00000000000E+00 -0.52808824669E+02  0.52808824669E+02  0.00000000000E+00 0.  1.
         23    2    1    2    0    0  0.99053748251E+01  0.35384449121E+02  0.15989822544E+03  0.20327185229E+03  0.12000761536E+03 0.  0.
          5    1    3    3  502    0  0.61218135985E+02  0.37780198041E+02  0.10989563783E+03  0.13143114072E+03  0.47000000000E+01 0. -1.
         -5    1    3    3    0  502 -0.51312761160E+02 -0.23957489195E+01  0.50002587617E+02  0.71840711572E+02  0.47000000000E+01 0. -1.
        -11    1    1    2    0    0  0.31571594903E+02  0.46474570598E+01  0.39739939228E+02  0.50966922918E+02  0.00000000000E+00 0. -1.
         11    1    1    2    0    0 -0.41476969728E+02 -0.40031906181E+02  0.70579780721E+01  0.58075016873E+02  0.00000000000E+00 0.  1.
<mgrwt>
<rscale>  0 0.11812667E+03</rscale>
<asrwt>0</asrwt>
<pdfrwt beam="1">  1        1 0.39923840E-01 0.12550699E+03</pdfrwt>
<pdfrwt beam="2">  1       -1 0.81244347E-02 0.12550699E+03</pdfrwt>
<totfact> 0.83451959E+03</totfact>
</mgrwt>
</event>
<event>
 7    1  0.6008063E-006  0.1281863E+03  0.7546771E-02  0.1249672E+00
          2   -1    0    0  501    0  0.00000000000E+00  0.00000000000E+00  0.84325451113E+03  0.84325451113E+03  0.00000000000E+00 0. -1.
         -2   -1    0    0    0  501 -0.00000000000E+00 -0.00000000000E+00 -0.14166949999E+02  0.14166949999E+02  0.00000000000E+00 0.  1.
         23    2    1    2    0    0 -0.19079199072E+02  0.21044571482E+02  0.57414742957E+03  0.58828308462E+03  0.12499930777E+03 0.  0.
          5    1    3    3  502    0 -0.13590437966E+02 -0.46820682703E+01  0.17069656341E+01  0.15219247651E+02  0.47000000000E+01 0. -1.
         -5    1    3    3    0  502 -0.54887611065E+01  0.25726639752E+02  0.57244046393E+03  0.57306383697E+03  0.47000000000E+01 0. -1.
        -11    1    1    2    0    0  0.30339851996E+02  0.22877243187E+02  0.82391590483E+02  0.90731742281E+02  0.00000000000E+00 0.  1.
         11    1    1    2    0    0 -0.11260652924E+02 -0.43921814670E+02  0.17254854108E+03  0.17840663423E+03  0.00000000000E+00 0. -1.
<mgrwt>
<rscale>  0 0.11610074E+03</rscale>
<asrwt>0</asrwt>
<pdfrwt beam="1">  1        2 0.12973142E+00 0.12818626E+03</pdfrwt>
<pdfrwt beam="2">  1       -2 0.21795314E-02 0.12818626E+03</pdfrwt>
<totfact> 0.21308686E+04</totfact>
</mgrwt>
</event>
<event>
 7    1  0.6008063E-006  0.1746654E+03  0.7546771E-02  0.1179055E+00
          1   -1    0    0  501    0  0.00000000000E+00  0.00000000000E+00  0.10325630249E+03  0.10325630249E+03  0.00000000000E+00 0. -1.
         -1   -1    0    0    0  501 -0.00000000000E+00 -0.00000000000E+00 -0.25921679835E+03  0.25921679835E+03  0.00000000000E+00 0.  1.
         23    2    1    2    0    0 -0.10272779675E+03 -0.65813423702E+02 -0.84592194554E+02  0.19407170103E+03  0.12499431506E+03 0.  0.
          5    1    3    3  502    0 -0.51240598915E+02 -0.26994980165E+02  0.27797120965E+02  0.64413491329E+02  0.47000000000E+01 0.  1.
         -5    1    3    3    0  502 -0.51487197832E+02 -0.38818443537E+02 -0.11238931552E+03  0.12965820970E+03  0.47000000000E+01 0.  1.
        -11    1    1    2    0    0  0.13702279112E+02  0.44366792232E+01 -0.57626620748E+02  0.59399191865E+02  0.00000000000E+00 0.  1.
         11    1    1    2    0    0  0.89025517635E+02  0.61376744479E+02 -0.13741680565E+02  0.10900220795E+03  0.00000000000E+00 0. -1.
<mgrwt>
<rscale>  0 0.16884739E+03</rscale>
<asrwt>0</asrwt>
<pdfrwt beam="1">  1        1 0.15885585E-01 0.17466535E+03</pdfrwt>
<pdfrwt beam="2">  1       -1 0.39879507E-01 0.17466535E+03</pdfrwt>
<totfact> 0.21061555E+03</totfact>
</mgrwt>
</event>
<event>
 7    1  0.6008063E-006  0.2089853E+03  0.7546771E-02  0.1146113E+00
         -2   -1    0    0    0  501 -0.00000000000E+00  0.00000000000E+00  0.23500837813E+02  0.23500837813E+02  0.00000000000E+00 0.  1.
          2   -1    0    0  501    0  0.00000000000E+00 -0.00000000000E+00 -0.17279609712E+04  0.17279609712E+04  0.00000000000E+00 0. -1.
         23    2    1    2    0    0 -0.13614523164E+03  0.97547333384E+02 -0.99565879182E+03  0.10173550488E+04  0.12499543685E+03 0.  0.
          5    1    3    3  502    0 -0.63904716711E+00  0.67233040651E+02 -0.25371246938E+03  0.26251247067E+03  0.47000000000E+01 0.  1.
         -5    1    3    3    0  502 -0.13550618447E+03  0.30314292733E+02 -0.74194632244E+03  0.75484257813E+03  0.47000000000E+01 0.  1.
        -11    1    1    2    0    0  0.58169609675E+02 -0.14727682406E+01 -0.13318527022E+03  0.14534162769E+03  0.00000000000E+00 0.  1.
         11    1    1    2    0    0  0.77975621963E+02 -0.96074565144E+02 -0.57561607135E+03  0.58876513253E+03  0.00000000000E+00 0. -1.
<mgrwt>
<rscale>  0 0.20435881E+03</rscale>
<asrwt>0</asrwt>
<pdfrwt beam="2">  1        2 0.26584026E+00 0.20898532E+03</pdfrwt>
<pdfrwt beam="1">  1       -2 0.36155120E-02 0.20898532E+03</pdfrwt>
<totfact> 0.33030414E+03</totfact>
</mgrwt>
</event>
<event>
 7    1  0.6008063E-006  0.1865531E+03  0.7546771E-02  0.1166160E+00
         -1   -1    0    0    0  501 -0.00000000000E+00  0.00000000000E+00  0.73474585402E+03  0.73474585402E+03  0.00000000000E+00 0.  1.
          1   -1    0    0  501    0  0.00000000000E+00 -0.00000000000E+00 -0.43017358058E+02  0.43017358058E+02  0.00000000000E+00 0. -1.
         23    2    1    2    0    0  0.13820833287E+03 -0.86665068812E+01  0.33344570261E+03  0.38208387575E+03  0.12500159960E+03 0.  0.
          5    1    3    3  502    0  0.88840770709E+02 -0.24381349230E+02  0.76250001401E+02  0.11967992916E+03  0.47000000000E+01 0. -1.
         -5    1    3    3    0  502  0.49367562158E+02  0.15714842349E+02  0.25719570121E+03  0.26240394659E+03  0.47000000000E+01 0. -1.
        -11    1    1    2    0    0 -0.34447249708E+02 -0.38624484111E+02  0.84362476819E+02  0.98972174272E+02  0.00000000000E+00 0.  1.
         11    1    1    2    0    0 -0.10376108316E+03  0.47290990992E+02  0.27392031653E+03  0.29670716206E+03  0.00000000000E+00 0. -1.
<mgrwt>
<rscale>  0 0.18170816E+03</rscale>
<asrwt>0</asrwt>
<pdfrwt beam="2">  1        1 0.66180556E-02 0.18655308E+03</pdfrwt>
<pdfrwt beam="1">  1       -1 0.11303781E+00 0.18655308E+03</pdfrwt>
<totfact> 0.85374014E+02</totfact>
</mgrwt>
</event>
<event>
 7    1  0.6008063E-006  0.1261216E+03  0.7546771E-02  0.1249438E+00
         -1   -1    0    0    0  501 -0.00000000000E+00  0.00000000000E+00  0.11178586172E+03  0.11178586172E+03  0.00000000000E+00 0.  1.
          1   -1    0    0  501    0  0.00000000000E+00 -0.00000000000E+00 -0.13541522824E+03  0.13541522824E+03  0.00000000000E+00 0. -1.
         23    2    1    2    0    0  0.91932425343E+01 -0.13993321473E+02 -0.70878877188E+02  0.14467368064E+03  0.12500531943E+03 0.  0.
          5    1    3    3  502    0 -0.51927410391E+02  0.73455777619E+01 -0.58297992987E+02  0.78556727585E+02  0.47000000000E+01 0. -1.
         -5    1    3    3    0  502  0.61120652926E+02 -0.21338899235E+02 -0.12580884201E+02  0.66116953060E+02  0.47000000000E+01 0. -1.
        -11    1    1    2    0    0  0.26198463706E+02  0.37101963053E+02  0.10733332697E+02  0.46670328837E+02  0.00000000000E+00 0. -1.
         11    1    1    2    0    0 -0.35391706240E+02 -0.23108641580E+02  0.36516177970E+02  0.55857080480E+02  0.00000000000E+00 0.  1.
<mgrwt>
<rscale>  0 0.11623627E+03</rscale>
<asrwt>0</asrwt>
<pdfrwt beam="2">  1        1 0.20833112E-01 0.12612160E+03</pdfrwt>
<pdfrwt beam="1">  1       -1 0.17197825E-01 0.12612160E+03</pdfrwt>
<totfact> 0.59119900E+03</totfact>
</mgrwt>
</event>
<event>
 7    1  0.6008063E-006  0.3932051E+03  0.7546771E-02  0.1046563E+00
          2   -1    0    0  501    0  0.00000000000E+00  0.00000000000E+00  0.30098505591E+03  0.30098505591E+03  0.00000000000E+00 0. -1.
         -2   -1    0    0    0  501 -0.00000000000E+00 -0.00000000000E+00 -0.56514195706E+03  0.56514195706E+03  0.00000000000E+00 0.  1.
         23    2    1    2    0    0  0.37238581230E+03 -0.17720942314E+02  0.52302471482E+01  0.39323988743E+03  0.12500011432E+03 0.  0.
          5    1    3    3  502    0  0.20543933268E+03  0.50785378301E+02  0.16879499529E+02  0.21234754899E+03  0.47000000000E+01 0. -1.
         -5    1    3    3    0  502  0.16694647963E+03 -0.68506320615E+02 -0.11649252381E+02  0.18089233844E+03  0.47000000000E+01 0. -1.
        -11    1    1    2    0    0 -0.11880607467E+03  0.33062457891E+02 -0.37424266105E+02  0.12887429997E+03  0.00000000000E+00 0.  1.
         11    1    1    2    0    0 -0.25357973764E+03 -0.15341515577E+02 -0.23196288219E+03  0.34401282557E+03  0.00000000000E+00 0. -1.
<mgrwt>
<rscale>  0 0.39206264E+03</rscale>
<asrwt>0</asrwt>
<pdfrwt beam="1">  1        2 0.46305393E-01 0.39320510E+03</pdfrwt>
<pdfrwt beam="2">  1       -2 0.86944916E-01 0.39320510E+03</pdfrwt>
<totfact> 0.12867133E+02</totfact>
</mgrwt>
</event>
<event>
 7    1  0.6008063E-006  0.1284770E+03  0.7546771E-02  0.1244510E+00
         -1   -1    0    0    0  501 -0.00000000000E+00  0.00000000000E+00  0.16325241341E+02  0.16325241341E+02  0.00000000000E+00 0.  1.
          1   -1    0    0  501    0  0.00000000000E+00 -0.00000000000E+00 -0.85759322122E+03  0.85759322122E+03  0.00000000000E+00 0. -1.
         23    2    1    2    0    0 -0.28257858452E+02  0.90011699591E+01 -0.61891166658E+03  0.63210600033E+03  0.12500726777E+03 0.  0.
          5    1    3    3  502    0  0.48412405790E+02  0.64807529825E+01 -0.18266604974E+03  0.18914210774E+03  0.47000000000E+01 0. -1.
         -5    1    3    3    0  502 -0.76670264242E+02  0.25204169766E+01 -0.43624561684E+03  0.44296389259E+03  0.47000000000E+01 0. -1.
        -11    1    1    2    0    0 -0.21464038131E+02  0.25135651217E+02 -0.10143729380E+03  0.10668659929E+03  0.00000000000E+00 0.  1.
         11    1    1    2    0    0  0.49721896583E+02 -0.34136821176E+02 -0.12091901950E+03  0.13512586294E+03  0.00000000000E+00 0. -1.
<mgrwt>
<rscale>  0 0.11914771E+03</rscale>
<asrwt>0</asrwt>
<pdfrwt beam="2">  1        1 0.13193741E+00 0.12847702E+03</pdfrwt>
<pdfrwt beam="1">  1       -1 0.25115757E-02 0.12847702E+03</pdfrwt>
<totfact> 0.97123376E+03</totfact>
</mgrwt>
</event>
<event>
 6    1  0.6008063E-006  0.1493946E+03  0.7546771E-02  0.1240115E+00
         -2   -1    0    0    0  501 -0.00000000000E+00  0.00000000000E+00  0.19616606920E+02  0.19616606920E+02  0.00000000000E+00 0.  1.
          2   -1    0    0  501    0  0.00000000000E+00 -0.00000000000E+00 -0.65964730297E+03  0.65964730297E+03  0.00000000000E+00 0. -1.
          5    1    1    2  502    0 -0.79156873800E+02  0.48243101651E+01 -0.52578937562E+03  0.53175712704E+03  0.47000000000E+01 0. -1.
         -5    1    1    2    0  502  0.19093631519E+02  0.47483512442E+01 -0.67264796115E+01  0.21317812554E+02  0.47000000000E+01 0.  1.
        -11    1    1    2    0    0  0.51240174902E+02 -0.17465074771E+02 -0.90650122772E+02  0.10558422761E+03  0.00000000000E+00 0.  1.
         11    1    1    2    0    0  0.88230673791E+01  0.78924133618E+01 -0.16864718045E+02  0.20604742692E+02  0.00000000000E+00 0. -1.
<mgrwt>
<rscale>  0 0.12182586E+03</rscale>
<asrwt>0</asrwt>
<pdfrwt beam="2">  1        2 0.10148420E+00 0.14939462E+03</pdfrwt>
<pdfrwt beam="1">  1       -2 0.30179395E-02 0.14939462E+03</pdfrwt>
<totfact> 0.18053980E+04</totfact>
</mgrwt>
</event>
<event>
 7    1  0.6008063E-006  0.2025755E+03  0.7546771E-02  0.1151557E+00
         -2   -1    0    0    0  501 -0.00000000000E+00  0.00000000000E+00  0.96824808273E+02  0.96824808273E+02  0.00000000000E+00 0.  1.
          2   -1    0    0  501    0  0.00000000000E+00 -0.00000000000E+00 -0.44276514628E+03  0.44276514628E+03  0.00000000000E+00 0. -1.
         23    2    1    2    0    0  0.15554292009E+03  0.34923910993E+02 -0.27609812395E+03  0.34244271297E+03  0.12499423214E+03 0.  0.
          5    1    3    3  502    0  0.11463270334E+03  0.43642799043E+02 -0.27406861919E+03  0.30030159607E+03  0.47000000000E+01 0. -1.
         -5    1    3    3    0  502  0.40910216752E+02 -0.87188880499E+01 -0.20295047630E+01  0.42141116895E+02  0.47000000000E+01 0. -1.
        -11    1    1    2    0    0 -0.11613341932E+03  0.15280221093E+02 -0.26787130933E+02  0.12015825657E+03  0.00000000000E+00 0. -1.
         11    1    1    2    0    0 -0.39409500772E+02 -0.50204132086E+02 -0.43055083121E+02  0.76988985005E+02  0.00000000000E+00 0.  1.
<mgrwt>
<rscale>  0 0.19785985E+03</rscale>
<asrwt>0</asrwt>
<pdfrwt beam="2">  1        2 0.68117714E-01 0.20257551E+03</pdfrwt>
<pdfrwt beam="1">  1       -2 0.14896124E-01 0.20257551E+03</pdfrwt>
<totfact> 0.24444595E+03</totfact>
</mgrwt>
</event>
<event>
 7    1  0.6008063E-006  0.1630036E+03  0.7546771E-02  0.1190074E+00
          1   -1    0    0  501    0  0.00000000000E+00  0.00000000000E+00  0.15936787840E+04  0.15936787840E+04  0.00000000000E+00 0. -1.
         -1   -1    0    0    0  501 -0.00000000000E+00 -0.00000000000E+00 -0.17369678364E+02  0.17369678364E+02  0.00000000000E+00 0.  1.
         23    2    1    2    0    0  0.99046533645E+02 -0.33726443308E+02  0.11177136125E+04  0.11295370269E+04  0.12498994631E+03 0.  0.
          5    1    3    3  502    0  0.22807133543E+02  0.40213538758E+02  0.54969900957E+03  0.55165966425E+03  0.47000000000E+01 0.  1.
         -5    1    3    3    0  502  0.76239400103E+02 -0.73939982066E+02  0.56801460295E+03  0.57787736263E+03  0.47000000000E+01 0.  1.
        -11    1    1    2    0    0 -0.69104300927E+02 -0.23779011425E+02  0.32366337745E+03  0.33181143394E+03  0.00000000000E+00 0. -1.
         11    1    1    2    0    0 -0.29942232718E+02  0.57505454733E+02  0.13493211569E+03  0.14970000157E+03  0.00000000000E+00 0.  1.
<mgrwt>
<rscale>  0 0.15878603E+03</rscale>
<asrwt>0</asrwt>
<pdfrwt beam="1">  1        1 0.24518124E+00 0.16300361E+03</pdfrwt>
<pdfrwt beam="2">  1       -1 0.26722595E-02 0.16300361E+03</pdfrwt>
<totfact> 0.27677412E+03</totfact>
</mgrwt>
</event>
<event>
 7    1  0.6008063E-006  0.1289147E+03  0.7546771E-02  0.1242456E+00
          2   -1    0    0  501    0  0.00000000000E+00  0.00000000000E+00  0.32146232419E+03  0.32146232419E+03  0.00000000000E+00 0. -1.
         -2   -1    0    0    0  501 -0.00000000000E+00 -0.00000000000E+00 -0.47321122399E+02  0.47321122399E+02  0.00000000000E+00 0.  1.
         23    2    1    2    0    0 -0.27391294306E+02  0.15603303813E+02  0.22450488643E+03  0.25888498689E+03  0.12500098525E+03 0.  0.
          5    1    3    3  502    0  0.34949414601E+02 -0.33105675473E+02  0.67874935560E+02  0.83345930955E+02  0.47000000000E+01 0.  1.
         -5    1    3    3    0  502 -0.62340708908E+02  0.48708979286E+02  0.15662995087E+03  0.17553905594E+03  0.47000000000E+01 0.  1.
        -11    1    1    2    0    0 -0.41170968314E+01 -0.42498584696E+02  0.53319848742E+02  0.68308758278E+02  0.00000000000E+00 0. -1.
         11    1    1    2    0    0  0.31508391138E+02  0.26895280884E+02 -0.36835333801E+01  0.41589701418E+02  0.00000000000E+00 0.  1.
<mgrwt>
<rscale>  0 0.12038968E+03</rscale>
<asrwt>0</asrwt>
<pdfrwt beam="1">  1        2 0.49455741E-01 0.12891467E+03</pdfrwt>
<pdfrwt beam="2">  1       -2 0.72801729E-02 0.12891467E+03</pdfrwt>
<totfact> 0.10474609E+04</totfact>
</mgrwt>
</event>
<event>
 7    1  0.6008063E-006  0.1367827E+03  0.7546771E-02  0.1229736E+00
          1   -1    0    0  501    0  0.00000000000E+00  0.00000000000E+00  0.47740266959E+03  0.47740266959E+03  0.00000000000E+00 0. -1.
         -1   -1    0    0    0  501 -0.00000000000E+00 -0.00000000000E+00 -0.31124470294E+02  0.31124470294E+02  0.00000000000E+00 0.  1.
         23    2    1    2    0    0  0.49940015387E+02 -0.24298022558E+02  0.23384290270E+03  0.27090961087E+03  0.12500046034E+03 0.  0.
          5    1    3    3  502    0  0.72321393998E+02 -0.37548799646E+02  0.78199121582E+02  0.11303755571E+03  0.47000000000E+01 0. -1.
         -5    1    3    3    0  502 -0.22381378612E+02  0.13250777088E+02  0.15564378111E+03  0.15787205516E+03  0.47000000000E+01 0. -1.
        -11    1    1    2    0    0 -0.57714007984E+02 -0.19809037862E+02  0.10933490694E+03  0.12520953069E+03  0.00000000000E+00 0.  1.
         11    1    1    2    0    0  0.77739925975E+01  0.44107060420E+02  0.10310038966E+03  0.11240799833E+03  0.00000000000E+00 0. -1.
<mgrwt>
<rscale>  0 0.12847486E+03</rscale>
<asrwt>0</asrwt>
<pdfrwt beam="1">  1        1 0.73446559E-01 0.13678273E+03</pdfrwt>
<pdfrwt beam="2">  1       -1 0.47883804E-02 0.13678273E+03</pdfrwt>
<totfact> 0.86128333E+03</totfact>
</mgrwt>
</event>
<event>
 7    1  0.6008063E-006  0.1463880E+03  0.7546771E-02  0.1214722E+00
         -2   -1    0    0    0  501 -0.00000000000E+00  0.00000000000E+00  0.49896761907E+03  0.49896761907E+03  0.00000000000E+00 0. -1.
          2   -1    0    0  501    0  0.00000000000E+00 -0.00000000000E+00 -0.37594741082E+02  0.37594741082E+02  0.00000000000E+00 0.  1.
         23    2    1    2    0    0 -0.39618828744E+00 -0.76195400985E+02  0.18659770534E+03  0.23716692925E+03  0.12499421024E+03 0.  0.
          5    1    3    3  502    0 -0.19858184645E+02  0.27018517811E+02  0.17668156943E+02  0.38191642697E+02  0.47000000000E+01 0.  1.
         -5    1    3    3    0  502  0.19461996357E+02 -0.10321391880E+03  0.16892954840E+03  0.19897528655E+03  0.47000000000E+01 0.  1.
        -11    1    1    2    0    0 -0.19089368575E+02  0.91771162297E+02  0.20940051484E+03  0.22942302813E+03  0.00000000000E+00 0.  1.
         11    1    1    2    0    0  0.19485556863E+02 -0.15575761312E+02  0.65374657808E+02  0.69972402775E+02  0.00000000000E+00 0. -1.
<mgrwt>
<rscale>  0 0.13896992E+03</rscale>
<asrwt>0</asrwt>
<pdfrwt beam="2">  1        2 0.57838067E-02 0.14638801E+03</pdfrwt>
<pdfrwt beam="1">  1       -2 0.76764244E-01 0.14638801E+03</pdfrwt>
<totfact> 0.19557590E+03</totfact>
</mgrwt>
</event>
<event>
 7    1  0.6008063E-006  0.1459215E+03  0.7546771E-02  0.1215481E+00
          1   -1    0    0  501    0  0.00000000000E+00  0.00000000000E+00  0.13369135604E+03  0.13369135604E+03  0.00000000000E+00 0. -1.
         -1   -1    0    0    0  501 -0.00000000000E+00 -0.00000000000E+00 -0.16419781908E+03  0.16419781908E+03  0.00000000000E+00 0.  1.
         23    2    1    2    0    0  0.59046299829E+02 -0.46705777283E+02  0.50772498069E+02  0.15450218520E+03  0.12500073407E+03 0.  0.
          5    1    3    3  502    0 -0.72522203371E+01  0.20386975958E+02  0.55693025048E+02  0.59933517564E+02  0.47000000000E+01 0.  1.
         -5    1    3    3    0  502  0.66298520166E+02 -0.67092753241E+02 -0.49205269788E+01  0.94568667641E+02  0.47000000000E+01 0.  1.
        -11    1    1    2    0    0  0.50991802576E+01  0.16206242464E+02 -0.69305637251E+02  0.71357657535E+02  0.00000000000E+00 0.  1.
         11    1    1    2    0    0 -0.64145480087E+02  0.30499534819E+02 -0.11973323861E+02  0.72029332386E+02  0.00000000000E+00 0. -1.
<mgrwt>
<rscale>  0 0.13841242E+03</rscale>
<asrwt>0</asrwt>
<pdfrwt beam="1">  1        1 0.20567901E-01 0.14592148E+03</pdfrwt>
<pdfrwt beam="2">  1       -1 0.25261203E-01 0.14592148E+03</pdfrwt>
<totfact> 0.32601994E+03</totfact>
</mgrwt>
</event>
<event>
 7    1  0.6008063E-006  0.1252956E+03  0.7546771E-02  0.1260657E+00
         -2   -1    0    0    0  501 -0.00000000000E+00  0.00000000000E+00  0.13463592493E+02  0.13463592493E+02  0.00000000000E+00 0.  1.
          2   -1    0    0  501    0  0.00000000000E+00 -0.00000000000E+00 -0.73996078527E+03  0.73996078527E+03  0.00000000000E+00 0. -1.
         23    2    1    2    0    0  0.58412086623E+01 -0.62678023404E+01 -0.46173996072E+03  0.47843783944E+03  0.12500227925E+03 0.  0.
          5    1    3    3  502    0 -0.56453178398E+02 -0.15771470226E+02 -0.27752582310E+03  0.28368710424E+03  0.47000000000E+01 0. -1.
         -5    1    3    3    0  502  0.62294387060E+02  0.95036678857E+01 -0.18421413761E+03  0.19475073520E+03  0.47000000000E+01 0. -1.
        -11    1    1    2    0    0 -0.39437523449E+02 -0.92221802868E+00 -0.15726505511E+03  0.16213718359E+03  0.00000000000E+00 0.  1.
         11    1    1    2    0    0  0.33596314787E+02  0.71900203691E+01 -0.10749217695E+03  0.11284935474E+03  0.00000000000E+00 0. -1.
<mgrwt>
<rscale>  0 0.10995272E+03</rscale>
<asrwt>0</asrwt>
<pdfrwt beam="2">  1        2 0.11384015E+00 0.12529555E+03</pdfrwt>
<pdfrwt beam="1">  1       -2 0.20713215E-02 0.12529555E+03</pdfrwt>
<totfact> 0.26907752E+04</totfact>
</mgrwt>
</event>
<event>
 7    1  0.6008063E-006  0.1506627E+03  0.7546771E-02  0.1208979E+00
         -2   -1    0    0    0  501 -0.00000000000E+00  0.00000000000E+00  0.60264413444E+02  0.60264413444E+02  0.00000000000E+00 0.  1.
          2   -1    0    0  501    0  0.00000000000E+00 -0.00000000000E+00 -0.31256418262E+03  0.31256418262E+03  0.00000000000E+00 0. -1.
         23    2    1    2    0    0 -0.68883701015E+02  0.48225605315E+02 -0.15084845444E+03  0.21320064640E+03  0.12501434376E+03 0.  0.
          5    1    3    3  502    0 -0.20068071596E+02 -0.40256084928E+02 -0.71622286260E+02  0.84706090457E+02  0.47000000000E+01 0.  1.
         -5    1    3    3    0  502 -0.48815629420E+02  0.88481690243E+02 -0.79226168179E+02  0.12849455595E+03  0.47000000000E+01 0.  1.
        -11    1    1    2    0    0  0.26221396262E+02  0.19376133482E+01  0.11645614874E+02  0.28756500365E+02  0.00000000000E+00 0.  1.
         11    1    1    2    0    0  0.42662304753E+02 -0.50163218663E+02 -0.11309692961E+03  0.13087144930E+03  0.00000000000E+00 0. -1.
<mgrwt>
<rscale>  0 0.14328295E+03</rscale>
<asrwt>0</asrwt>
<pdfrwt beam="2">  1        2 0.48086796E-01 0.15066273E+03</pdfrwt>
<pdfrwt beam="1">  1       -2 0.92714484E-02 0.15066273E+03</pdfrwt>
<totfact> 0.75028226E+03</totfact>
</mgrwt>
</event>
<event>
 7    1  0.6008063E-006  0.1909549E+03  0.7546771E-02  0.1161936E+00
         -2   -1    0    0    0  501 -0.00000000000E+00  0.00000000000E+00  0.62709655707E+02  0.62709655707E+02  0.00000000000E+00 0.  1.
          2   -1    0    0  501    0  0.00000000000E+00 -0.00000000000E+00 -0.75502409492E+03  0.75502409492E+03  0.00000000000E+00 0. -1.
         23    2    1    2    0    0  0.13479645199E+03 -0.51656380529E+02 -0.58283034615E+03  0.61331474772E+03  0.12500120907E+03 0.  0.
          5    1    3    3  502    0 -0.80988148247E+01 -0.16665806933E+02 -0.23295934305E+03  0.23374234840E+03  0.47000000000E+01 0.  1.
         -5    1    3    3    0  502  0.14289526682E+03 -0.34990573596E+02 -0.34987100310E+03  0.37957239933E+03  0.47000000000E+01 0.  1.
        -11    1    1    2    0    0 -0.32481314687E+02  0.54715459409E+02 -0.70284742989E+02  0.94809083948E+02  0.00000000000E+00 0. -1.
         11    1    1    2    0    0 -0.10231513731E+03 -0.30590788804E+01 -0.39199350074E+02  0.10960991895E+03  0.00000000000E+00 0.  1.
<mgrwt>
<rscale>  0 0.18619832E+03</rscale>
<asrwt>0</asrwt>
<pdfrwt beam="2">  1        2 0.11615756E+00 0.19095488E+03</pdfrwt>
<pdfrwt beam="1">  1       -2 0.96476391E-02 0.19095488E+03</pdfrwt>
<totfact> 0.26587497E+03</totfact>
</mgrwt>
</event>
<event>
 7    1  0.6008063E-006  0.1271524E+03  0.7546771E-02  0.1246816E+00
         -3   -1    0    0    0  501 -0.00000000000E+00  0.00000000000E+00  0.23113818824E+02  0.23113818824E+02  0.00000000000E+00 0.  1.
          3   -1    0    0  501    0  0.00000000000E+00 -0.00000000000E+00 -0.56154996460E+03  0.56154996460E+03  0.00000000000E+00 0. -1.
         23    2    1    2    0    0  0.14254775595E+02 -0.18407433743E+02 -0.37933393643E+03  0.40007744910E+03  0.12500279081E+03 0.  0.
          5    1    3    3  502    0 -0.50418005257E+02 -0.26631548223E+02 -0.12487017382E+03  0.13735306667E+03  0.47000000000E+01 0. -1.
         -5    1    3    3    0  502  0.64672780852E+02  0.82241144798E+01 -0.25446376261E+03  0.26272438243E+03  0.47000000000E+01 0. -1.
        -11    1    1    2    0    0 -0.47823995686E+02  0.76497188763E+00 -0.50509960657E+02  0.69562747724E+02  0.00000000000E+00 0.  1.
         11    1    1    2    0    0  0.33569220091E+02  0.17642461856E+02 -0.10859224868E+03  0.11502358659E+03  0.00000000000E+00 0. -1.
<mgrwt>
<rscale>  0 0.11777354E+03</rscale>
<asrwt>0</asrwt>
<pdfrwt beam="2">  1        3 0.86392291E-01 0.12715239E+03</pdfrwt>
<pdfrwt beam="1">  1       -3 0.35559726E-02 0.12715239E+03</pdfrwt>
<totfact> 0.11232716E+03</totfact>
</mgrwt>
</event>
<event>
 7    1  0.6008063E-006  0.1730483E+03  0.7546771E-02  0.1180962E+00
          3   -1    0    0  501    0  0.00000000000E+00  0.00000000000E+00  0.55907470472E+03  0.55907470472E+03  0.00000000000E+00 0. -1.
         -3   -1    0    0    0  501 -0.00000000000E+00 -0.00000000000E+00 -0.47924541892E+02  0.47924541892E+02  0.00000000000E+00 0.  1.
         23    2    1    2    0    0 -0.98883095241E+02 -0.67393419410E+02  0.32067803258E+03  0.36439004123E+03  0.12500384820E+03 0.  0.
          5    1    3    3  502    0  0.15392270300E+02  0.52429840931E+01  0.73598165082E+00  0.16942329716E+02  0.47000000000E+01 0. -1.
         -5    1    3    3    0  502 -0.11427536554E+03 -0.72636403503E+02  0.31994205093E+03  0.34744771152E+03  0.47000000000E+01 0. -1.
        -11    1    1    2    0    0  0.69385771909E+02 -0.69332702397E+01  0.78262666327E+02  0.10482127895E+03  0.00000000000E+00 0.  1.
         11    1    1    2    0    0  0.29497323332E+02  0.74326689650E+02  0.11220946392E+03  0.13778792643E+03  0.00000000000E+00 0. -1.
<mgrwt>
<rscale>  0 0.16704749E+03</rscale>
<asrwt>0</asrwt>
<pdfrwt beam="1">  1        3 0.86011488E-01 0.17304826E+03</pdfrwt>
<pdfrwt beam="2">  1       -3 0.73730069E-02 0.17304826E+03</pdfrwt>
<totfact> 0.37245680E+02</totfact>
</mgrwt>
</event>
<event>
 7    1  0.6008063E-006  0.1394751E+03  0.7546771E-02  0.1225654E+00
          1   -1    0    0  501    0  0.00000000000E+00  0.00000000000E+00  0.29833531339E+02  0.29833531339E+02  0.00000000000E+00 0. -1.
         -1   -1    0    0    0  501 -0.00000000000E+00 -0.00000000000E+00 -0.54282915817E+03  0.54282915817E+03  0.00000000000E+00 0.  1.
         23    2    1    2    0    0 -0.16919913721E+02 -0.59506514826E+02 -0.22609089466E+03  0.26565087290E+03  0.12500393928E+03 0.  0.
          5    1    3    3  502    0 -0.49326012961E+02  0.17378816177E+02 -0.60074701396E+02  0.79788085290E+02  0.47000000000E+01 0. -1.
         -5    1    3    3    0  502  0.32406099240E+02 -0.76885331004E+02 -0.16601619326E+03  0.18586278761E+03  0.47000000000E+01 0. -1.
        -11    1    1    2    0    0  0.10555369166E+02  0.83032188825E+02 -0.20136443102E+03  0.21806740765E+03  0.00000000000E+00 0.  1.
         11    1    1    2    0    0  0.63645445554E+01 -0.23525673999E+02 -0.85540301152E+02  0.88944408963E+02  0.00000000000E+00 0. -1.
<mgrwt>
<rscale>  0 0.13122203E+03</rscale>
<asrwt>0</asrwt>
<pdfrwt beam="1">  1        1 0.45897741E-02 0.13947506E+03</pdfrwt>
<pdfrwt beam="2">  1       -1 0.83512177E-01 0.13947506E+03</pdfrwt>
<totfact> 0.27040149E+03</totfact>
</mgrwt>
</event>
<event>
 7    1  0.6008063E-006  0.3901548E+03  0.7546771E-02  0.1048113E+00
         -1   -1    0    0    0  501 -0.00000000000E+00  0.00000000000E+00  0.46212336167E+03  0.46212336167E+03  0.00000000000E+00 0.  1.
          1   -1    0    0  501    0  0.00000000000E+00 -0.00000000000E+00 -0.36368884473E+03  0.36368884473E+03  0.00000000000E+00 0. -1.
         23    2    1    2    0    0  0.31044150808E+03  0.20055926337E+03 -0.91136801582E+02  0.40065780301E+03  0.12499124148E+03 0.  0.
          5    1    3    3  502    0  0.20228699655E+03  0.13688678259E+03 -0.11941675496E+03  0.27191997276E+03  0.47000000000E+01 0. -1.
         -5    1    3    3    0  502  0.10815451154E+03  0.63672480779E+02  0.28279953382E+02  0.12873783025E+03  0.47000000000E+01 0. -1.
        -11    1    1    2    0    0 -0.18500056525E+03 -0.71683537364E+02  0.12270097274E+03  0.23327937625E+03  0.00000000000E+00 0.  1.
         11    1    1    2    0    0 -0.12544094283E+03 -0.12887572601E+03  0.66870345788E+02  0.19187502714E+03  0.00000000000E+00 0. -1.
<mgrwt>
<rscale>  0 0.38773133E+03</rscale>
<asrwt>0</asrwt>
<pdfrwt beam="2">  1        1 0.55952130E-01 0.39015479E+03</pdfrwt>
<pdfrwt beam="1">  1       -1 0.71095902E-01 0.39015479E+03</pdfrwt>
<totfact> 0.14180320E+02</totfact>
</mgrwt>
</event>
<event>
 7    1  0.6008063E-006  0.1337603E+03  0.7546771E-02  0.1234077E+00
          1   -1    0    0  501    0  0.00000000000E+00  0.00000000000E+00  0.40739839356E+03  0.40739839356E+03  0.00000000000E+00 0. -1.
         -1   -1    0    0    0  501 -0.00000000000E+00 -0.00000000000E+00 -0.38835092530E+02  0.38835092530E+02  0.00000000000E+00 0.  1.
         23    2    1    2    0    0  0.47539605778E+02 -0.25189397560E+01  0.27692744283E+03  0.30753962351E+03  0.12500180903E+03 0.  0.
          5    1    3    3  502    0  0.54348433363E+02  0.33228862174E+02  0.25888951723E+03  0.26665292352E+03  0.47000000000E+01 0. -1.
         -5    1    3    3    0  502 -0.68088275848E+01 -0.35747801930E+02  0.18037925594E+02  0.40886699985E+02  0.47000000000E+01 0. -1.
        -11    1    1    2    0    0 -0.23393860767E+02 -0.11920536811E+02  0.10450755098E+03  0.10775527890E+03  0.00000000000E+00 0. -1.
         11    1    1    2    0    0 -0.24145745011E+02  0.14439476567E+02 -0.12871692771E+02  0.30938583685E+02  0.00000000000E+00 0.  1.
<mgrwt>
<rscale>  0 0.12563722E+03</rscale>
<asrwt>0</asrwt>
<pdfrwt beam="1">  1        1 0.62676673E-01 0.13376028E+03</pdfrwt>
<pdfrwt beam="2">  1       -1 0.59746299E-02 0.13376028E+03</pdfrwt>
<totfact> 0.75842693E+03</totfact>
</mgrwt>
</event>
<event>
 7    1  0.6008063E-006  0.1366743E+03  0.7546771E-02  0.1228896E+00
          4   -1    0    0  501    0  0.00000000000E+00  0.00000000000E+00  0.17603313250E+03  0.17603313250E+03  0.00000000000E+00 0. -1.
         -4   -1    0    0    0  501 -0.00000000000E+00 -0.00000000000E+00 -0.85560576715E+02  0.85560576715E+02  0.00000000000E+00 0.  1.
         23    2    1    2    0    0  0.30620710206E+02 -0.46019578583E+02  0.55569954828E+02  0.14753941231E+03  0.12499771518E+03 0.  0.
          5    1    3    3  502    0  0.45336160188E+02  0.26661904842E+02  0.50493851592E+02  0.73061232121E+02  0.47000000000E+01 0. -1.
         -5    1    3    3    0  502 -0.14715449982E+02 -0.72681483425E+02  0.50761032359E+01  0.74478180194E+02  0.47000000000E+01 0. -1.
        -11    1    1    2    0    0 -0.63631277766E+01  0.15526032959E+02 -0.32285217211E+02  0.36385194034E+02  0.00000000000E+00 0.  1.
         11    1    1    2    0    0 -0.24257582430E+02  0.30493545624E+02  0.67187818173E+02  0.77669102871E+02  0.00000000000E+00 0. -1.
<mgrwt>
<rscale>  0 0.12903431E+03</rscale>
<asrwt>0</asrwt>
<pdfrwt beam="1">  1        4 0.27082020E-01 0.13667428E+03</pdfrwt>
<pdfrwt beam="2">  1       -4 0.13163166E-01 0.13667428E+03</pdfrwt>
<totfact> 0.10100546E+03</totfact>
</mgrwt>
</event>
<event>
 7    1  0.6008063E-006  0.1274671E+03  0.7546771E-02  0.1246790E+00
         -1   -1    0    0    0  501 -0.00000000000E+00  0.00000000000E+00  0.36228210342E+02  0.36228210342E+02  0.00000000000E+00 0.  1.
          1   -1    0    0  501    0  0.00000000000E+00 -0.00000000000E+00 -0.38860362108E+03  0.38860362108E+03  0.00000000000E+00 0. -1.
         23    2    1    2    0    0 -0.47887503052E-01 -0.24984867305E+02 -0.27786810072E+03  0.30570991781E+03  0.12499450613E+03 0.  0.
          5    1    3    3  502    0  0.12354377103E+02  0.33522108700E+02 -0.20530927972E+02  0.41472538006E+02  0.47000000000E+01 0. -1.
         -5    1    3    3    0  502 -0.12402264606E+02 -0.58506976005E+02 -0.25733717274E+03  0.26423737980E+03  0.47000000000E+01 0. -1.
        -11    1    1    2    0    0  0.13320594544E+02  0.53352489099E+02 -0.24692489926E+02  0.60279726201E+02  0.00000000000E+00 0.  1.
         11    1    1    2    0    0 -0.13272707041E+02 -0.28367621794E+02 -0.49814820101E+02  0.58842187418E+02  0.00000000000E+00 0. -1.
<mgrwt>
<rscale>  0 0.11778899E+03</rscale>
<asrwt>0</asrwt>
<pdfrwt beam="2">  1        1 0.59785174E-01 0.12746714E+03</pdfrwt>
<pdfrwt beam="1">  1       -1 0.55735707E-02 0.12746714E+03</pdfrwt>
<totfact> 0.88942248E+03</totfact>
</mgrwt>
</event>
<event>
 7    1  0.6008063E-006  0.1612340E+03  0.7546771E-02  0.1194380E+00
         -2   -1    0    0    0  501 -0.00000000000E+00  0.00000000000E+00  0.32561791804E+02  0.32561791804E+02  0.00000000000E+00 0.  1.
          2   -1    0    0  501    0  0.00000000000E+00 -0.00000000000E+00 -0.77436399639E+03  0.77436399639E+03  0.00000000000E+00 0. -1.
         23    2    1    2    0    0  0.10122448978E+03  0.11153975441E+02 -0.53149276934E+03  0.55541062541E+03  0.12500236180E+03 0.  0.
          5    1    3    3  502    0  0.75859139206E+02  0.55934349962E+02 -0.44293827510E+03  0.45287930628E+03  0.47000000000E+01 0. -1.
         -5    1    3    3    0  502  0.25365350575E+02 -0.44780374522E+02 -0.88554494238E+02  0.10253131913E+03  0.47000000000E+01 0. -1.
        -11    1    1    2    0    0 -0.20732655172E+02 -0.29143474026E+02 -0.13687700111E+02  0.38295407076E+02  0.00000000000E+00 0.  1.
         11    1    1    2    0    0 -0.80491834609E+02  0.17989498585E+02 -0.19662173514E+03  0.21321975571E+03  0.00000000000E+00 0. -1.
<mgrwt>
<rscale>  0 0.15506785E+03</rscale>
<asrwt>0</asrwt>
<pdfrwt beam="2">  1        2 0.11913291E+00 0.16123399E+03</pdfrwt>
<pdfrwt beam="1">  1       -2 0.50095068E-02 0.16123399E+03</pdfrwt>
<totfact> 0.70315119E+03</totfact>
</mgrwt>
</event>
<event>
 7    1  0.1007689E-005  0.1271743E+03  0.7546771E-02  0.1248200E+00
          1   -1    0    0  501    0  0.00000000000E+00  0.00000000000E+00  0.67996630665E+03  0.67996630665E+03  0.00000000000E+00 0. -1.
         -1   -1    0    0    0  501 -0.00000000000E+00 -0.00000000000E+00 -0.17943770558E+02  0.17943770558E+02  0.00000000000E+00 0.  1.
         23    2    1    2    0    0  0.63577937430E+01 -0.22526649435E+02  0.43887614094E+03  0.45693059502E+03  0.12500172042E+03 0.  0.
          5    1    3    3  502    0  0.44416124481E+02 -0.56085516201E+02  0.31350657991E+03  0.32160043981E+03  0.47000000000E+01 0.  1.
         -5    1    3    3    0  502 -0.38058330738E+02  0.33558866766E+02  0.12536956103E+03  0.13533015521E+03  0.47000000000E+01 0.  1.
        -11    1    1    2    0    0 -0.39960397074E+02  0.43586512335E+01  0.17480339911E+03  0.17936571444E+03  0.00000000000E+00 0. -1.
         11    1    1    2    0    0  0.33602603331E+02  0.18167998202E+02  0.48342996040E+02  0.61613767742E+02  0.00000000000E+00 0.  1.
<mgrwt>
<rscale>  0 0.11695864E+03</rscale>
<asrwt>0</asrwt>
<pdfrwt beam="1">  1        1 0.10461018E+00 0.12717430E+03</pdfrwt>
<pdfrwt beam="2">  1       -1 0.27605806E-02 0.12717430E+03</pdfrwt>
<totfact> 0.11922076E+04</totfact>
</mgrwt>
</event>
<event>
 7    1  0.6008063E-006  0.1252640E+03  0.7546771E-02  0.1248848E+00
         -1   -1    0    0    0  501 -0.00000000000E+00  0.00000000000E+00  0.78803235835E+02  0.78803235835E+02  0.00000000000E+00 0.  1.
          1   -1    0    0  501    0  0.00000000000E+00 -0.00000000000E+00 -0.16280357578E+03  0.16280357578E+03  0.00000000000E+00 0. -1.
         23    2    1    2    0    0 -0.46828612536E+01  0.66324171857E+01 -0.77731674780E+02  0.14742208431E+03  0.12500055813E+03 0.  0.
          5    1    3    3  502    0 -0.17221054502E+02 -0.43450321240E+02 -0.82940723601E+02  0.95319194109E+02  0.47000000000E+01 0. -1.
         -5    1    3    3    0  502  0.12538193249E+02  0.50082738426E+02  0.52090488214E+01  0.52102890206E+02  0.47000000000E+01 0. -1.
        -11    1    1    2    0    0  0.14683732343E+02  0.13130596473E+02  0.39053294929E+02  0.43739963467E+02  0.00000000000E+00 0.  1.
         11    1    1    2    0    0 -0.10000871089E+02 -0.19763013659E+02 -0.45321960094E+02  0.50444763833E+02  0.00000000000E+00 0. -1.
<mgrwt>
<rscale>  0 0.11657990E+03</rscale>
<asrwt>0</asrwt>
<pdfrwt beam="2">  1        1 0.25046704E-01 0.12526395E+03</pdfrwt>
<pdfrwt beam="1">  1       -1 0.12123575E-01 0.12526395E+03</pdfrwt>
<totfact> 0.80856548E+03</totfact>
</mgrwt>
</event>
<event>
 7    1  0.6008063E-006  0.1379103E+03  0.7546771E-02  0.1228664E+00
         -2   -1    0    0    0  501 -0.00000000000E+00  0.00000000000E+00  0.85137107112E+02  0.85137107112E+02  0.00000000000E+00 0.  1.
          2   -1    0    0  501    0  0.00000000000E+00 -0.00000000000E+00 -0.18098163992E+03  0.18098163992E+03  0.00000000000E+00 0. -1.
         23    2    1    2    0    0 -0.56788777600E+02  0.13038481765E+02 -0.29904835060E+02  0.14111541169E+03  0.12499717192E+03 0.  0.
          5    1    3    3  502    0 -0.73636069783E+02  0.39203653838E+02  0.16379261414E+02  0.85144391781E+02  0.47000000000E+01 0.  1.
         -5    1    3    3    0  502  0.16847292183E+02 -0.26165172073E+02 -0.46284096473E+02  0.55971019910E+02  0.47000000000E+01 0.  1.
        -11    1    1    2    0    0  0.55734254809E+02  0.11166788358E+02 -0.79120304146E+02  0.97421901283E+02  0.00000000000E+00 0. -1.
         11    1    1    2    0    0  0.10545227905E+01 -0.24205270123E+02  0.13180606393E+02  0.27581434062E+02  0.00000000000E+00 0.  1.
<mgrwt>
<rscale>  0 0.12918902E+03</rscale>
<asrwt>0</asrwt>
<pdfrwt beam="2">  1        2 0.27843329E-01 0.13791033E+03</pdfrwt>
<pdfrwt beam="1">  1       -2 0.13098017E-01 0.13791033E+03</pdfrwt>
<totfact> 0.77423947E+03</totfact>
</mgrwt>
</event>
<event>
 7    1  0.6008063E-006  0.1558304E+03  0.7546771E-02  0.1200718E+00
          2   -1    0    0  501    0  0.00000000000E+00  0.00000000000E+00  0.23351502053E+03  0.23351502053E+03  0.00000000000E+00 0. -1.
         -2   -1    0    0    0  501 -0.00000000000E+00 -0.00000000000E+00 -0.90110537789E+02  0.90110537789E+02  0.00000000000E+00 0.  1.
         23    2    1    2    0    0 -0.23560467488E+02 -0.90010418536E+02  0.92035242440E+02  0.18097952598E+03  0.12500452751E+03 0.  0.
          5    1    3    3  502    0 -0.16503800968E+02  0.30499261114E+02  0.22100287195E+02  0.41389528494E+02  0.47000000000E+01 0. -1.
         -5    1    3    3    0  502 -0.70566665192E+01 -0.12050967965E+03  0.69934955245E+02  0.13958999748E+03  0.47000000000E+01 0. -1.
        -11    1    1    2    0    0 -0.29084393962E+02  0.30774353453E+02 -0.86703565007E+01  0.43221960673E+02  0.00000000000E+00 0.  1.
         11    1    1    2    0    0  0.52644861449E+02  0.59236065083E+02  0.60039596801E+02  0.99424071670E+02  0.00000000000E+00 0. -1.
<mgrwt>
<rscale>  0 0.14980062E+03</rscale>
<asrwt>0</asrwt>
<pdfrwt beam="1">  1        2 0.35925388E-01 0.15583037E+03</pdfrwt>
<pdfrwt beam="2">  1       -2 0.13863160E-01 0.15583037E+03</pdfrwt>
<totfact> 0.54041363E+03</totfact>
</mgrwt>
</event>
<event>
 7    1  0.6008063E-006  0.1489789E+03  0.7546771E-02  0.1210791E+00
          4   -1    0    0  501    0  0.00000000000E+00  0.00000000000E+00  0.18131718886E+03  0.18131718886E+03  0.00000000000E+00 0.  1.
         -4   -1    0    0    0  501 -0.00000000000E+00 -0.00000000000E+00 -0.10424621594E+03  0.10424621594E+03  0.00000000000E+00 0. -1.
         23    2    1    2    0    0 -0.78941679483E+02  0.18207130025E+02  0.64330572543E+02  0.16227484139E+03  0.12502565033E+03 0.  0.
          5    1    3    3  502    0  0.44179440401E+01 -0.26270427107E+02  0.62002065755E+02  0.67646136089E+02  0.47000000000E+01 0.  1.
         -5    1    3    3    0  502 -0.83359623524E+02  0.44477557133E+02  0.23285067877E+01  0.94628705298E+02  0.47000000000E+01 0.  1.
        -11    1    1    2    0    0  0.71022307780E+02 -0.38649596366E+02 -0.20549862633E+02  0.83428150860E+02  0.00000000000E+00 0. -1.
         11    1    1    2    0    0  0.79193717031E+01  0.20442466340E+02  0.33290263012E+02  0.39860412562E+02  0.00000000000E+00 0.  1.
<mgrwt>
<rscale>  0 0.14190293E+03</rscale>
<asrwt>0</asrwt>
<pdfrwt beam="1">  1        4 0.27894952E-01 0.14897886E+03</pdfrwt>
<pdfrwt beam="2">  1       -4 0.16037879E-01 0.14897886E+03</pdfrwt>
<totfact> 0.68915770E+02</totfact>
</mgrwt>
</event>
<event>
 7    1  0.6008063E-006  0.1308558E+03  0.7546771E-02  0.1239090E+00
          2   -1    0    0  501    0  0.00000000000E+00  0.00000000000E+00  0.15793493070E+04  0.15793493070E+04  0.00000000000E+00 0. -1.
         -2   -1    0    0    0  501 -0.00000000000E+00 -0.00000000000E+00 -0.12977325620E+02  0.12977325620E+02  0.00000000000E+00 0.  1.
         23    2    1    2    0    0  0.41542129975E+02  0.15050878177E+02  0.13173952874E+04  0.13238782389E+04  0.12317049452E+03 0.  0.
          5    1    3    3  502    0  0.55329670602E+01 -0.52272657630E+02  0.43963531127E+03  0.44279153264E+03  0.47000000000E+01 0. -1.
         -5    1    3    3    0  502  0.36009162915E+02  0.67323535807E+02  0.87775997614E+03  0.88108670628E+03  0.47000000000E+01 0.  1.
        -11    1    1    2    0    0  0.25713956594E+02  0.11224082968E+02  0.75482272400E+02  0.80528014062E+02  0.00000000000E+00 0.  1.
         11    1    1    2    0    0 -0.67256086569E+02 -0.26274961145E+02  0.17349442156E+03  0.18792037962E+03  0.00000000000E+00 0. -1.
<mgrwt>
<rscale>  0 0.12246197E+03</rscale>
<asrwt>0</asrwt>
<pdfrwt beam="1">  1        2 0.24297666E+00 0.13085583E+03</pdfrwt>
<pdfrwt beam="2">  1       -2 0.19965129E-02 0.13085583E+03</pdfrwt>
<totfact> 0.93611116E+03</totfact>
</mgrwt>
</event>
<event>
 7    1  0.6008063E-006  0.2290537E+03  0.7546771E-02  0.1130396E+00
          1   -1    0    0  501    0  0.00000000000E+00  0.00000000000E+00  0.22198567031E+03  0.22198567031E+03  0.00000000000E+00 0. -1.
         -1   -1    0    0    0  501 -0.00000000000E+00 -0.00000000000E+00 -0.32862880765E+03  0.32862880765E+03  0.00000000000E+00 0.  1.
         23    2    1    2    0    0 -0.17976985079E+03  0.67255909105E+02  0.10399447978E+03  0.25155606791E+03  0.12500018766E+03 0.  0.
          5    1    3    3  502    0 -0.13269402145E+03  0.10336358079E+03  0.88197813804E+02  0.18998072935E+03  0.47000000000E+01 0.  1.
         -5    1    3    3    0  502 -0.47075829342E+02 -0.36107671690E+02  0.15796665971E+02  0.61575338561E+02  0.47000000000E+01 0.  1.
        -11    1    1    2    0    0  0.61554509178E+02  0.16943355946E+02 -0.89923391709E+02  0.11028259739E+03  0.00000000000E+00 0.  1.
         11    1    1    2    0    0  0.11821534161E+03 -0.84199265052E+02 -0.12071422540E+03  0.18877581265E+03  0.00000000000E+00 0. -1.
<mgrwt>
<rscale>  0 0.22474302E+03</rscale>
<asrwt>0</asrwt>
<pdfrwt beam="1">  1        1 0.34151642E-01 0.22905371E+03</pdfrwt>
<pdfrwt beam="2">  1       -1 0.50558278E-01 0.22905371E+03</pdfrwt>
<totfact> 0.51926908E+02</totfact>
</mgrwt>
</event>
<event>
 6    1  0.6008063E-006  0.1322477E+03  0.7546771E-02  0.1241462E+00
         -2   -1    0    0    0  501 -0.00000000000E+00  0.00000000000E+00  0.47916798293E+02  0.47916798293E+02  0.00000000000E+00 0.  1.
          2   -1    0    0  501    0  0.00000000000E+00 -0.00000000000E+00 -0.26526402447E+03  0.26526402447E+03  0.00000000000E+00 0. -1.
          5    1    1    2  502    0 -0.61451490155E+01  0.73182256219E+02 -0.92308326183E+02  0.11805220271E+03  0.47000000000E+01 0. -1.
         -5    1    1    2    0  502 -0.10026997461E+02 -0.51825657977E+02 -0.24457506131E+02  0.58366935066E+02  0.47000000000E+01 0.  1.
        -11    1    1    2    0    0 -0.26501706137E+02  0.12586707344E+02 -0.99281021293E+01  0.30973098680E+02  0.00000000000E+00 0. -1.
         11    1    1    2    0    0  0.42673852614E+02 -0.33943305586E+02 -0.90653291737E+02  0.10578858631E+03  0.00000000000E+00 0.  1.
<mgrwt>
<rscale>  0 0.12099632E+03</rscale>
<asrwt>0</asrwt>
<pdfrwt beam="2">  1        2 0.40809849E-01 0.13224769E+03</pdfrwt>
<pdfrwt beam="1">  1       -2 0.73718152E-02 0.13224769E+03</pdfrwt>
<totfact> 0.12619381E+04</totfact>
</mgrwt>
</event>
<event>
 7    1  0.6008063E-006  0.2220224E+03  0.7546771E-02  0.1135649E+00
          1   -1    0    0  501    0  0.00000000000E+00  0.00000000000E+00  0.19791869254E+03  0.19791869254E+03  0.00000000000E+00 0. -1.
         -1   -1    0    0    0  501 -0.00000000000E+00 -0.00000000000E+00 -0.27768175279E+03  0.27768175279E+03  0.00000000000E+00 0.  1.
         23    2    1    2    0    0 -0.73327327396E+02  0.16819709341E+03  0.56897045018E+02  0.22919689760E+03  0.12500713964E+03 0.  0.
          5    1    3    3  502    0 -0.34329208118E+02  0.11247418037E+03  0.94863068805E+02  0.15116225588E+03  0.47000000000E+01 0.  1.
         -5    1    3    3    0  502 -0.38998119278E+02  0.55722913041E+02 -0.37966023787E+02  0.78034641712E+02  0.47000000000E+01 0.  1.
        -11    1    1    2    0    0  0.60381953610E+02 -0.10943845493E+03 -0.37638054253E+02  0.13053497182E+03  0.00000000000E+00 0. -1.
         11    1    1    2    0    0  0.12945373786E+02 -0.58758638487E+02 -0.99022051011E+02  0.11586857592E+03  0.00000000000E+00 0.  1.
<mgrwt>
<rscale>  0 0.21764755E+03</rscale>
<asrwt>0</asrwt>
<pdfrwt beam="1">  1        1 0.30449030E-01 0.22202240E+03</pdfrwt>
<pdfrwt beam="2">  1       -1 0.42720269E-01 0.22202240E+03</pdfrwt>
<totfact> 0.81553706E+02</totfact>
</mgrwt>
</event>
<event>
 7    1  0.6008063E-006  0.1400816E+03  0.7546771E-02  0.1224396E+00
         -2   -1    0    0    0  501 -0.00000000000E+00  0.00000000000E+00  0.37919075978E+02  0.37919075978E+02  0.00000000000E+00 0. -1.
          2   -1    0    0  501    0  0.00000000000E+00 -0.00000000000E+00 -0.41712371471E+03  0.41712371471E+03  0.00000000000E+00 0.  1.
         23    2    1    2    0    0  0.43246665202E+01 -0.63080417762E+02 -0.22877779150E+03  0.26825758103E+03  0.12500004019E+03 0.  0.
          5    1    3    3  502    0  0.15986456248E+02  0.35835081000E+02 -0.78861153339E+02  0.88209360725E+02  0.47000000000E+01 0.  1.
         -5    1    3    3    0  502 -0.11661789727E+02 -0.98915498762E+02 -0.14991663817E+03  0.18004822030E+03  0.47000000000E+01 0.  1.
        -11    1    1    2    0    0 -0.26761071923E+02  0.41696259714E+02 -0.14756291091E+03  0.15565842644E+03  0.00000000000E+00 0.  1.
         11    1    1    2    0    0  0.22436405403E+02  0.21384158048E+02 -0.28639363203E+01  0.31126783227E+02  0.00000000000E+00 0. -1.
<mgrwt>
<rscale>  0 0.13208370E+03</rscale>
<asrwt>0</asrwt>
<pdfrwt beam="2">  1        2 0.64172882E-01 0.14008159E+03</pdfrwt>
<pdfrwt beam="1">  1       -2 0.58337038E-02 0.14008159E+03</pdfrwt>
<totfact> 0.11193743E+04</totfact>
</mgrwt>
</event>
<event>
 7    1  0.6008063E-006  0.1274847E+03  0.7546771E-02  0.1244606E+00
          3   -1    0    0  501    0  0.00000000000E+00  0.00000000000E+00  0.74037917792E+02  0.74037917792E+02  0.00000000000E+00 0. -1.
         -3   -1    0    0    0  501 -0.00000000000E+00 -0.00000000000E+00 -0.17385255961E+03  0.17385255961E+03  0.00000000000E+00 0.  1.
         23    2    1    2    0    0  0.29092575018E+01  0.24874884443E+02 -0.74134139712E+02  0.14747280852E+03  0.12500053971E+03 0.  0.
          5    1    3    3  502    0 -0.30894031169E+02  0.63769417999E+02 -0.62122888770E+02  0.94352123150E+02  0.47000000000E+01 0. -1.
         -5    1    3    3    0  502  0.33803288671E+02 -0.38894533556E+02 -0.12011250941E+02  0.53120685375E+02  0.47000000000E+01 0. -1.
        -11    1    1    2    0    0 -0.18207723377E+02 -0.58181023027E+01 -0.57329354556E+02  0.60431998137E+02  0.00000000000E+00 0.  1.
         11    1    1    2    0    0  0.15298465875E+02 -0.19056782140E+02  0.31648852447E+02  0.39985670744E+02  0.00000000000E+00 0. -1.
<mgrwt>
<rscale>  0 0.11908973E+03</rscale>
<asrwt>0</asrwt>
<pdfrwt beam="1">  1        3 0.11390449E-01 0.12748474E+03</pdfrwt>
<pdfrwt beam="2">  1       -3 0.26746548E-01 0.12748474E+03</pdfrwt>
<totfact> 0.17878014E+03</totfact>
</mgrwt>
</event>
<event>
 7    1  0.6008063E-006  0.1310930E+03  0.7546771E-02  0.1244045E+00
         -3   -1    0    0    0  501 -0.00000000000E+00  0.00000000000E+00  0.11237705840E+03  0.11237705840E+03  0.00000000000E+00 0.  1.
          3   -1    0    0  501    0  0.00000000000E+00 -0.00000000000E+00 -0.11488540997E+03  0.11488540997E+03  0.00000000000E+00 0. -1.
         23    2    1    2    0    0 -0.31505910317E+02 -0.23829779495E+02 -0.26693427693E+02  0.13378310937E+03  0.12499960197E+03 0.  0.
          5    1    3    3  502    0  0.26545013924E+02 -0.52703660572E+02 -0.34165438157E+02  0.68349694706E+02  0.47000000000E+01 0.  1.
         -5    1    3    3    0  502 -0.58050924241E+02  0.28873881077E+02  0.74720104633E+01  0.65433414660E+02  0.47000000000E+01 0.  1.
        -11    1    1    2    0    0 -0.27600018114E+02  0.98672238839E+01  0.46180653463E+01  0.29672371570E+02  0.00000000000E+00 0. -1.
         11    1    1    2    0    0  0.59105928431E+02  0.13962555611E+02  0.19567010769E+02  0.63806987433E+02  0.00000000000E+00 0.  1.
<mgrwt>
<rscale>  0 0.11942700E+03</rscale>
<asrwt>0</asrwt>
<pdfrwt beam="2">  1        3 0.17674679E-01 0.13109303E+03</pdfrwt>
<pdfrwt beam="1">  1       -3 0.17288778E-01 0.13109303E+03</pdfrwt>
<totfact> 0.18459998E+03</totfact>
</mgrwt>
</event>
<event>
 7    1  0.6008063E-006  0.1277090E+03  0.7546771E-02  0.1245288E+00
          2   -1    0    0  501    0  0.00000000000E+00  0.00000000000E+00  0.56053382166E+03  0.56053382166E+03  0.00000000000E+00 0. -1.
         -2   -1    0    0    0  501 -0.00000000000E+00 -0.00000000000E+00 -0.27609706771E+02  0.27609706771E+02  0.00000000000E+00 0.  1.
         23    2    1    2    0    0  0.24221129560E+02  0.99794603875E+01  0.42701201189E+03  0.44570041122E+03  0.12499338191E+03 0.  0.
          5    1    3    3  502    0 -0.44950259533E+02  0.63400785966E+01  0.27266437607E+03  0.27645736453E+03  0.47000000000E+01 0. -1.
         -5    1    3    3    0  502  0.69171389094E+02  0.36393817910E+01  0.15434763582E+03  0.16924304669E+03  0.47000000000E+01 0. -1.
        -11    1    1    2    0    0 -0.44905615448E+01 -0.48084430549E+02  0.76328180311E+02  0.90323134987E+02  0.00000000000E+00 0.  1.
         11    1    1    2    0    0 -0.19730568016E+02  0.38104970161E+02  0.29583922691E+02  0.52119982224E+02  0.00000000000E+00 0. -1.
<mgrwt>
<rscale>  0 0.11868152E+03</rscale>
<asrwt>0</asrwt>
<pdfrwt beam="1">  1        2 0.86235964E-01 0.12770904E+03</pdfrwt>
<pdfrwt beam="2">  1       -2 0.42476476E-02 0.12770904E+03</pdfrwt>
<totfact> 0.12957105E+04</totfact>
</mgrwt>
</event>
<event>
 7    1  0.6008063E-006  0.1413507E+03  0.7546771E-02  0.1222454E+00
         -3   -1    0    0    0  501 -0.00000000000E+00  0.00000000000E+00  0.44454922747E+03  0.44454922747E+03  0.00000000000E+00 0.  1.
          3   -1    0    0  501    0  0.00000000000E+00 -0.00000000000E+00 -0.53945792169E+02  0.53945792169E+02  0.00000000000E+00 0. -1.
         23    2    1    2    0    0  0.65728232529E+02 -0.60850050265E+01  0.67863170475E+02  0.15679745499E+03  0.12499121627E+03 0.  0.
          5    1    3    3  502    0  0.63381916066E+02 -0.50454105522E+02  0.72139039968E+01  0.81467873785E+02  0.47000000000E+01 0.  1.
         -5    1    3    3    0  502  0.23463164628E+01  0.44369100495E+02  0.60649266478E+02  0.75329581202E+02  0.47000000000E+01 0.  1.
        -11    1    1    2    0    0  0.17392603800E+02 -0.89209374709E+01  0.22511373298E+02  0.29813549270E+02  0.00000000000E+00 0. -1.
         11    1    1    2    0    0 -0.83120836329E+02  0.15005942497E+02  0.30022889153E+03  0.31188401538E+03  0.00000000000E+00 0.  1.
<mgrwt>
<rscale>  0 0.13342967E+03</rscale>
<asrwt>0</asrwt>
<pdfrwt beam="2">  1        3 0.82993529E-02 0.14135074E+03</pdfrwt>
<pdfrwt beam="1">  1       -3 0.68392186E-01 0.14135074E+03</pdfrwt>
<totfact> 0.48993712E+02</totfact>
</mgrwt>
</event>
<event>
 7    1  0.6008063E-006  0.1440659E+03  0.7546771E-02  0.1218183E+00
         -4   -1    0    0    0  501 -0.00000000000E+00  0.00000000000E+00  0.88902599081E+02  0.88902599081E+02  0.00000000000E+00 0.  1.
          4   -1    0    0  501    0  0.00000000000E+00 -0.00000000000E+00 -0.23882669255E+03  0.23882669255E+03  0.00000000000E+00 0. -1.
         23    2    1    2    0    0 -0.68928834645E+02  0.19427207538E+02 -0.15507911312E+03  0.21167076050E+03  0.12500551543E+03 0.  0.
          5    1    3    3  502    0 -0.94569560270E+02  0.37558051228E+02 -0.14710764463E+03  0.17893227225E+03  0.47000000000E+01 0. -1.
         -5    1    3    3    0  502  0.25640725625E+02 -0.18130843690E+02 -0.79714684826E+01  0.32738488256E+02  0.47000000000E+01 0. -1.
        -11    1    1    2    0    0  0.51985673182E+02 -0.33085823022E+02  0.41077641304E+02  0.74057778230E+02  0.00000000000E+00 0.  1.
         11    1    1    2    0    0  0.16943161463E+02  0.13658615484E+02 -0.35922621662E+02  0.42000752902E+02  0.00000000000E+00 0. -1.
<mgrwt>
<rscale>  0 0.13645295E+03</rscale>
<asrwt>0</asrwt>
<pdfrwt beam="2">  1        4 0.36742568E-01 0.14406589E+03</pdfrwt>
<pdfrwt beam="1">  1       -4 0.13677323E-01 0.14406589E+03</pdfrwt>
<totfact> 0.53429941E+02</totfact>
</mgrwt>
</event>
<event>
 7    1  0.6008063E-006  0.1522713E+03  0.7546771E-02  0.1206699E+00
          2   -1    0    0  501    0  0.00000000000E+00  0.00000000000E+00  0.12976275874E+04  0.12976275874E+04  0.00000000000E+00 0. -1.
         -2   -1    0    0    0  501 -0.00000000000E+00 -0.00000000000E+00 -0.16420655679E+02  0.16420655679E+02  0.00000000000E+00 0.  1.
         23    2    1    2    0    0 -0.86190303108E+02  0.11549380140E+02  0.89912932006E+03  0.91193205397E+03  0.12499752132E+03 0.  0.
          5    1    3    3  502    0 -0.49085900201E+02  0.36505463636E+02  0.15881857371E+03  0.17025716968E+03  0.47000000000E+01 0. -1.
         -5    1    3    3    0  502 -0.37104402908E+02 -0.24956083496E+02  0.74031074635E+03  0.74167488429E+03  0.47000000000E+01 0. -1.
        -11    1    1    2    0    0 -0.16140010132E+02  0.97039063794E+01  0.88727581129E+02  0.90704186116E+02  0.00000000000E+00 0. -1.
         11    1    1    2    0    0  0.10233031324E+03 -0.21253286519E+02  0.29335003057E+03  0.31141200303E+03  0.00000000000E+00 0.  1.
<mgrwt>
<rscale>  0 0.14504399E+03</rscale>
<asrwt>0</asrwt>
<pdfrwt beam="1">  1        2 0.19963493E+00 0.15227126E+03</pdfrwt>
<pdfrwt beam="2">  1       -2 0.25262557E-02 0.15227126E+03</pdfrwt>
<totfact> 0.94088053E+03</totfact>
</mgrwt>
</event>
<event>
 7    1  0.6008063E-006  0.1252238E+03  0.7546771E-02  0.1251093E+00
          1   -1    0    0  501    0  0.00000000000E+00  0.00000000000E+00  0.13047627806E+03  0.13047627806E+03  0.00000000000E+00 0. -1.
         -1   -1    0    0    0  501 -0.00000000000E+00 -0.00000000000E+00 -0.14501797558E+03  0.14501797558E+03  0.00000000000E+00 0.  1.
         23    2    1    2    0    0 -0.39630583965E+01  0.63146395599E+01  0.77128127110E+02  0.14707056522E+03  0.12500169063E+03 0.  0.
          5    1    3    3  502    0 -0.28754945500E+02 -0.12941392853E+02 -0.24751012398E+02  0.40361233312E+02  0.47000000000E+01 0. -1.
         -5    1    3    3    0  502  0.24791887104E+02  0.19256032413E+02  0.10187913951E+03  0.10670933191E+03  0.47000000000E+01 0. -1.
        -11    1    1    2    0    0  0.15022406020E+02  0.21126115404E+02 -0.95164948623E+02  0.98632412934E+02  0.00000000000E+00 0.  1.
         11    1    1    2    0    0 -0.11059347624E+02 -0.27440754964E+02  0.34951239978E+01  0.29791275479E+02  0.00000000000E+00 0. -1.
<mgrwt>
<rscale>  0 0.11528000E+03</rscale>
<asrwt>0</asrwt>
<pdfrwt beam="1">  1        1 0.20073274E-01 0.12522381E+03</pdfrwt>
<pdfrwt beam="2">  1       -1 0.22310458E-01 0.12522381E+03</pdfrwt>
<totfact> 0.40846968E+03</totfact>
</mgrwt>
</event>
<event>
 7    1  0.6008063E-006  0.1261500E+03  0.7546771E-02  0.1253749E+00
         -1   -1    0    0    0  501 -0.00000000000E+00  0.00000000000E+00  0.67694981967E+02  0.67694981967E+02  0.00000000000E+00 0.  1.
          1   -1    0    0  501    0  0.00000000000E+00 -0.00000000000E+00 -0.16228965603E+03  0.16228965603E+03  0.00000000000E+00 0. -1.
         23    2    1    2    0    0 -0.83576198031E+01  0.14780036183E+02 -0.54856847029E+02  0.13756128386E+03  0.12500213548E+03 0.  0.
          5    1    3    3  502    0 -0.57702335176E+02  0.29005751961E+02 -0.36017693159E+01  0.64853341270E+02  0.47000000000E+01 0.  1.
         -5    1    3    3    0  502  0.49344715373E+02 -0.14225715778E+02 -0.51255077713E+02  0.72707942592E+02  0.47000000000E+01 0.  1.
        -11    1    1    2    0    0 -0.41071298971E+01 -0.12643531588E+02  0.24003842869E+02  0.27439239776E+02  0.00000000000E+00 0.  1.
         11    1    1    2    0    0  0.12464749700E+02 -0.21365045950E+01 -0.63741669907E+02  0.64984114362E+02  0.00000000000E+00 0. -1.
<mgrwt>
<rscale>  0 0.11376665E+03</rscale>
<asrwt>0</asrwt>
<pdfrwt beam="2">  1        1 0.24967639E-01 0.12615004E+03</pdfrwt>
<pdfrwt beam="1">  1       -1 0.10414613E-01 0.12615004E+03</pdfrwt>
<totfact> 0.10253583E+04</totfact>
</mgrwt>
</event>
<event>
 6    1  0.6008063E-006  0.2589263E+03  0.7546771E-02  0.1133055E+00
         -1   -1    0    0    0  501 -0.00000000000E+00  0.00000000000E+00  0.90941658823E+02  0.90941658823E+02  0.00000000000E+00 0.  1.
          1   -1    0    0  501    0  0.00000000000E+00 -0.00000000000E+00 -0.69864276812E+03  0.69864276812E+03  0.00000000000E+00 0. -1.
          5    1    1    2  502    0  0.15078913864E+03  0.50400373230E+02 -0.46720458307E+03  0.49353801717E+03  0.47000000000E+01 0. -1.
         -5    1    1    2    0  502 -0.83958945210E+02  0.28581423343E+02 -0.13066791344E+03  0.15799429054E+03  0.47000000000E+01 0.  1.
        -11    1    1    2    0    0 -0.79602110849E+02 -0.63357656927E+02 -0.33345646079E+02  0.10706362994E+03  0.00000000000E+00 0.  1.
         11    1    1    2    0    0  0.12771917422E+02 -0.15624139645E+02  0.23517033286E+02  0.30988489296E+02  0.00000000000E+00 0. -1.
<mgrwt>
<rscale>  0 0.22111440E+03</rscale>
<asrwt>0</asrwt>
<pdfrwt beam="2">  1        1 0.10748351E+00 0.25892629E+03</pdfrwt>
<pdfrwt beam="1">  1       -1 0.13991024E-01 0.25892629E+03</pdfrwt>
<totfact> 0.10172833E+03</totfact>
</mgrwt>
</event>
<event>
 7    1  0.6008063E-006  0.1225989E+03  0.7546771E-02  0.1258291E+00
          2   -1    0    0  501    0  0.00000000000E+00  0.00000000000E+00  0.91898478614E+03  0.91898478614E+03  0.00000000000E+00 0. -1.
         -2   -1    0    0    0  501 -0.00000000000E+00 -0.00000000000E+00 -0.19216780100E+02  0.19216780100E+02  0.00000000000E+00 0.  1.
         23    2    1    2    0    0 -0.51393907157E+01 -0.19473562787E+02  0.79540526309E+03  0.80479812025E+03  0.12093324117E+03 0.  0.
          5    1    3    3  502    0 -0.60510524385E+02  0.65993756214E+01  0.37572254397E+03  0.38065022707E+03  0.47000000000E+01 0. -1.
         -5    1    3    3    0  502  0.55371133669E+02 -0.26072938408E+02  0.41968271912E+03  0.42414789318E+03  0.47000000000E+01 0.  1.
        -11    1    1    2    0    0 -0.70774971331E+01 -0.18021993645E+02  0.88998920650E+02  0.91080684546E+02  0.00000000000E+00 0. -1.
         11    1    1    2    0    0  0.12216887849E+02  0.37495556432E+02  0.15363822303E+02  0.42322761448E+02  0.00000000000E+00 0.  1.
<mgrwt>
<rscale>  0 0.11123962E+03</rscale>
<asrwt>0</asrwt>
<pdfrwt beam="1">  1        2 0.14138224E+00 0.12259887E+03</pdfrwt>
<pdfrwt beam="2">  1       -2 0.29564284E-02 0.12259887E+03</pdfrwt>
<totfact> 0.12185064E+04</totfact>
</mgrwt>
</event>
<event>
 7    1  0.6008063E-006  0.1361376E+03  0.7546771E-02  0.1230748E+00
         -1   -1    0    0    0  501 -0.00000000000E+00  0.00000000000E+00  0.18368255873E+03  0.18368255873E+03  0.00000000000E+00 0.  1.
          1   -1    0    0  501    0  0.00000000000E+00 -0.00000000000E+00 -0.79978897872E+02  0.79978897872E+02  0.00000000000E+00 0. -1.
         23    2    1    2    0    0 -0.33136523557E+02  0.42539996194E+02  0.66939243349E+02  0.15170469732E+03  0.12500308964E+03 0.  0.
          5    1    3    3  502    0  0.44373630211E+02 -0.40541364316E+01  0.29887293035E+02  0.53859032346E+02  0.47000000000E+01 0.  1.
         -5    1    3    3    0  502 -0.77510153767E+02  0.46594132626E+02  0.37051950314E+02  0.97845664974E+02  0.47000000000E+01 0.  1.
        -11    1    1    2    0    0  0.49974542906E+02 -0.36266099599E+02 -0.93632230200E+01  0.62452821106E+02  0.00000000000E+00 0. -1.
         11    1    1    2    0    0 -0.16838019349E+02 -0.62738965950E+01  0.46127640530E+02  0.49503938176E+02  0.00000000000E+00 0.  1.
<mgrwt>
<rscale>  0 0.12780620E+03</rscale>
<asrwt>0</asrwt>
<pdfrwt beam="2">  1        1 0.12304446E-01 0.13613762E+03</pdfrwt>
<pdfrwt beam="1">  1       -1 0.28258855E-01 0.13613762E+03</pdfrwt>
<totfact> 0.52344497E+03</totfact>
</mgrwt>
</event>
<event>
 7    1  0.6008063E-006  0.2026679E+03  0.7546771E-02  0.1152080E+00
         -2   -1    0    0    0  501 -0.00000000000E+00  0.00000000000E+00  0.58285763173E+02  0.58285763173E+02  0.00000000000E+00 0.  1.
          2   -1    0    0  501    0  0.00000000000E+00 -0.00000000000E+00 -0.68958495322E+03  0.68958495322E+03  0.00000000000E+00 0. -1.
         23    2    1    2    0    0  0.28049698454E+01 -0.15950084830E+03 -0.22551772669E+03  0.30320375125E+03  0.12500352495E+03 0.  0.
          5    1    3    3  502    0 -0.35674107351E+02  0.23070591444E+01 -0.45795301019E+02  0.58286053672E+02  0.47000000000E+01 0.  1.
         -5    1    3    3    0  502  0.38479077197E+02 -0.16180790745E+03 -0.17972242568E+03  0.24491769757E+03  0.47000000000E+01 0.  1.
        -11    1    1    2    0    0 -0.76530425880E+01  0.80617209434E+02 -0.31043851010E+03  0.32082670100E+03  0.00000000000E+00 0. -1.
         11    1    1    2    0    0  0.48480727426E+01  0.78883638867E+02 -0.95342953247E+02  0.12384026415E+03  0.00000000000E+00 0.  1.
<mgrwt>
<rscale>  0 0.19725052E+03</rscale>
<asrwt>0</asrwt>
<pdfrwt beam="2">  1        2 0.10608999E+00 0.20266788E+03</pdfrwt>
<pdfrwt beam="1">  1       -2 0.89670409E-02 0.20266788E+03</pdfrwt>
<totfact> 0.33367869E+03</totfact>
</mgrwt>
</event>
<event>
 7    1  0.6008063E-006  0.2273520E+03  0.7546771E-02  0.1132826E+00
         -2   -1    0    0    0  501 -0.00000000000E+00  0.00000000000E+00  0.20551407276E+02  0.20551407276E+02  0.00000000000E+00 0.  1.
          2   -1    0    0  501    0  0.00000000000E+00 -0.00000000000E+00 -0.22921262830E+04  0.22921262830E+04  0.00000000000E+00 0. -1.
         23    2    1    2    0    0 -0.95390416599E+02 -0.16421127112E+03 -0.13105982669E+04  0.13301716940E+04  0.12499698067E+03 0.  0.
          5    1    3    3  502    0  0.12602006566E+02 -0.94029547360E+02 -0.67382896242E+03  0.68049094552E+03  0.47000000000E+01 0.  1.
         -5    1    3    3    0  502 -0.10799242316E+03 -0.70181723762E+02 -0.63676930446E+03  0.64968074845E+03  0.47000000000E+01 0.  1.
        -11    1    1    2    0    0  0.37157974679E+02  0.12524353076E+03 -0.71065391281E+03  0.72256185954E+03  0.00000000000E+00 0.  1.
         11    1    1    2    0    0  0.58232441920E+02  0.38967740361E+02 -0.25032269607E+03  0.25994413678E+03  0.00000000000E+00 0. -1.
<mgrwt>
<rscale>  0 0.22142445E+03</rscale>
<asrwt>0</asrwt>
<pdfrwt beam="2">  1        2 0.35263475E+00 0.22735197E+03</pdfrwt>
<pdfrwt beam="1">  1       -2 0.31617555E-02 0.22735197E+03</pdfrwt>
<totfact> 0.20418626E+03</totfact>
</mgrwt>
</event>
<event>
 7    1  0.6008063E-006  0.2059030E+03  0.7546771E-02  0.1148689E+00
         -2   -1    0    0    0  501 -0.00000000000E+00  0.00000000000E+00  0.48531246295E+02  0.48531246295E+02  0.00000000000E+00 0.  1.
          2   -1    0    0  501    0  0.00000000000E+00 -0.00000000000E+00 -0.22680460115E+04  0.22680460115E+04  0.00000000000E+00 0. -1.
         23    2    1    2    0    0 -0.16187663392E+03 -0.23843478105E+02 -0.20595013335E+04  0.20697685338E+04  0.12499393826E+03 0.  0.
          5    1    3    3  502    0 -0.11892571635E+03 -0.62780141607E+02 -0.10490893497E+04  0.10576838969E+04  0.47000000000E+01 0. -1.
         -5    1    3    3    0  502 -0.42950917569E+02  0.38936663502E+02 -0.10104119838E+04  0.10120846368E+04  0.47000000000E+01 0. -1.
        -11    1    1    2    0    0  0.73909690231E+02  0.21618816664E+02 -0.16950632606E+02  0.78850107734E+02  0.00000000000E+00 0.  1.
         11    1    1    2    0    0  0.87966943690E+02  0.22246614409E+01 -0.14306279904E+03  0.16795861624E+03  0.00000000000E+00 0. -1.
<mgrwt>
<rscale>  0 0.20124939E+03</rscale>
<asrwt>0</asrwt>
<pdfrwt beam="2">  1        2 0.34893016E+00 0.20590299E+03</pdfrwt>
<pdfrwt beam="1">  1       -2 0.74663455E-02 0.20590299E+03</pdfrwt>
<totfact> 0.57251497E+02</totfact>
</mgrwt>
</event>
<event>
 7    1  0.6008063E-006  0.1789509E+03  0.7546771E-02  0.1174334E+00
          2   -1    0    0  501    0  0.00000000000E+00  0.00000000000E+00  0.70057212246E+03  0.70057212246E+03  0.00000000000E+00 0. -1.
         -2   -1    0    0    0  501 -0.00000000000E+00 -0.00000000000E+00 -0.41318442635E+02  0.41318442635E+02  0.00000000000E+00 0.  1.
         23    2    1    2    0    0 -0.12798274234E+03 -0.59052736286E+01  0.40297893952E+03  0.44092567456E+03  0.12493586432E+03 0.  0.
          5    1    3    3  502    0 -0.12560441528E+03  0.33996128294E+02  0.35599327392E+03  0.37905871175E+03  0.47000000000E+01 0.  1.
         -5    1    3    3    0  502 -0.23783270554E+01 -0.39901401922E+02  0.46985665598E+02  0.61866962804E+02  0.47000000000E+01 0.  1.
        -11    1    1    2    0    0  0.34583293315E+02  0.12735004588E+01  0.77990868427E+01  0.35474663290E+02  0.00000000000E+00 0.  1.
         11    1    1    2    0    0  0.93399449025E+02  0.46317731698E+01  0.24847565346E+03  0.26549022725E+03  0.00000000000E+00 0. -1.
<mgrwt>
<rscale>  0 0.17341320E+03</rscale>
<asrwt>0</asrwt>
<pdfrwt beam="1">  1        2 0.10778032E+00 0.17895090E+03</pdfrwt>
<pdfrwt beam="2">  1       -2 0.63566840E-02 0.17895090E+03</pdfrwt>
<totfact> 0.55580072E+03</totfact>
</mgrwt>
</event>
<event>
 7    1  0.6008063E-006  0.2111255E+03  0.7546771E-02  0.1144365E+00
          2   -1    0    0  501    0  0.00000000000E+00  0.00000000000E+00  0.14879827799E+04  0.14879827799E+04  0.00000000000E+00 0. -1.
         -2   -1    0    0    0  501 -0.00000000000E+00 -0.00000000000E+00 -0.27474193621E+02  0.27474193621E+02  0.00000000000E+00 0.  1.
         23    2    1    2    0    0 -0.15569440417E+03  0.68615976245E+02  0.75488486887E+03  0.78385276088E+03  0.12500034323E+03 0.  0.
          5    1    3    3  502    0 -0.59706698521E+02  0.94243513035E+02  0.40019315933E+03  0.41547970392E+03  0.47000000000E+01 0. -1.
         -5    1    3    3    0  502 -0.95987705644E+02 -0.25627536790E+02  0.35469170954E+03  0.36837305696E+03  0.47000000000E+01 0. -1.
        -11    1    1    2    0    0  0.12096480233E+03 -0.73993944957E+02  0.65371586665E+03  0.66891854631E+03  0.00000000000E+00 0.  1.
         11    1    1    2    0    0  0.34729601839E+02  0.53779687126E+01  0.51907850720E+02  0.62685666286E+02  0.00000000000E+00 0. -1.
<mgrwt>
<rscale>  0 0.20650339E+03</rscale>
<asrwt>0</asrwt>
<pdfrwt beam="1">  1        2 0.22892037E+00 0.21112552E+03</pdfrwt>
<pdfrwt beam="2">  1       -2 0.42268002E-02 0.21112552E+03</pdfrwt>
<totfact> 0.34935226E+03</totfact>
</mgrwt>
</event>
<event>
 7    1  0.6008063E-006  0.1340029E+03  0.7546771E-02  0.1234392E+00
          2   -1    0    0  501    0  0.00000000000E+00  0.00000000000E+00  0.34074718222E+03  0.34074718222E+03  0.00000000000E+00 0. -1.
         -2   -1    0    0    0  501 -0.00000000000E+00 -0.00000000000E+00 -0.42860135378E+02  0.42860135378E+02  0.00000000000E+00 0.  1.
         23    2    1    2    0    0  0.47496071380E+02 -0.86310446382E+01  0.20552564381E+03  0.24535191628E+03  0.12500560320E+03 0.  0.
          5    1    3    3  502    0  0.34060607128E+02  0.54433864092E+02  0.69471846689E+02  0.94718519838E+02  0.47000000000E+01 0.  1.
         -5    1    3    3    0  502  0.13435464252E+02 -0.63064908730E+02  0.13605379712E+03  0.15063339644E+03  0.47000000000E+01 0.  1.
        -11    1    1    2    0    0 -0.21309136368E+02  0.25029018617E+02  0.10096600819E+03  0.10618222957E+03  0.00000000000E+00 0. -1.
         11    1    1    2    0    0 -0.26186935012E+02 -0.16397973979E+02 -0.86046051627E+01  0.32073171748E+02  0.00000000000E+00 0.  1.
<mgrwt>
<rscale>  0 0.12543434E+03</rscale>
<asrwt>0</asrwt>
<pdfrwt beam="1">  1        2 0.52422642E-01 0.13400288E+03</pdfrwt>
<pdfrwt beam="2">  1       -2 0.65938672E-02 0.13400288E+03</pdfrwt>
<totfact> 0.11490948E+04</totfact>
</mgrwt>
</event>
<event>
 7    1  0.6008063E-006  0.1307342E+03  0.7546771E-02  0.1239634E+00
         -1   -1    0    0    0  501 -0.00000000000E+00  0.00000000000E+00  0.12455485540E+03  0.12455485540E+03  0.00000000000E+00 0.  1.
          1   -1    0    0  501    0  0.00000000000E+00 -0.00000000000E+00 -0.12824245731E+03  0.12824245731E+03  0.00000000000E+00 0. -1.
         23    2    1    2    0    0  0.11696466591E+02 -0.36442815712E+02 -0.53770949405E+02  0.14136034647E+03  0.12500618548E+03 0.  0.
          5    1    3    3  502    0 -0.54408544598E+00 -0.54535349988E+02  0.24492490867E+02  0.59969763516E+02  0.47000000000E+01 0. -1.
         -5    1    3    3    0  502  0.12240552037E+02  0.18092534276E+02 -0.78263440273E+02  0.81390582957E+02  0.47000000000E+01 0. -1.
        -11    1    1    2    0    0 -0.49221647857E+02  0.32850448351E+02  0.17773535979E+02  0.61788519612E+02  0.00000000000E+00 0.  1.
         11    1    1    2    0    0  0.37525181266E+02  0.35923673612E+01  0.32309811510E+02  0.49648446623E+02  0.00000000000E+00 0. -1.
<mgrwt>
<rscale>  0 0.12212381E+03</rscale>
<asrwt>0</asrwt>
<pdfrwt beam="2">  1        1 0.19729609E-01 0.13073421E+03</pdfrwt>
<pdfrwt beam="1">  1       -1 0.19162285E-01 0.13073421E+03</pdfrwt>
<totfact> 0.53470801E+03</totfact>
</mgrwt>
</event>
<event>
 7    1  0.6008063E-006  0.1849562E+03  0.7546771E-02  0.1168293E+00
          1   -1    0    0  501    0  0.00000000000E+00  0.00000000000E+00  0.38927369450E+02  0.38927369450E+02  0.00000000000E+00 0. -1.
         -1   -1    0    0    0  501 -0.00000000000E+00 -0.00000000000E+00 -0.87556340788E+03  0.87556340788E+03  0.00000000000E+00 0.  1.
         23    2    1    2    0    0 -0.18261006438E+02 -0.13509250916E+03 -0.29170235396E+03  0.34539694021E+03  0.12500133043E+03 0.  0.
          5    1    3    3  502    0 -0.15072050974E+01 -0.19975923710E+02  0.93613369784E+01  0.22606057270E+02  0.47000000000E+01 0.  1.
         -5    1    3    3    0  502 -0.16753801340E+02 -0.11511658545E+03 -0.30106369094E+03  0.32279088294E+03  0.47000000000E+01 0.  1.
        -11    1    1    2    0    0 -0.30737521493E+02  0.40857949939E+02 -0.26064045765E+03  0.26560801092E+03  0.00000000000E+00 0.  1.
         11    1    1    2    0    0  0.48998527930E+02  0.94234559222E+02 -0.28429322682E+03  0.30348582620E+03  0.00000000000E+00 0. -1.
<mgrwt>
<rscale>  0 0.17949446E+03</rscale>
<asrwt>0</asrwt>
<pdfrwt beam="1">  1        1 0.59888262E-02 0.18495617E+03</pdfrwt>
<pdfrwt beam="2">  1       -1 0.13470206E+00 0.18495617E+03</pdfrwt>
<totfact> 0.64298784E+02</totfact>
</mgrwt>
</event>
<event>
 7    1  0.6008063E-006  0.1383808E+03  0.7546771E-02  0.1226393E+00
         -2   -1    0    0    0  501 -0.00000000000E+00  0.00000000000E+00  0.39176889514E+02  0.39176889514E+02  0.00000000000E+00 0.  1.
          2   -1    0    0  501    0  0.00000000000E+00 -0.00000000000E+00 -0.41948184119E+03  0.41948184119E+03  0.00000000000E+00 0. -1.
         23    2    1    2    0    0 -0.13819112269E+02  0.57738438217E+02 -0.26630574203E+03  0.30011330665E+03  0.12499821389E+03 0.  0.
          5    1    3    3  502    0 -0.67217518865E+01  0.77399280533E+02 -0.26756124263E+03  0.27865200364E+03  0.47000000000E+01 0.  1.
         -5    1    3    3    0  502 -0.70973603826E+01 -0.19660842317E+02  0.12555005983E+01  0.21461303007E+02  0.47000000000E+01 0.  1.
        -11    1    1    2    0    0  0.24146914131E+02 -0.76232041013E+02 -0.11150901519E+03  0.13721755722E+03  0.00000000000E+00 0. -1.
         11    1    1    2    0    0 -0.10327801862E+02  0.18493602796E+02 -0.24901944550E+01  0.21327866843E+02  0.00000000000E+00 0.  1.
<mgrwt>
<rscale>  0 0.13071877E+03</rscale>
<asrwt>0</asrwt>
<pdfrwt beam="2">  1        2 0.64535672E-01 0.13838081E+03</pdfrwt>
<pdfrwt beam="1">  1       -2 0.60272134E-02 0.13838081E+03</pdfrwt>
<totfact> 0.10579849E+04</totfact>
</mgrwt>
</event>
<event>
 7    1  0.6008063E-006  0.1517588E+03  0.7546771E-02  0.1206707E+00
         -1   -1    0    0    0  501 -0.00000000000E+00  0.00000000000E+00  0.77130201347E+02  0.77130201347E+02  0.00000000000E+00 0.  1.
          1   -1    0    0  501    0  0.00000000000E+00 -0.00000000000E+00 -0.33668737202E+03  0.33668737202E+03  0.00000000000E+00 0. -1.
         23    2    1    2    0    0  0.84787146174E+02  0.14759826181E+02 -0.24249124704E+03  0.28606420305E+03  0.12499604294E+03 0.  0.
          5    1    3    3  502    0  0.49385178863E+02 -0.27182750062E+00 -0.10306224549E+02  0.50668314024E+02  0.47000000000E+01 0. -1.
         -5    1    3    3    0  502  0.35401967311E+02  0.15031653682E+02 -0.23218502249E+03  0.23539588903E+03  0.47000000000E+01 0. -1.
        -11    1    1    2    0    0 -0.48127324049E+02  0.38693894048E+02 -0.98946203296E+01  0.62540868783E+02  0.00000000000E+00 0. -1.
         11    1    1    2    0    0 -0.36659822125E+02 -0.53453720229E+02 -0.71713033005E+01  0.65212501529E+02  0.00000000000E+00 0.  1.
<mgrwt>
<rscale>  0 0.14503771E+03</rscale>
<asrwt>0</asrwt>
<pdfrwt beam="2">  1        1 0.51798057E-01 0.15175877E+03</pdfrwt>
<pdfrwt beam="1">  1       -1 0.11866185E-01 0.15175877E+03</pdfrwt>
<totfact> 0.34294985E+03</totfact>
</mgrwt>
</event>
<event>
 7    1  0.6008063E-006  0.1591749E+03  0.7546771E-02  0.1197704E+00
         -1   -1    0    0    0  501 -0.00000000000E+00  0.00000000000E+00  0.15617489504E+02  0.15617489504E+02  0.00000000000E+00 0.  1.
          1   -1    0    0  501    0  0.00000000000E+00 -0.00000000000E+00 -0.13699045413E+04  0.13699045413E+04  0.00000000000E+00 0. -1.
         23    2    1    2    0    0  0.88008841656E+02  0.44357732762E+02 -0.72544845496E+03  0.74270593232E+03  0.12499390559E+03 0.  0.
          5    1    3    3  502    0  0.53678456478E+02  0.73803492112E+02 -0.63425654302E+03  0.64080557465E+03  0.47000000000E+01 0.  1.
         -5    1    3    3    0  502  0.34330385178E+02 -0.29445759350E+02 -0.91191911941E+02  0.10190035767E+03  0.47000000000E+01 0.  1.
        -11    1    1    2    0    0 -0.49041216187E+02  0.22822818411E+02 -0.30781535619E+03  0.31253194306E+03  0.00000000000E+00 0.  1.
         11    1    1    2    0    0 -0.38967625469E+02 -0.67180551172E+02 -0.32102324062E+03  0.33028415540E+03  0.00000000000E+00 0. -1.
<mgrwt>
<rscale>  0 0.15227575E+03</rscale>
<asrwt>0</asrwt>
<pdfrwt beam="2">  1        1 0.21075465E+00 0.15917488E+03</pdfrwt>
<pdfrwt beam="1">  1       -1 0.24026895E-02 0.15917488E+03</pdfrwt>
<totfact> 0.45245863E+03</totfact>
</mgrwt>
</event>
<event>
 7    1  0.6008063E-006  0.1523076E+03  0.7546771E-02  0.1207762E+00
          2   -1    0    0  501    0  0.00000000000E+00  0.00000000000E+00  0.54176301447E+03  0.54176301447E+03  0.00000000000E+00 0. -1.
         -2   -1    0    0    0  501 -0.00000000000E+00 -0.00000000000E+00 -0.38788042998E+02  0.38788042998E+02  0.00000000000E+00 0.  1.
         23    2    1    2    0    0  0.30279039193E+02  0.81626292945E+02  0.36822234140E+03  0.39847871617E+03  0.12497168728E+03 0.  0.
          5    1    3    3  502    0 -0.54235156219E+00  0.44603566014E+02  0.24001806246E+02  0.50871887614E+02  0.47000000000E+01 0.  1.
         -5    1    3    3    0  502  0.30821390756E+02  0.37022726932E+02  0.34422053516E+03  0.34760682856E+03  0.47000000000E+01 0.  1.
        -11    1    1    2    0    0 -0.30085210286E+02 -0.62651349417E+01  0.88418326755E+02  0.93606475738E+02  0.00000000000E+00 0. -1.
         11    1    1    2    0    0 -0.19382890734E+00 -0.75361158004E+02  0.46334303318E+02  0.88465865560E+02  0.00000000000E+00 0.  1.
<mgrwt>
<rscale>  0 0.14421944E+03</rscale>
<asrwt>0</asrwt>
<pdfrwt beam="1">  1        2 0.83348151E-01 0.15230757E+03</pdfrwt>
<pdfrwt beam="2">  1       -2 0.59673916E-02 0.15230757E+03</pdfrwt>
<totfact> 0.81707777E+03</totfact>
</mgrwt>
</event>
<event>
 7    1  0.6008063E-006  0.1292098E+03  0.7546771E-02  0.1242425E+00
         -1   -1    0    0    0  501 -0.00000000000E+00  0.00000000000E+00  0.19427619756E+02  0.19427619756E+02  0.00000000000E+00 0.  1.
          1   -1    0    0  501    0  0.00000000000E+00 -0.00000000000E+00 -0.68388847730E+03  0.68388847730E+03  0.00000000000E+00 0. -1.
         23    2    1    2    0    0 -0.29715975219E+02  0.13658770665E+02 -0.44090074469E+03  0.45944383759E+03  0.12500228810E+03 0.  0.
          5    1    3    3  502    0 -0.42969554681E+02 -0.18769630758E+02 -0.57171652829E+02  0.74090279763E+02  0.47000000000E+01 0. -1.
         -5    1    3    3    0  502  0.13253579461E+02  0.32428401423E+02 -0.38372909186E+03  0.38535355783E+03  0.47000000000E+01 0. -1.
        -11    1    1    2    0    0 -0.23977707837E+02 -0.84224180365E+01 -0.17473312260E+02  0.30841274942E+02  0.00000000000E+00 0.  1.
         11    1    1    2    0    0  0.53693683057E+02 -0.52363526285E+01 -0.20608680059E+03  0.21303098452E+03  0.00000000000E+00 0. -1.
<mgrwt>
<rscale>  0 0.12040816E+03</rscale>
<asrwt>0</asrwt>
<pdfrwt beam="2">  1        1 0.10521360E+00 0.12920980E+03</pdfrwt>
<pdfrwt beam="1">  1       -1 0.29888648E-02 0.12920980E+03</pdfrwt>
<totfact> 0.10548605E+04</totfact>
</mgrwt>
</event>
<event>
 7    1  0.6008063E-006  0.1333297E+03  0.7546771E-02  0.1236226E+00
          1   -1    0    0  501    0  0.00000000000E+00  0.00000000000E+00  0.45957670714E+02  0.45957670714E+02  0.00000000000E+00 0. -1.
         -1   -1    0    0    0  501 -0.00000000000E+00 -0.00000000000E+00 -0.29781589447E+03  0.29781589447E+03  0.00000000000E+00 0.  1.
         23    2    1    2    0    0 -0.42804038549E+02  0.17861287067E+02 -0.13984674293E+03  0.19321988654E+03  0.12500240700E+03 0.  0.
          5    1    3    3  502    0  0.28709389560E+02 -0.29926131641E+02 -0.21799461974E+02  0.47086186364E+02  0.47000000000E+01 0. -1.
         -5    1    3    3    0  502 -0.71513428109E+02  0.47787418708E+02 -0.11804728096E+03  0.14613370018E+03  0.47000000000E+01 0. -1.
        -11    1    1    2    0    0  0.15113789583E+02 -0.18487061917E+02 -0.11949956813E+03  0.12186199111E+03  0.00000000000E+00 0.  1.
         11    1    1    2    0    0  0.27690248965E+02  0.62577485022E+00  0.74880873050E+01  0.28691687532E+02  0.00000000000E+00 0. -1.
<mgrwt>
<rscale>  0 0.12426302E+03</rscale>
<asrwt>0</asrwt>
<pdfrwt beam="1">  1        1 0.70704109E-02 0.13332972E+03</pdfrwt>
<pdfrwt beam="2">  1       -1 0.45817830E-01 0.13332972E+03</pdfrwt>
<totfact> 0.47439012E+03</totfact>
</mgrwt>
</event>
<event>
 7    1  0.6008063E-006  0.1225667E+03  0.7546771E-02  0.1247143E+00
         -2   -1    0    0    0  501 -0.00000000000E+00  0.00000000000E+00  0.18436869866E+03  0.18436869866E+03  0.00000000000E+00 0.  1.
          2   -1    0    0  501    0  0.00000000000E+00 -0.00000000000E+00 -0.82435950273E+02  0.82435950273E+02  0.00000000000E+00 0. -1.
         23    2    1    2    0    0  0.26469664610E+02 -0.40328058568E+02  0.18061459279E+01  0.12258001507E+03  0.11267476417E+03 0.  0.
          5    1    3    3  502    0  0.25909361855E+02 -0.59312511737E+02 -0.40132518987E+02  0.76301888316E+02  0.47000000000E+01 0. -1.
         -5    1    3    3    0  502  0.56030275509E+00  0.18984453169E+02  0.41938664915E+02  0.46278126757E+02  0.47000000000E+01 0.  1.
        -11    1    1    2    0    0 -0.45947126505E+02 -0.72861576557E+01  0.24004072357E+02  0.52349040270E+02  0.00000000000E+00 0. -1.
         11    1    1    2    0    0  0.19477461895E+02  0.47614216223E+02  0.76122530105E+02  0.91875593593E+02  0.00000000000E+00 0.  1.
<mgrwt>
<rscale>  0 0.11758004E+03</rscale>
<asrwt>0</asrwt>
<pdfrwt beam="2">  1        2 0.12682454E-01 0.12256671E+03</pdfrwt>
<pdfrwt beam="1">  1       -2 0.28364415E-01 0.12256671E+03</pdfrwt>
<totfact> 0.51089797E+03</totfact>
</mgrwt>
</event>
<event>
 7    1  0.6008063E-006  0.1471382E+03  0.7546771E-02  0.1213349E+00
         -2   -1    0    0    0  501 -0.00000000000E+00  0.00000000000E+00  0.12533406041E+02  0.12533406041E+02  0.00000000000E+00 0.  1.
          2   -1    0    0  501    0  0.00000000000E+00 -0.00000000000E+00 -0.16679064184E+04  0.16679064184E+04  0.00000000000E+00 0. -1.
         23    2    1    2    0    0 -0.48081998074E+02  0.60943890804E+02 -0.12146256261E+04  0.12235052375E+04  0.12499447256E+03 0.  0.
          5    1    3    3  502    0 -0.61072113719E+02  0.24394918497E+02 -0.26509132323E+03  0.27316737502E+03  0.47000000000E+01 0. -1.
         -5    1    3    3    0  502  0.12990115644E+02  0.36548972306E+02 -0.94953430287E+03  0.95033786245E+03  0.47000000000E+01 0. -1.
        -11    1    1    2    0    0  0.42690677146E+02  0.82882011127E+01 -0.25396420953E+03  0.25766064487E+03  0.00000000000E+00 0. -1.
         11    1    1    2    0    0  0.53913209277E+01 -0.69232091916E+02 -0.18678317677E+03  0.19927394214E+03  0.00000000000E+00 0.  1.
<mgrwt>
<rscale>  0 0.13998480E+03</rscale>
<asrwt>0</asrwt>
<pdfrwt beam="2">  1        2 0.25660095E+00 0.14713822E+03</pdfrwt>
<pdfrwt beam="1">  1       -2 0.19282166E-02 0.14713822E+03</pdfrwt>
<totfact> 0.89028960E+03</totfact>
</mgrwt>
</event>
<event>
 7    1  0.6008063E-006  0.1516580E+03  0.7546771E-02  0.1208325E+00
         -1   -1    0    0    0  501 -0.00000000000E+00  0.00000000000E+00  0.15243759296E+02  0.15243759296E+02  0.00000000000E+00 0.  1.
          1   -1    0    0  501    0  0.00000000000E+00 -0.00000000000E+00 -0.13117736041E+04  0.13117736041E+04  0.00000000000E+00 0. -1.
         23    2    1    2    0    0  0.84417241935E+02  0.15738918458E+02 -0.87472794786E+03  0.88777764276E+03  0.12500470361E+03 0.  0.
          5    1    3    3  502    0 -0.27622837634E+02 -0.16441048711E+01 -0.33917098821E+03  0.34033038872E+03  0.47000000000E+01 0.  1.
         -5    1    3    3    0  502  0.11204007957E+03  0.17383023329E+02 -0.53555695965E+03  0.54744725404E+03  0.47000000000E+01 0.  1.
        -11    1    1    2    0    0 -0.23015990911E+02 -0.39555214365E+02 -0.26876685017E+03  0.27263523354E+03  0.00000000000E+00 0.  1.
         11    1    1    2    0    0 -0.61401251023E+02  0.23816295907E+02 -0.15303504679E+03  0.16660448711E+03  0.00000000000E+00 0. -1.
<mgrwt>
<rscale>  0 0.14378501E+03</rscale>
<asrwt>0</asrwt>
<pdfrwt beam="2">  1        1 0.20181135E+00 0.15165804E+03</pdfrwt>
<pdfrwt beam="1">  1       -1 0.23451934E-02 0.15165804E+03</pdfrwt>
<totfact> 0.51168280E+03</totfact>
</mgrwt>
</event>
<event>
 7    1  0.6008063E-006  0.1749479E+03  0.7546771E-02  0.1178629E+00
         -2   -1    0    0    0  501 -0.00000000000E+00  0.00000000000E+00  0.25368942484E+03  0.25368942484E+03  0.00000000000E+00 0.  1.
          2   -1    0    0  501    0  0.00000000000E+00 -0.00000000000E+00 -0.11134573595E+03  0.11134573595E+03  0.00000000000E+00 0. -1.
         23    2    1    2    0    0  0.51177602017E+02  0.11118589869E+03  0.11498938492E+03  0.20935455175E+03  0.12500127471E+03 0.  0.
          5    1    3    3  502    0 -0.20108092571E+02  0.33391715656E+02 -0.14854649811E+02  0.41977287696E+02  0.47000000000E+01 0.  1.
         -5    1    3    3    0  502  0.71285694588E+02  0.77794183030E+02  0.12984403473E+03  0.16737726405E+03  0.47000000000E+01 0.  1.
        -11    1    1    2    0    0 -0.38951874767E+02  0.17310857992E+01  0.59921463883E+00  0.38994926132E+02  0.00000000000E+00 0.  1.
         11    1    1    2    0    0 -0.12225727250E+02 -0.11291698449E+03  0.26755089324E+02  0.11668568291E+03  0.00000000000E+00 0. -1.
<mgrwt>
<rscale>  0 0.16925354E+03</rscale>
<asrwt>0</asrwt>
<pdfrwt beam="2">  1        2 0.17130113E-01 0.17494791E+03</pdfrwt>
<pdfrwt beam="1">  1       -2 0.39029142E-01 0.17494791E+03</pdfrwt>
<totfact> 0.20384378E+03</totfact>
</mgrwt>
</event>
<event>
 7    1  0.6008063E-006  0.2164349E+03  0.7546771E-02  0.1140333E+00
         -2   -1    0    0    0  501 -0.00000000000E+00  0.00000000000E+00  0.33324499782E+02  0.33324499782E+02  0.00000000000E+00 0.  1.
          2   -1    0    0  501    0  0.00000000000E+00 -0.00000000000E+00 -0.13332810275E+04  0.13332810275E+04  0.00000000000E+00 0. -1.
         23    2    1    2    0    0 -0.13774454277E+02 -0.17614815676E+03 -0.80701650039E+03  0.83553558163E+03  0.12500467011E+03 0.  0.
          5    1    3    3  502    0  0.49492344595E+02 -0.47822756776E+02 -0.34583831162E+03  0.35265101166E+03  0.47000000000E+01 0. -1.
         -5    1    3    3    0  502 -0.63266798872E+02 -0.12832539998E+03 -0.46117818876E+03  0.48288456997E+03  0.47000000000E+01 0. -1.
        -11    1    1    2    0    0  0.89127751882E+01  0.18569125730E+03 -0.45166572686E+03  0.48842871477E+03  0.00000000000E+00 0.  1.
         11    1    1    2    0    0  0.48616790890E+01 -0.95431005363E+01 -0.41274300466E+02  0.42641230874E+02  0.00000000000E+00 0. -1.
<mgrwt>
<rscale>  0 0.21156400E+03</rscale>
<asrwt>0</asrwt>
<pdfrwt beam="2">  1        2 0.20512010E+00 0.21643492E+03</pdfrwt>
<pdfrwt beam="1">  1       -2 0.51268476E-02 0.21643492E+03</pdfrwt>
<totfact> 0.31609316E+03</totfact>
</mgrwt>
</event>
<event>
 7    1  0.6008063E-006  0.1516225E+03  0.7546771E-02  0.1207452E+00
         -2   -1    0    0    0  501 -0.00000000000E+00  0.00000000000E+00  0.25628117723E+02  0.25628117723E+02  0.00000000000E+00 0.  1.
          2   -1    0    0  501    0  0.00000000000E+00 -0.00000000000E+00 -0.75815404943E+03  0.75815404943E+03  0.00000000000E+00 0. -1.
         23    2    1    2    0    0 -0.71937414777E+02 -0.46794998211E+02 -0.45023621272E+03  0.47508107266E+03  0.12499845938E+03 0.  0.
          5    1    3    3  502    0  0.35681289373E+02 -0.11443884719E+02 -0.12965200575E+03  0.13504017737E+03  0.47000000000E+01 0. -1.
         -5    1    3    3    0  502 -0.10761870415E+03 -0.35351113492E+02 -0.32058420697E+03  0.34004089529E+03  0.47000000000E+01 0. -1.
        -11    1    1    2    0    0  0.25851845460E+02  0.68951638716E+02 -0.15881058443E+03  0.17505270098E+03  0.00000000000E+00 0.  1.
         11    1    1    2    0    0  0.46085569317E+02 -0.22156640505E+02 -0.12347913455E+03  0.13364839351E+03  0.00000000000E+00 0. -1.
<mgrwt>
<rscale>  0 0.14445886E+03</rscale>
<asrwt>0</asrwt>
<pdfrwt beam="2">  1        2 0.11663906E+00 0.15162249E+03</pdfrwt>
<pdfrwt beam="1">  1       -2 0.39427881E-02 0.15162249E+03</pdfrwt>
<totfact> 0.10297360E+04</totfact>
</mgrwt>
</event>
<event>
 7    1  0.6008063E-006  0.2051313E+03  0.7546771E-02  0.1149608E+00
         -2   -1    0    0    0  501 -0.00000000000E+00  0.00000000000E+00  0.17427164501E+03  0.17427164501E+03  0.00000000000E+00 0.  1.
          2   -1    0    0  501    0  0.00000000000E+00 -0.00000000000E+00 -0.25361779455E+03  0.25361779455E+03  0.00000000000E+00 0. -1.
         23    2    1    2    0    0  0.78062217273E+01 -0.16245807593E+03 -0.11986437811E+03  0.23758437723E+03  0.12500121451E+03 0.  0.
          5    1    3    3  502    0  0.55701836086E+02 -0.14218084060E+03 -0.93024079582E+02  0.17886770351E+03  0.47000000000E+01 0.  1.
         -5    1    3    3    0  502 -0.47895614358E+02 -0.20277235337E+02 -0.26840298528E+02  0.58716673720E+02  0.47000000000E+01 0.  1.
        -11    1    1    2    0    0  0.87123666218E+01  0.13935744008E+03 -0.14430898161E+01  0.13963697199E+03  0.00000000000E+00 0.  1.
         11    1    1    2    0    0 -0.16518588349E+02  0.23100635854E+02  0.41961318385E+02  0.50668090338E+02  0.00000000000E+00 0. -1.
<mgrwt>
<rscale>  0 0.20015580E+03</rscale>
<asrwt>0</asrwt>
<pdfrwt beam="2">  1        2 0.39018122E-01 0.20513134E+03</pdfrwt>
<pdfrwt beam="1">  1       -2 0.26811022E-01 0.20513134E+03</pdfrwt>
<totfact> 0.16330777E+03</totfact>
</mgrwt>
</event>
<event>
 7    1  0.6008063E-006  0.1179122E+03  0.7546771E-02  0.1259945E+00
         -2   -1    0    0    0  501 -0.00000000000E+00  0.00000000000E+00  0.23166047774E+02  0.23166047774E+02  0.00000000000E+00 0.  1.
          2   -1    0    0  501    0  0.00000000000E+00 -0.00000000000E+00 -0.47512539660E+03  0.47512539660E+03  0.00000000000E+00 0. -1.
         23    2    1    2    0    0 -0.26616585597E+01 -0.12952346998E+02 -0.28488502760E+03  0.30832251165E+03  0.11716844508E+03 0.  0.
          5    1    3    3  502    0 -0.47416238257E+02 -0.38990654086E+02 -0.19494905275E+03  0.20444019645E+03  0.47000000000E+01 0. -1.
         -5    1    3    3    0  502  0.44754579697E+02  0.26038307089E+02 -0.89935974843E+02  0.10388231520E+03  0.47000000000E+01 0. -1.
        -11    1    1    2    0    0  0.14321035603E+01  0.51163391691E+02 -0.81444256318E+02  0.96192049865E+02  0.00000000000E+00 0.  1.
         11    1    1    2    0    0  0.12295549995E+01 -0.38211044693E+02 -0.85630064912E+02  0.93776882859E+02  0.00000000000E+00 0. -1.
<mgrwt>
<rscale>  0 0.11033820E+03</rscale>
<asrwt>0</asrwt>
<pdfrwt beam="2">  1        2 0.73096208E-01 0.11791222E+03</pdfrwt>
<pdfrwt beam="1">  1       -2 0.35640077E-02 0.11791222E+03</pdfrwt>
<totfact> 0.20017092E+04</totfact>
</mgrwt>
</event>
<event>
 7    1  0.6008063E-006  0.1599581E+03  0.7546771E-02  0.1194562E+00
         -2   -1    0    0    0  501 -0.00000000000E+00  0.00000000000E+00  0.72422087601E+02  0.72422087601E+02  0.00000000000E+00 0.  1.
          2   -1    0    0  501    0  0.00000000000E+00 -0.00000000000E+00 -0.36727978855E+03  0.36727978855E+03  0.00000000000E+00 0. -1.
         23    2    1    2    0    0 -0.34593995034E+02 -0.93611151034E+02 -0.24053424834E+03  0.28886556673E+03  0.12500719551E+03 0.  0.
          5    1    3    3  502    0  0.19355801089E+02 -0.31412182874E+02 -0.28773346845E+01  0.37306049423E+02  0.47000000000E+01 0.  1.
         -5    1    3    3    0  502 -0.53949796122E+02 -0.62198968160E+02 -0.23765691365E+03  0.25155951731E+03  0.47000000000E+01 0.  1.
        -11    1    1    2    0    0  0.38697399019E+01  0.81371569980E+02  0.63749907329E+01  0.81712592633E+02  0.00000000000E+00 0.  1.
         11    1    1    2    0    0  0.30724255132E+02  0.12239581053E+02 -0.60698443341E+02  0.69123716782E+02  0.00000000000E+00 0. -1.
<mgrwt>
<rscale>  0 0.15491352E+03</rscale>
<asrwt>0</asrwt>
<pdfrwt beam="2">  1        2 0.56504582E-01 0.15995809E+03</pdfrwt>
<pdfrwt beam="1">  1       -2 0.11141860E-01 0.15995809E+03</pdfrwt>
<totfact> 0.47429826E+03</totfact>
</mgrwt>
</event>
<event>
 6    1  0.6008063E-006  0.1522003E+03  0.7546771E-02  0.1211230E+00
         -1   -1    0    0    0  501 -0.00000000000E+00  0.00000000000E+00  0.20003326623E+03  0.20003326623E+03  0.00000000000E+00 0.  1.
          1   -1    0    0  501    0  0.00000000000E+00 -0.00000000000E+00 -0.12790010924E+03  0.12790010924E+03  0.00000000000E+00 0. -1.
          5    1    1    2  502    0  0.46445590406E+02  0.12441786230E+02 -0.56911394867E+02  0.74652446567E+02  0.47000000000E+01 0. -1.
         -5    1    1    2    0  502 -0.21645342250E+02 -0.82617320632E+02  0.62370363568E+01  0.85762072806E+02  0.47000000000E+01 0.  1.
        -11    1    1    2    0    0  0.24984718807E+02  0.48651340321E+01  0.56501609254E+02  0.61970457085E+02  0.00000000000E+00 0. -1.
         11    1    1    2    0    0 -0.49784966963E+02  0.65310400370E+02  0.66305906245E+02  0.10554839902E+03  0.00000000000E+00 0.  1.
<mgrwt>
<rscale>  0 0.14157111E+03</rscale>
<asrwt>0</asrwt>
<pdfrwt beam="2">  1        1 0.19676940E-01 0.15220029E+03</pdfrwt>
<pdfrwt beam="1">  1       -1 0.30774349E-01 0.15220029E+03</pdfrwt>
<totfact> 0.24863378E+03</totfact>
</mgrwt>
</event>
<event>
 7    1  0.6008063E-006  0.1334478E+03  0.7546771E-02  0.1234705E+00
          3   -1    0    0  501    0  0.00000000000E+00  0.00000000000E+00  0.59837000095E+03  0.59837000095E+03  0.00000000000E+00 0. -1.
         -3   -1    0    0    0  501 -0.00000000000E+00 -0.00000000000E+00 -0.26406719337E+02  0.26406719337E+02  0.00000000000E+00 0.  1.
         23    2    1    2    0    0  0.34692582548E+02  0.31290563076E+02  0.42174774244E+03  0.44235671182E+03  0.12500251045E+03 0.  0.
          5    1    3    3  502    0  0.15993627336E+02 -0.30845473886E+02  0.31779923416E+03  0.31972751306E+03  0.47000000000E+01 0.  1.
         -5    1    3    3    0  502  0.18698955212E+02  0.62136036962E+02  0.10394850828E+03  0.12262919876E+03  0.47000000000E+01 0.  1.
        -11    1    1    2    0    0 -0.62464883108E+02 -0.17162209856E+02  0.65356436383E+02  0.92021013065E+02  0.00000000000E+00 0. -1.
         11    1    1    2    0    0  0.27772300560E+02 -0.14128353219E+02  0.84859102789E+02  0.90398995399E+02  0.00000000000E+00 0.  1.
<mgrwt>
<rscale>  0 0.12523308E+03</rscale>
<asrwt>0</asrwt>
<pdfrwt beam="1">  1        3 0.92056913E-01 0.13344775E+03</pdfrwt>
<pdfrwt beam="2">  1       -3 0.40625726E-02 0.13344775E+03</pdfrwt>
<totfact> 0.79928612E+02</totfact>
</mgrwt>
</event>
<event>
 7    1  0.6008063E-006  0.1678644E+03  0.7546771E-02  0.1185499E+00
          1   -1    0    0  501    0  0.00000000000E+00  0.00000000000E+00  0.12323868059E+04  0.12323868059E+04  0.00000000000E+00 0. -1.
         -1   -1    0    0    0  501 -0.00000000000E+00 -0.00000000000E+00 -0.36856048193E+02  0.36856048193E+02  0.00000000000E+00 0.  1.
         23    2    1    2    0    0 -0.69186488447E+02  0.10083208707E+03  0.10421520778E+04  0.10555848647E+04  0.11499814485E+03 0.  0.
          5    1    3    3  502    0 -0.88573065543E+02  0.79000330936E+02  0.55657691918E+03  0.56911000447E+03  0.47000000000E+01 0. -1.
         -5    1    3    3    0  502  0.19386577096E+02  0.21831756132E+02  0.48557515865E+03  0.48647486024E+03  0.47000000000E+01 0.  1.
        -11    1    1    2    0    0  0.32211486984E+02 -0.82425814531E+02  0.48445858363E+02  0.10088902808E+03  0.00000000000E+00 0.  1.
         11    1    1    2    0    0  0.36975001463E+02 -0.18406272537E+02  0.10493282155E+03  0.11276896133E+03  0.00000000000E+00 0. -1.
<mgrwt>
<rscale>  0 0.16286533E+03</rscale>
<asrwt>0</asrwt>
<pdfrwt beam="1">  1        1 0.18959794E+00 0.16786439E+03</pdfrwt>
<pdfrwt beam="2">  1       -1 0.56701622E-02 0.16786439E+03</pdfrwt>
<totfact> 0.15827529E+03</totfact>
</mgrwt>
</event>
<event>
 7    1  0.6008063E-006  0.1268359E+03  0.7546771E-02  0.1248179E+00
          2   -1    0    0  501    0  0.00000000000E+00  0.00000000000E+00  0.28161799621E+02  0.28161799621E+02  0.00000000000E+00 0. -1.
         -2   -1    0    0    0  501 -0.00000000000E+00 -0.00000000000E+00 -0.42596736406E+03  0.42596736406E+03  0.00000000000E+00 0.  1.
         23    2    1    2    0    0  0.20601013242E+02 -0.61717646827E+01 -0.21600777566E+03  0.25049290303E+03  0.12499937159E+03 0.  0.
          5    1    3    3  502    0 -0.61588776472E+01 -0.11849789312E+02  0.13351476464E+02  0.19460246770E+02  0.47000000000E+01 0.  1.
         -5    1    3    3    0  502  0.26759890889E+02  0.56780246290E+01 -0.22935925212E+03  0.23103265626E+03  0.47000000000E+01 0.  1.
        -11    1    1    2    0    0 -0.35763476025E+02  0.33792682028E+02 -0.58820363224E+02  0.76686418001E+02  0.00000000000E+00 0. -1.
         11    1    1    2    0    0  0.15162462783E+02 -0.27620917345E+02 -0.12297742555E+03  0.12694984265E+03  0.00000000000E+00 0.  1.
<mgrwt>
<rscale>  0 0.11697097E+03</rscale>
<asrwt>0</asrwt>
<pdfrwt beam="1">  1        2 0.43325845E-02 0.12683586E+03</pdfrwt>
<pdfrwt beam="2">  1       -2 0.65533442E-01 0.12683586E+03</pdfrwt>
<totfact> 0.39558634E+03</totfact>
</mgrwt>
</event>
<event>
 7    1  0.6008063E-006  0.1772738E+03  0.7546771E-02  0.1176112E+00
          2   -1    0    0  501    0  0.00000000000E+00  0.00000000000E+00  0.13851209140E+03  0.13851209140E+03  0.00000000000E+00 0. -1.
         -2   -1    0    0    0  501 -0.00000000000E+00 -0.00000000000E+00 -0.20644358209E+03  0.20644358209E+03  0.00000000000E+00 0.  1.
         23    2    1    2    0    0  0.11722784165E+03  0.45370104874E+02 -0.65674178197E+01  0.17739542680E+03  0.12500077278E+03 0.  0.
          5    1    3    3  502    0 -0.22498768525E+02 -0.82595279012E+01 -0.12705740192E+02  0.27530714123E+02  0.47000000000E+01 0.  1.
         -5    1    3    3    0  502  0.13972661018E+03  0.53629632775E+02  0.61383223722E+01  0.14986471267E+03  0.47000000000E+01 0.  1.
        -11    1    1    2    0    0 -0.46197099272E+02  0.12116822774E+02 -0.59322214765E+02  0.76158483046E+02  0.00000000000E+00 0.  1.
         11    1    1    2    0    0 -0.71030742380E+02 -0.57486927648E+02 -0.20418581014E+01  0.91401763648E+02  0.00000000000E+00 0. -1.
<mgrwt>
<rscale>  0 0.17167559E+03</rscale>
<asrwt>0</asrwt>
<pdfrwt beam="1">  1        2 0.21309552E-01 0.17727382E+03</pdfrwt>
<pdfrwt beam="2">  1       -2 0.31760551E-01 0.17727382E+03</pdfrwt>
<totfact> 0.23295049E+03</totfact>
</mgrwt>
</event>
<event>
 6    1  0.6008063E-006  0.2027827E+03  0.7546771E-02  0.1173691E+00
         -2   -1    0    0    0  501 -0.00000000000E+00  0.00000000000E+00  0.36165383036E+03  0.36165383036E+03  0.00000000000E+00 0. -1.
          2   -1    0    0  501    0  0.00000000000E+00 -0.00000000000E+00 -0.22293800158E+03  0.22293800158E+03  0.00000000000E+00 0.  1.
          5    1    1    2  502    0  0.34807320858E+02  0.30212041906E+02 -0.19438444789E+03  0.19982922870E+03  0.47000000000E+01 0.  1.
         -5    1    1    2    0  502 -0.44274835037E+02  0.30976766566E+02  0.29306381486E+02  0.61650426440E+02  0.47000000000E+01 0. -1.
        -11    1    1    2    0    0  0.41533000209E+02 -0.85695447426E+00  0.10595185255E+03  0.11380474303E+03  0.00000000000E+00 0. -1.
         11    1    1    2    0    0 -0.32065486030E+02 -0.60331853998E+02  0.19784204263E+03  0.20930743378E+03  0.00000000000E+00 0.  1.
<mgrwt>
<rscale>  0 0.17404823E+03</rscale>
<asrwt>0</asrwt>
<pdfrwt beam="2">  1        2 0.34298154E-01 0.20278275E+03</pdfrwt>
<pdfrwt beam="1">  1       -2 0.55639051E-01 0.20278275E+03</pdfrwt>
<totfact> 0.46899632E+02</totfact>
</mgrwt>
</event>
<event>
 7    1  0.6008063E-006  0.1383638E+03  0.7546771E-02  0.1228070E+00
         -2   -1    0    0    0  501 -0.00000000000E+00  0.00000000000E+00  0.23781987834E+02  0.23781987834E+02  0.00000000000E+00 0.  1.
          2   -1    0    0  501    0  0.00000000000E+00 -0.00000000000E+00 -0.71037144321E+03  0.71037144321E+03  0.00000000000E+00 0. -1.
         23    2    1    2    0    0  0.55796747353E+02 -0.20056603126E+02 -0.50545500926E+03  0.52405087515E+03  0.12501603506E+03 0.  0.
          5    1    3    3  502    0  0.38208249265E+02 -0.51578737970E+02 -0.46578416313E+03  0.47020975441E+03  0.47000000000E+01 0.  1.
         -5    1    3    3    0  502  0.17588498089E+02  0.31522134844E+02 -0.39670846129E+02  0.53841120742E+02  0.47000000000E+01 0.  1.
        -11    1    1    2    0    0 -0.50589950420E+02 -0.12478595057E+02 -0.41442456816E+02  0.66577290761E+02  0.00000000000E+00 0.  1.
         11    1    1    2    0    0 -0.52067969333E+01  0.32535198182E+02 -0.13969198930E+03  0.14352526513E+03  0.00000000000E+00 0. -1.
<mgrwt>
<rscale>  0 0.12958716E+03</rscale>
<asrwt>0</asrwt>
<pdfrwt beam="2">  1        2 0.10928791E+00 0.13836384E+03</pdfrwt>
<pdfrwt beam="1">  1       -2 0.36587674E-02 0.13836384E+03</pdfrwt>
<totfact> 0.12376416E+04</totfact>
</mgrwt>
</event>
<event>
 7    1  0.6008063E-006  0.1355939E+03  0.7546771E-02  0.1236106E+00
          3   -1    0    0  501    0  0.00000000000E+00  0.00000000000E+00  0.57571506722E+03  0.57571506722E+03  0.00000000000E+00 0. -1.
         -3   -1    0    0    0  501 -0.00000000000E+00 -0.00000000000E+00 -0.31150169190E+02  0.31150169190E+02  0.00000000000E+00 0.  1.
         23    2    1    2    0    0  0.28793797699E+02 -0.43941427907E+02  0.45814785883E+03  0.47779197102E+03  0.12500310056E+03 0.  0.
          5    1    3    3  502    0 -0.47814085007E+02 -0.35922564941E+01  0.18761688028E+03  0.19370409081E+03  0.47000000000E+01 0. -1.
         -5    1    3    3    0  502  0.76607882706E+02 -0.40349171413E+02  0.27053097855E+03  0.28408788021E+03  0.47000000000E+01 0. -1.
        -11    1    1    2    0    0 -0.74402465589E+01 -0.23733321033E+02  0.20830470187E+02  0.32442815604E+02  0.00000000000E+00 0. -1.
         11    1    1    2    0    0 -0.21353551140E+02  0.67674748939E+02  0.65586569011E+02  0.96630449781E+02  0.00000000000E+00 0.  1.
<mgrwt>
<rscale>  0 0.12433872E+03</rscale>
<asrwt>0</asrwt>
<pdfrwt beam="1">  1        3 0.88571541E-01 0.13559390E+03</pdfrwt>
<pdfrwt beam="2">  1       -3 0.47923341E-02 0.13559390E+03</pdfrwt>
<totfact> 0.67320007E+02</totfact>
</mgrwt>
</event>
<event>
 7    1  0.6008063E-006  0.1338097E+03  0.7546771E-02  0.1233861E+00
         -2   -1    0    0    0  501 -0.00000000000E+00  0.00000000000E+00  0.95077921480E+02  0.95077921480E+02  0.00000000000E+00 0.  1.
          2   -1    0    0  501    0  0.00000000000E+00 -0.00000000000E+00 -0.15035760647E+03  0.15035760647E+03  0.00000000000E+00 0. -1.
         23    2    1    2    0    0  0.26744836938E+02 -0.39590521306E+02 -0.20680223349E+02  0.13539836915E+03  0.12498940375E+03 0.  0.
          5    1    3    3  502    0  0.50082072334E+02  0.28999587650E+02  0.52579858440E+01  0.58300312764E+02  0.47000000000E+01 0. -1.
         -5    1    3    3    0  502 -0.23337235397E+02 -0.68590108957E+02 -0.25938209193E+02  0.77098056388E+02  0.47000000000E+01 0. -1.
        -11    1    1    2    0    0 -0.48393727588E+02  0.24876679827E+02  0.12792591025E+02  0.55896801824E+02  0.00000000000E+00 0.  1.
         11    1    1    2    0    0  0.21648890650E+02  0.14713841480E+02 -0.47392052669E+02  0.54140356977E+02  0.00000000000E+00 0. -1.
<mgrwt>
<rscale>  0 0.12577639E+03</rscale>
<asrwt>0</asrwt>
<pdfrwt beam="2">  1        2 0.23131939E-01 0.13380974E+03</pdfrwt>
<pdfrwt beam="1">  1       -2 0.14627373E-01 0.13380974E+03</pdfrwt>
<totfact> 0.79234404E+03</totfact>
</mgrwt>
</event>
<event>
 7    1  0.6008063E-006  0.1484999E+03  0.7546771E-02  0.1212015E+00
         -1   -1    0    0    0  501 -0.00000000000E+00  0.00000000000E+00  0.37092326855E+02  0.37092326855E+02  0.00000000000E+00 0.  1.
          1   -1    0    0  501    0  0.00000000000E+00 -0.00000000000E+00 -0.12571079970E+04  0.12571079970E+04  0.00000000000E+00 0. -1.
         23    2    1    2    0    0  0.66373945591E+02 -0.44978140754E+02 -0.11395678397E+04  0.11492027982E+04  0.12499470497E+03 0.  0.
          5    1    3    3  502    0 -0.34488035577E+02 -0.24818929401E+02 -0.24180535491E+03  0.24555513335E+03  0.47000000000E+01 0.  1.
         -5    1    3    3    0  502  0.10086198117E+03 -0.20159211353E+02 -0.89776248482E+03  0.90364766486E+03  0.47000000000E+01 0.  1.
        -11    1    1    2    0    0  0.22627313213E+01 -0.23506202696E+02 -0.17585042488E+02  0.29443084715E+02  0.00000000000E+00 0.  1.
         11    1    1    2    0    0 -0.68636676912E+02  0.68484343450E+02 -0.62862787953E+02  0.11555444096E+03  0.00000000000E+00 0. -1.
<mgrwt>
<rscale>  0 0.14098129E+03</rscale>
<asrwt>0</asrwt>
<pdfrwt beam="2">  1        1 0.19340120E+00 0.14849987E+03</pdfrwt>
<pdfrwt beam="1">  1       -1 0.57065126E-02 0.14849987E+03</pdfrwt>
<totfact> 0.15077950E+03</totfact>
</mgrwt>
</event>
<event>
 7    1  0.6008063E-006  0.1440454E+03  0.7546771E-02  0.1218355E+00
         -1   -1    0    0    0  501 -0.00000000000E+00  0.00000000000E+00  0.20243327500E+02  0.20243327500E+02  0.00000000000E+00 0.  1.
          1   -1    0    0  501    0  0.00000000000E+00 -0.00000000000E+00 -0.11182371066E+04  0.11182371066E+04  0.00000000000E+00 0. -1.
         23    2    1    2    0    0 -0.68669909172E+02 -0.20218775056E+02 -0.88032420147E+03  0.89203127189E+03  0.12499894018E+03 0.  0.
          5    1    3    3  502    0 -0.10315699363E+03 -0.28506199545E+02 -0.70510775089E+03  0.71319913006E+03  0.47000000000E+01 0.  1.
         -5    1    3    3    0  502  0.34487084458E+02  0.82874244896E+01 -0.17521645058E+03  0.17883214184E+03  0.47000000000E+01 0.  1.
        -11    1    1    2    0    0  0.14090567260E+02 -0.35094646737E+02 -0.67961477754E+02  0.77774936669E+02  0.00000000000E+00 0.  1.
         11    1    1    2    0    0  0.54579341912E+02  0.55313421793E+02 -0.14970809988E+03  0.16867422555E+03  0.00000000000E+00 0. -1.
<mgrwt>
<rscale>  0 0.13632919E+03</rscale>
<asrwt>0</asrwt>
<pdfrwt beam="2">  1        1 0.17203648E+00 0.14404545E+03</pdfrwt>
<pdfrwt beam="1">  1       -1 0.31143580E-02 0.14404545E+03</pdfrwt>
<totfact> 0.45855916E+03</totfact>
</mgrwt>
</event>
<event>
 7    1  0.6008063E-006  0.1464806E+03  0.7546771E-02  0.1214309E+00
          1   -1    0    0  501    0  0.00000000000E+00  0.00000000000E+00  0.41698452589E+03  0.41698452589E+03  0.00000000000E+00 0. -1.
         -1   -1    0    0    0  501 -0.00000000000E+00 -0.00000000000E+00 -0.42649658449E+02  0.42649658449E+02  0.00000000000E+00 0.  1.
         23    2    1    2    0    0  0.73906517603E+02 -0.19236123953E+02  0.22020841923E+03  0.26447745597E+03  0.12499750000E+03 0.  0.
          5    1    3    3  502    0  0.98138222599E+02 -0.18789858514E+02  0.98847517579E+02  0.14063104653E+03  0.47000000000E+01 0.  1.
         -5    1    3    3    0  502 -0.24231704996E+02 -0.44626543953E+00  0.12136090165E+03  0.12384640944E+03  0.47000000000E+01 0.  1.
        -11    1    1    2    0    0 -0.47715234933E+02  0.33407581763E+02  0.26304981927E+02  0.63912144684E+02  0.00000000000E+00 0.  1.
         11    1    1    2    0    0 -0.26191282670E+02 -0.14171457810E+02  0.12782146628E+03  0.13124458368E+03  0.00000000000E+00 0. -1.
<mgrwt>
<rscale>  0 0.13927412E+03</rscale>
<asrwt>0</asrwt>
<pdfrwt beam="1">  1        1 0.64151463E-01 0.14648064E+03</pdfrwt>
<pdfrwt beam="2">  1       -1 0.65614862E-02 0.14648064E+03</pdfrwt>
<totfact> 0.64385223E+03</totfact>
</mgrwt>
</event>
<event>
 7    1  0.6008063E-006  0.1335553E+03  0.7546771E-02  0.1234833E+00
         -2   -1    0    0    0  501 -0.00000000000E+00  0.00000000000E+00  0.39066183084E+02  0.39066183084E+02  0.00000000000E+00 0.  1.
          2   -1    0    0  501    0  0.00000000000E+00 -0.00000000000E+00 -0.53141537260E+03  0.53141537260E+03  0.00000000000E+00 0. -1.
         23    2    1    2    0    0 -0.34293865269E+01  0.46824669446E+02 -0.42961720751E+03  0.44989771152E+03  0.12503077813E+03 0.  0.
          5    1    3    3  502    0  0.37541297156E+02 -0.28611431449E+02 -0.16302693318E+03  0.16978761422E+03  0.47000000000E+01 0.  1.
         -5    1    3    3    0  502 -0.40970683683E+02  0.75436100894E+02 -0.26659027433E+03  0.28011009730E+03  0.47000000000E+01 0.  1.
        -11    1    1    2    0    0 -0.29554612103E+02 -0.20326049879E+02 -0.69044263429E+02  0.77805743443E+02  0.00000000000E+00 0. -1.
         11    1    1    2    0    0  0.32983998630E+02 -0.26498619566E+02  0.63122814241E+01  0.42778100722E+02  0.00000000000E+00 0.  1.
<mgrwt>
<rscale>  0 0.12515131E+03</rscale>
<asrwt>0</asrwt>
<pdfrwt beam="2">  1        2 0.81756207E-01 0.13355525E+03</pdfrwt>
<pdfrwt beam="1">  1       -2 0.60101823E-02 0.13355525E+03</pdfrwt>
<totfact> 0.81919522E+03</totfact>
</mgrwt>
</event>
<event>
 7    1  0.6008063E-006  0.1263645E+03  0.7546771E-02  0.1253209E+00
          1   -1    0    0  501    0  0.00000000000E+00  0.00000000000E+00  0.10450747025E+04  0.10450747025E+04  0.00000000000E+00 0. -1.
         -1   -1    0    0    0  501 -0.00000000000E+00 -0.00000000000E+00 -0.16810247829E+02  0.16810247829E+02  0.00000000000E+00 0.  1.
         23    2    1    2    0    0 -0.12015038051E+02  0.14083187129E+02  0.89855416899E+03  0.90739603954E+03  0.12500112266E+03 0.  0.
          5    1    3    3  502    0 -0.51483251644E+02 -0.24008585853E+02  0.66511781484E+03  0.66755579169E+03  0.47000000000E+01 0.  1.
         -5    1    3    3    0  502  0.39468213592E+02  0.38091772982E+02  0.23343635415E+03  0.23984024785E+03  0.47000000000E+01 0.  1.
        -11    1    1    2    0    0 -0.10649399303E+02 -0.44243970316E+01 -0.83564357567E+01  0.14241313604E+02  0.00000000000E+00 0.  1.
         11    1    1    2    0    0  0.22664437354E+02 -0.96587900975E+01  0.13806672139E+03  0.14024759713E+03  0.00000000000E+00 0. -1.
<mgrwt>
<rscale>  0 0.11407257E+03</rscale>
<asrwt>0</asrwt>
<pdfrwt beam="1">  1        1 0.16078067E+00 0.12636446E+03</pdfrwt>
<pdfrwt beam="2">  1       -1 0.25861928E-02 0.12636446E+03</pdfrwt>
<totfact> 0.67341485E+03</totfact>
</mgrwt>
</event>
<event>
 6    1  0.6008063E-006  0.3243075E+03  0.7546771E-02  0.1117407E+00
          1   -1    0    0  501    0  0.00000000000E+00  0.00000000000E+00  0.15975534966E+03  0.15975534966E+03  0.00000000000E+00 0. -1.
         -1   -1    0    0    0  501 -0.00000000000E+00 -0.00000000000E+00 -0.49864002431E+03  0.49864002431E+03  0.00000000000E+00 0.  1.
          5    1    1    2  502    0 -0.32939632500E+02  0.12641121864E+03  0.37208815765E+02  0.13590953447E+03  0.47000000000E+01 0. -1.
         -5    1    1    2    0  502  0.67236931519E+02 -0.16653106915E+03 -0.59144513512E+02  0.18913901086E+03  0.47000000000E+01 0.  1.
        -11    1    1    2    0    0 -0.49347136557E+02  0.59505842544E+02 -0.26198824858E+03  0.27315550073E+03  0.00000000000E+00 0. -1.
         11    1    1    2    0    0  0.15049837538E+02 -0.19385992038E+02 -0.54960728329E+02  0.60191327911E+02  0.00000000000E+00 0.  1.
<mgrwt>
<rscale>  0 0.24361556E+03</rscale>
<asrwt>0</asrwt>
<pdfrwt beam="1">  1        1 0.24577746E-01 0.32430754E+03</pdfrwt>
<pdfrwt beam="2">  1       -1 0.76713849E-01 0.32430754E+03</pdfrwt>
<totfact> 0.34865505E+02</totfact>
</mgrwt>
</event>
<event>
 7    1  0.6008063E-006  0.1746711E+03  0.7546771E-02  0.1178949E+00
          1   -1    0    0  501    0  0.00000000000E+00  0.00000000000E+00  0.52868481017E+03  0.52868481017E+03  0.00000000000E+00 0. -1.
         -1   -1    0    0    0  501 -0.00000000000E+00 -0.00000000000E+00 -0.13377528458E+03  0.13377528458E+03  0.00000000000E+00 0.  1.
         23    2    1    2    0    0  0.11994007901E+03  0.22317452911E+02  0.46318462048E+03  0.49502523292E+03  0.12500518919E+03 0.  0.
          5    1    3    3  502    0  0.96103572381E+02 -0.32000286634E+02  0.18926033809E+03  0.21471255330E+03  0.47000000000E+01 0.  1.
         -5    1    3    3    0  502  0.23836506634E+02  0.54317739545E+02  0.27392428238E+03  0.28031267962E+03  0.47000000000E+01 0.  1.
        -11    1    1    2    0    0 -0.44127273292E+02  0.80114485587E+01  0.18290344129E+02  0.48434866002E+02  0.00000000000E+00 0. -1.
         11    1    1    2    0    0 -0.75812805722E+02 -0.30328901470E+02 -0.86565439012E+02  0.11899999583E+03  0.00000000000E+00 0.  1.
<mgrwt>
<rscale>  0 0.16894874E+03</rscale>
<asrwt>0</asrwt>
<pdfrwt beam="1">  1        1 0.81336124E-01 0.17467109E+03</pdfrwt>
<pdfrwt beam="2">  1       -1 0.20580813E-01 0.17467109E+03</pdfrwt>
<totfact> 0.80834337E+02</totfact>
</mgrwt>
</event>
<event>
 7    1  0.6008063E-006  0.1314267E+03  0.7546771E-02  0.1237365E+00
         -1   -1    0    0    0  501 -0.00000000000E+00  0.00000000000E+00  0.78173378696E+02  0.78173378696E+02  0.00000000000E+00 0.  1.
          1   -1    0    0  501    0  0.00000000000E+00 -0.00000000000E+00 -0.18588522848E+03  0.18588522848E+03  0.00000000000E+00 0. -1.
         23    2    1    2    0    0 -0.22488665676E+02 -0.33767268036E+02 -0.91570643480E+02  0.16018164201E+03  0.12500802860E+03 0.  0.
          5    1    3    3  502    0 -0.38919536314E+02 -0.57254028728E+02 -0.58056652667E+01  0.69631529221E+02  0.47000000000E+01 0.  1.
         -5    1    3    3    0  502  0.16430870638E+02  0.23486760692E+02 -0.85764978214E+02  0.90550112787E+02  0.47000000000E+01 0.  1.
        -11    1    1    2    0    0 -0.23220702982E+02  0.43850722642E+02 -0.26034302690E+02  0.56034559334E+02  0.00000000000E+00 0. -1.
         11    1    1    2    0    0  0.45709368658E+02 -0.10083454605E+02  0.98930963853E+01  0.47842405834E+02  0.00000000000E+00 0.  1.
<mgrwt>
<rscale>  0 0.12354229E+03</rscale>
<asrwt>0</asrwt>
<pdfrwt beam="2">  1        1 0.28597727E-01 0.13142669E+03</pdfrwt>
<pdfrwt beam="1">  1       -1 0.12026674E-01 0.13142669E+03</pdfrwt>
<totfact> 0.69622155E+03</totfact>
</mgrwt>
</event>
<event>
 6    1  0.6008063E-006  0.1669012E+03  0.7546771E-02  0.1198188E+00
          2   -1    0    0  501    0  0.00000000000E+00  0.00000000000E+00  0.20403228168E+04  0.20403228168E+04  0.00000000000E+00 0. -1.
         -2   -1    0    0    0  501 -0.00000000000E+00 -0.00000000000E+00 -0.39632011411E+02  0.39632011411E+02  0.00000000000E+00 0.  1.
          5    1    1    2  502    0  0.30232459784E+02 -0.73328119151E+02  0.15005834822E+04  0.15026855598E+04  0.47000000000E+01 0. -1.
         -5    1    1    2    0  502  0.31529951392E+02  0.59165406197E+02  0.44537533053E+03  0.45041753759E+03  0.47000000000E+01 0.  1.
        -11    1    1    2    0    0 -0.54049224085E+02  0.25855992965E+02 -0.98924328192E+01  0.60726528169E+02  0.00000000000E+00 0.  1.
         11    1    1    2    0    0 -0.77131870919E+01 -0.11693280010E+02  0.64624425421E+02  0.66125202559E+02  0.00000000000E+00 0. -1.
<mgrwt>
<rscale>  0 0.15187489E+03</rscale>
<asrwt>0</asrwt>
<pdfrwt beam="1">  1        2 0.31389574E+00 0.16690119E+03</pdfrwt>
<pdfrwt beam="2">  1       -2 0.60972341E-02 0.16690119E+03</pdfrwt>
<totfact> 0.10370346E+03</totfact>
</mgrwt>
</event>
<event>
 7    1  0.6008063E-006  0.1811938E+03  0.7546771E-02  0.1172466E+00
          2   -1    0    0  501    0  0.00000000000E+00  0.00000000000E+00  0.17651443013E+04  0.17651443013E+04  0.00000000000E+00 0. -1.
         -2   -1    0    0    0  501 -0.00000000000E+00 -0.00000000000E+00 -0.17766805046E+02  0.17766805046E+02  0.00000000000E+00 0.  1.
         23    2    1    2    0    0  0.10896421669E+03  0.73019100131E+02  0.11779794819E+04  0.11918334073E+04  0.12500488614E+03 0.  0.
          5    1    3    3  502    0  0.72414538245E+01  0.71295639137E+02  0.66310632708E+03  0.66698395620E+03  0.47000000000E+01 0. -1.
         -5    1    3    3    0  502  0.10172276286E+03  0.17234609939E+01  0.51487315479E+03  0.52484945110E+03  0.47000000000E+01 0. -1.
        -11    1    1    2    0    0 -0.29890580118E+02 -0.58786221737E+02  0.14713256275E+03  0.16123665113E+03  0.00000000000E+00 0.  1.
         11    1    1    2    0    0 -0.79073636571E+02 -0.14232878394E+02  0.42226545166E+03  0.42984104794E+03  0.00000000000E+00 0. -1.
<mgrwt>
<rscale>  0 0.17526440E+03</rscale>
<asrwt>0</asrwt>
<pdfrwt beam="1">  1        2 0.27156052E+00 0.18119385E+03</pdfrwt>
<pdfrwt beam="2">  1       -2 0.27333560E-02 0.18119385E+03</pdfrwt>
<totfact> 0.47814200E+03</totfact>
</mgrwt>
</event>
<event>
 7    1  0.6008063E-006  0.1326022E+03  0.7546771E-02  0.1243481E+00
         -1   -1    0    0    0  501 -0.00000000000E+00  0.00000000000E+00  0.38036665590E+03  0.38036665590E+03  0.00000000000E+00 0.  1.
          1   -1    0    0  501    0  0.00000000000E+00 -0.00000000000E+00 -0.39906107129E+02  0.39906107129E+02  0.00000000000E+00 0. -1.
         23    2    1    2    0    0  0.43804840492E+02 -0.64362900759E+01  0.10602633529E+03  0.16977908738E+03  0.12499225919E+03 0.  0.
          5    1    3    3  502    0  0.57561038105E+02 -0.47375978917E+02  0.26683914129E+02  0.79321357523E+02  0.47000000000E+01 0. -1.
         -5    1    3    3    0  502 -0.13756197613E+02  0.40939688841E+02  0.79342421165E+02  0.90457729860E+02  0.47000000000E+01 0. -1.
        -11    1    1    2    0    0  0.17426121378E+02 -0.15350321079E+02  0.64798924860E+02  0.68834604136E+02  0.00000000000E+00 0.  1.
         11    1    1    2    0    0 -0.61230961870E+02  0.21786611155E+02  0.16963528861E+03  0.18165907151E+03  0.00000000000E+00 0. -1.
<mgrwt>
<rscale>  0 0.11976755E+03</rscale>
<asrwt>0</asrwt>
<pdfrwt beam="2">  1        1 0.61394014E-02 0.13260224E+03</pdfrwt>
<pdfrwt beam="1">  1       -1 0.58517944E-01 0.13260224E+03</pdfrwt>
<totfact> 0.36605670E+03</totfact>
</mgrwt>
</event>
<event>
 7    1  0.6008063E-006  0.1205265E+03  0.7546771E-02  0.1312745E+00
          2   -1    0    0  501    0  0.00000000000E+00  0.00000000000E+00  0.99923056444E+02  0.99923056444E+02  0.00000000000E+00 0. -1.
         -2   -1    0    0    0  501 -0.00000000000E+00 -0.00000000000E+00 -0.83129923731E+02  0.83129923731E+02  0.00000000000E+00 0.  1.
         23    2    1    2    0    0 -0.28299796803E+02 -0.68597276362E+01  0.55989009667E+02  0.13289623678E+03  0.11695600107E+03 0.  0.
          5    1    3    3  502    0 -0.15307429718E+02  0.48888195381E+02  0.55201401609E+02  0.75456330363E+02  0.47000000000E+01 0. -1.
         -5    1    3    3    0  502 -0.12992367085E+02 -0.55747923017E+02  0.78760805761E+00  0.57439906421E+02  0.47000000000E+01 0.  1.
        -11    1    1    2    0    0  0.19605326743E+02 -0.83227457132E+00 -0.26149494199E+02  0.32693387168E+02  0.00000000000E+00 0. -1.
         11    1    1    2    0    0  0.86944700596E+01  0.76920022075E+01 -0.13046382755E+02  0.17463356223E+02  0.00000000000E+00 0.  1.
<mgrwt>
<rscale>  0 0.86036150E+02</rscale>
<asrwt>0</asrwt>
<pdfrwt beam="1">  1        2 0.15372778E-01 0.12052651E+03</pdfrwt>
<pdfrwt beam="2">  1       -2 0.12789219E-01 0.12052651E+03</pdfrwt>
<totfact> 0.15522360E+04</totfact>
</mgrwt>
</event>
<event>
 7    1  0.6008063E-006  0.1287621E+03  0.7546771E-02  0.1243396E+00
          2   -1    0    0  501    0  0.00000000000E+00  0.00000000000E+00  0.43533368695E+03  0.43533368695E+03  0.00000000000E+00 0. -1.
         -2   -1    0    0    0  501 -0.00000000000E+00 -0.00000000000E+00 -0.29262234396E+02  0.29262234396E+02  0.00000000000E+00 0.  1.
         23    2    1    2    0    0  0.30796122677E+02 -0.22083684065E+01  0.24605729049E+03  0.27771182648E+03  0.12500556107E+03 0.  0.
          5    1    3    3  502    0 -0.15511623771E+02 -0.51668551406E+02  0.15449188516E+03  0.16370730667E+03  0.47000000000E+01 0.  1.
         -5    1    3    3    0  502  0.46307746447E+02  0.49460183000E+02  0.91565405338E+02  0.11400451981E+03  0.47000000000E+01 0.  1.
        -11    1    1    2    0    0 -0.57096965665E+02  0.24007390216E+02  0.11152004812E+03  0.12756621577E+03  0.00000000000E+00 0. -1.
         11    1    1    2    0    0  0.26300842988E+02 -0.21799021810E+02  0.48494113937E+02  0.59317879095E+02  0.00000000000E+00 0.  1.
<mgrwt>
<rscale>  0 0.11981868E+03</rscale>
<asrwt>0</asrwt>
<pdfrwt beam="1">  1        2 0.66974409E-01 0.12876206E+03</pdfrwt>
<pdfrwt beam="2">  1       -2 0.45018825E-02 0.12876206E+03</pdfrwt>
<totfact> 0.15680105E+04</totfact>
</mgrwt>
</event>
<event>
 7    1  0.6008063E-006  0.2891970E+03  0.7546771E-02  0.1100870E+00
          1   -1    0    0  501    0  0.00000000000E+00  0.00000000000E+00  0.13968686559E+03  0.13968686559E+03  0.00000000000E+00 0.  1.
         -1   -1    0    0    0  501 -0.00000000000E+00 -0.00000000000E+00 -0.48192997078E+03  0.48192997078E+03  0.00000000000E+00 0. -1.
         23    2    1    2    0    0  0.11393867373E+03  0.14577924235E+03 -0.96564237279E+02  0.24215275604E+03  0.12279941558E+03 0.  0.
          5    1    3    3  502    0 -0.68768297946E+01  0.68712984675E+02 -0.65818013164E+02  0.95513694871E+02  0.47000000000E+01 0. -1.
         -5    1    3    3    0  502  0.12081550352E+03  0.77066257677E+02 -0.30746224115E+02  0.14663906117E+03  0.47000000000E+01 0.  1.
        -11    1    1    2    0    0 -0.12468421198E+03 -0.19838611904E+03 -0.18581896444E+03  0.29905165522E+03  0.00000000000E+00 0. -1.
         11    1    1    2    0    0  0.10745538254E+02  0.52606876684E+02 -0.59859903477E+02  0.80412425104E+02  0.00000000000E+00 0.  1.
<mgrwt>
<rscale>  0 0.27071717E+03</rscale>
<asrwt>0</asrwt>
<pdfrwt beam="1">  1        1 0.21490287E-01 0.28919696E+03</pdfrwt>
<pdfrwt beam="2">  1       -1 0.74143073E-01 0.28919696E+03</pdfrwt>
<totfact> 0.44507213E+02</totfact>
</mgrwt>
</event>
<event>
 7    1  0.6008063E-006  0.1517940E+03  0.7546771E-02  0.1202597E+00
         -1   -1    0    0    0  501 -0.00000000000E+00  0.00000000000E+00  0.36881960883E+02  0.36881960883E+02  0.00000000000E+00 0.  1.
          1   -1    0    0  501    0  0.00000000000E+00 -0.00000000000E+00 -0.69453492254E+03  0.69453492254E+03  0.00000000000E+00 0. -1.
         23    2    1    2    0    0  0.70491381979E+02 -0.49467016257E+02 -0.49605768476E+03  0.51876259669E+03  0.12500153789E+03 0.  0.
          5    1    3    3  502    0  0.43498757974E+02 -0.70019525306E+02 -0.46580071583E+03  0.47306159508E+03  0.47000000000E+01 0. -1.
         -5    1    3    3    0  502  0.26992624005E+02  0.20552509049E+02 -0.30256968933E+02  0.45701001608E+02  0.47000000000E+01 0. -1.
        -11    1    1    2    0    0 -0.23501917196E+02  0.77769131085E+02 -0.77699999819E+02  0.11241738226E+03  0.00000000000E+00 0.  1.
         11    1    1    2    0    0 -0.46989464783E+02 -0.28302114828E+02 -0.83895277072E+02  0.10023690448E+03  0.00000000000E+00 0. -1.
<mgrwt>
<rscale>  0 0.14828427E+03</rscale>
<asrwt>0</asrwt>
<pdfrwt beam="2">  1        1 0.10685153E+00 0.15179396E+03</pdfrwt>
<pdfrwt beam="1">  1       -1 0.56741477E-02 0.15179396E+03</pdfrwt>
<totfact> 0.40529588E+03</totfact>
</mgrwt>
</event>
<event>
 7    1  0.6008063E-006  0.1253917E+03  0.7546771E-02  0.1244227E+00
          1   -1    0    0  501    0  0.00000000000E+00  0.00000000000E+00  0.11138596093E+04  0.11138596093E+04  0.00000000000E+00 0. -1.
         -1   -1    0    0    0  501 -0.00000000000E+00 -0.00000000000E+00 -0.11731730582E+02  0.11731730582E+02  0.00000000000E+00 0.  1.
         23    2    1    2    0    0  0.96002633245E+01 -0.14747272832E+01  0.63970339663E+03  0.65187692068E+03  0.12501497579E+03 0.  0.
          5    1    3    3  502    0  0.14278680774E+02  0.57018150388E+02  0.43153497434E+03  0.43554503128E+03  0.47000000000E+01 0. -1.
         -5    1    3    3    0  502 -0.46784174496E+01 -0.58492877671E+02  0.20816842229E+03  0.21633188939E+03  0.47000000000E+01 0. -1.
        -11    1    1    2    0    0  0.35765402321E+01 -0.48770492220E+02  0.17849353356E+03  0.18507105142E+03  0.00000000000E+00 0.  1.
         11    1    1    2    0    0 -0.13176803557E+02  0.50245219503E+02  0.28393094855E+03  0.28864336780E+03  0.00000000000E+00 0. -1.
<mgrwt>
<rscale>  0 0.11931791E+03</rscale>
<asrwt>0</asrwt>
<pdfrwt beam="1">  1        1 0.17136293E+00 0.12539172E+03</pdfrwt>
<pdfrwt beam="2">  1       -1 0.18048825E-02 0.12539172E+03</pdfrwt>
<totfact> 0.10108854E+04</totfact>
</mgrwt>
</event>
<event>
 7    1  0.6008063E-006  0.1713365E+03  0.7546771E-02  0.1181229E+00
          2   -1    0    0  501    0  0.00000000000E+00  0.00000000000E+00  0.64459066574E+03  0.64459066574E+03  0.00000000000E+00 0.  1.
         -2   -1    0    0    0  501 -0.00000000000E+00 -0.00000000000E+00 -0.58389106633E+02  0.58389106633E+02  0.00000000000E+00 0. -1.
         23    2    1    2    0    0  0.50259252324E+02 -0.10585097425E+03  0.49564508512E+03  0.52442373994E+03  0.12500314961E+03 0.  0.
          5    1    3    3  502    0  0.81584182958E+02 -0.88180261174E+02  0.26567806764E+03  0.29161389370E+03  0.47000000000E+01 0. -1.
         -5    1    3    3    0  502 -0.31324930634E+02 -0.17670713071E+02  0.22996701748E+03  0.23280984624E+03  0.47000000000E+01 0. -1.
        -11    1    1    2    0    0  0.10745787588E+02  0.81648877641E+02  0.74359457387E+02  0.11095647829E+03  0.00000000000E+00 0.  1.
         11    1    1    2    0    0 -0.61005039912E+02  0.24202096605E+02  0.16197016601E+02  0.67599554151E+02  0.00000000000E+00 0. -1.
<mgrwt>
<rscale>  0 0.16679740E+03</rscale>
<asrwt>0</asrwt>
<pdfrwt beam="1">  1        2 0.99167790E-01 0.17133654E+03</pdfrwt>
<pdfrwt beam="2">  1       -2 0.89829399E-02 0.17133654E+03</pdfrwt>
<totfact> 0.35853101E+03</totfact>
</mgrwt>
</event>
<event>
 6    1  0.6008063E-006  0.1317840E+03  0.7546771E-02  0.1241821E+00
          1   -1    0    0  501    0  0.00000000000E+00  0.00000000000E+00  0.25569213375E+02  0.25569213375E+02  0.00000000000E+00 0. -1.
         -1   -1    0    0    0  501 -0.00000000000E+00 -0.00000000000E+00 -0.49582134135E+03  0.49582134135E+03  0.00000000000E+00 0.  1.
          5    1    1    2  502    0  0.15203546720E+02 -0.47517618588E+02 -0.16181608089E+03  0.16939777431E+03  0.47000000000E+01 0. -1.
         -5    1    1    2    0  502 -0.31437565527E+02  0.65174705792E+02 -0.97786922498E+02  0.12173920902E+03  0.47000000000E+01 0.  1.
        -11    1    1    2    0    0  0.26071477082E+02 -0.35177699140E+02 -0.20465289381E+03  0.20928449389E+03  0.00000000000E+00 0.  1.
         11    1    1    2    0    0 -0.98374582743E+01  0.17520611936E+02 -0.59962307758E+01  0.20969077505E+02  0.00000000000E+00 0. -1.
<mgrwt>
<rscale>  0 0.12077699E+03</rscale>
<asrwt>0</asrwt>
<pdfrwt beam="1">  1        1 0.39337254E-02 0.13178400E+03</pdfrwt>
<pdfrwt beam="2">  1       -1 0.76280202E-01 0.13178400E+03</pdfrwt>
<totfact> 0.40089782E+03</totfact>
</mgrwt>
</event>
<event>
 7    1  0.6008063E-006  0.2769321E+03  0.7546771E-02  0.1099430E+00
          1   -1    0    0  501    0  0.00000000000E+00  0.00000000000E+00  0.41788810045E+03  0.41788810045E+03  0.00000000000E+00 0. -1.
         -1   -1    0    0    0  501 -0.00000000000E+00 -0.00000000000E+00 -0.24679782856E+03  0.24679782856E+03  0.00000000000E+00 0.  1.
         23    2    1    2    0    0  0.30487475104E+02 -0.24523391195E+03  0.26749544644E+03  0.38502625722E+03  0.12498898821E+03 0.  0.
          5    1    3    3  502    0  0.31245462321E+02 -0.23521928615E+03  0.28082934595E+03  0.36768410768E+03  0.47000000000E+01 0. -1.
         -5    1    3    3    0  502 -0.75798721654E+00 -0.10014625798E+02 -0.13333899510E+02  0.17342149539E+02  0.47000000000E+01 0. -1.
        -11    1    1    2    0    0 -0.47077106275E+02  0.71723477337E+02 -0.49944148601E+02  0.99271995628E+02  0.00000000000E+00 0.  1.
         11    1    1    2    0    0  0.16589631171E+02  0.17351043461E+03 -0.46461025949E+02  0.18038767617E+03  0.00000000000E+00 0. -1.
<mgrwt>
<rscale>  0 0.27325598E+03</rscale>
<asrwt>0</asrwt>
<pdfrwt beam="1">  1        1 0.64290477E-01 0.27693213E+03</pdfrwt>
<pdfrwt beam="2">  1       -1 0.37968897E-01 0.27693213E+03</pdfrwt>
<totfact> 0.39016897E+02</totfact>
</mgrwt>
</event>
<event>
 7    1  0.6008063E-006  0.1458949E+03  0.7546771E-02  0.1215956E+00
         -2   -1    0    0    0  501 -0.00000000000E+00  0.00000000000E+00  0.24825715298E+03  0.24825715298E+03  0.00000000000E+00 0.  1.
          2   -1    0    0  501    0  0.00000000000E+00 -0.00000000000E+00 -0.11971296795E+03  0.11971296795E+03  0.00000000000E+00 0. -1.
         23    2    1    2    0    0 -0.67829750046E+02 -0.32552113211E+02 -0.50237076386E+02  0.15430190330E+03  0.12499919380E+03 0.  0.
          5    1    3    3  502    0 -0.61003645697E+02  0.26699557666E+02  0.12161729275E+02  0.67855057489E+02  0.47000000000E+01 0.  1.
         -5    1    3    3    0  502 -0.68261043487E+01 -0.59251670877E+02 -0.62398805661E+02  0.86446845808E+02  0.47000000000E+01 0.  1.
        -11    1    1    2    0    0  0.52893073490E+02 -0.19474303569E+02  0.12615578166E+03  0.13817455254E+03  0.00000000000E+00 0.  1.
         11    1    1    2    0    0  0.14936676555E+02  0.52026416780E+02  0.52625479759E+02  0.75493665094E+02  0.00000000000E+00 0. -1.
<mgrwt>
<rscale>  0 0.13806572E+03</rscale>
<asrwt>0</asrwt>
<pdfrwt beam="2">  1        2 0.18417380E-01 0.14589487E+03</pdfrwt>
<pdfrwt beam="1">  1       -2 0.38193408E-01 0.14589487E+03</pdfrwt>
<totfact> 0.19383281E+03</totfact>
</mgrwt>
</event>
<event>
 7    1  0.6008063E-006  0.1258517E+03  0.7546771E-02  0.1248993E+00
         -1   -1    0    0    0  501 -0.00000000000E+00  0.00000000000E+00  0.45046132550E+02  0.45046132550E+02  0.00000000000E+00 0.  1.
          1   -1    0    0  501    0  0.00000000000E+00 -0.00000000000E+00 -0.26600592238E+03  0.26600592238E+03  0.00000000000E+00 0. -1.
         23    2    1    2    0    0 -0.14323165368E+02  0.44976344094E+01 -0.11519788778E+03  0.17061417164E+03  0.12495303291E+03 0.  0.
          5    1    3    3  502    0 -0.16544249214E+02 -0.39758080530E+02 -0.11826489607E+03  0.12594877051E+03  0.47000000000E+01 0.  1.
         -5    1    3    3    0  502  0.22210838464E+01  0.44255714939E+02  0.30670082950E+01  0.44665401130E+02  0.47000000000E+01 0.  1.
        -11    1    1    2    0    0  0.51616475936E+02 -0.63609104127E+01 -0.43331442016E+02  0.67692951158E+02  0.00000000000E+00 0.  1.
         11    1    1    2    0    0 -0.37293310568E+02  0.18632760033E+01 -0.62430460032E+02  0.72744932129E+02  0.00000000000E+00 0. -1.
<mgrwt>
<rscale>  0 0.11649540E+03</rscale>
<asrwt>0</asrwt>
<pdfrwt beam="2">  1        1 0.40923988E-01 0.12585167E+03</pdfrwt>
<pdfrwt beam="1">  1       -1 0.69301743E-02 0.12585167E+03</pdfrwt>
<totfact> 0.10278569E+04</totfact>
</mgrwt>
</event>
<event>
 7    1  0.6008063E-006  0.1310358E+03  0.7546771E-02  0.1238985E+00
         -2   -1    0    0    0  501 -0.00000000000E+00  0.00000000000E+00  0.43964798694E+02  0.43964798694E+02  0.00000000000E+00 0.  1.
          2   -1    0    0  501    0  0.00000000000E+00 -0.00000000000E+00 -0.39460576824E+03  0.39460576824E+03  0.00000000000E+00 0. -1.
         23    2    1    2    0    0  0.57453207630E+01  0.38890555566E+02 -0.29770604323E+03  0.32526797979E+03  0.12499954590E+03 0.  0.
          5    1    3    3  502    0 -0.13770204541E+02  0.40179261761E+02 -0.30174146598E+03  0.30475234847E+03  0.47000000000E+01 0. -1.
         -5    1    3    3    0  502  0.19515525304E+02 -0.12887061957E+01  0.40354227466E+01  0.20515631316E+02  0.47000000000E+01 0. -1.
        -11    1    1    2    0    0  0.21067962060E+02 -0.14242773431E+01  0.18649978410E+02  0.28172846608E+02  0.00000000000E+00 0.  1.
         11    1    1    2    0    0 -0.26813282823E+02 -0.37466278222E+02 -0.71584904723E+02  0.85129740537E+02  0.00000000000E+00 0. -1.
<mgrwt>
<rscale>  0 0.12252763E+03</rscale>
<asrwt>0</asrwt>
<pdfrwt beam="2">  1        2 0.60708579E-01 0.13103576E+03</pdfrwt>
<pdfrwt beam="1">  1       -2 0.67638152E-02 0.13103576E+03</pdfrwt>
<totfact> 0.94409114E+03</totfact>
</mgrwt>
</event>
<event>
 7    1  0.6008063E-006  0.1569892E+03  0.7546771E-02  0.1199946E+00
          2   -1    0    0  501    0  0.00000000000E+00  0.00000000000E+00  0.54460728650E+03  0.54460728650E+03  0.00000000000E+00 0. -1.
         -2   -1    0    0    0  501 -0.00000000000E+00 -0.00000000000E+00 -0.38657655938E+02  0.38657655938E+02  0.00000000000E+00 0.  1.
         23    2    1    2    0    0 -0.94745198432E+02 -0.67727351618E+01  0.29669453954E+03  0.33566838413E+03  0.12499236675E+03 0.  0.
          5    1    3    3  502    0 -0.14821856837E+02 -0.14721062914E+02  0.23047215260E+03  0.23146468469E+03  0.47000000000E+01 0.  1.
         -5    1    3    3    0  502 -0.79923341595E+02  0.79483277522E+01  0.66222386943E+02  0.10420369945E+03  0.47000000000E+01 0.  1.
        -11    1    1    2    0    0 -0.48255420430E+01 -0.26145241748E+02  0.31590807293E+02  0.41289691541E+02  0.00000000000E+00 0.  1.
         11    1    1    2    0    0  0.99570740475E+02  0.32917976910E+02  0.17766428373E+03  0.20630686677E+03  0.00000000000E+00 0. -1.
<mgrwt>
<rscale>  0 0.15042945E+03</rscale>
<asrwt>0</asrwt>
<pdfrwt beam="1">  1        2 0.83785731E-01 0.15698922E+03</pdfrwt>
<pdfrwt beam="2">  1       -2 0.59473321E-02 0.15698922E+03</pdfrwt>
<totfact> 0.81796644E+03</totfact>
</mgrwt>
</event>
<event>
 7    1  0.6008063E-006  0.1517813E+03  0.7546771E-02  0.1207469E+00
         -2   -1    0    0    0  501 -0.00000000000E+00  0.00000000000E+00  0.39971535739E+02  0.39971535739E+02  0.00000000000E+00 0.  1.
          2   -1    0    0  501    0  0.00000000000E+00 -0.00000000000E+00 -0.50459269244E+03  0.50459269244E+03  0.00000000000E+00 0. -1.
         23    2    1    2    0    0  0.11673668598E+02  0.85290717865E+02 -0.31691966917E+03  0.35139100566E+03  0.12500712403E+03 0.  0.
          5    1    3    3  502    0 -0.52862206382E+02  0.12767971211E+02 -0.11505241349E+03  0.12734434343E+03  0.47000000000E+01 0. -1.
         -5    1    3    3    0  502  0.64535874980E+02  0.72522746654E+02 -0.20186725568E+03  0.22404666223E+03  0.47000000000E+01 0. -1.
        -11    1    1    2    0    0  0.12153797058E+02 -0.37638582379E+02 -0.38101435790E+01  0.39735309997E+02  0.00000000000E+00 0.  1.
         11    1    1    2    0    0 -0.23827465656E+02 -0.47652135486E+02 -0.14389134395E+03  0.15343791253E+03  0.00000000000E+00 0. -1.
<mgrwt>
<rscale>  0 0.14444607E+03</rscale>
<asrwt>0</asrwt>
<pdfrwt beam="2">  1        2 0.77629637E-01 0.15178130E+03</pdfrwt>
<pdfrwt beam="1">  1       -2 0.61494676E-02 0.15178130E+03</pdfrwt>
<totfact> 0.84453580E+03</totfact>
</mgrwt>
</event>
<event>
 7    1  0.6008063E-006  0.1469182E+03  0.7546771E-02  0.1214689E+00
         -2   -1    0    0    0  501 -0.00000000000E+00  0.00000000000E+00  0.56245731806E+03  0.56245731806E+03  0.00000000000E+00 0. -1.
          2   -1    0    0  501    0  0.00000000000E+00 -0.00000000000E+00 -0.31155540687E+02  0.31155540687E+02  0.00000000000E+00 0.  1.
         23    2    1    2    0    0 -0.40521452654E+02  0.65711338518E+02  0.28537648088E+03  0.32097459829E+03  0.12499995507E+03 0.  0.
          5    1    3    3  502    0 -0.50325542443E+02  0.49836415521E+02  0.55001416488E+02  0.89797407256E+02  0.47000000000E+01 0.  1.
         -5    1    3    3    0  502  0.98040897892E+01  0.15874922996E+02  0.23037506440E+03  0.23117719103E+03  0.47000000000E+01 0.  1.
        -11    1    1    2    0    0  0.65875728912E+02 -0.43275081778E+02  0.13152636568E+03  0.15333469676E+03  0.00000000000E+00 0.  1.
         11    1    1    2    0    0 -0.25354276258E+02 -0.22436256740E+02  0.11439893081E+03  0.11930356370E+03  0.00000000000E+00 0. -1.
<mgrwt>
<rscale>  0 0.13899437E+03</rscale>
<asrwt>0</asrwt>
<pdfrwt beam="2">  1        2 0.47931605E-02 0.14691820E+03</pdfrwt>
<pdfrwt beam="1">  1       -2 0.86531888E-01 0.14691820E+03</pdfrwt>
<totfact> 0.19202162E+03</totfact>
</mgrwt>
</event>
<event>
 7    1  0.6008063E-006  0.1605455E+03  0.7546771E-02  0.1195697E+00
         -1   -1    0    0    0  501 -0.00000000000E+00  0.00000000000E+00  0.36879881434E+02  0.36879881434E+02  0.00000000000E+00 0.  1.
          1   -1    0    0  501    0  0.00000000000E+00 -0.00000000000E+00 -0.63013775093E+03  0.63013775093E+03  0.00000000000E+00 0. -1.
         23    2    1    2    0    0 -0.95183690335E+02  0.32927766779E+02 -0.24173880205E+03  0.29019390211E+03  0.12502271662E+03 0.  0.
          5    1    3    3  502    0 -0.11086796588E+03  0.51597643679E+02 -0.14221977039E+03  0.18762349474E+03  0.47000000000E+01 0. -1.
         -5    1    3    3    0  502  0.15684275542E+02 -0.18669876899E+02 -0.99519031666E+02  0.10257040736E+03  0.47000000000E+01 0. -1.
        -11    1    1    2    0    0 -0.20993290599E+01 -0.37276136630E+02 -0.11953143781E+03  0.12522652342E+03  0.00000000000E+00 0.  1.
         11    1    1    2    0    0  0.97283019395E+02  0.43483698503E+01 -0.23198762964E+03  0.25159720684E+03  0.00000000000E+00 0. -1.
<mgrwt>
<rscale>  0 0.15395387E+03</rscale>
<asrwt>0</asrwt>
<pdfrwt beam="2">  1        1 0.96944264E-01 0.16054548E+03</pdfrwt>
<pdfrwt beam="1">  1       -1 0.56738282E-02 0.16054548E+03</pdfrwt>
<totfact> 0.46602303E+03</totfact>
</mgrwt>
</event>
<event>
 7    1  0.6008063E-006  0.1513071E+03  0.7546771E-02  0.1207770E+00
          2   -1    0    0  501    0  0.00000000000E+00  0.00000000000E+00  0.27963910168E+03  0.27963910168E+03  0.00000000000E+00 0. -1.
         -2   -1    0    0    0  501 -0.00000000000E+00 -0.00000000000E+00 -0.68297851050E+02  0.68297851050E+02  0.00000000000E+00 0.  1.
         23    2    1    2    0    0 -0.85255795415E+02  0.41932966832E+00  0.10877735136E+03  0.18635008063E+03  0.12500045557E+03 0.  0.
          5    1    3    3  502    0 -0.10102836078E+03  0.39035566164E+02  0.87343675740E+02  0.13921750177E+03  0.47000000000E+01 0. -1.
         -5    1    3    3    0  502  0.15772565367E+02 -0.38616236496E+02  0.21433675624E+02  0.47132578861E+02  0.47000000000E+01 0. -1.
        -11    1    1    2    0    0  0.50474705178E+02 -0.69481706948E+01 -0.22092986286E+01  0.50998568012E+02  0.00000000000E+00 0.  1.
         11    1    1    2    0    0  0.34781090237E+02  0.65288410265E+01  0.10477319789E+03  0.11058830408E+03  0.00000000000E+00 0. -1.
<mgrwt>
<rscale>  0 0.14421274E+03</rscale>
<asrwt>0</asrwt>
<pdfrwt beam="1">  1        2 0.43021400E-01 0.15130711E+03</pdfrwt>
<pdfrwt beam="2">  1       -2 0.10507362E-01 0.15130711E+03</pdfrwt>
<totfact> 0.69377417E+03</totfact>
</mgrwt>
</event>
<event>
 6    1  0.6008063E-006  0.1674092E+03  0.7546771E-02  0.1203452E+00
          2   -1    0    0  501    0  0.00000000000E+00  0.00000000000E+00  0.29045407484E+03  0.29045407484E+03  0.00000000000E+00 0. -1.
         -2   -1    0    0    0  501 -0.00000000000E+00 -0.00000000000E+00 -0.62118642118E+02  0.62118642118E+02  0.00000000000E+00 0.  1.
          5    1    1    2  502    0  0.15820225558E+02 -0.30021007657E+02  0.14147343886E+03  0.14556223528E+03  0.47000000000E+01 0. -1.
         -5    1    1    2    0  502 -0.59540920378E+02  0.39339493832E+02 -0.31680167611E+01  0.71588010900E+02  0.47000000000E+01 0.  1.
        -11    1    1    2    0    0 -0.91863877665E+01 -0.21901906656E+02  0.75477581738E+02  0.79126156107E+02  0.00000000000E+00 0.  1.
         11    1    1    2    0    0  0.52907082586E+02  0.12583420480E+02  0.14552428886E+02  0.56296314668E+02  0.00000000000E+00 0. -1.
<mgrwt>
<rscale>  0 0.14760101E+03</rscale>
<asrwt>0</asrwt>
<pdfrwt beam="1">  1        2 0.44685241E-01 0.16740920E+03</pdfrwt>
<pdfrwt beam="2">  1       -2 0.95567143E-02 0.16740920E+03</pdfrwt>
<totfact> 0.77881430E+03</totfact>
</mgrwt>
</event>
<event>
 7    1  0.6008063E-006  0.1372263E+03  0.7546771E-02  0.1224507E+00
          1   -1    0    0  501    0  0.00000000000E+00  0.00000000000E+00  0.35976849989E+03  0.35976849989E+03  0.00000000000E+00 0. -1.
         -1   -1    0    0    0  501 -0.00000000000E+00 -0.00000000000E+00 -0.53322631327E+02  0.53322631327E+02  0.00000000000E+00 0.  1.
         23    2    1    2    0    0  0.66815604319E+02 -0.35925797779E+02  0.24418785686E+03  0.28010491689E+03  0.11435063228E+03 0.  0.
          5    1    3    3  502    0  0.86375064279E+02 -0.22033112420E+02  0.23898272219E+03  0.25510966520E+03  0.47000000000E+01 0. -1.
         -5    1    3    3    0  502 -0.19559459960E+02 -0.13892685359E+02  0.52051346703E+01  0.24995251696E+02  0.47000000000E+01 0.  1.
        -11    1    1    2    0    0 -0.39325705802E+02  0.71763901985E+01 -0.17670832524E+02  0.43706636054E+02  0.00000000000E+00 0.  1.
         11    1    1    2    0    0 -0.27489898517E+02  0.28749407580E+02  0.79928844228E+02  0.89279578272E+02  0.00000000000E+00 0. -1.
<mgrwt>
<rscale>  0 0.13200773E+03</rscale>
<asrwt>0</asrwt>
<pdfrwt beam="1">  1        1 0.55348998E-01 0.13722629E+03</pdfrwt>
<pdfrwt beam="2">  1       -1 0.82034820E-02 0.13722629E+03</pdfrwt>
<totfact> 0.55199839E+03</totfact>
</mgrwt>
</event>
<event>
 7    1  0.6008063E-006  0.1393845E+03  0.7546771E-02  0.1225399E+00
         -1   -1    0    0    0  501 -0.00000000000E+00  0.00000000000E+00  0.30015342304E+03  0.30015342304E+03  0.00000000000E+00 0.  1.
          1   -1    0    0  501    0  0.00000000000E+00 -0.00000000000E+00 -0.63707506604E+02  0.63707506604E+02  0.00000000000E+00 0. -1.
         23    2    1    2    0    0  0.53207344298E+02 -0.31222707116E+02  0.51415802571E+02  0.14856517676E+03  0.12498859174E+03 0.  0.
          5    1    3    3  502    0  0.87677631644E+02 -0.47944167139E+02  0.30096015646E+02  0.10446947119E+03  0.47000000000E+01 0.  1.
         -5    1    3    3    0  502 -0.34470287346E+02  0.16721460023E+02  0.21319786925E+02  0.44095705568E+02  0.47000000000E+01 0.  1.
        -11    1    1    2    0    0  0.13482936796E+01  0.29649785180E+02  0.90244190456E+01  0.31022053384E+02  0.00000000000E+00 0. -1.
         11    1    1    2    0    0 -0.54555637978E+02  0.15729219367E+01  0.17600569482E+03  0.18427369950E+03  0.00000000000E+00 0.  1.
<mgrwt>
<rscale>  0 0.13139571E+03</rscale>
<asrwt>0</asrwt>
<pdfrwt beam="2">  1        1 0.98011551E-02 0.13938446E+03</pdfrwt>
<pdfrwt beam="1">  1       -1 0.46177449E-01 0.13938446E+03</pdfrwt>
<totfact> 0.30292027E+03</totfact>
</mgrwt>
</event>
<event>
 7    1  0.6008063E-006  0.1796301E+03  0.7546771E-02  0.1175162E+00
         -1   -1    0    0    0  501 -0.00000000000E+00  0.00000000000E+00  0.21175216794E+03  0.21175216794E+03  0.00000000000E+00 0.  1.
          1   -1    0    0  501    0  0.00000000000E+00 -0.00000000000E+00 -0.15437080033E+03  0.15437080033E+03  0.00000000000E+00 0. -1.
         23    2    1    2    0    0 -0.12620799558E+03  0.26642057702E+02 -0.40828456980E+02  0.18421163207E+03  0.12501481953E+03 0.  0.
          5    1    3    3  502    0 -0.12667737504E+03  0.50858591489E+01  0.11533306448E+02  0.12738967960E+03  0.47000000000E+01 0. -1.
         -5    1    3    3    0  502  0.46937946208E+00  0.21556198553E+02 -0.52361763428E+02  0.56821952469E+02  0.47000000000E+01 0. -1.
        -11    1    1    2    0    0  0.67002838160E+02 -0.45827140582E+02  0.86424349065E+02  0.11856928458E+03  0.00000000000E+00 0.  1.
         11    1    1    2    0    0  0.59205157419E+02  0.19185082880E+02  0.11785475529E+02  0.63342051621E+02  0.00000000000E+00 0. -1.
<mgrwt>
<rscale>  0 0.17260135E+03</rscale>
<asrwt>0</asrwt>
<pdfrwt beam="2">  1        1 0.23749354E-01 0.17963007E+03</pdfrwt>
<pdfrwt beam="1">  1       -1 0.32577257E-01 0.17963007E+03</pdfrwt>
<totfact> 0.17872329E+03</totfact>
</mgrwt>
</event>
<event>
 7    1  0.6008063E-006  0.1325418E+03  0.7546771E-02  0.1236276E+00
         -2   -1    0    0    0  501 -0.00000000000E+00  0.00000000000E+00  0.39265482502E+02  0.39265482502E+02  0.00000000000E+00 0. -1.
          2   -1    0    0  501    0  0.00000000000E+00 -0.00000000000E+00 -0.36865610466E+03  0.36865610466E+03  0.00000000000E+00 0.  1.
         23    2    1    2    0    0 -0.41593821829E+02 -0.14687153708E+02 -0.22901826261E+03  0.26460670094E+03  0.12498633155E+03 0.  0.
          5    1    3    3  502    0 -0.78595392002E+02 -0.18587794465E+02 -0.91820787799E+02  0.12237601407E+03  0.47000000000E+01 0.  1.
         -5    1    3    3    0  502  0.37001570172E+02  0.39006407569E+01 -0.13719747481E+03  0.14223068687E+03  0.47000000000E+01 0.  1.
        -11    1    1    2    0    0  0.60931570195E+02  0.28582472720E+02 -0.39704863532E+02  0.78141475424E+02  0.00000000000E+00 0. -1.
         11    1    1    2    0    0 -0.19337748366E+02 -0.13895319012E+02 -0.60667496016E+02  0.65173410798E+02  0.00000000000E+00 0.  1.
<mgrwt>
<rscale>  0 0.12423095E+03</rscale>
<asrwt>0</asrwt>
<pdfrwt beam="2">  1        2 0.56716323E-01 0.13254185E+03</pdfrwt>
<pdfrwt beam="1">  1       -2 0.60408435E-02 0.13254185E+03</pdfrwt>
<totfact> 0.12064251E+04</totfact>
</mgrwt>
</event>
<event>
 7    1  0.6008063E-006  0.1270759E+03  0.7546771E-02  0.1246957E+00
          3   -1    0    0  501    0  0.00000000000E+00  0.00000000000E+00  0.48915679354E+02  0.48915679354E+02  0.00000000000E+00 0. -1.
         -3   -1    0    0    0  501 -0.00000000000E+00 -0.00000000000E+00 -0.28005710830E+03  0.28005710830E+03  0.00000000000E+00 0.  1.
         23    2    1    2    0    0  0.22881345691E+02  0.39890868403E+00 -0.76673569139E+02  0.14841534360E+03  0.12499825160E+03 0.  0.
          5    1    3    3  502    0 -0.21131355673E+01 -0.18752484418E+02 -0.10440098053E+03  0.10619687260E+03  0.47000000000E+01 0.  1.
         -5    1    3    3    0  502  0.24994481259E+02  0.19151393102E+02  0.27727411393E+02  0.42218471001E+02  0.47000000000E+01 0.  1.
        -11    1    1    2    0    0 -0.48028192885E+01 -0.22262152572E+02  0.73189424406E+00  0.22786096187E+02  0.00000000000E+00 0. -1.
         11    1    1    2    0    0 -0.18078526403E+02  0.21863243888E+02 -0.15519975405E+03  0.15777134786E+03  0.00000000000E+00 0.  1.
<mgrwt>
<rscale>  0 0.11769023E+03</rscale>
<asrwt>0</asrwt>
<pdfrwt beam="1">  1        3 0.75254893E-02 0.12707588E+03</pdfrwt>
<pdfrwt beam="2">  1       -3 0.43085708E-01 0.12707588E+03</pdfrwt>
<totfact> 0.14398468E+03</totfact>
</mgrwt>
</event>
<event>
 7    1  0.6008063E-006  0.1364506E+03  0.7546771E-02  0.1233547E+00
         -2   -1    0    0    0  501 -0.00000000000E+00  0.00000000000E+00  0.77937511445E+02  0.77937511445E+02  0.00000000000E+00 0.  1.
          2   -1    0    0  501    0  0.00000000000E+00 -0.00000000000E+00 -0.23388737948E+03  0.23388737948E+03  0.00000000000E+00 0. -1.
         23    2    1    2    0    0 -0.33376864700E+02  0.43350768472E+02 -0.16282859757E+03  0.21244271829E+03  0.12500180856E+03 0.  0.
          5    1    3    3  502    0 -0.62493203189E+02 -0.13910805505E+02 -0.45795575392E+02  0.78855790403E+02  0.47000000000E+01 0. -1.
         -5    1    3    3    0  502  0.29116338489E+02  0.57261573976E+02 -0.11703302218E+03  0.13358692788E+03  0.47000000000E+01 0. -1.
        -11    1    1    2    0    0  0.42065581197E+02 -0.57467302869E+02 -0.14145543723E+02  0.72609231009E+02  0.00000000000E+00 0.  1.
         11    1    1    2    0    0 -0.86887164973E+01  0.14116534397E+02  0.21024273255E+02  0.26772941632E+02  0.00000000000E+00 0. -1.
<mgrwt>
<rscale>  0 0.12597893E+03</rscale>
<asrwt>0</asrwt>
<pdfrwt beam="2">  1        2 0.35982673E-01 0.13645056E+03</pdfrwt>
<pdfrwt beam="1">  1       -2 0.11990387E-01 0.13645056E+03</pdfrwt>
<totfact> 0.67593387E+03</totfact>
</mgrwt>
</event>
<event>
 7    1  0.6008063E-006  0.1349695E+03  0.7546771E-02  0.1232796E+00
          1   -1    0    0  501    0  0.00000000000E+00  0.00000000000E+00  0.25610749077E+02  0.25610749077E+02  0.00000000000E+00 0. -1.
         -1   -1    0    0    0  501 -0.00000000000E+00 -0.00000000000E+00 -0.60983918034E+03  0.60983918034E+03  0.00000000000E+00 0.  1.
         23    2    1    2    0    0 -0.34784544237E+02  0.37183459546E+02 -0.23442336332E+03  0.27050151231E+03  0.12499672279E+03 0.  0.
          5    1    3    3  502    0 -0.34173494655E+02 -0.36235573484E+02 -0.44991414182E+02  0.67284187390E+02  0.47000000000E+01 0.  1.
         -5    1    3    3    0  502 -0.61104958155E+00  0.73419033030E+02 -0.18943194914E+03  0.20321732492E+03  0.47000000000E+01 0.  1.
        -11    1    1    2    0    0 -0.21461411388E+02 -0.42282112306E+02 -0.16924595573E+03  0.17576280247E+03  0.00000000000E+00 0.  1.
         11    1    1    2    0    0  0.56245955624E+02  0.50986527604E+01 -0.18055911221E+03  0.18918561464E+03  0.00000000000E+00 0. -1.
<mgrwt>
<rscale>  0 0.12646604E+03</rscale>
<asrwt>0</asrwt>
<pdfrwt beam="1">  1        1 0.39401154E-02 0.13496946E+03</pdfrwt>
<pdfrwt beam="2">  1       -1 0.93821409E-01 0.13496946E+03</pdfrwt>
<totfact> 0.26037001E+03</totfact>
</mgrwt>
</event>
<event>
 7    1  0.6008063E-006  0.1491128E+03  0.7546771E-02  0.1210384E+00
          2   -1    0    0  501    0  0.00000000000E+00  0.00000000000E+00  0.14185417612E+04  0.14185417612E+04  0.00000000000E+00 0. -1.
         -2   -1    0    0    0  501 -0.00000000000E+00 -0.00000000000E+00 -0.14402788650E+02  0.14402788650E+02  0.00000000000E+00 0.  1.
         23    2    1    2    0    0 -0.66349990231E+02 -0.46979573477E+02  0.97821109431E+03  0.98951077186E+03  0.12500088428E+03 0.  0.
          5    1    3    3  502    0 -0.57848405596E+02  0.45808862126E+01  0.17184023413E+03  0.18143477785E+03  0.47000000000E+01 0. -1.
         -5    1    3    3    0  502 -0.85015846351E+01 -0.51560459690E+02  0.80637086019E+03  0.80807599401E+03  0.47000000000E+01 0. -1.
        -11    1    1    2    0    0  0.14963805931E+02  0.65938469169E+02  0.20724745621E+03  0.21799840667E+03  0.00000000000E+00 0.  1.
         11    1    1    2    0    0  0.51386184301E+02 -0.18958895692E+02  0.21868042201E+03  0.22543537130E+03  0.00000000000E+00 0. -1.
<mgrwt>
<rscale>  0 0.14221136E+03</rscale>
<asrwt>0</asrwt>
<pdfrwt beam="1">  1        2 0.21823708E+00 0.14911278E+03</pdfrwt>
<pdfrwt beam="2">  1       -2 0.22158148E-02 0.14911278E+03</pdfrwt>
<totfact> 0.98108249E+03</totfact>
</mgrwt>
</event>
<event>
 7    1  0.6008063E-006  0.1304562E+03  0.7546771E-02  0.1244497E+00
         -1   -1    0    0    0  501 -0.00000000000E+00  0.00000000000E+00  0.22917361816E+02  0.22917361816E+02  0.00000000000E+00 0.  1.
          1   -1    0    0  501    0  0.00000000000E+00 -0.00000000000E+00 -0.53439888420E+03  0.53439888420E+03  0.00000000000E+00 0. -1.
         23    2    1    2    0    0  0.36275537516E+02  0.88591546726E+01 -0.30900949828E+03  0.33541868213E+03  0.12499769217E+03 0.  0.
          5    1    3    3  502    0  0.21956632939E+02 -0.43384208825E+02 -0.46868959036E+02  0.67698394564E+02  0.47000000000E+01 0. -1.
         -5    1    3    3    0  502  0.14318904577E+02  0.52243363497E+02 -0.26214053925E+03  0.26772028757E+03  0.47000000000E+01 0. -1.
        -11    1    1    2    0    0 -0.38958123730E+02  0.11143486886E+02 -0.19680804696E+03  0.20093610938E+03  0.00000000000E+00 0. -1.
         11    1    1    2    0    0  0.26825862135E+01 -0.20002641559E+02 -0.56639771447E+01  0.20961454511E+02  0.00000000000E+00 0.  1.
<mgrwt>
<rscale>  0 0.11915526E+03</rscale>
<asrwt>0</asrwt>
<pdfrwt beam="2">  1        1 0.82215214E-01 0.13045621E+03</pdfrwt>
<pdfrwt beam="1">  1       -1 0.35257479E-02 0.13045621E+03</pdfrwt>
<totfact> 0.11614793E+04</totfact>
</mgrwt>
</event>
<event>
 7    1  0.6008063E-006  0.1458478E+03  0.7546771E-02  0.1210833E+00
          1   -1    0    0  501    0  0.00000000000E+00  0.00000000000E+00  0.11077494102E+04  0.11077494102E+04  0.00000000000E+00 0. -1.
         -1   -1    0    0    0  501 -0.00000000000E+00 -0.00000000000E+00 -0.17999135528E+02  0.17999135528E+02  0.00000000000E+00 0.  1.
         23    2    1    2    0    0  0.57142913206E+02  0.48798377297E+02  0.68875001495E+03  0.70402284006E+03  0.12499992832E+03 0.  0.
          5    1    3    3  502    0 -0.29457811419E+01  0.48819156670E+01 -0.32096346327E+01  0.80562076433E+01  0.47000000000E+01 0. -1.
         -5    1    3    3    0  502  0.60088694348E+02  0.43916461630E+02  0.69195964958E+03  0.69596663242E+03  0.47000000000E+01 0. -1.
        -11    1    1    2    0    0 -0.30286000700E+02  0.25924901893E+02  0.22686765695E+03  0.23034382159E+03  0.00000000000E+00 0. -1.
         11    1    1    2    0    0 -0.26856912506E+02 -0.74723279190E+02  0.17413260277E+03  0.19138188407E+03  0.00000000000E+00 0.  1.
<mgrwt>
<rscale>  0 0.14187137E+03</rscale>
<asrwt>0</asrwt>
<pdfrwt beam="1">  1        1 0.17042293E+00 0.14584778E+03</pdfrwt>
<pdfrwt beam="2">  1       -1 0.27690986E-02 0.14584778E+03</pdfrwt>
<totfact> 0.55380876E+03</totfact>
</mgrwt>
</event>
<event>
 7    1  0.6008063E-006  0.1591065E+03  0.7546771E-02  0.1197643E+00
          2   -1    0    0  501    0  0.00000000000E+00  0.00000000000E+00  0.96428498799E+03  0.96428498799E+03  0.00000000000E+00 0.  1.
         -2   -1    0    0    0  501 -0.00000000000E+00 -0.00000000000E+00 -0.22587756410E+02  0.22587756410E+02  0.00000000000E+00 0. -1.
         23    2    1    2    0    0 -0.97707240627E+02  0.12013626564E+02  0.57351802573E+03  0.59517880644E+03  0.12499541469E+03 0.  0.
          5    1    3    3  502    0  0.14595437534E+02  0.22285178314E+02  0.27003518260E+03  0.27138670898E+03  0.47000000000E+01 0.  1.
         -5    1    3    3    0  502 -0.11230267816E+03 -0.10271551750E+02  0.30348284314E+03  0.32379209746E+03  0.47000000000E+01 0.  1.
        -11    1    1    2    0    0  0.84528791883E+02  0.29747810781E+02  0.25875228249E+03  0.27382986067E+03  0.00000000000E+00 0. -1.
         11    1    1    2    0    0  0.13178448744E+02 -0.41761437346E+02  0.10942692336E+03  0.11786407729E+03  0.00000000000E+00 0.  1.
<mgrwt>
<rscale>  0 0.15232673E+03</rscale>
<asrwt>0</asrwt>
<pdfrwt beam="1">  1        2 0.14835150E+00 0.15910652E+03</pdfrwt>
<pdfrwt beam="2">  1       -2 0.34750402E-02 0.15910652E+03</pdfrwt>
<totfact> 0.91398314E+03</totfact>
</mgrwt>
</event>
<event>
 7    1  0.6008063E-006  0.1536281E+03  0.7546771E-02  0.1204429E+00
          2   -1    0    0  501    0  0.00000000000E+00  0.00000000000E+00  0.86489577568E+03  0.86489577568E+03  0.00000000000E+00 0. -1.
         -2   -1    0    0    0  501 -0.00000000000E+00 -0.00000000000E+00 -0.24588752562E+02  0.24588752562E+02  0.00000000000E+00 0.  1.
         23    2    1    2    0    0 -0.88255873460E+02 -0.13730650727E+02  0.56982367593E+03  0.59016999559E+03  0.12499588825E+03 0.  0.
          5    1    3    3  502    0  0.65418921889E+01 -0.47114802948E+02  0.26187639671E+03  0.26620281397E+03  0.47000000000E+01 0.  1.
         -5    1    3    3    0  502 -0.94797765649E+02  0.33384152221E+02  0.30794727922E+03  0.32396718162E+03  0.47000000000E+01 0.  1.
        -11    1    1    2    0    0  0.69328218664E+02  0.50399420219E+02  0.16258584956E+03  0.18379516299E+03  0.00000000000E+00 0.  1.
         11    1    1    2    0    0  0.18927654796E+02 -0.36668769492E+02  0.10789749763E+03  0.11551936966E+03  0.00000000000E+00 0. -1.
<mgrwt>
<rscale>  0 0.14682533E+03</rscale>
<asrwt>0</asrwt>
<pdfrwt beam="1">  1        2 0.13306086E+00 0.15362813E+03</pdfrwt>
<pdfrwt beam="2">  1       -2 0.37828857E-02 0.15362813E+03</pdfrwt>
<totfact> 0.92882215E+03</totfact>
</mgrwt>
</event>
<event>
 7    1  0.6008063E-006  0.1564644E+03  0.7546771E-02  0.1200760E+00
          2   -1    0    0  501    0  0.00000000000E+00  0.00000000000E+00  0.88614025099E+03  0.88614025099E+03  0.00000000000E+00 0.  1.
         -2   -1    0    0    0  501 -0.00000000000E+00 -0.00000000000E+00 -0.23613097901E+02  0.23613097901E+02  0.00000000000E+00 0. -1.
         23    2    1    2    0    0 -0.88258600429E+02  0.32640134406E+02  0.51453680079E+03  0.53780035586E+03  0.12500457778E+03 0.  0.
          5    1    3    3  502    0 -0.85198342135E+02 -0.55478691611E+01  0.16222856583E+03  0.18338411580E+03  0.47000000000E+01 0. -1.
         -5    1    3    3    0  502 -0.30602582941E+01  0.38188003567E+02  0.35230823496E+03  0.35441624006E+03  0.47000000000E+01 0. -1.
        -11    1    1    2    0    0 -0.16685491708E+02 -0.89870767502E+01  0.24065877297E+02  0.30632329851E+02  0.00000000000E+00 0. -1.
         11    1    1    2    0    0  0.10494409214E+03 -0.23653057656E+02  0.32392447500E+03  0.34132066318E+03  0.00000000000E+00 0.  1.
<mgrwt>
<rscale>  0 0.14976687E+03</rscale>
<asrwt>0</asrwt>
<pdfrwt beam="1">  1        2 0.13632924E+00 0.15646438E+03</pdfrwt>
<pdfrwt beam="2">  1       -2 0.36327850E-02 0.15646438E+03</pdfrwt>
<totfact> 0.95679732E+03</totfact>
</mgrwt>
</event>
<event>
 7    1  0.6008063E-006  0.1648542E+03  0.7546771E-02  0.1190341E+00
          1   -1    0    0  501    0  0.00000000000E+00  0.00000000000E+00  0.87610398633E+02  0.87610398633E+02  0.00000000000E+00 0. -1.
         -1   -1    0    0    0  501 -0.00000000000E+00 -0.00000000000E+00 -0.26725272069E+03  0.26725272069E+03  0.00000000000E+00 0.  1.
         23    2    1    2    0    0  0.99580242690E+02 -0.40436513214E+02 -0.10183072566E+03  0.19376891358E+03  0.12500223536E+03 0.  0.
          5    1    3    3  502    0  0.49341429595E+02  0.43429042303E+02 -0.30243361974E+02  0.72507994961E+02  0.47000000000E+01 0.  1.
         -5    1    3    3    0  502  0.50238813095E+02 -0.83865555517E+02 -0.71587363689E+02  0.12126091861E+03  0.47000000000E+01 0.  1.
        -11    1    1    2    0    0 -0.95184579155E+02 -0.17667182269E+01 -0.69463980524E+02  0.11784935296E+03  0.00000000000E+00 0.  1.
         11    1    1    2    0    0 -0.43956635350E+01  0.42203231441E+02 -0.83476158678E+01  0.43244852787E+02  0.00000000000E+00 0. -1.
<mgrwt>
<rscale>  0 0.15855231E+03</rscale>
<asrwt>0</asrwt>
<pdfrwt beam="1">  1        1 0.13478523E-01 0.16485416E+03</pdfrwt>
<pdfrwt beam="2">  1       -1 0.41115803E-01 0.16485416E+03</pdfrwt>
<totfact> 0.24670765E+03</totfact>
</mgrwt>
</event>
<event>
 7    1  0.6008063E-006  0.1335837E+03  0.7546771E-02  0.1234868E+00
         -1   -1    0    0    0  501 -0.00000000000E+00  0.00000000000E+00  0.15543094488E+03  0.15543094488E+03  0.00000000000E+00 0.  1.
          1   -1    0    0  501    0  0.00000000000E+00 -0.00000000000E+00 -0.91996407213E+02  0.91996407213E+02  0.00000000000E+00 0. -1.
         23    2    1    2    0    0  0.45081032777E+02 -0.13599068854E+02  0.17259485885E+02  0.13469409701E+03  0.12500950254E+03 0.  0.
          5    1    3    3  502    0 -0.99661783127E+01 -0.22052912321E+02  0.59651830221E+02  0.64545228334E+02  0.47000000000E+01 0.  1.
         -5    1    3    3    0  502  0.55047211090E+02  0.84538434679E+01 -0.42392344336E+02  0.70148868675E+02  0.47000000000E+01 0.  1.
        -11    1    1    2    0    0 -0.20302943494E+02 -0.11533192927E+02 -0.24432797990E+02  0.33796237531E+02  0.00000000000E+00 0. -1.
         11    1    1    2    0    0 -0.24778089283E+02  0.25132261781E+02  0.70607849774E+02  0.78937017554E+02  0.00000000000E+00 0.  1.
<mgrwt>
<rscale>  0 0.12512920E+03</rscale>
<asrwt>0</asrwt>
<pdfrwt beam="2">  1        1 0.14153293E-01 0.13358372E+03</pdfrwt>
<pdfrwt beam="1">  1       -1 0.23912453E-01 0.13358372E+03</pdfrwt>
<totfact> 0.57373677E+03</totfact>
</mgrwt>
</event>
<event>
 7    1  0.6008063E-006  0.1328386E+03  0.7546771E-02  0.1236827E+00
         -1   -1    0    0    0  501 -0.00000000000E+00  0.00000000000E+00  0.13128506600E+02  0.13128506600E+02  0.00000000000E+00 0.  1.
          1   -1    0    0  501    0  0.00000000000E+00 -0.00000000000E+00 -0.10436748730E+04  0.10436748730E+04  0.00000000000E+00 0. -1.
         23    2    1    2    0    0 -0.27432076422E+02  0.35618986304E+02 -0.62941438877E+03  0.64327953046E+03  0.12499940203E+03 0.  0.
          5    1    3    3  502    0 -0.97432196085E+01 -0.95202041573E+01 -0.54951324272E+03  0.54970215439E+03  0.47000000000E+01 0. -1.
         -5    1    3    3    0  502 -0.17688856813E+02  0.45139190461E+02 -0.79901146051E+02  0.93577376064E+02  0.47000000000E+01 0. -1.
        -11    1    1    2    0    0  0.50390098701E+02 -0.51619162723E+02 -0.27281093632E+03  0.28218700711E+03  0.00000000000E+00 0.  1.
         11    1    1    2    0    0 -0.22958022280E+02  0.16000176419E+02 -0.12832104128E+03  0.13133684201E+03  0.00000000000E+00 0. -1.
<mgrwt>
<rscale>  0 0.12388165E+03</rscale>
<asrwt>0</asrwt>
<pdfrwt beam="2">  1        1 0.16056539E+00 0.13283855E+03</pdfrwt>
<pdfrwt beam="1">  1       -1 0.20197699E-02 0.13283855E+03</pdfrwt>
<totfact> 0.96727576E+03</totfact>
</mgrwt>
</event>
<event>
 6    1  0.6008063E-006  0.1716619E+03  0.7546771E-02  0.1205029E+00
          1   -1    0    0  501    0  0.00000000000E+00  0.00000000000E+00  0.84842094752E+03  0.84842094752E+03  0.00000000000E+00 0. -1.
         -1   -1    0    0    0  501 -0.00000000000E+00 -0.00000000000E+00 -0.22781525225E+02  0.22781525225E+02  0.00000000000E+00 0.  1.
          5    1    1    2  502    0 -0.12090143250E+02 -0.43021362510E+02  0.54773233613E+02  0.70846357115E+02  0.47000000000E+01 0. -1.
         -5    1    1    2    0  502  0.24116030320E+02  0.80229492981E+02  0.60951986226E+03  0.61526815857E+03  0.47000000000E+01 0.  1.
        -11    1    1    2    0    0 -0.26143267566E+02  0.25542316774E+01  0.10226610658E+02  0.28188261813E+02  0.00000000000E+00 0.  1.
         11    1    1    2    0    0  0.14117380496E+02 -0.39762362148E+02  0.15111971576E+03  0.15689969524E+03  0.00000000000E+00 0. -1.
<mgrwt>
<rscale>  0 0.14635140E+03</rscale>
<asrwt>0</asrwt>
<pdfrwt beam="1">  1        1 0.13052627E+00 0.17166191E+03</pdfrwt>
<pdfrwt beam="2">  1       -1 0.35048507E-02 0.17166191E+03</pdfrwt>
<totfact> 0.61660545E+03</totfact>
</mgrwt>
</event>
<event>
 7    1  0.6008063E-006  0.1295136E+03  0.7546771E-02  0.1241451E+00
         -2   -1    0    0    0  501 -0.00000000000E+00  0.00000000000E+00  0.10438554512E+03  0.10438554512E+03  0.00000000000E+00 0.  1.
          2   -1    0    0  501    0  0.00000000000E+00 -0.00000000000E+00 -0.13129124652E+03  0.13129124652E+03  0.00000000000E+00 0. -1.
         23    2    1    2    0    0  0.17817356281E+02  0.28864258517E+02 -0.41320792989E+02  0.13594548920E+03  0.12499265777E+03 0.  0.
          5    1    3    3  502    0 -0.43474150622E+02 -0.44124970594E+01 -0.48767660023E+02  0.65649421679E+02  0.47000000000E+01 0.  1.
         -5    1    3    3    0  502  0.61291506903E+02  0.33276755576E+02  0.74468670340E+01  0.70296067520E+02  0.47000000000E+01 0.  1.
        -11    1    1    2    0    0 -0.66420245108E+01 -0.20089151682E+02  0.53827019184E+02  0.57836307793E+02  0.00000000000E+00 0.  1.
         11    1    1    2    0    0 -0.11175331770E+02 -0.87751068347E+01 -0.39411927597E+02  0.41894994653E+02  0.00000000000E+00 0. -1.
<mgrwt>
<rscale>  0 0.12100358E+03</rscale>
<asrwt>0</asrwt>
<pdfrwt beam="2">  1        2 0.20198653E-01 0.12951358E+03</pdfrwt>
<pdfrwt beam="1">  1       -2 0.16059315E-01 0.12951358E+03</pdfrwt>
<totfact> 0.78956217E+03</totfact>
</mgrwt>
</event>
<event>
 7    1  0.6008063E-006  0.1396351E+03  0.7546771E-02  0.1225059E+00
          1   -1    0    0  501    0  0.00000000000E+00  0.00000000000E+00  0.66105471367E+03  0.66105471367E+03  0.00000000000E+00 0. -1.
         -1   -1    0    0    0  501 -0.00000000000E+00 -0.00000000000E+00 -0.52548680728E+02  0.52548680728E+02  0.00000000000E+00 0.  1.
         23    2    1    2    0    0  0.12291910267E+02 -0.61034001820E+02  0.58425422531E+03  0.60070871692E+03  0.12498688872E+03 0.  0.
          5    1    3    3  502    0 -0.14291589166E+02  0.87139937513E+01  0.41851818867E+03  0.41887915615E+03  0.47000000000E+01 0.  1.
         -5    1    3    3    0  502  0.26583499433E+02 -0.69747995571E+02  0.16573603665E+03  0.18182956077E+03  0.47000000000E+01 0.  1.
        -11    1    1    2    0    0  0.27510417685E+01  0.37650786323E+02  0.57977950777E+02  0.69185205917E+02  0.00000000000E+00 0. -1.
         11    1    1    2    0    0 -0.15042952035E+02  0.23383215497E+02 -0.33726143145E+02  0.43709471564E+02  0.00000000000E+00 0.  1.
<mgrwt>
<rscale>  0 0.13162838E+03</rscale>
<asrwt>0</asrwt>
<pdfrwt beam="1">  1        1 0.10170072E+00 0.13963511E+03</pdfrwt>
<pdfrwt beam="2">  1       -1 0.80844129E-02 0.13963511E+03</pdfrwt>
<totfact> 0.25486008E+03</totfact>
</mgrwt>
</event>
<event>
 7    1  0.6008063E-006  0.1297825E+03  0.7546771E-02  0.1242946E+00
          2   -1    0    0  501    0  0.00000000000E+00  0.00000000000E+00  0.44048473217E+03  0.44048473217E+03  0.00000000000E+00 0. -1.
         -2   -1    0    0    0  501 -0.00000000000E+00 -0.00000000000E+00 -0.65182349244E+02  0.65182349244E+02  0.00000000000E+00 0.  1.
         23    2    1    2    0    0  0.34652556438E+02  0.42206538918E+01  0.38850359763E+03  0.40960780573E+03  0.12499958223E+03 0.  0.
          5    1    3    3  502    0 -0.38701614514E+02  0.67968394944E+01  0.53043319191E+02  0.66179269442E+02  0.47000000000E+01 0. -1.
         -5    1    3    3    0  502  0.73354170952E+02 -0.25761856027E+01  0.33546027844E+03  0.34342853629E+03  0.47000000000E+01 0. -1.
        -11    1    1    2    0    0 -0.13251091728E+02 -0.43047356766E+02 -0.23121259394E+02  0.50628638066E+02  0.00000000000E+00 0.  1.
         11    1    1    2    0    0 -0.21401464710E+02  0.38826702874E+02  0.99200446943E+01  0.45430637620E+02  0.00000000000E+00 0. -1.
<mgrwt>
<rscale>  0 0.12009141E+03</rscale>
<asrwt>0</asrwt>
<pdfrwt beam="1">  1        2 0.67766880E-01 0.12978255E+03</pdfrwt>
<pdfrwt beam="2">  1       -2 0.10028054E-01 0.12978255E+03</pdfrwt>
<totfact> 0.45610383E+03</totfact>
</mgrwt>
</event>
<event>
 7    1  0.6008063E-006  0.1732040E+03  0.7546771E-02  0.1180812E+00
          1   -1    0    0  501    0  0.00000000000E+00  0.00000000000E+00  0.61003494116E+03  0.61003494116E+03  0.00000000000E+00 0. -1.
         -1   -1    0    0    0  501 -0.00000000000E+00 -0.00000000000E+00 -0.43949304753E+02  0.43949304753E+02  0.00000000000E+00 0.  1.
         23    2    1    2    0    0  0.11959248544E+03  0.83864826039E+01  0.35278570767E+03  0.39301065883E+03  0.12500770680E+03 0.  0.
          5    1    3    3  502    0 -0.25620790448E+02  0.10001843555E+02  0.55965995217E+02  0.62535944850E+02  0.47000000000E+01 0. -1.
         -5    1    3    3    0  502  0.14521327589E+03 -0.16153609507E+01  0.29681971245E+03  0.33047471398E+03  0.47000000000E+01 0. -1.
        -11    1    1    2    0    0 -0.54241861734E+02 -0.46027110557E+02  0.13288157738E+03  0.15072553890E+03  0.00000000000E+00 0.  1.
         11    1    1    2    0    0 -0.65350623703E+02  0.37640627953E+02  0.80418351358E+02  0.11024804817E+03  0.00000000000E+00 0. -1.
<mgrwt>
<rscale>  0 0.16718867E+03</rscale>
<asrwt>0</asrwt>
<pdfrwt beam="1">  1        1 0.93851523E-01 0.17320399E+03</pdfrwt>
<pdfrwt beam="2">  1       -1 0.67614319E-02 0.17320399E+03</pdfrwt>
<totfact> 0.37584747E+03</totfact>
</mgrwt>
</event>
<event>
 7    1  0.6008063E-006  0.1817303E+03  0.7546771E-02  0.1171714E+00
          2   -1    0    0  501    0  0.00000000000E+00  0.00000000000E+00  0.48621847735E+02  0.48621847735E+02  0.00000000000E+00 0. -1.
         -2   -1    0    0    0  501 -0.00000000000E+00 -0.00000000000E+00 -0.60728669859E+03  0.60728669859E+03  0.00000000000E+00 0.  1.
         23    2    1    2    0    0  0.59983432574E+02  0.11755779820E+03 -0.33226595694E+03  0.37871699665E+03  0.12493217884E+03 0.  0.
          5    1    3    3  502    0 -0.37473191662E+02  0.23789378474E+02 -0.61175682823E+02  0.75727992119E+02  0.47000000000E+01 0. -1.
         -5    1    3    3    0  502  0.97456624236E+02  0.93768419724E+02 -0.27109027412E+03  0.30298900453E+03  0.47000000000E+01 0. -1.
        -11    1    1    2    0    0 -0.81657439264E+02 -0.95980994579E+02 -0.20192727280E+03  0.23802292370E+03  0.00000000000E+00 0.  1.
         11    1    1    2    0    0  0.21674006690E+02 -0.21576803619E+02 -0.24471621108E+02  0.39168625967E+02  0.00000000000E+00 0. -1.
<mgrwt>
<rscale>  0 0.17601727E+03</rscale>
<asrwt>0</asrwt>
<pdfrwt beam="1">  1        2 0.74802845E-02 0.18173029E+03</pdfrwt>
<pdfrwt beam="2">  1       -2 0.93428719E-01 0.18173029E+03</pdfrwt>
<totfact> 0.91752949E+02</totfact>
</mgrwt>
</event>
<event>
 7    1  0.6008063E-006  0.1623840E+03  0.7546771E-02  0.1193586E+00
          3   -1    0    0  501    0  0.00000000000E+00  0.00000000000E+00  0.98532929603E+02  0.98532929603E+02  0.00000000000E+00 0.  1.
         -3   -1    0    0    0  501 -0.00000000000E+00 -0.00000000000E+00 -0.22899575683E+03  0.22899575683E+03  0.00000000000E+00 0. -1.
         23    2    1    2    0    0 -0.10033004991E+03  0.26042674343E+02 -0.60112652514E+02  0.17315336817E+03  0.12499687242E+03 0.  0.
          5    1    3    3  502    0 -0.28567006969E+02 -0.45253205198E+02  0.30401969719E+01  0.53807613452E+02  0.47000000000E+01 0.  1.
         -5    1    3    3    0  502 -0.71763042943E+02  0.71295879541E+02 -0.63152849485E+02  0.11934575472E+03  0.47000000000E+01 0.  1.
        -11    1    1    2    0    0  0.64927198676E+02 -0.21495908576E+02 -0.90461432356E+02  0.11340584622E+03  0.00000000000E+00 0. -1.
         11    1    1    2    0    0  0.35402851235E+02 -0.45467657665E+01  0.20111257646E+02  0.40969472033E+02  0.00000000000E+00 0.  1.
<mgrwt>
<rscale>  0 0.15574535E+03</rscale>
<asrwt>0</asrwt>
<pdfrwt beam="1">  1        3 0.15158912E-01 0.16238398E+03</pdfrwt>
<pdfrwt beam="2">  1       -3 0.35230116E-01 0.16238398E+03</pdfrwt>
<totfact> 0.68626733E+02</totfact>
</mgrwt>
</event>
<event>
 6    1  0.6008063E-006  0.1975864E+03  0.7546771E-02  0.1156807E+00
          1   -1    0    0  501    0  0.00000000000E+00  0.00000000000E+00  0.17263294518E+03  0.17263294518E+03  0.00000000000E+00 0. -1.
         -1   -1    0    0    0  501 -0.00000000000E+00 -0.00000000000E+00 -0.31083161860E+03  0.31083161860E+03  0.00000000000E+00 0.  1.
          5    1    1    2  502    0 -0.20677220942E+02  0.58675516460E+02  0.85554354830E+02  0.10588673821E+03  0.47000000000E+01 0. -1.
         -5    1    1    2    0  502 -0.98791814776E+02  0.29502054221E+02 -0.14214469162E+02  0.10418413989E+03  0.47000000000E+01 0.  1.
        -11    1    1    2    0    0  0.99618200474E+02 -0.75483369714E+02 -0.96442589352E+02  0.15786924339E+03  0.00000000000E+00 0.  1.
         11    1    1    2    0    0  0.19850835245E+02 -0.12694200967E+02 -0.11309596973E+03  0.11552444229E+03  0.00000000000E+00 0. -1.
<mgrwt>
<rscale>  0 0.19184614E+03</rscale>
<asrwt>0</asrwt>
<pdfrwt beam="1">  1        1 0.26558915E-01 0.19758642E+03</pdfrwt>
<pdfrwt beam="2">  1       -1 0.47820249E-01 0.19758642E+03</pdfrwt>
<totfact> 0.78946277E+02</totfact>
</mgrwt>
</event>
<event>
 6    1  0.6008063E-006  0.1821734E+03  0.7546771E-02  0.1246902E+00
         -2   -1    0    0    0  501 -0.00000000000E+00  0.00000000000E+00  0.23928449024E+03  0.23928449024E+03  0.00000000000E+00 0.  1.
          2   -1    0    0  501    0  0.00000000000E+00 -0.00000000000E+00 -0.51270765979E+02  0.51270765979E+02  0.00000000000E+00 0. -1.
          5    1    1    2  502    0  0.26443901613E+02 -0.54990692951E+02 -0.82981996477E+01  0.61759261340E+02  0.47000000000E+01 0. -1.
         -5    1    1    2    0  502 -0.29822626871E+02  0.79985029580E+02  0.13627756218E+03  0.16087466546E+03  0.47000000000E+01 0.  1.
        -11    1    1    2    0    0  0.11048978984E+02 -0.18095272687E+02  0.44211123978E+02  0.49032053941E+02  0.00000000000E+00 0.  1.
         11    1    1    2    0    0 -0.76702537267E+01 -0.68990639408E+01  0.15823237742E+02  0.18889275479E+02  0.00000000000E+00 0. -1.
<mgrwt>
<rscale>  0 0.11772262E+03</rscale>
<asrwt>0</asrwt>
<pdfrwt beam="2">  1        2 0.78878103E-02 0.18217340E+03</pdfrwt>
<pdfrwt beam="1">  1       -2 0.36812998E-01 0.18217340E+03</pdfrwt>
<totfact> 0.58525300E+03</totfact>
</mgrwt>
</event>
<event>
 7    1  0.6008063E-006  0.1389900E+03  0.7546771E-02  0.1226179E+00
         -1   -1    0    0    0  501 -0.00000000000E+00  0.00000000000E+00  0.29639806220E+02  0.29639806220E+02  0.00000000000E+00 0.  1.
          1   -1    0    0  501    0  0.00000000000E+00 -0.00000000000E+00 -0.53591691108E+03  0.53591691108E+03  0.00000000000E+00 0. -1.
         23    2    1    2    0    0  0.47835518026E+02  0.37485083493E+02 -0.33145751315E+03  0.35941940626E+03  0.12499943322E+03 0.  0.
          5    1    3    3  502    0 -0.36150883831E+01  0.73681783080E+02 -0.14827862816E+03  0.16568257479E+03  0.47000000000E+01 0. -1.
         -5    1    3    3    0  502  0.51450606409E+02 -0.36196699588E+02 -0.18317888499E+03  0.19373683147E+03  0.47000000000E+01 0. -1.
        -11    1    1    2    0    0 -0.66263170513E+01 -0.46399021090E+02 -0.30826867763E+02  0.56098779059E+02  0.00000000000E+00 0.  1.
         11    1    1    2    0    0 -0.41209200975E+02  0.89139375974E+01 -0.14399272394E+03  0.15003853198E+03  0.00000000000E+00 0. -1.
<mgrwt>
<rscale>  0 0.13086423E+03</rscale>
<asrwt>0</asrwt>
<pdfrwt beam="2">  1        1 0.82448758E-01 0.13899002E+03</pdfrwt>
<pdfrwt beam="1">  1       -1 0.45599700E-02 0.13899002E+03</pdfrwt>
<totfact> 0.79661065E+03</totfact>
</mgrwt>
</event>
<event>
 7    1  0.6008063E-006  0.1494508E+03  0.7546771E-02  0.1210893E+00
          1   -1    0    0  501    0  0.00000000000E+00  0.00000000000E+00  0.12347567435E+04  0.12347567435E+04  0.00000000000E+00 0. -1.
         -1   -1    0    0    0  501 -0.00000000000E+00 -0.00000000000E+00 -0.15485337125E+02  0.15485337125E+02  0.00000000000E+00 0.  1.
         23    2    1    2    0    0 -0.75964388557E+02 -0.30659786979E+02  0.79829355316E+03  0.81216263429E+03  0.12499974661E+03 0.  0.
          5    1    3    3  502    0 -0.75901577935E+02 -0.23379057441E+02  0.22237123136E+03  0.23617511384E+03  0.47000000000E+01 0. -1.
         -5    1    3    3    0  502 -0.62810621514E-01 -0.72807295384E+01  0.57592232179E+03  0.57598752045E+03  0.47000000000E+01 0. -1.
        -11    1    1    2    0    0 -0.16130435951E+02  0.20140679095E+02  0.13533566563E+03  0.13777365608E+03  0.00000000000E+00 0. -1.
         11    1    1    2    0    0  0.92094824507E+02  0.10519107884E+02  0.28564218754E+03  0.30030579021E+03  0.00000000000E+00 0.  1.
<mgrwt>
<rscale>  0 0.14182607E+03</rscale>
<asrwt>0</asrwt>
<pdfrwt beam="1">  1        1 0.18996250E+00 0.14945082E+03</pdfrwt>
<pdfrwt beam="2">  1       -1 0.23823605E-02 0.14945082E+03</pdfrwt>
<totfact> 0.56343894E+03</totfact>
</mgrwt>
</event>
<event>
 7    1  0.6008063E-006  0.3517861E+03  0.7546771E-02  0.1063043E+00
          1   -1    0    0  501    0  0.00000000000E+00  0.00000000000E+00  0.27373532216E+03  0.27373532216E+03  0.00000000000E+00 0. -1.
         -1   -1    0    0    0  501 -0.00000000000E+00 -0.00000000000E+00 -0.44734182270E+03  0.44734182270E+03  0.00000000000E+00 0.  1.
         23    2    1    2    0    0 -0.16249658944E+01  0.32882420169E+03 -0.35657132341E+02  0.35358857041E+03  0.12500179961E+03 0.  0.
          5    1    3    3  502    0 -0.44131135017E+02  0.15667733489E+03  0.27804785318E+02  0.16519848798E+03  0.47000000000E+01 0.  1.
         -5    1    3    3    0  502  0.42506169123E+02  0.17214686680E+03 -0.63461917659E+02  0.18839008242E+03  0.47000000000E+01 0.  1.
        -11    1    1    2    0    0  0.24831231781E+02 -0.12774180834E+03 -0.93523710245E+02  0.16025368654E+03  0.00000000000E+00 0.  1.
         11    1    1    2    0    0 -0.23206265886E+02 -0.20108239334E+03 -0.44425657954E+02  0.20723488793E+03  0.00000000000E+00 0. -1.
<mgrwt>
<rscale>  0 0.34895914E+03</rscale>
<asrwt>0</asrwt>
<pdfrwt beam="1">  1        1 0.42113127E-01 0.35178608E+03</pdfrwt>
<pdfrwt beam="2">  1       -1 0.68821818E-01 0.35178608E+03</pdfrwt>
<totfact> 0.21850378E+02</totfact>
</mgrwt>
</event>
<event>
 7    1  0.6008063E-006  0.1418371E+03  0.7546771E-02  0.1215773E+00
         -2   -1    0    0    0  501 -0.00000000000E+00  0.00000000000E+00  0.43450633739E+02  0.43450633739E+02  0.00000000000E+00 0.  1.
          2   -1    0    0  501    0  0.00000000000E+00 -0.00000000000E+00 -0.43201375654E+03  0.43201375654E+03  0.00000000000E+00 0. -1.
         23    2    1    2    0    0  0.38483487926E+01  0.88152104892E+02 -0.24615572257E+03  0.28409574146E+03  0.11105020115E+03 0.  0.
          5    1    3    3  502    0 -0.16655705582E+02  0.90565713943E+02 -0.98470195921E+02  0.13490007619E+03  0.47000000000E+01 0. -1.
         -5    1    3    3    0  502  0.20504054375E+02 -0.24136090504E+01 -0.14768552665E+03  0.14919566527E+03  0.47000000000E+01 0.  1.
        -11    1    1    2    0    0  0.31539368861E+01 -0.19635458184E+02 -0.11586232940E+03  0.11755670083E+03  0.00000000000E+00 0. -1.
         11    1    1    2    0    0 -0.70022856787E+01 -0.68516646708E+02 -0.26545070831E+02  0.73811947991E+02  0.00000000000E+00 0.  1.
<mgrwt>
<rscale>  0 0.13819927E+03</rscale>
<asrwt>0</asrwt>
<pdfrwt beam="2">  1        2 0.66463655E-01 0.14183706E+03</pdfrwt>
<pdfrwt beam="1">  1       -2 0.66847129E-02 0.14183706E+03</pdfrwt>
<totfact> 0.87698323E+03</totfact>
</mgrwt>
</event>
<event>
 7    1  0.6008063E-006  0.1368324E+03  0.7546771E-02  0.1229262E+00
          1   -1    0    0  501    0  0.00000000000E+00  0.00000000000E+00  0.26417063163E+03  0.26417063163E+03  0.00000000000E+00 0. -1.
         -1   -1    0    0    0  501 -0.00000000000E+00 -0.00000000000E+00 -0.67658979715E+02  0.67658979715E+02  0.00000000000E+00 0.  1.
         23    2    1    2    0    0  0.47400844983E+02  0.29151524121E+02  0.17527291219E+03  0.22235939837E+03  0.12500582720E+03 0.  0.
          5    1    3    3  502    0 -0.20369904203E+02  0.56903200833E+02  0.57245877144E+02  0.83379180329E+02  0.47000000000E+01 0. -1.
         -5    1    3    3    0  502  0.67770749186E+02 -0.27751676712E+02  0.11802703504E+03  0.13898021804E+03  0.47000000000E+01 0. -1.
        -11    1    1    2    0    0 -0.40634373803E+02 -0.26826989812E+01  0.53474237546E+02  0.67214903774E+02  0.00000000000E+00 0. -1.
         11    1    1    2    0    0 -0.67664711795E+01 -0.26468825140E+02 -0.32235497816E+02  0.42255309204E+02  0.00000000000E+00 0.  1.
<mgrwt>
<rscale>  0 0.12879021E+03</rscale>
<asrwt>0</asrwt>
<pdfrwt beam="1">  1        1 0.40641635E-01 0.13683241E+03</pdfrwt>
<pdfrwt beam="2">  1       -1 0.10409074E-01 0.13683241E+03</pdfrwt>
<totfact> 0.56372800E+03</totfact>
</mgrwt>
</event>
<event>
 6    1  0.6008063E-006  0.2487306E+03  0.7546771E-02  0.1117250E+00
          2   -1    0    0  501    0  0.00000000000E+00  0.00000000000E+00  0.38200350648E+03  0.38200350648E+03  0.00000000000E+00 0. -1.
         -2   -1    0    0    0  501 -0.00000000000E+00 -0.00000000000E+00 -0.27072138532E+03  0.27072138532E+03  0.00000000000E+00 0.  1.
          5    1    1    2  502    0 -0.12242544489E+03 -0.11457830400E+03  0.16680790524E+03  0.23656530717E+03  0.47000000000E+01 0. -1.
         -5    1    1    2    0  502 -0.71906755168E+02  0.33518203705E+02  0.10801882011E+03  0.13410520839E+03  0.47000000000E+01 0.  1.
        -11    1    1    2    0    0  0.66632739734E+02  0.74231047044E+02 -0.91033153485E+02  0.13504519756E+03  0.00000000000E+00 0.  1.
         11    1    1    2    0    0  0.12769946032E+03  0.68290532484E+01 -0.72511450707E+02  0.14700917869E+03  0.00000000000E+00 0. -1.
<mgrwt>
<rscale>  0 0.24385641E+03</rscale>
<asrwt>0</asrwt>
<pdfrwt beam="1">  1        2 0.58769770E-01 0.24873058E+03</pdfrwt>
<pdfrwt beam="2">  1       -2 0.41649444E-01 0.24873058E+03</pdfrwt>
<totfact> 0.46531965E+02</totfact>
</mgrwt>
</event>
<event>
 7    1  0.6008063E-006  0.1257955E+03  0.7546771E-02  0.1247970E+00
         -1   -1    0    0    0  501 -0.00000000000E+00  0.00000000000E+00  0.24842437592E+02  0.24842437592E+02  0.00000000000E+00 0.  1.
          1   -1    0    0  501    0  0.00000000000E+00 -0.00000000000E+00 -0.52595313274E+03  0.52595313274E+03  0.00000000000E+00 0. -1.
         23    2    1    2    0    0  0.81590083475E+01  0.11608244185E+02 -0.35685159320E+03  0.37837489075E+03  0.12499271031E+03 0.  0.
          5    1    3    3  502    0 -0.16792281235E+02 -0.47686521717E+02 -0.23586294410E+03  0.24126625016E+03  0.47000000000E+01 0.  1.
         -5    1    3    3    0  502  0.24951289583E+02  0.59294765903E+02 -0.12098864910E+03  0.13710864059E+03  0.47000000000E+01 0.  1.
        -11    1    1    2    0    0 -0.29836887878E+01  0.25132755865E+02 -0.13036782869E+03  0.13280183950E+03  0.00000000000E+00 0. -1.
         11    1    1    2    0    0 -0.51753195597E+01 -0.36741000050E+02 -0.13891273259E+02  0.39618840089E+02  0.00000000000E+00 0.  1.
<mgrwt>
<rscale>  0 0.11709366E+03</rscale>
<asrwt>0</asrwt>
<pdfrwt beam="2">  1        1 0.80915871E-01 0.12579546E+03</pdfrwt>
<pdfrwt beam="1">  1       -1 0.38219133E-02 0.12579546E+03</pdfrwt>
<totfact> 0.10513149E+04</totfact>
</mgrwt>
</event>
<event>
 7    1  0.6008063E-006  0.1419589E+03  0.7546771E-02  0.1221312E+00
          1   -1    0    0  501    0  0.00000000000E+00  0.00000000000E+00  0.21426675293E+03  0.21426675293E+03  0.00000000000E+00 0. -1.
         -1   -1    0    0    0  501 -0.00000000000E+00 -0.00000000000E+00 -0.77761230068E+02  0.77761230068E+02  0.00000000000E+00 0.  1.
         23    2    1    2    0    0 -0.14761413316E+02 -0.65637640574E+02  0.96737089206E+02  0.17178586902E+03  0.12500448466E+03 0.  0.
          5    1    3    3  502    0 -0.35665909775E+02 -0.73144239014E+01  0.10299055280E+03  0.10933755934E+03  0.47000000000E+01 0.  1.
         -5    1    3    3    0  502  0.20904496459E+02 -0.58323216673E+02 -0.62534635932E+01  0.62448309682E+02  0.47000000000E+01 0.  1.
        -11    1    1    2    0    0  0.60812670716E+01  0.59862925136E+02  0.67612834173E+02  0.90509927411E+02  0.00000000000E+00 0. -1.
         11    1    1    2    0    0  0.86801462447E+01  0.57747154375E+01 -0.27844400521E+02  0.29732186559E+02  0.00000000000E+00 0.  1.
<mgrwt>
<rscale>  0 0.13422926E+03</rscale>
<asrwt>0</asrwt>
<pdfrwt beam="1">  1        1 0.32964116E-01 0.14195887E+03</pdfrwt>
<pdfrwt beam="2">  1       -1 0.11963266E-01 0.14195887E+03</pdfrwt>
<totfact> 0.59125694E+03</totfact>
</mgrwt>
</event>
<event>
 7    1  0.7182751E-006  0.1644420E+03  0.7546771E-02  0.1189809E+00
         -3   -1    0    0    0  501 -0.00000000000E+00  0.00000000000E+00  0.84090560402E+02  0.84090560402E+02  0.00000000000E+00 0.  1.
          3   -1    0    0  501    0  0.00000000000E+00 -0.00000000000E+00 -0.28423572041E+03  0.28423572041E+03  0.00000000000E+00 0. -1.
         23    2    1    2    0    0  0.80555908914E+02 -0.70190902421E+02 -0.12121111686E+03  0.20428732930E+03  0.12500064328E+03 0.  0.
          5    1    3    3  502    0  0.16553596134E+02  0.33016743815E+02 -0.53454524174E+02  0.65142943377E+02  0.47000000000E+01 0.  1.
         -5    1    3    3    0  502  0.64002312780E+02 -0.10320764624E+03 -0.67756592687E+02  0.13914438593E+03  0.47000000000E+01 0.  1.
        -11    1    1    2    0    0 -0.90256150698E+02  0.26437095760E+02 -0.32500850821E+02  0.99505769054E+02  0.00000000000E+00 0. -1.
         11    1    1    2    0    0  0.97002417840E+01  0.43753806662E+02 -0.46433192326E+02  0.64533182454E+02  0.00000000000E+00 0.  1.
<mgrwt>
<rscale>  0 0.15901888E+03</rscale>
<asrwt>0</asrwt>
<pdfrwt beam="2">  1        3 0.43728573E-01 0.16444202E+03</pdfrwt>
<pdfrwt beam="1">  1       -3 0.12937009E-01 0.16444202E+03</pdfrwt>
<totfact> 0.59407596E+02</totfact>
</mgrwt>
</event>
<event>
 7    1  0.6008063E-006  0.1445655E+03  0.7546771E-02  0.1217463E+00
          1   -1    0    0  501    0  0.00000000000E+00  0.00000000000E+00  0.80817232516E+03  0.80817232516E+03  0.00000000000E+00 0. -1.
         -1   -1    0    0    0  501 -0.00000000000E+00 -0.00000000000E+00 -0.22544676615E+02  0.22544676615E+02  0.00000000000E+00 0.  1.
         23    2    1    2    0    0 -0.53393469052E+02 -0.49213289792E+02  0.53747895368E+03  0.55658137170E+03  0.12500554884E+03 0.  0.
          5    1    3    3  502    0 -0.18583853825E+01 -0.12334194007E+02 -0.19069245567E+01  0.13465225557E+02  0.47000000000E+01 0. -1.
         -5    1    3    3    0  502 -0.51535083670E+02 -0.36879095785E+02  0.53938587824E+03  0.54311614614E+03  0.47000000000E+01 0. -1.
        -11    1    1    2    0    0 -0.57711318857E+01  0.46883310665E+02  0.16783023646E+03  0.17435119458E+03  0.00000000000E+00 0. -1.
         11    1    1    2    0    0  0.59164600938E+02  0.23299791271E+01  0.80318458405E+02  0.99784435497E+02  0.00000000000E+00 0.  1.
<mgrwt>
<rscale>  0 0.13697186E+03</rscale>
<asrwt>0</asrwt>
<pdfrwt beam="1">  1        1 0.12433418E+00 0.14456555E+03</pdfrwt>
<pdfrwt beam="2">  1       -1 0.34684124E-02 0.14456555E+03</pdfrwt>
<totfact> 0.66934205E+03</totfact>
</mgrwt>
</event>
<event>
 7    1  0.6008063E-006  0.1554060E+03  0.7546771E-02  0.1201953E+00
         -2   -1    0    0    0  501 -0.00000000000E+00  0.00000000000E+00  0.23309102055E+02  0.23309102055E+02  0.00000000000E+00 0.  1.
          2   -1    0    0  501    0  0.00000000000E+00 -0.00000000000E+00 -0.89341657326E+03  0.89341657326E+03  0.00000000000E+00 0. -1.
         23    2    1    2    0    0  0.90964240413E+02  0.15883199742E+02 -0.53302453097E+03  0.55521722818E+03  0.12499700307E+03 0.  0.
          5    1    3    3  502    0  0.59431406241E+02  0.70342828413E+02 -0.32582134710E+03  0.33861755091E+03  0.47000000000E+01 0.  1.
         -5    1    3    3    0  502  0.31532834172E+02 -0.54459628671E+02 -0.20720318388E+03  0.21659967727E+03  0.47000000000E+01 0.  1.
        -11    1    1    2    0    0 -0.57664208697E+02 -0.52859816188E+02 -0.16923886110E+03  0.18644332446E+03  0.00000000000E+00 0. -1.
         11    1    1    2    0    0 -0.33300031716E+02  0.36976616446E+02 -0.16784407914E+03  0.17506512268E+03  0.00000000000E+00 0.  1.
<mgrwt>
<rscale>  0 0.14880213E+03</rscale>
<asrwt>0</asrwt>
<pdfrwt beam="2">  1        2 0.13744868E+00 0.15540598E+03</pdfrwt>
<pdfrwt beam="1">  1       -2 0.35860164E-02 0.15540598E+03</pdfrwt>
<totfact> 0.96465311E+03</totfact>
</mgrwt>
</event>
<event>
 7    1  0.6008063E-006  0.1522162E+03  0.7546771E-02  0.1206263E+00
         -1   -1    0    0    0  501 -0.00000000000E+00  0.00000000000E+00  0.48874090352E+02  0.48874090352E+02  0.00000000000E+00 0.  1.
          1   -1    0    0  501    0  0.00000000000E+00 -0.00000000000E+00 -0.41017230809E+03  0.41017230809E+03  0.00000000000E+00 0. -1.
         23    2    1    2    0    0  0.51816630784E+02  0.69709156045E+02 -0.23631459380E+03  0.28109492769E+03  0.12500176585E+03 0.  0.
          5    1    3    3  502    0  0.45586280468E+02  0.99192704986E+02 -0.12666366722E+03  0.16728142839E+03  0.47000000000E+01 0. -1.
         -5    1    3    3    0  502  0.62303503159E+01 -0.29483548941E+02 -0.10965092658E+03  0.11381349930E+03  0.47000000000E+01 0. -1.
        -11    1    1    2    0    0 -0.11900547961E+01 -0.73575551632E+02 -0.90188428055E+02  0.11639901453E+03  0.00000000000E+00 0. -1.
         11    1    1    2    0    0 -0.50626575988E+02  0.38663955870E+01 -0.34795195884E+02  0.61552456228E+02  0.00000000000E+00 0.  1.
<mgrwt>
<rscale>  0 0.14538376E+03</rscale>
<asrwt>0</asrwt>
<pdfrwt beam="2">  1        1 0.63103429E-01 0.15221620E+03</pdfrwt>
<pdfrwt beam="1">  1       -1 0.75190912E-02 0.15221620E+03</pdfrwt>
<totfact> 0.53688245E+03</totfact>
</mgrwt>
</event>
<event>
 7    1  0.6008063E-006  0.1327860E+03  0.7546771E-02  0.1236414E+00
         -3   -1    0    0    0  501 -0.00000000000E+00  0.00000000000E+00  0.15341743136E+03  0.15341743136E+03  0.00000000000E+00 0.  1.
          3   -1    0    0  501    0  0.00000000000E+00 -0.00000000000E+00 -0.90757029664E+02  0.90757029664E+02  0.00000000000E+00 0. -1.
         23    2    1    2    0    0  0.17631437964E+02  0.41253098686E+02  0.20691148962E+02  0.13438838749E+03  0.12497771517E+03 0.  0.
          5    1    3    3  502    0  0.78399734986E+01  0.85551514125E+02  0.51102815757E+01  0.86190090679E+02  0.47000000000E+01 0.  1.
         -5    1    3    3    0  502  0.97914644657E+01 -0.44298415438E+02  0.15580867386E+02  0.48198296808E+02  0.47000000000E+01 0.  1.
        -11    1    1    2    0    0  0.15257579243E+02 -0.11747630816E+01  0.54366342643E+02  0.56478960729E+02  0.00000000000E+00 0.  1.
         11    1    1    2    0    0 -0.32889017207E+02 -0.40078335605E+02 -0.12397089909E+02  0.53307112808E+02  0.00000000000E+00 0. -1.
<mgrwt>
<rscale>  0 0.12414360E+03</rscale>
<asrwt>0</asrwt>
<pdfrwt beam="2">  1        3 0.13962620E-01 0.13278597E+03</pdfrwt>
<pdfrwt beam="1">  1       -3 0.23602682E-01 0.13278597E+03</pdfrwt>
<totfact> 0.16023144E+03</totfact>
</mgrwt>
</event>
<event>
 7    1  0.6008063E-006  0.1441383E+03  0.7546771E-02  0.1221429E+00
          1   -1    0    0  501    0  0.00000000000E+00  0.00000000000E+00  0.32295063666E+02  0.32295063666E+02  0.00000000000E+00 0. -1.
         -1   -1    0    0    0  501 -0.00000000000E+00 -0.00000000000E+00 -0.49610824682E+03  0.49610824682E+03  0.00000000000E+00 0.  1.
         23    2    1    2    0    0 -0.22425909761E+02  0.68170901342E+02 -0.24303285898E+03  0.28256117704E+03  0.12500262001E+03 0.  0.
          5    1    3    3  502    0 -0.37933439274E+02  0.14956802011E+02 -0.21752748498E+03  0.22136609602E+03  0.47000000000E+01 0. -1.
         -5    1    3    3    0  502  0.15507529513E+02  0.53214099331E+02 -0.25505373992E+02  0.61195081025E+02  0.47000000000E+01 0. -1.
        -11    1    1    2    0    0  0.15569067695E+02 -0.11955731819E+02 -0.18627691294E+01  0.19718146491E+02  0.00000000000E+00 0. -1.
         11    1    1    2    0    0  0.68568420661E+01 -0.56215169522E+02 -0.21891755505E+03  0.22612398696E+03  0.00000000000E+00 0.  1.
<mgrwt>
<rscale>  0 0.13414726E+03</rscale>
<asrwt>0</asrwt>
<pdfrwt beam="1">  1        1 0.49684717E-02 0.14413830E+03</pdfrwt>
<pdfrwt beam="2">  1       -1 0.76324341E-01 0.14413830E+03</pdfrwt>
<totfact> 0.29216162E+03</totfact>
</mgrwt>
</event>
<event>
 7    1  0.6008063E-006  0.1262737E+03  0.7546771E-02  0.1247630E+00
          1   -1    0    0  501    0  0.00000000000E+00  0.00000000000E+00  0.53907129082E+03  0.53907129082E+03  0.00000000000E+00 0. -1.
         -1   -1    0    0    0  501 -0.00000000000E+00 -0.00000000000E+00 -0.22919919471E+02  0.22919919471E+02  0.00000000000E+00 0.  1.
         23    2    1    2    0    0  0.33736440375E+01 -0.17528828877E+02  0.33267785601E+03  0.35583647231E+03  0.12500559120E+03 0.  0.
          5    1    3    3  502    0 -0.51674981881E+02  0.70060463844E+01  0.23658883625E+03  0.24231334234E+03  0.47000000000E+01 0. -1.
         -5    1    3    3    0  502  0.55048625918E+02 -0.24534875262E+02  0.96089019759E+02  0.11352312997E+03  0.47000000000E+01 0. -1.
        -11    1    1    2    0    0 -0.38137352886E+02  0.35832418865E+02  0.12700674912E+03  0.13736496733E+03  0.00000000000E+00 0. -1.
         11    1    1    2    0    0  0.34763708849E+02 -0.18303589988E+02  0.56466766220E+02  0.68789770654E+02  0.00000000000E+00 0.  1.
<mgrwt>
<rscale>  0 0.11729357E+03</rscale>
<asrwt>0</asrwt>
<pdfrwt beam="1">  1        1 0.82934035E-01 0.12627367E+03</pdfrwt>
<pdfrwt beam="2">  1       -1 0.35261419E-02 0.12627367E+03</pdfrwt>
<totfact> 0.11452042E+04</totfact>
</mgrwt>
</event>
<event>
 7    1  0.6008063E-006  0.1579421E+03  0.7546771E-02  0.1198782E+00
         -4   -1    0    0    0  501 -0.00000000000E+00  0.00000000000E+00  0.17593934208E+03  0.17593934208E+03  0.00000000000E+00 0. -1.
          4   -1    0    0  501    0  0.00000000000E+00 -0.00000000000E+00 -0.12108575911E+03  0.12108575911E+03  0.00000000000E+00 0.  1.
         23    2    1    2    0    0  0.68956990783E+02  0.67549944773E+02  0.39774211283E+02  0.16287323806E+03  0.12501056825E+03 0.  0.
          5    1    3    3  502    0  0.39562626573E+01 -0.30406489581E+02 -0.13361568621E+02  0.33776147484E+02  0.47000000000E+01 0. -1.
         -5    1    3    3    0  502  0.65000728126E+02  0.97956434354E+02  0.53135779904E+02  0.12909709057E+03  0.47000000000E+01 0. -1.
        -11    1    1    2    0    0 -0.62296073947E+02 -0.49945073581E+02 -0.30004027339E+02  0.85296851412E+02  0.00000000000E+00 0.  1.
         11    1    1    2    0    0 -0.66609168365E+01 -0.17604871192E+02  0.45083399026E+02  0.48855011724E+02  0.00000000000E+00 0. -1.
<mgrwt>
<rscale>  0 0.15138481E+03</rscale>
<asrwt>0</asrwt>
<pdfrwt beam="2">  1        4 0.18628578E-01 0.15794209E+03</pdfrwt>
<pdfrwt beam="1">  1       -4 0.27067591E-01 0.15794209E+03</pdfrwt>
<totfact> 0.56525430E+02</totfact>
</mgrwt>
</event>
<event>
 7    1  0.1714546E-005  0.2853675E+03  0.7546771E-02  0.1094985E+00
          1   -1    0    0  501    0  0.00000000000E+00  0.00000000000E+00  0.55943011516E+03  0.55943011516E+03  0.00000000000E+00 0. -1.
         -1   -1    0    0    0  501 -0.00000000000E+00 -0.00000000000E+00 -0.14533907814E+03  0.14533907814E+03  0.00000000000E+00 0.  1.
         23    2    1    2    0    0 -0.24160323507E+03 -0.86240737792E+02  0.29426359850E+03  0.40990935461E+03  0.12500010219E+03 0.  0.
          5    1    3    3  502    0 -0.98461798723E+02 -0.69767873769E+01  0.19463331190E+03  0.21828334218E+03  0.47000000000E+01 0.  1.
         -5    1    3    3    0  502 -0.14314143634E+03 -0.79263950415E+02  0.99630286592E+02  0.19162601243E+03  0.47000000000E+01 0.  1.
        -11    1    1    2    0    0  0.14039271814E+03  0.21116283555E+02  0.31105574249E+02  0.14533949734E+03  0.00000000000E+00 0.  1.
         11    1    1    2    0    0  0.10121051692E+03  0.65124454237E+02  0.88721864278E+02  0.14952034135E+03  0.00000000000E+00 0. -1.
<mgrwt>
<rscale>  0 0.28129259E+03</rscale>
<asrwt>0</asrwt>
<pdfrwt beam="1">  1        1 0.86066171E-01 0.28536751E+03</pdfrwt>
<pdfrwt beam="2">  1       -1 0.22359858E-01 0.28536751E+03</pdfrwt>
<totfact> 0.65262245E+02</totfact>
</mgrwt>
</event>
<event>
 7    1  0.9542155E-006  0.1957484E+03  0.7546771E-02  0.1157932E+00
         -1   -1    0    0    0  501 -0.00000000000E+00  0.00000000000E+00  0.11271132092E+03  0.11271132092E+03  0.00000000000E+00 0.  1.
          1   -1    0    0  501    0  0.00000000000E+00 -0.00000000000E+00 -0.34167560849E+03  0.34167560849E+03  0.00000000000E+00 0. -1.
         23    2    1    2    0    0  0.15062516658E+03  0.22914208763E+01 -0.19289208171E+03  0.27481776536E+03  0.12499703017E+03 0.  0.
          5    1    3    3  502    0  0.74391899013E+01  0.37035415794E+02 -0.81818705494E+02  0.90240534895E+02  0.47000000000E+01 0.  1.
         -5    1    3    3    0  502  0.14318597668E+03 -0.34743994918E+02 -0.11107337622E+03  0.18457723046E+03  0.47000000000E+01 0.  1.
        -11    1    1    2    0    0 -0.73899790749E+02  0.18174720800E+02  0.24222824124E+02  0.79863913988E+02  0.00000000000E+00 0.  1.
         11    1    1    2    0    0 -0.76725375831E+02 -0.20466141676E+02 -0.60295029978E+02  0.99705250071E+02  0.00000000000E+00 0. -1.
<mgrwt>
<rscale>  0 0.19058801E+03</rscale>
<asrwt>0</asrwt>
<pdfrwt beam="2">  1        1 0.52565478E-01 0.19574843E+03</pdfrwt>
<pdfrwt beam="1">  1       -1 0.17340203E-01 0.19574843E+03</pdfrwt>
<totfact> 0.18712191E+03</totfact>
</mgrwt>
</event>
<event>
 7    1  0.6008063E-006  0.1399754E+03  0.7546771E-02  0.1234415E+00
         -2   -1    0    0    0  501 -0.00000000000E+00  0.00000000000E+00  0.16077286432E+02  0.16077286432E+02  0.00000000000E+00 0.  1.
          2   -1    0    0  501    0  0.00000000000E+00 -0.00000000000E+00 -0.93633176282E+03  0.93633176282E+03  0.00000000000E+00 0. -1.
         23    2    1    2    0    0  0.52190367289E+02 -0.35278874914E+02 -0.70916299771E+03  0.72284525497E+03  0.12499868743E+03 0.  0.
          5    1    3    3  502    0  0.69067185332E+02  0.27553545305E+02 -0.39904758888E+03  0.40594401355E+03  0.47000000000E+01 0. -1.
         -5    1    3    3    0  502 -0.16876818043E+02 -0.62832420219E+02 -0.31011540883E+03  0.31690124142E+03  0.47000000000E+01 0. -1.
        -11    1    1    2    0    0 -0.14170986182E+02  0.12661105197E+02 -0.62571804698E+01  0.20006817378E+02  0.00000000000E+00 0.  1.
         11    1    1    2    0    0 -0.38019381107E+02  0.22617769717E+02 -0.20483429820E+03  0.20955697690E+03  0.00000000000E+00 0. -1.
<mgrwt>
<rscale>  0 0.12541985E+03</rscale>
<asrwt>0</asrwt>
<pdfrwt beam="2">  1        2 0.14405105E+00 0.13997537E+03</pdfrwt>
<pdfrwt beam="1">  1       -2 0.24734286E-02 0.13997537E+03</pdfrwt>
<totfact> 0.15568610E+04</totfact>
</mgrwt>
</event>
<event>
 7    1  0.6008063E-006  0.1360626E+03  0.7546771E-02  0.1231185E+00
          3   -1    0    0  501    0  0.00000000000E+00  0.00000000000E+00  0.22069854746E+03  0.22069854746E+03  0.00000000000E+00 0. -1.
         -3   -1    0    0    0  501 -0.00000000000E+00 -0.00000000000E+00 -0.84545781368E+02  0.84545781368E+02  0.00000000000E+00 0.  1.
         23    2    1    2    0    0  0.53748260235E+02 -0.24386371167E+00  0.14628977443E+03  0.19978418589E+03  0.12499635146E+03 0.  0.
          5    1    3    3  502    0  0.87404904005E+02  0.44667481441E+01  0.58093436124E+02  0.10514992346E+03  0.47000000000E+01 0. -1.
         -5    1    3    3    0  502 -0.33656643771E+02 -0.47106118557E+01  0.88196338308E+02  0.94634262426E+02  0.47000000000E+01 0. -1.
        -11    1    1    2    0    0  0.18163919182E+01 -0.25482902363E+02 -0.31546324611E+02  0.40593696418E+02  0.00000000000E+00 0.  1.
         11    1    1    2    0    0 -0.55564652153E+02  0.25726766074E+02  0.21409316273E+02  0.64866446525E+02  0.00000000000E+00 0. -1.
<mgrwt>
<rscale>  0 0.12751820E+03</rscale>
<asrwt>0</asrwt>
<pdfrwt beam="1">  1        3 0.33953622E-01 0.13606257E+03</pdfrwt>
<pdfrwt beam="2">  1       -3 0.13007043E-01 0.13606257E+03</pdfrwt>
<totfact> 0.93063442E+02</totfact>
</mgrwt>
</event>
<event>
 7    1  0.6008063E-006  0.1424426E+03  0.7546771E-02  0.1220732E+00
          1   -1    0    0  501    0  0.00000000000E+00  0.00000000000E+00  0.30362118178E+03  0.30362118178E+03  0.00000000000E+00 0. -1.
         -1   -1    0    0    0  501 -0.00000000000E+00 -0.00000000000E+00 -0.54029266992E+02  0.54029266992E+02  0.00000000000E+00 0.  1.
         23    2    1    2    0    0  0.46662925519E+02 -0.50112636374E+02  0.14099483349E+03  0.20042313427E+03  0.12490470262E+03 0.  0.
          5    1    3    3  502    0  0.11067911588E+02 -0.58554812275E+02  0.55357263387E+01  0.60032482654E+02  0.47000000000E+01 0.  1.
         -5    1    3    3    0  502  0.35595013931E+02  0.84421759004E+01  0.13545910716E+03  0.14039065162E+03  0.47000000000E+01 0.  1.
        -11    1    1    2    0    0 -0.28618358448E+02  0.75887582086E+02  0.87713988696E+02  0.11946413423E+03  0.00000000000E+00 0. -1.
         11    1    1    2    0    0 -0.18044567072E+02 -0.25774945711E+02  0.20883092593E+02  0.37763180262E+02  0.00000000000E+00 0.  1.
<mgrwt>
<rscale>  0 0.13463796E+03</rscale>
<asrwt>0</asrwt>
<pdfrwt beam="1">  1        1 0.46710950E-01 0.14244258E+03</pdfrwt>
<pdfrwt beam="2">  1       -1 0.83121951E-02 0.14244258E+03</pdfrwt>
<totfact> 0.66985488E+03</totfact>
</mgrwt>
</event>
<event>
 7    1  0.6008063E-006  0.1402417E+03  0.7546771E-02  0.1224791E+00
          4   -1    0    0  501    0  0.00000000000E+00  0.00000000000E+00  0.93045908176E+03  0.93045908176E+03  0.00000000000E+00 0. -1.
         -4   -1    0    0    0  501 -0.00000000000E+00 -0.00000000000E+00 -0.17723061156E+02  0.17723061156E+02  0.00000000000E+00 0.  1.
         23    2    1    2    0    0 -0.63044122036E+02 -0.80974802847E+01  0.61981510813E+03  0.63548287902E+03  0.12501036262E+03 0.  0.
          5    1    3    3  502    0  0.37660303635E+02  0.27572207085E+00  0.13546597938E+03  0.14068225212E+03  0.47000000000E+01 0.  1.
         -5    1    3    3    0  502 -0.10070442567E+03 -0.83732023555E+01  0.48434912874E+03  0.49480062690E+03  0.47000000000E+01 0.  1.
        -11    1    1    2    0    0 -0.28160565902E+01 -0.21935003934E+02  0.18317611283E+02  0.28716013919E+02  0.00000000000E+00 0.  1.
         11    1    1    2    0    0  0.65860178626E+02  0.30032484218E+02  0.27460330120E+03  0.28398324998E+03  0.00000000000E+00 0. -1.
<mgrwt>
<rscale>  0 0.13181249E+03</rscale>
<asrwt>0</asrwt>
<pdfrwt beam="1">  1        4 0.14314751E+00 0.14024165E+03</pdfrwt>
<pdfrwt beam="2">  1       -4 0.27266255E-02 0.14024165E+03</pdfrwt>
<totfact> 0.37718834E+02</totfact>
</mgrwt>
</event>
<event>
 7    1  0.6008063E-006  0.1234124E+03  0.7546771E-02  0.1244112E+00
          2   -1    0    0  501    0  0.00000000000E+00  0.00000000000E+00  0.18130632986E+04  0.18130632986E+04  0.00000000000E+00 0. -1.
         -2   -1    0    0    0  501 -0.00000000000E+00 -0.00000000000E+00 -0.12643495458E+02  0.12643495458E+02  0.00000000000E+00 0.  1.
         23    2    1    2    0    0  0.50214741849E+01  0.58773076491E+00  0.15227666662E+04  0.15277594484E+04  0.12330876651E+03 0.  0.
          5    1    3    3  502    0  0.27536398236E+00  0.59152995349E+02  0.98161476540E+03  0.98340672681E+03  0.47000000000E+01 0. -1.
         -5    1    3    3    0  502  0.47461102025E+01 -0.58565264584E+02  0.54115190080E+03  0.54435272161E+03  0.47000000000E+01 0.  1.
        -11    1    1    2    0    0  0.26516519594E+02 -0.42629087670E+02  0.89796077981E+02  0.10287711382E+03  0.00000000000E+00 0.  1.
         11    1    1    2    0    0 -0.31537993779E+02  0.42041356905E+02  0.18785705892E+03  0.19507023178E+03  0.00000000000E+00 0. -1.
<mgrwt>
<rscale>  0 0.11938662E+03</rscale>
<asrwt>0</asrwt>
<pdfrwt beam="1">  1        2 0.27893261E+00 0.12341237E+03</pdfrwt>
<pdfrwt beam="2">  1       -2 0.19451546E-02 0.12341237E+03</pdfrwt>
<totfact> 0.73682401E+03</totfact>
</mgrwt>
</event>
<event>
 7    1  0.6008063E-006  0.1447524E+03  0.7546771E-02  0.1217296E+00
         -1   -1    0    0    0  501 -0.00000000000E+00  0.00000000000E+00  0.16194938117E+03  0.16194938117E+03  0.00000000000E+00 0.  1.
          1   -1    0    0  501    0  0.00000000000E+00 -0.00000000000E+00 -0.10554825634E+03  0.10554825634E+03  0.00000000000E+00 0. -1.
         23    2    1    2    0    0  0.66859720208E+02  0.29384160062E+02  0.37326126972E+02  0.14948749389E+03  0.12497847825E+03 0.  0.
          5    1    3    3  502    0  0.89086883605E+02 -0.19072493233E+02  0.22784696375E+02  0.94029065812E+02  0.47000000000E+01 0. -1.
         -5    1    3    3    0  502 -0.22227163397E+02  0.48456653295E+02  0.14541430597E+02  0.55458428079E+02  0.47000000000E+01 0. -1.
        -11    1    1    2    0    0 -0.56933467096E+02 -0.67917117340E+01 -0.28789375396E+02  0.64158983467E+02  0.00000000000E+00 0. -1.
         11    1    1    2    0    0 -0.99262531126E+01 -0.22592448328E+02  0.47864373254E+02  0.53851160148E+02  0.00000000000E+00 0.  1.
<mgrwt>
<rscale>  0 0.13709198E+03</rscale>
<asrwt>0</asrwt>
<pdfrwt beam="2">  1        1 0.16238193E-01 0.14475245E+03</pdfrwt>
<pdfrwt beam="1">  1       -1 0.24915289E-01 0.14475245E+03</pdfrwt>
<totfact> 0.45123419E+03</totfact>
</mgrwt>
</event>
<event>
 7    1  0.6008063E-006  0.1252321E+03  0.7546771E-02  0.1248295E+00
         -2   -1    0    0    0  501 -0.00000000000E+00  0.00000000000E+00  0.34699462063E+02  0.34699462063E+02  0.00000000000E+00 0.  1.
          2   -1    0    0  501    0  0.00000000000E+00 -0.00000000000E+00 -0.59516938777E+03  0.59516938777E+03  0.00000000000E+00 0. -1.
         23    2    1    2    0    0  0.52329902100E+01  0.62553695713E+01 -0.50387977825E+03  0.51920892021E+03  0.12496622769E+03 0.  0.
          5    1    3    3  502    0  0.11237605405E+02  0.33642060320E+02 -0.37019971179E+02  0.51484369123E+02  0.47000000000E+01 0. -1.
         -5    1    3    3    0  502 -0.60046151947E+01 -0.27386690749E+02 -0.46685980707E+03  0.46772455109E+03  0.47000000000E+01 0. -1.
        -11    1    1    2    0    0  0.16152739970E+01  0.43329844408E+02 -0.36665915501E+02  0.56784451094E+02  0.00000000000E+00 0. -1.
         11    1    1    2    0    0 -0.68482642070E+01 -0.49585213979E+02 -0.19924231964E+02  0.53875478535E+02  0.00000000000E+00 0.  1.
<mgrwt>
<rscale>  0 0.11690331E+03</rscale>
<asrwt>0</asrwt>
<pdfrwt beam="2">  1        2 0.91564517E-01 0.12523207E+03</pdfrwt>
<pdfrwt beam="1">  1       -2 0.53383790E-02 0.12523207E+03</pdfrwt>
<totfact> 0.85939485E+03</totfact>
</mgrwt>
</event>
<event>
 7    1  0.6008063E-006  0.4394346E+03  0.7546771E-02  0.1031597E+00
         -1   -1    0    0    0  501 -0.00000000000E+00  0.00000000000E+00  0.15629208505E+03  0.15629208505E+03  0.00000000000E+00 0.  1.
          1   -1    0    0  501    0  0.00000000000E+00 -0.00000000000E+00 -0.12140493104E+04  0.12140493104E+04  0.00000000000E+00 0. -1.
         23    2    1    2    0    0  0.39310972345E+03  0.15146262258E+03 -0.50072863814E+03  0.66620710171E+03  0.12500621024E+03 0.  0.
          5    1    3    3  502    0  0.30384969357E+03  0.79313013857E+02 -0.42565947159E+03  0.52898323811E+03  0.47000000000E+01 0. -1.
         -5    1    3    3    0  502  0.89260029879E+02  0.72149608723E+02 -0.75069166558E+02  0.13722386360E+03  0.47000000000E+01 0. -1.
        -11    1    1    2    0    0 -0.17433980376E+03 -0.11321261785E+03 -0.29027410321E+03  0.35703013740E+03  0.00000000000E+00 0.  1.
         11    1    1    2    0    0 -0.21876991969E+03 -0.38250004726E+02 -0.26675448404E+03  0.34710415639E+03  0.00000000000E+00 0. -1.
<mgrwt>
<rscale>  0 0.43724087E+03</rscale>
<asrwt>0</asrwt>
<pdfrwt beam="2">  1        1 0.18677681E+00 0.43943456E+03</pdfrwt>
<pdfrwt beam="1">  1       -1 0.24044937E-01 0.43943456E+03</pdfrwt>
<totfact> 0.16359209E+02</totfact>
</mgrwt>
</event>
<event>
 7    1  0.6008063E-006  0.1286316E+03  0.7546771E-02  0.1249652E+00
          1   -1    0    0  501    0  0.00000000000E+00  0.00000000000E+00  0.34557890112E+03  0.34557890112E+03  0.00000000000E+00 0. -1.
         -1   -1    0    0    0  501 -0.00000000000E+00 -0.00000000000E+00 -0.33803803213E+02  0.33803803213E+02  0.00000000000E+00 0.  1.
         23    2    1    2    0    0 -0.15823202846E+02  0.25888351190E+02  0.21279489017E+03  0.24865185045E+03  0.12500198788E+03 0.  0.
          5    1    3    3  502    0 -0.63124538730E+02  0.10018456071E+02  0.17353602106E+03  0.18499166862E+03  0.47000000000E+01 0.  1.
         -5    1    3    3    0  502  0.47301335884E+02  0.15869895119E+02  0.39258869113E+02  0.63660181837E+02  0.47000000000E+01 0.  1.
        -11    1    1    2    0    0 -0.28305992861E+02 -0.26070117072E+02  0.29789220247E+02  0.48664955347E+02  0.00000000000E+00 0.  1.
         11    1    1    2    0    0  0.44129195707E+02  0.18176588194E+00  0.69190987487E+02  0.82065898533E+02  0.00000000000E+00 0. -1.
<mgrwt>
<rscale>  0 0.11611209E+03</rscale>
<asrwt>0</asrwt>
<pdfrwt beam="1">  1        1 0.53165982E-01 0.12863156E+03</pdfrwt>
<pdfrwt beam="2">  1       -1 0.52005853E-02 0.12863156E+03</pdfrwt>
<totfact> 0.11418399E+04</totfact>
</mgrwt>
</event>
<event>
 7    1  0.6008063E-006  0.1261793E+03  0.7546771E-02  0.1256708E+00
         -2   -1    0    0    0  501 -0.00000000000E+00  0.00000000000E+00  0.10038714923E+03  0.10038714923E+03  0.00000000000E+00 0.  1.
          2   -1    0    0  501    0  0.00000000000E+00 -0.00000000000E+00 -0.10812072478E+03  0.10812072478E+03  0.00000000000E+00 0. -1.
         23    2    1    2    0    0 -0.11054606903E+02 -0.13217797589E+02 -0.23378687716E+02  0.12832687759E+03  0.12499723983E+03 0.  0.
          5    1    3    3  502    0 -0.28784235432E+02 -0.63712603967E+02 -0.25488273763E+02  0.74562525528E+02  0.47000000000E+01 0. -1.
         -5    1    3    3    0  502  0.17729628530E+02  0.50494806378E+02  0.21095860472E+01  0.53764352058E+02  0.47000000000E+01 0. -1.
        -11    1    1    2    0    0  0.25666897017E+02  0.40065544188E+02  0.13872759547E+02  0.49562999213E+02  0.00000000000E+00 0.  1.
         11    1    1    2    0    0 -0.14612290114E+02 -0.26847746599E+02  0.17723526228E+01  0.30617997218E+02  0.00000000000E+00 0. -1.
<mgrwt>
<rscale>  0 0.11211193E+03</rscale>
<asrwt>0</asrwt>
<pdfrwt beam="2">  1        2 0.16633958E-01 0.12617933E+03</pdfrwt>
<pdfrwt beam="1">  1       -2 0.15444177E-01 0.12617933E+03</pdfrwt>
<totfact> 0.10482769E+04</totfact>
</mgrwt>
</event>
<event>
 7    1  0.6008063E-006  0.1293334E+03  0.7546771E-02  0.1242468E+00
          2   -1    0    0  501    0  0.00000000000E+00  0.00000000000E+00  0.57684539434E+03  0.57684539434E+03  0.00000000000E+00 0. -1.
         -2   -1    0    0    0  501 -0.00000000000E+00 -0.00000000000E+00 -0.26520923432E+02  0.26520923432E+02  0.00000000000E+00 0.  1.
         23    2    1    2    0    0  0.33149293793E+02 -0.17224019260E+01  0.42850096865E+03  0.44759379672E+03  0.12500113750E+03 0.  0.
          5    1    3    3  502    0  0.17059187029E+02  0.52797160201E+02  0.10257497433E+03  0.11671448644E+03  0.47000000000E+01 0.  1.
         -5    1    3    3    0  502  0.16090106764E+02 -0.54519562127E+02  0.32592599433E+03  0.33087931027E+03  0.47000000000E+01 0.  1.
        -11    1    1    2    0    0 -0.28602887806E+01  0.25340599291E+02  0.11368596762E+03  0.11651105723E+03  0.00000000000E+00 0. -1.
         11    1    1    2    0    0 -0.30289005013E+02 -0.23618197365E+02  0.81375346373E+01  0.39261463822E+02  0.00000000000E+00 0.  1.
<mgrwt>
<rscale>  0 0.12038242E+03</rscale>
<asrwt>0</asrwt>
<pdfrwt beam="1">  1        2 0.88745436E-01 0.12933339E+03</pdfrwt>
<pdfrwt beam="2">  1       -2 0.40801425E-02 0.12933339E+03</pdfrwt>
<totfact> 0.13332989E+04</totfact>
</mgrwt>
</event>
<event>
 7    1  0.6008063E-006  0.1272170E+03  0.7546771E-02  0.1247297E+00
          2   -1    0    0  501    0  0.00000000000E+00  0.00000000000E+00  0.12308396712E+03  0.12308396712E+03  0.00000000000E+00 0. -1.
         -2   -1    0    0    0  501 -0.00000000000E+00 -0.00000000000E+00 -0.11867520290E+03  0.11867520290E+03  0.00000000000E+00 0.  1.
         23    2    1    2    0    0  0.23367642282E+02  0.35745352360E+01  0.52307857052E+02  0.13755101628E+03  0.12500138464E+03 0.  0.
          5    1    3    3  502    0 -0.11414862417E+02 -0.50550317764E+02  0.51245819762E+02  0.73033264703E+02  0.47000000000E+01 0.  1.
         -5    1    3    3    0  502  0.34782504699E+02  0.54124853000E+02  0.10620372894E+01  0.64517751577E+02  0.47000000000E+01 0.  1.
        -11    1    1    2    0    0 -0.48550223622E+02  0.13715919995E+02 -0.38413301638E+01  0.50596506722E+02  0.00000000000E+00 0. -1.
         11    1    1    2    0    0  0.25182581341E+02 -0.17290455231E+02 -0.44057762663E+02  0.53611647018E+02  0.00000000000E+00 0.  1.
<mgrwt>
<rscale>  0 0.11748974E+03</rscale>
<asrwt>0</asrwt>
<pdfrwt beam="1">  1        2 0.18935995E-01 0.12721702E+03</pdfrwt>
<pdfrwt beam="2">  1       -2 0.18257723E-01 0.12721702E+03</pdfrwt>
<totfact> 0.68581839E+03</totfact>
</mgrwt>
</event>
<event>
 7    1  0.6008063E-006  0.1327104E+03  0.7546771E-02  0.1236296E+00
          1   -1    0    0  501    0  0.00000000000E+00  0.00000000000E+00  0.35068213811E+03  0.35068213811E+03  0.00000000000E+00 0. -1.
         -1   -1    0    0    0  501 -0.00000000000E+00 -0.00000000000E+00 -0.40128900604E+02  0.40128900604E+02  0.00000000000E+00 0.  1.
         23    2    1    2    0    0  0.13259521613E+02  0.42860343115E+02  0.20427242776E+03  0.24359654126E+03  0.12489686243E+03 0.  0.
          5    1    3    3  502    0  0.16141638953E+02  0.81663001194E+02  0.89506016841E+02  0.12232258713E+03  0.47000000000E+01 0.  1.
         -5    1    3    3    0  502 -0.28821173399E+01 -0.38802658079E+02  0.11476641092E+03  0.12127395413E+03  0.47000000000E+01 0.  1.
        -11    1    1    2    0    0 -0.39120341129E+02 -0.29897063889E+02  0.10752282675E+03  0.11825985706E+03  0.00000000000E+00 0. -1.
         11    1    1    2    0    0  0.25860819516E+02 -0.12963279226E+02 -0.12420170024E+01  0.28954640397E+02  0.00000000000E+00 0.  1.
<mgrwt>
<rscale>  0 0.12421815E+03</rscale>
<asrwt>0</asrwt>
<pdfrwt beam="1">  1        1 0.53951096E-01 0.13271040E+03</pdfrwt>
<pdfrwt beam="2">  1       -1 0.61736773E-02 0.13271040E+03</pdfrwt>
<totfact> 0.87118812E+03</totfact>
</mgrwt>
</event>
<event>
 7    1  0.6008063E-006  0.1549833E+03  0.7546771E-02  0.1202635E+00
         -1   -1    0    0    0  501 -0.00000000000E+00  0.00000000000E+00  0.86769826304E+02  0.86769826304E+02  0.00000000000E+00 0.  1.
          1   -1    0    0  501    0  0.00000000000E+00 -0.00000000000E+00 -0.26824214842E+03  0.26824214842E+03  0.00000000000E+00 0. -1.
         23    2    1    2    0    0 -0.42346447096E+02  0.81247010836E+02 -0.16128796426E+03  0.22368198773E+03  0.12500210345E+03 0.  0.
          5    1    3    3  502    0 -0.77542500084E+01  0.95045034275E+02 -0.15975673865E+03  0.18611284877E+03  0.47000000000E+01 0.  1.
         -5    1    3    3    0  502 -0.34592197088E+02 -0.13798023439E+02 -0.15312256122E+01  0.37569138958E+02  0.47000000000E+01 0.  1.
        -11    1    1    2    0    0  0.19075609271E+02 -0.67528477387E+02  0.28432334689E+02  0.75712428195E+02  0.00000000000E+00 0.  1.
         11    1    1    2    0    0  0.23270837825E+02 -0.13718533448E+02 -0.48616692550E+02  0.55617558807E+02  0.00000000000E+00 0. -1.
<mgrwt>
<rscale>  0 0.14825418E+03</rscale>
<asrwt>0</asrwt>
<pdfrwt beam="2">  1        1 0.41268022E-01 0.15498330E+03</pdfrwt>
<pdfrwt beam="1">  1       -1 0.13349204E-01 0.15498330E+03</pdfrwt>
<totfact> 0.37929854E+03</totfact>
</mgrwt>
</event>
<event>
 7    1  0.6008063E-006  0.1396233E+03  0.7546771E-02  0.1225292E+00
         -2   -1    0    0    0  501 -0.00000000000E+00  0.00000000000E+00  0.25192529616E+02  0.25192529616E+02  0.00000000000E+00 0.  1.
          2   -1    0    0  501    0  0.00000000000E+00 -0.00000000000E+00 -0.74566155099E+03  0.74566155099E+03  0.00000000000E+00 0. -1.
         23    2    1    2    0    0 -0.17756918191E+02  0.59614066679E+02 -0.55501029374E+03  0.57230332674E+03  0.12500210617E+03 0.  0.
          5    1    3    3  502    0 -0.65613592797E+02  0.47157976603E+02 -0.43419744370E+03  0.44167695031E+03  0.47000000000E+01 0. -1.
         -5    1    3    3    0  502  0.47856674606E+02  0.12456090077E+02 -0.12081285004E+03  0.13062637643E+03  0.47000000000E+01 0. -1.
        -11    1    1    2    0    0  0.30200711243E+02 -0.97380793589E+01 -0.77343176926E+01  0.32660875973E+02  0.00000000000E+00 0.  1.
         11    1    1    2    0    0 -0.12443793052E+02 -0.49875987320E+02 -0.15772440994E+03  0.16588987789E+03  0.00000000000E+00 0. -1.
<mgrwt>
<rscale>  0 0.13146888E+03</rscale>
<asrwt>0</asrwt>
<pdfrwt beam="2">  1        2 0.11471717E+00 0.13962332E+03</pdfrwt>
<pdfrwt beam="1">  1       -2 0.38757736E-02 0.13962332E+03</pdfrwt>
<totfact> 0.10725000E+04</totfact>
</mgrwt>
</event>
<event>
 7    1  0.6008063E-006  0.1649316E+03  0.7546771E-02  0.1190503E+00
         -1   -1    0    0    0  501 -0.00000000000E+00  0.00000000000E+00  0.11058701084E+03  0.11058701084E+03  0.00000000000E+00 0.  1.
          1   -1    0    0  501    0  0.00000000000E+00 -0.00000000000E+00 -0.29610782436E+03  0.29610782436E+03  0.00000000000E+00 0. -1.
         23    2    1    2    0    0  0.29021217504E+01  0.10756382130E+03 -0.20703723224E+03  0.26470143041E+03  0.12499613499E+03 0.  0.
          5    1    3    3  502    0  0.36781688004E+01  0.29056411036E+02  0.11979283852E+02  0.31990579701E+02  0.47000000000E+01 0. -1.
         -5    1    3    3    0  502 -0.77604705007E+00  0.78507410265E+02 -0.21901651609E+03  0.23271085071E+03  0.47000000000E+01 0. -1.
        -11    1    1    2    0    0 -0.24612428106E+02 -0.56455485848E+02 -0.27944844943E+02  0.67630672468E+02  0.00000000000E+00 0. -1.
         11    1    1    2    0    0  0.21710306356E+02 -0.51108335452E+02  0.49461263660E+02  0.74362732317E+02  0.00000000000E+00 0.  1.
<mgrwt>
<rscale>  0 0.15841047E+03</rscale>
<asrwt>0</asrwt>
<pdfrwt beam="2">  1        1 0.45555051E-01 0.16493160E+03</pdfrwt>
<pdfrwt beam="1">  1       -1 0.17013386E-01 0.16493160E+03</pdfrwt>
<totfact> 0.22957946E+03</totfact>
</mgrwt>
</event>
<event>
 7    1  0.6008063E-006  0.3818449E+03  0.7546771E-02  0.1051179E+00
          2   -1    0    0  501    0  0.00000000000E+00  0.00000000000E+00  0.15670741929E+04  0.15670741929E+04  0.00000000000E+00 0. -1.
         -2   -1    0    0    0  501 -0.00000000000E+00 -0.00000000000E+00 -0.10935164139E+03  0.10935164139E+03  0.00000000000E+00 0.  1.
         23    2    1    2    0    0  0.17842582887E+03  0.31360348158E+03  0.10835477787E+04  0.11488608643E+04  0.12499030716E+03 0.  0.
          5    1    3    3  502    0  0.95304935110E+02  0.91035868297E+02  0.53574089238E+03  0.55173449570E+03  0.47000000000E+01 0.  1.
         -5    1    3    3    0  502  0.83120893760E+02  0.22256761328E+03  0.54780688627E+03  0.59712636862E+03  0.47000000000E+01 0.  1.
        -11    1    1    2    0    0 -0.14534709916E+03 -0.17112083237E+03  0.20631545429E+03  0.30491668565E+03  0.00000000000E+00 0. -1.
         11    1    1    2    0    0 -0.33078729713E+02 -0.14248264920E+03  0.16785931856E+03  0.22264828432E+03  0.00000000000E+00 0.  1.
<mgrwt>
<rscale>  0 0.37933688E+03</rscale>
<asrwt>0</asrwt>
<pdfrwt beam="1">  1        2 0.24108832E+00 0.38184486E+03</pdfrwt>
<pdfrwt beam="2">  1       -2 0.16823331E-01 0.38184486E+03</pdfrwt>
<totfact> 0.35115921E+02</totfact>
</mgrwt>
</event>
<event>
 7    1  0.6008063E-006  0.1341814E+03  0.7546771E-02  0.1234029E+00
          2   -1    0    0  501    0  0.00000000000E+00  0.00000000000E+00  0.25115031360E+03  0.25115031360E+03  0.00000000000E+00 0. -1.
         -2   -1    0    0    0  501 -0.00000000000E+00 -0.00000000000E+00 -0.58732421178E+02  0.58732421178E+02  0.00000000000E+00 0.  1.
         23    2    1    2    0    0  0.44488916574E+02 -0.20016065565E+02  0.14067641767E+03  0.19440805556E+03  0.12499892400E+03 0.  0.
          5    1    3    3  502    0  0.82459891206E+02 -0.38731547743E+02  0.89090737125E+02  0.12751084616E+03  0.47000000000E+01 0. -1.
         -5    1    3    3    0  502 -0.37970974632E+02  0.18715482178E+02  0.51585680546E+02  0.66897209396E+02  0.47000000000E+01 0. -1.
        -11    1    1    2    0    0 -0.15297211257E+02 -0.26982915357E+01  0.71756669030E+02  0.73418696527E+02  0.00000000000E+00 0. -1.
         11    1    1    2    0    0 -0.29191705317E+02  0.22714357100E+02 -0.20015194281E+02  0.42055982688E+02  0.00000000000E+00 0.  1.
<mgrwt>
<rscale>  0 0.12566798E+03</rscale>
<asrwt>0</asrwt>
<pdfrwt beam="1">  1        2 0.38638509E-01 0.13418136E+03</pdfrwt>
<pdfrwt beam="2">  1       -2 0.90357573E-02 0.13418136E+03</pdfrwt>
<totfact> 0.97750265E+03</totfact>
</mgrwt>
</event>
<event>
 7    1  0.6008063E-006  0.1347351E+03  0.7546771E-02  0.1233097E+00
          2   -1    0    0  501    0  0.00000000000E+00  0.00000000000E+00  0.17016121350E+03  0.17016121350E+03  0.00000000000E+00 0. -1.
         -2   -1    0    0    0  501 -0.00000000000E+00 -0.00000000000E+00 -0.87651288757E+02  0.87651288757E+02  0.00000000000E+00 0.  1.
         23    2    1    2    0    0 -0.35877159539E+02  0.35243688194E+02  0.73520126144E+02  0.15348860350E+03  0.12499701726E+03 0.  0.
          5    1    3    3  502    0  0.30382418811E+02  0.45745137379E+02  0.17645232384E+01  0.55144469432E+02  0.47000000000E+01 0.  1.
         -5    1    3    3    0  502 -0.66259578350E+02 -0.10501449186E+02  0.71755602906E+02  0.98344134073E+02  0.47000000000E+01 0.  1.
        -11    1    1    2    0    0  0.20816157454E+01  0.18150602067E+02 -0.26241738753E+02  0.31975089246E+02  0.00000000000E+00 0.  1.
         11    1    1    2    0    0  0.33795543793E+02 -0.53394290261E+02  0.35231537354E+02  0.72348809507E+02  0.00000000000E+00 0. -1.
<mgrwt>
<rscale>  0 0.12627049E+03</rscale>
<asrwt>0</asrwt>
<pdfrwt beam="1">  1        2 0.26178648E-01 0.13473508E+03</pdfrwt>
<pdfrwt beam="2">  1       -2 0.13484814E-01 0.13473508E+03</pdfrwt>
<totfact> 0.78897638E+03</totfact>
</mgrwt>
</event>
<event>
 7    1  0.6008063E-006  0.1939802E+03  0.7546771E-02  0.1159653E+00
          2   -1    0    0  501    0  0.00000000000E+00  0.00000000000E+00  0.15359336562E+04  0.15359336562E+04  0.00000000000E+00 0. -1.
         -2   -1    0    0    0  501 -0.00000000000E+00 -0.00000000000E+00 -0.43015204079E+02  0.43015204079E+02  0.00000000000E+00 0.  1.
         23    2    1    2    0    0  0.40449590777E+02 -0.14271511882E+03  0.13189745416E+04  0.13331624632E+04  0.12499814954E+03 0.  0.
          5    1    3    3  502    0  0.84920889789E+02 -0.10066019876E+03  0.84102192797E+03  0.85128374028E+03  0.47000000000E+01 0. -1.
         -5    1    3    3    0  502 -0.44471299012E+02 -0.42054920054E+02  0.47795261360E+03  0.48187872290E+03  0.47000000000E+01 0. -1.
        -11    1    1    2    0    0 -0.97923726715E+01  0.66260210007E+02  0.17891994536E+02  0.69328417415E+02  0.00000000000E+00 0.  1.
         11    1    1    2    0    0 -0.30657218105E+02  0.76454908810E+02  0.15605191602E+03  0.17645797969E+03  0.00000000000E+00 0. -1.
<mgrwt>
<rscale>  0 0.18868483E+03</rscale>
<asrwt>0</asrwt>
<pdfrwt beam="1">  1        2 0.23629744E+00 0.19398018E+03</pdfrwt>
<pdfrwt beam="2">  1       -2 0.66177249E-02 0.19398018E+03</pdfrwt>
<totfact> 0.16662167E+03</totfact>
</mgrwt>
</event>
<event>
 7    1  0.6008063E-006  0.1401484E+03  0.7546771E-02  0.1220942E+00
         -1   -1    0    0    0  501 -0.00000000000E+00  0.00000000000E+00  0.16393050096E+03  0.16393050096E+03  0.00000000000E+00 0.  1.
          1   -1    0    0  501    0  0.00000000000E+00 -0.00000000000E+00 -0.12510044598E+03  0.12510044598E+03  0.00000000000E+00 0. -1.
         23    2    1    2    0    0  0.36780481078E+02 -0.64832025811E+02 -0.40807268890E+02  0.14596847847E+03  0.11868263628E+03 0.  0.
          5    1    3    3  502    0  0.17494209785E+02 -0.87339292418E+02  0.70541202742E+01  0.89476533174E+02  0.47000000000E+01 0. -1.
         -5    1    3    3    0  502  0.19286271293E+02  0.22507266607E+02 -0.47861389164E+02  0.56491945295E+02  0.47000000000E+01 0.  1.
        -11    1    1    2    0    0  0.78450587357E+01  0.14892423358E+02  0.73957613880E+02  0.75848914764E+02  0.00000000000E+00 0.  1.
         11    1    1    2    0    0 -0.44625539813E+02  0.49939602453E+02  0.56797099873E+01  0.67213553710E+02  0.00000000000E+00 0. -1.
<mgrwt>
<rscale>  0 0.13448959E+03</rscale>
<asrwt>0</asrwt>
<pdfrwt beam="2">  1        1 0.19246222E-01 0.14014836E+03</pdfrwt>
<pdfrwt beam="1">  1       -1 0.25220077E-01 0.14014836E+03</pdfrwt>
<totfact> 0.35500997E+03</totfact>
</mgrwt>
</event>
<event>
 6    1  0.6008063E-006  0.1539022E+03  0.7546771E-02  0.1212845E+00
          1   -1    0    0  501    0  0.00000000000E+00  0.00000000000E+00  0.83206765884E+03  0.83206765884E+03  0.00000000000E+00 0. -1.
         -1   -1    0    0    0  501 -0.00000000000E+00 -0.00000000000E+00 -0.21392858949E+02  0.21392858949E+02  0.00000000000E+00 0.  1.
          5    1    1    2  502    0  0.44784387216E+02 -0.13464018319E+02  0.89587395257E+02  0.10116774445E+03  0.47000000000E+01 0. -1.
         -5    1    1    2    0  502 -0.61384382423E+02  0.69381169074E+02  0.47789744129E+03  0.48681602625E+03  0.47000000000E+01 0.  1.
        -11    1    1    2    0    0  0.29329755369E+02 -0.33751240377E+02  0.23412361430E+03  0.23835529688E+03  0.00000000000E+00 0. -1.
         11    1    1    2    0    0 -0.12729760162E+02 -0.22165910378E+02  0.90663490518E+01  0.27121450216E+02  0.00000000000E+00 0.  1.
<mgrwt>
<rscale>  0 0.14036009E+03</rscale>
<asrwt>0</asrwt>
<pdfrwt beam="1">  1        1 0.12801038E+00 0.15390216E+03</pdfrwt>
<pdfrwt beam="2">  1       -1 0.32912097E-02 0.15390216E+03</pdfrwt>
<totfact> 0.69344460E+03</totfact>
</mgrwt>
</event>
<event>
 7    1  0.6008063E-006  0.1669000E+03  0.7546771E-02  0.1187978E+00
         -1   -1    0    0    0  501 -0.00000000000E+00  0.00000000000E+00  0.47636713196E+02  0.47636713196E+02  0.00000000000E+00 0.  1.
          1   -1    0    0  501    0  0.00000000000E+00 -0.00000000000E+00 -0.50751852044E+03  0.50751852044E+03  0.00000000000E+00 0. -1.
         23    2    1    2    0    0  0.88682843464E+01 -0.11023869548E+03 -0.26781953465E+03  0.31556759540E+03  0.12499755071E+03 0.  0.
          5    1    3    3  502    0 -0.30362179722E+02 -0.46157933675E+02 -0.21883726209E+03  0.22575263914E+03  0.47000000000E+01 0.  1.
         -5    1    3    3    0  502  0.39230464069E+02 -0.64080761806E+02 -0.48982272559E+02  0.89814956269E+02  0.47000000000E+01 0.  1.
        -11    1    1    2    0    0  0.34268562611E+02  0.33038559213E+02 -0.34099244127E+02  0.58554583324E+02  0.00000000000E+00 0. -1.
         11    1    1    2    0    0 -0.43136846958E+02  0.77200136268E+02 -0.15796302847E+03  0.18103305490E+03  0.00000000000E+00 0.  1.
<mgrwt>
<rscale>  0 0.16063840E+03</rscale>
<asrwt>0</asrwt>
<pdfrwt beam="2">  1        1 0.78079779E-01 0.16689998E+03</pdfrwt>
<pdfrwt beam="1">  1       -1 0.73287245E-02 0.16689998E+03</pdfrwt>
<totfact> 0.42580020E+03</totfact>
</mgrwt>
</event>
<event>
 7    1  0.6008063E-006  0.1325756E+03  0.7546771E-02  0.1236442E+00
         -2   -1    0    0    0  501 -0.00000000000E+00  0.00000000000E+00  0.77949234505E+02  0.77949234505E+02  0.00000000000E+00 0. -1.
          2   -1    0    0  501    0  0.00000000000E+00 -0.00000000000E+00 -0.45820771938E+03  0.45820771938E+03  0.00000000000E+00 0.  1.
         23    2    1    2    0    0  0.13404886097E+02 -0.42052985713E+02 -0.40929242504E+03  0.43022853283E+03  0.12501262613E+03 0.  0.
          5    1    3    3  502    0  0.68914382236E+02 -0.25698722038E+02 -0.25231173733E+03  0.26285531988E+03  0.47000000000E+01 0.  1.
         -5    1    3    3    0  502 -0.55509496139E+02 -0.16354263674E+02 -0.15698068771E+03  0.16737321296E+03  0.47000000000E+01 0.  1.
        -11    1    1    2    0    0  0.14901929924E+02  0.45135334003E+02  0.51186338453E+02  0.69852037445E+02  0.00000000000E+00 0. -1.
         11    1    1    2    0    0 -0.28306816021E+02 -0.30823482908E+01 -0.22152398292E+02  0.36076383609E+02  0.00000000000E+00 0.  1.
<mgrwt>
<rscale>  0 0.12412558E+03</rscale>
<asrwt>0</asrwt>
<pdfrwt beam="2">  1        2 0.70493496E-01 0.13257564E+03</pdfrwt>
<pdfrwt beam="1">  1       -2 0.11992190E-01 0.13257564E+03</pdfrwt>
<totfact> 0.32967202E+03</totfact>
</mgrwt>
</event>
<event>
 7    1  0.6008063E-006  0.1606343E+03  0.7546771E-02  0.1195961E+00
          1   -1    0    0  501    0  0.00000000000E+00  0.00000000000E+00  0.27133368328E+02  0.27133368328E+02  0.00000000000E+00 0. -1.
         -1   -1    0    0    0  501 -0.00000000000E+00 -0.00000000000E+00 -0.90298017060E+03  0.90298017060E+03  0.00000000000E+00 0.  1.
         23    2    1    2    0    0  0.78137296847E+02  0.63824734856E+02 -0.31858942987E+03  0.35679490743E+03  0.12499738878E+03 0.  0.
          5    1    3    3  502    0 -0.33539876608E+02  0.14942846863E+02 -0.54430443978E+02  0.65825338790E+02  0.47000000000E+01 0.  1.
         -5    1    3    3    0  502  0.11167717346E+03  0.48881887993E+02 -0.26415898590E+03  0.29096956864E+03  0.47000000000E+01 0.  1.
        -11    1    1    2    0    0 -0.38240865640E+02 -0.80932501431E+02 -0.32839989816E+03  0.34038056158E+03  0.00000000000E+00 0. -1.
         11    1    1    2    0    0 -0.39896431207E+02  0.17107766575E+02 -0.22885747424E+03  0.23293806991E+03  0.00000000000E+00 0.  1.
<mgrwt>
<rscale>  0 0.15373178E+03</rscale>
<asrwt>0</asrwt>
<pdfrwt beam="1">  1        1 0.41743638E-02 0.16063431E+03</pdfrwt>
<pdfrwt beam="2">  1       -1 0.13892004E+00 0.16063431E+03</pdfrwt>
<totfact> 0.97544647E+02</totfact>
</mgrwt>
</event>
<event>
 7    1  0.6008063E-006  0.1859092E+03  0.7546771E-02  0.1167312E+00
          2   -1    0    0  501    0  0.00000000000E+00  0.00000000000E+00  0.27715667898E+03  0.27715667898E+03  0.00000000000E+00 0. -1.
         -2   -1    0    0    0  501 -0.00000000000E+00 -0.00000000000E+00 -0.11142003604E+03  0.11142003604E+03  0.00000000000E+00 0.  1.
         23    2    1    2    0    0  0.65035835621E+02  0.12127705555E+03  0.96029818526E+02  0.20924620050E+03  0.12499784903E+03 0.  0.
          5    1    3    3  502    0  0.58164106188E+02  0.13844605007E+03  0.48252834864E+02  0.15779986724E+03  0.47000000000E+01 0. -1.
         -5    1    3    3    0  502  0.68717294322E+01 -0.17168994523E+02  0.47776983663E+02  0.51446333263E+02  0.47000000000E+01 0. -1.
        -11    1    1    2    0    0  0.53352909474E+01 -0.36003222947E+02 -0.15685407293E+02  0.39632428565E+02  0.00000000000E+00 0.  1.
         11    1    1    2    0    0 -0.70371126568E+02 -0.85273832601E+02  0.85392231714E+02  0.13969808595E+03  0.00000000000E+00 0. -1.
<mgrwt>
<rscale>  0 0.18050816E+03</rscale>
<asrwt>0</asrwt>
<pdfrwt beam="1">  1        2 0.42639489E-01 0.18590924E+03</pdfrwt>
<pdfrwt beam="2">  1       -2 0.17141544E-01 0.18590924E+03</pdfrwt>
<totfact> 0.31980459E+03</totfact>
</mgrwt>
</event>
<event>
 7    1  0.6008063E-006  0.3257742E+03  0.7546771E-02  0.1074211E+00
          2   -1    0    0  501    0  0.00000000000E+00  0.00000000000E+00  0.14376537801E+04  0.14376537801E+04  0.00000000000E+00 0.  1.
         -2   -1    0    0    0  501 -0.00000000000E+00 -0.00000000000E+00 -0.77819662864E+02  0.77819662864E+02  0.00000000000E+00 0. -1.
         23    2    1    2    0    0  0.29703001277E+03  0.47717309147E+02  0.90620062567E+03  0.96297891671E+03  0.12500019990E+03 0.  0.
          5    1    3    3  502    0  0.14126267602E+03  0.85405332001E+02  0.43901680789E+03  0.46904910402E+03  0.47000000000E+01 0.  1.
         -5    1    3    3    0  502  0.15576733675E+03 -0.37688022854E+02  0.46718381778E+03  0.49392981269E+03  0.47000000000E+01 0.  1.
        -11    1    1    2    0    0 -0.15671000364E+03 -0.19661145240E+02  0.31928715965E+03  0.35621464904E+03  0.00000000000E+00 0.  1.
         11    1    1    2    0    0 -0.14032000913E+03 -0.28056163906E+02  0.13434633187E+03  0.19627987717E+03  0.00000000000E+00 0. -1.
<mgrwt>
<rscale>  0 0.32314490E+03</rscale>
<asrwt>0</asrwt>
<pdfrwt beam="1">  1        2 0.22117748E+00 0.32577419E+03</pdfrwt>
<pdfrwt beam="2">  1       -2 0.11972257E-01 0.32577419E+03</pdfrwt>
<totfact> 0.72997952E+02</totfact>
</mgrwt>
</event>
<event>
 7    1  0.6008063E-006  0.1877889E+03  0.7546771E-02  0.1161912E+00
          1   -1    0    0  501    0  0.00000000000E+00  0.00000000000E+00  0.28409252118E+03  0.28409252118E+03  0.00000000000E+00 0. -1.
         -1   -1    0    0    0  501 -0.00000000000E+00 -0.00000000000E+00 -0.12017961135E+03  0.12017961135E+03  0.00000000000E+00 0.  1.
         23    2    1    2    0    0  0.47103959235E+02  0.13200258516E+03  0.89229432983E+02  0.20790999694E+03  0.12498483768E+03 0.  0.
          5    1    3    3  502    0  0.86472553055E+02  0.67842756988E+02  0.36591640223E+02  0.11593610413E+03  0.47000000000E+01 0. -1.
         -5    1    3    3    0  502 -0.39368593820E+02  0.64159828175E+02  0.52637792759E+02  0.91973892803E+02  0.47000000000E+01 0. -1.
        -11    1    1    2    0    0  0.24225396678E+02 -0.37594178047E+02 -0.15771378881E+02  0.47422868524E+02  0.00000000000E+00 0.  1.
         11    1    1    2    0    0 -0.71329355912E+02 -0.94408407116E+02  0.90454855735E+02  0.14893926707E+03  0.00000000000E+00 0. -1.
<mgrwt>
<rscale>  0 0.18622353E+03</rscale>
<asrwt>0</asrwt>
<pdfrwt beam="1">  1        1 0.43706542E-01 0.18778891E+03</pdfrwt>
<pdfrwt beam="2">  1       -1 0.18489171E-01 0.18778891E+03</pdfrwt>
<totfact> 0.21253351E+03</totfact>
</mgrwt>
</event>
<event>
 7    1  0.6008063E-006  0.1327578E+03  0.7546771E-02  0.1237983E+00
          1   -1    0    0  501    0  0.00000000000E+00  0.00000000000E+00  0.48706674025E+02  0.48706674025E+02  0.00000000000E+00 0. -1.
         -1   -1    0    0    0  501 -0.00000000000E+00 -0.00000000000E+00 -0.29971319144E+03  0.29971319144E+03  0.00000000000E+00 0.  1.
         23    2    1    2    0    0  0.25304165941E+02 -0.36857744659E+02 -0.92159913554E+02  0.16161094095E+03  0.12500340961E+03 0.  0.
          5    1    3    3  502    0  0.26787643311E+02 -0.51834724710E+02  0.90047754982E+01  0.59224931420E+02  0.47000000000E+01 0. -1.
         -5    1    3    3    0  502 -0.14834773703E+01  0.14976980051E+02 -0.10116468905E+03  0.10238600953E+03  0.47000000000E+01 0. -1.
        -11    1    1    2    0    0  0.29366831398E+02  0.58563596840E+00 -0.28732199018E+02  0.41088842966E+02  0.00000000000E+00 0. -1.
         11    1    1    2    0    0 -0.54670997338E+02  0.36272108691E+02 -0.13011440484E+03  0.14572008155E+03  0.00000000000E+00 0.  1.
<mgrwt>
<rscale>  0 0.12315364E+03</rscale>
<asrwt>0</asrwt>
<pdfrwt beam="1">  1        1 0.74933344E-02 0.13275785E+03</pdfrwt>
<pdfrwt beam="2">  1       -1 0.46109722E-01 0.13275785E+03</pdfrwt>
<totfact> 0.43361270E+03</totfact>
</mgrwt>
</event>
<event>
 7    1  0.6008063E-006  0.1472961E+03  0.7546771E-02  0.1213755E+00
         -1   -1    0    0    0  501 -0.00000000000E+00  0.00000000000E+00  0.25541037060E+02  0.25541037060E+02  0.00000000000E+00 0.  1.
          1   -1    0    0  501    0  0.00000000000E+00 -0.00000000000E+00 -0.73315398361E+03  0.73315398361E+03  0.00000000000E+00 0. -1.
         23    2    1    2    0    0  0.33251040147E+02 -0.70792715902E+02 -0.47558777788E+03  0.49787537412E+03  0.12481551742E+03 0.  0.
          5    1    3    3  502    0  0.23140405971E+02  0.99329195103E+01 -0.14086882285E+02  0.29234765794E+02  0.47000000000E+01 0. -1.
         -5    1    3    3    0  502  0.10110634175E+02 -0.80725635412E+02 -0.46150089559E+03  0.46864060832E+03  0.47000000000E+01 0. -1.
        -11    1    1    2    0    0  0.24795913978E+01  0.36950688935E+02 -0.19691113735E+03  0.20036341433E+03  0.00000000000E+00 0. -1.
         11    1    1    2    0    0 -0.35730631545E+02  0.33842026967E+02 -0.35114031321E+02  0.60456232230E+02  0.00000000000E+00 0.  1.
<mgrwt>
<rscale>  0 0.13968377E+03</rscale>
<asrwt>0</asrwt>
<pdfrwt beam="2">  1        1 0.11279289E+00 0.14729614E+03</pdfrwt>
<pdfrwt beam="1">  1       -1 0.39293912E-02 0.14729614E+03</pdfrwt>
<totfact> 0.64481507E+03</totfact>
</mgrwt>
</event>
<event>
 7    1  0.6008063E-006  0.1344602E+03  0.7546771E-02  0.1229314E+00
          2   -1    0    0  501    0  0.00000000000E+00  0.00000000000E+00  0.30608839039E+03  0.30608839039E+03  0.00000000000E+00 0. -1.
         -2   -1    0    0    0  501 -0.00000000000E+00 -0.00000000000E+00 -0.64112804054E+02  0.64112804054E+02  0.00000000000E+00 0.  1.
         23    2    1    2    0    0 -0.60922314477E+02 -0.29972359583E+02  0.21563321090E+03  0.25412050333E+03  0.11605894118E+03 0.  0.
          5    1    3    3  502    0 -0.61639433790E+02 -0.21184821605E+02  0.22859669187E+03  0.23775355728E+03  0.47000000000E+01 0. -1.
         -5    1    3    3    0  502  0.71711931306E+00 -0.87875379777E+01 -0.12963480976E+02  0.16366946045E+02  0.47000000000E+01 0.  1.
        -11    1    1    2    0    0  0.15089941187E+02  0.52950105189E+02  0.33293552530E+02  0.64341903956E+02  0.00000000000E+00 0. -1.
         11    1    1    2    0    0  0.45832373290E+02 -0.22977745606E+02 -0.69511770862E+01  0.51738787166E+02  0.00000000000E+00 0.  1.
<mgrwt>
<rscale>  0 0.12875530E+03</rscale>
<asrwt>0</asrwt>
<pdfrwt beam="1">  1        2 0.47090521E-01 0.13446021E+03</pdfrwt>
<pdfrwt beam="2">  1       -2 0.98635085E-02 0.13446021E+03</pdfrwt>
<totfact> 0.69110810E+03</totfact>
</mgrwt>
</event>
<event>
 7    1  0.6008063E-006  0.1758686E+03  0.7546771E-02  0.1178111E+00
         -1   -1    0    0    0  501 -0.00000000000E+00  0.00000000000E+00  0.58986621887E+02  0.58986621887E+02  0.00000000000E+00 0.  1.
          1   -1    0    0  501    0  0.00000000000E+00 -0.00000000000E+00 -0.53266142326E+03  0.53266142326E+03  0.00000000000E+00 0. -1.
         23    2    1    2    0    0 -0.12371743713E+03 -0.60693006688E+00 -0.36219936238E+03  0.40263897036E+03  0.12499355875E+03 0.  0.
          5    1    3    3  502    0 -0.18478275920E+02 -0.43464340245E+02 -0.19313947157E+03  0.19888574869E+03  0.47000000000E+01 0.  1.
         -5    1    3    3    0  502 -0.10523916121E+03  0.42857410178E+02 -0.16905989081E+03  0.20375322166E+03  0.47000000000E+01 0.  1.
        -11    1    1    2    0    0  0.10484426522E+03  0.32244097378E+02 -0.58022198129E+02  0.12409100387E+03  0.00000000000E+00 0. -1.
         11    1    1    2    0    0  0.18873171909E+02 -0.31637167311E+02 -0.53453240862E+02  0.64918070921E+02  0.00000000000E+00 0.  1.
<mgrwt>
<rscale>  0 0.16974823E+03</rscale>
<asrwt>0</asrwt>
<pdfrwt beam="2">  1        1 0.81947908E-01 0.17586859E+03</pdfrwt>
<pdfrwt beam="1">  1       -1 0.90748652E-02 0.17586859E+03</pdfrwt>
<totfact> 0.28923874E+03</totfact>
</mgrwt>
</event>
<event>
 7    1  0.6008063E-006  0.1313932E+03  0.7546771E-02  0.1239099E+00
          2   -1    0    0  501    0  0.00000000000E+00  0.00000000000E+00  0.74119604113E+03  0.74119604113E+03  0.00000000000E+00 0. -1.
         -2   -1    0    0    0  501 -0.00000000000E+00 -0.00000000000E+00 -0.31243597073E+02  0.31243597073E+02  0.00000000000E+00 0.  1.
         23    2    1    2    0    0  0.20214447060E+02  0.35091949584E+02  0.63422725070E+03  0.64769466948E+03  0.12499644216E+03 0.  0.
          5    1    3    3  502    0  0.86565110412E+01  0.47132714438E+02  0.62710273476E+03  0.62894861308E+03  0.47000000000E+01 0. -1.
         -5    1    3    3    0  502  0.11557936019E+02 -0.12040764854E+02  0.71245159407E+01  0.18746056403E+02  0.47000000000E+01 0. -1.
        -11    1    1    2    0    0  0.13522752534E+02 -0.21289486696E+02  0.83711955095E+02  0.87428819652E+02  0.00000000000E+00 0. -1.
         11    1    1    2    0    0 -0.33737199594E+02 -0.13802462889E+02 -0.79867617376E+01  0.37316149069E+02  0.00000000000E+00 0.  1.
<mgrwt>
<rscale>  0 0.12245665E+03</rscale>
<asrwt>0</asrwt>
<pdfrwt beam="1">  1        2 0.11403015E+00 0.13139322E+03</pdfrwt>
<pdfrwt beam="2">  1       -2 0.48067078E-02 0.13139322E+03</pdfrwt>
<totfact> 0.78090165E+03</totfact>
</mgrwt>
</event>
<event>
 7    1  0.6008063E-006  0.1585953E+03  0.7546771E-02  0.1198255E+00
         -3   -1    0    0    0  501 -0.00000000000E+00  0.00000000000E+00  0.92541042578E+02  0.92541042578E+02  0.00000000000E+00 0.  1.
          3   -1    0    0  501    0  0.00000000000E+00 -0.00000000000E+00 -0.24301598268E+03  0.24301598268E+03  0.00000000000E+00 0. -1.
         23    2    1    2    0    0  0.71541378657E+02  0.66404075884E+02 -0.12015245834E+03  0.19897004451E+03  0.12499918085E+03 0.  0.
          5    1    3    3  502    0 -0.21256177500E+02 -0.21437906946E+02 -0.19553340049E+02  0.36274399281E+02  0.47000000000E+01 0.  1.
         -5    1    3    3    0  502  0.92797556157E+02  0.87841982830E+02 -0.10059911830E+03  0.16269564523E+03  0.47000000000E+01 0.  1.
        -11    1    1    2    0    0 -0.34070216515E+02 -0.51472670024E+02 -0.60329944276E+02  0.86312905113E+02  0.00000000000E+00 0. -1.
         11    1    1    2    0    0 -0.37471162142E+02 -0.14931405860E+02  0.30007462521E+02  0.50274075627E+02  0.00000000000E+00 0.  1.
<mgrwt>
<rscale>  0 0.15181908E+03</rscale>
<asrwt>0</asrwt>
<pdfrwt beam="2">  1        3 0.37387074E-01 0.15859529E+03</pdfrwt>
<pdfrwt beam="1">  1       -3 0.14237084E-01 0.15859529E+03</pdfrwt>
<totfact> 0.68027820E+02</totfact>
</mgrwt>
</event>
<event>
 6    1  0.6008063E-006  0.1411828E+03  0.7546771E-02  0.1239289E+00
          1   -1    0    0  501    0  0.00000000000E+00  0.00000000000E+00  0.17903300723E+03  0.17903300723E+03  0.00000000000E+00 0. -1.
         -1   -1    0    0    0  501 -0.00000000000E+00 -0.00000000000E+00 -0.14259800384E+03  0.14259800384E+03  0.00000000000E+00 0.  1.
          5    1    1    2  502    0  0.14756128055E+02 -0.14707076102E+02  0.15319268753E+03  0.15467427360E+03  0.47000000000E+01 0. -1.
         -5    1    1    2    0  502 -0.31737090120E+02  0.16373753659E+02 -0.18465267662E+02  0.40477139325E+02  0.47000000000E+01 0.  1.
        -11    1    1    2    0    0  0.45455446068E+01  0.34048655462E+02 -0.73855434848E+02  0.81453042737E+02  0.00000000000E+00 0. -1.
         11    1    1    2    0    0  0.12435417457E+02 -0.35715333019E+02 -0.24436981630E+02  0.45026555400E+02  0.00000000000E+00 0.  1.
<mgrwt>
<rscale>  0 0.12233781E+03</rscale>
<asrwt>0</asrwt>
<pdfrwt beam="1">  1        1 0.27543540E-01 0.14118285E+03</pdfrwt>
<pdfrwt beam="2">  1       -1 0.21938154E-01 0.14118285E+03</pdfrwt>
<totfact> 0.28365380E+03</totfact>
</mgrwt>
</event>
<event>
 7    1  0.6008063E-006  0.1352886E+03  0.7546771E-02  0.1230133E+00
          3   -1    0    0  501    0  0.00000000000E+00  0.00000000000E+00  0.62067583023E+02  0.62067583023E+02  0.00000000000E+00 0. -1.
         -3   -1    0    0    0  501 -0.00000000000E+00 -0.00000000000E+00 -0.24500996586E+03  0.24500996586E+03  0.00000000000E+00 0.  1.
         23    2    1    2    0    0  0.50350921290E+02  0.11950990240E+02 -0.80648077085E+02  0.15750276347E+03  0.12499986688E+03 0.  0.
          5    1    3    3  502    0  0.61885147101E+02  0.32281987079E+02  0.34975343670E+01  0.70044420678E+02  0.47000000000E+01 0.  1.
         -5    1    3    3    0  502 -0.11534225811E+02 -0.20330996839E+02 -0.84145611452E+02  0.87458342793E+02  0.47000000000E+01 0.  1.
        -11    1    1    2    0    0 -0.28283077052E+02  0.31204253473E+02 -0.70419403255E+01  0.42699260015E+02  0.00000000000E+00 0. -1.
         11    1    1    2    0    0 -0.22067844238E+02 -0.43155243713E+02 -0.95252365424E+02  0.10687552539E+03  0.00000000000E+00 0.  1.
<mgrwt>
<rscale>  0 0.12821181E+03</rscale>
<asrwt>0</asrwt>
<pdfrwt beam="1">  1        3 0.95488589E-02 0.13528861E+03</pdfrwt>
<pdfrwt beam="2">  1       -3 0.37693841E-01 0.13528861E+03</pdfrwt>
<totfact> 0.12765501E+03</totfact>
</mgrwt>
</event>
<event>
 7    1  0.6008063E-006  0.2031924E+03  0.7546771E-02  0.1151343E+00
          2   -1    0    0  501    0  0.00000000000E+00  0.00000000000E+00  0.62832474156E+03  0.62832474156E+03  0.00000000000E+00 0.  1.
         -2   -1    0    0    0  501 -0.00000000000E+00 -0.00000000000E+00 -0.60475925003E+02  0.60475925003E+02  0.00000000000E+00 0. -1.
         23    2    1    2    0    0  0.48648199964E+01  0.16011679175E+03  0.34106480460E+03  0.39700419847E+03  0.12500431670E+03 0.  0.
          5    1    3    3  502    0 -0.31707799387E+02  0.15655485409E+03  0.30956132456E+03  0.34837495682E+03  0.47000000000E+01 0.  1.
         -5    1    3    3    0  502  0.36572619383E+02  0.35619376616E+01  0.31503480047E+02  0.48629241651E+02  0.47000000000E+01 0.  1.
        -11    1    1    2    0    0 -0.26416542102E+02 -0.31816362775E+02  0.10793097913E+03  0.11558205264E+03  0.00000000000E+00 0.  1.
         11    1    1    2    0    0  0.21551722106E+02 -0.12830042898E+03  0.11885303283E+03  0.17621441545E+03  0.00000000000E+00 0. -1.
<mgrwt>
<rscale>  0 0.19811033E+03</rscale>
<asrwt>0</asrwt>
<pdfrwt beam="1">  1        2 0.96665340E-01 0.20319235E+03</pdfrwt>
<pdfrwt beam="2">  1       -2 0.93039889E-02 0.20319235E+03</pdfrwt>
<totfact> 0.35155845E+03</totfact>
</mgrwt>
</event>
<event>
 6    1  0.6008063E-006  0.1392858E+03  0.7546771E-02  0.1233484E+00
          2   -1    0    0  501    0  0.00000000000E+00  0.00000000000E+00  0.13330921919E+04  0.13330921919E+04  0.00000000000E+00 0. -1.
         -2   -1    0    0    0  501 -0.00000000000E+00 -0.00000000000E+00 -0.11605744414E+02  0.11605744414E+02  0.00000000000E+00 0.  1.
          5    1    1    2  502    0 -0.43219575263E+02 -0.56437071714E+02  0.73665184445E+03  0.74008857895E+03  0.47000000000E+01 0. -1.
         -5    1    1    2    0  502  0.43830878336E+02  0.37878291168E+02  0.27242195957E+03  0.27855291220E+03  0.47000000000E+01 0.  1.
        -11    1    1    2    0    0 -0.38999953725E+02 -0.15465568561E+02  0.13377097689E+03  0.14019577190E+03  0.00000000000E+00 0. -1.
         11    1    1    2    0    0  0.38388650651E+02  0.34024349107E+02  0.17864166654E+03  0.18586067323E+03  0.00000000000E+00 0.  1.
<mgrwt>
<rscale>  0 0.12602005E+03</rscale>
<asrwt>0</asrwt>
<pdfrwt beam="1">  1        2 0.20509099E+00 0.13928584E+03</pdfrwt>
<pdfrwt beam="2">  1       -2 0.17855002E-02 0.13928584E+03</pdfrwt>
<totfact> 0.14861877E+04</totfact>
</mgrwt>
</event>
<event>
 7    1  0.6008063E-006  0.1502646E+03  0.7546771E-02  0.1209226E+00
         -1   -1    0    0    0  501 -0.00000000000E+00  0.00000000000E+00  0.21758265821E+02  0.21758265821E+02  0.00000000000E+00 0.  1.
          1   -1    0    0  501    0  0.00000000000E+00 -0.00000000000E+00 -0.11371466054E+04  0.11371466054E+04  0.00000000000E+00 0. -1.
         23    2    1    2    0    0  0.73199652880E+02 -0.39953624138E+02 -0.88310896205E+03  0.89580180742E+03  0.12499983222E+03 0.  0.
          5    1    3    3  502    0  0.29009819588E+02  0.17745195843E+02 -0.66439070989E+03  0.66527706032E+03  0.47000000000E+01 0.  1.
         -5    1    3    3    0  502  0.44189833292E+02 -0.57698819981E+02 -0.21871825216E+03  0.23052474709E+03  0.47000000000E+01 0.  1.
        -11    1    1    2    0    0 -0.41983731257E+02 -0.22657913083E+01 -0.24222706830E+02  0.48523262738E+02  0.00000000000E+00 0.  1.
         11    1    1    2    0    0 -0.31215921623E+02  0.42219415447E+02 -0.20805667073E+03  0.21457980110E+03  0.00000000000E+00 0. -1.
<mgrwt>
<rscale>  0 0.14309372E+03</rscale>
<asrwt>0</asrwt>
<pdfrwt beam="2">  1        1 0.17494558E+00 0.15026456E+03</pdfrwt>
<pdfrwt beam="1">  1       -1 0.33474264E-02 0.15026456E+03</pdfrwt>
<totfact> 0.40077494E+03</totfact>
</mgrwt>
</event>
<event>
 7    1  0.6008063E-006  0.1850820E+03  0.7546771E-02  0.1168304E+00
          1   -1    0    0  501    0  0.00000000000E+00  0.00000000000E+00  0.83915757138E+02  0.83915757138E+02  0.00000000000E+00 0. -1.
         -1   -1    0    0    0  501 -0.00000000000E+00 -0.00000000000E+00 -0.40702367423E+03  0.40702367423E+03  0.00000000000E+00 0.  1.
         23    2    1    2    0    0 -0.12459479810E+03 -0.55738924757E+02 -0.89217499164E+02  0.20546316918E+03  0.12499864115E+03 0.  0.
          5    1    3    3  502    0 -0.13519585712E+03 -0.57644501333E+02 -0.36578738434E+02  0.15152855316E+03  0.47000000000E+01 0. -1.
         -5    1    3    3    0  502  0.10601059027E+02  0.19055765767E+01 -0.52638760730E+02  0.53934616025E+02  0.47000000000E+01 0. -1.
        -11    1    1    2    0    0  0.11110396026E+03  0.70018617495E+02 -0.23085979834E+03  0.26559921549E+03  0.00000000000E+00 0.  1.
         11    1    1    2    0    0  0.13490837836E+02 -0.14279692739E+02 -0.30306195933E+01  0.19877046696E+02  0.00000000000E+00 0. -1.
<mgrwt>
<rscale>  0 0.17948317E+03</rscale>
<asrwt>0</asrwt>
<pdfrwt beam="1">  1        1 0.12910117E-01 0.18508201E+03</pdfrwt>
<pdfrwt beam="2">  1       -1 0.62619025E-01 0.18508201E+03</pdfrwt>
<totfact> 0.12058559E+03</totfact>
</mgrwt>
</event>
<event>
 7    1  0.6008063E-006  0.1324317E+03  0.7546771E-02  0.1237155E+00
          2   -1    0    0  501    0  0.00000000000E+00  0.00000000000E+00  0.54134271504E+02  0.54134271504E+02  0.00000000000E+00 0. -1.
         -2   -1    0    0    0  501 -0.00000000000E+00 -0.00000000000E+00 -0.25105922200E+03  0.25105922200E+03  0.00000000000E+00 0.  1.
         23    2    1    2    0    0  0.37774557700E+02 -0.22002828613E+02 -0.11187617854E+03  0.17336215649E+03  0.12500846493E+03 0.  0.
          5    1    3    3  502    0  0.14301214206E+02  0.14599374365E+02  0.23264356068E+02  0.31320707573E+02  0.47000000000E+01 0.  1.
         -5    1    3    3    0  502  0.23473343494E+02 -0.36602202978E+02 -0.13514053461E+03  0.14204144892E+03  0.47000000000E+01 0.  1.
        -11    1    1    2    0    0  0.76405692020E+01  0.44531214868E+02 -0.60487009339E+02  0.75498911874E+02  0.00000000000E+00 0.  1.
         11    1    1    2    0    0 -0.45415126902E+02 -0.22528386254E+02 -0.24561762615E+02  0.56332425134E+02  0.00000000000E+00 0. -1.
<mgrwt>
<rscale>  0 0.12367501E+03</rscale>
<asrwt>0</asrwt>
<pdfrwt beam="1">  1        2 0.83283497E-02 0.13243171E+03</pdfrwt>
<pdfrwt beam="2">  1       -2 0.38624495E-01 0.13243171E+03</pdfrwt>
<totfact> 0.48840946E+03</totfact>
</mgrwt>
</event>
<event>
 7    1  0.6008063E-006  0.1289607E+03  0.7546771E-02  0.1242494E+00
         -2   -1    0    0    0  501 -0.00000000000E+00  0.00000000000E+00  0.39913383815E+02  0.39913383815E+02  0.00000000000E+00 0.  1.
          2   -1    0    0  501    0  0.00000000000E+00 -0.00000000000E+00 -0.37593998723E+03  0.37593998723E+03  0.00000000000E+00 0. -1.
         23    2    1    2    0    0  0.15276968216E+02 -0.27789179941E+02 -0.26568263863E+03  0.29532716567E+03  0.12500098412E+03 0.  0.
          5    1    3    3  502    0 -0.21894021084E+02  0.19484730477E+02 -0.21354105705E+03  0.21559423909E+03  0.47000000000E+01 0.  1.
         -5    1    3    3    0  502  0.37170989301E+02 -0.47273910418E+02 -0.52141581586E+02  0.79732926586E+02  0.47000000000E+01 0.  1.
        -11    1    1    2    0    0 -0.46535302409E+02 -0.10778324666E+02 -0.40319341688E+02  0.62508847110E+02  0.00000000000E+00 0.  1.
         11    1    1    2    0    0  0.31258334193E+02  0.38567504606E+02 -0.30024623095E+02  0.58017358265E+02  0.00000000000E+00 0. -1.
<mgrwt>
<rscale>  0 0.12036608E+03</rscale>
<asrwt>0</asrwt>
<pdfrwt beam="2">  1        2 0.57836922E-01 0.12896073E+03</pdfrwt>
<pdfrwt beam="1">  1       -2 0.61405205E-02 0.12896073E+03</pdfrwt>
<totfact> 0.11501423E+04</totfact>
</mgrwt>
</event>
<event>
 7    1  0.6008063E-006  0.1286726E+03  0.7546771E-02  0.1243444E+00
          1   -1    0    0  501    0  0.00000000000E+00  0.00000000000E+00  0.22223240264E+03  0.22223240264E+03  0.00000000000E+00 0. -1.
         -1   -1    0    0    0  501 -0.00000000000E+00 -0.00000000000E+00 -0.59009577111E+02  0.59009577111E+02  0.00000000000E+00 0.  1.
         23    2    1    2    0    0 -0.22346781281E+02 -0.20803631789E+02  0.11777680698E+03  0.17443630629E+03  0.12499791583E+03 0.  0.
          5    1    3    3  502    0  0.47191394817E+02  0.14050325614E+02  0.34004072306E+02  0.60023381512E+02  0.47000000000E+01 0. -1.
         -5    1    3    3    0  502 -0.69538176099E+02 -0.34853957404E+02  0.83772734676E+02  0.11441292478E+03  0.47000000000E+01 0. -1.
        -11    1    1    2    0    0 -0.29602678931E+02 -0.93214417911E+01 -0.74368815550E+00  0.31044499497E+02  0.00000000000E+00 0.  1.
         11    1    1    2    0    0  0.51949460212E+02  0.30125073580E+02  0.46189706698E+02  0.75761173958E+02  0.00000000000E+00 0. -1.
<mgrwt>
<rscale>  0 0.11978992E+03</rscale>
<asrwt>0</asrwt>
<pdfrwt beam="1">  1        1 0.34189600E-01 0.12867264E+03</pdfrwt>
<pdfrwt beam="2">  1       -1 0.90783966E-02 0.12867264E+03</pdfrwt>
<totfact> 0.85612473E+03</totfact>
</mgrwt>
</event>
<event>
 7    1  0.6008063E-006  0.1921549E+03  0.7546771E-02  0.1159441E+00
          1   -1    0    0  501    0  0.00000000000E+00  0.00000000000E+00  0.17544849939E+03  0.17544849939E+03  0.00000000000E+00 0. -1.
         -1   -1    0    0    0  501 -0.00000000000E+00 -0.00000000000E+00 -0.20275272124E+03  0.20275272124E+03  0.00000000000E+00 0.  1.
         23    2    1    2    0    0 -0.10966345469E+03 -0.96294571109E+02  0.18137704957E+02  0.19300903386E+03  0.12499917236E+03 0.  0.
          5    1    3    3  502    0 -0.63898535501E+02  0.14903121258E+02  0.29582317769E+02  0.72127175094E+02  0.47000000000E+01 0.  1.
         -5    1    3    3    0  502 -0.45764919186E+02 -0.11119769237E+03 -0.11444612812E+02  0.12088185876E+03  0.47000000000E+01 0.  1.
        -11    1    1    2    0    0  0.10761189751E+02  0.74624756285E+02 -0.31397781674E+01  0.75462014698E+02  0.00000000000E+00 0.  1.
         11    1    1    2    0    0  0.98902264936E+02  0.21669814825E+02 -0.42302148636E+02  0.10973017207E+03  0.00000000000E+00 0. -1.
<mgrwt>
<rscale>  0 0.18891791E+03</rscale>
<asrwt>0</asrwt>
<pdfrwt beam="1">  1        1 0.26992077E-01 0.19215491E+03</pdfrwt>
<pdfrwt beam="2">  1       -1 0.31192726E-01 0.19215491E+03</pdfrwt>
<totfact> 0.16401029E+03</totfact>
</mgrwt>
</event>
<event>
 7    1  0.6008063E-006  0.1938249E+03  0.7546771E-02  0.1159541E+00
          2   -1    0    0  501    0  0.00000000000E+00  0.00000000000E+00  0.89205862860E+03  0.89205862860E+03  0.00000000000E+00 0. -1.
         -2   -1    0    0    0  501 -0.00000000000E+00 -0.00000000000E+00 -0.38627063954E+02  0.38627063954E+02  0.00000000000E+00 0.  1.
         23    2    1    2    0    0 -0.51107269821E+02 -0.13903715342E+03  0.50678974296E+03  0.54259000946E+03  0.12499916696E+03 0.  0.
          5    1    3    3  502    0 -0.12863443572E+02 -0.14703953080E+03  0.33099650311E+03  0.36244567437E+03  0.47000000000E+01 0. -1.
         -5    1    3    3    0  502 -0.38243826249E+02  0.80023773804E+01  0.17579323985E+03  0.18014433510E+03  0.47000000000E+01 0. -1.
        -11    1    1    2    0    0  0.70462552669E+02  0.13519293785E+03  0.28282442228E+03  0.32129698974E+03  0.00000000000E+00 0.  1.
         11    1    1    2    0    0 -0.19355282848E+02  0.38442155654E+01  0.63817399407E+02  0.66798693359E+02  0.00000000000E+00 0. -1.
<mgrwt>
<rscale>  0 0.18880750E+03</rscale>
<asrwt>0</asrwt>
<pdfrwt beam="1">  1        2 0.13723977E+00 0.19382486E+03</pdfrwt>
<pdfrwt beam="2">  1       -2 0.59426259E-02 0.19382486E+03</pdfrwt>
<totfact> 0.45615856E+03</totfact>
</mgrwt>
</event>
<event>
 7    1  0.6008063E-006  0.1270359E+03  0.7546771E-02  0.1246873E+00
         -2   -1    0    0    0  501 -0.00000000000E+00  0.00000000000E+00  0.32756912096E+02  0.32756912096E+02  0.00000000000E+00 0.  1.
          2   -1    0    0  501    0  0.00000000000E+00 -0.00000000000E+00 -0.38858755585E+03  0.38858755585E+03  0.00000000000E+00 0. -1.
         23    2    1    2    0    0 -0.13413226822E+02  0.18251536420E+02 -0.24667133943E+03  0.27746147585E+03  0.12500035058E+03 0.  0.
          5    1    3    3  502    0 -0.66565112205E+02  0.27367126103E+02 -0.12551186339E+03  0.14475908126E+03  0.47000000000E+01 0. -1.
         -5    1    3    3    0  502  0.53151885383E+02 -0.91155896827E+01 -0.12115947604E+03  0.13270239459E+03  0.47000000000E+01 0. -1.
        -11    1    1    2    0    0 -0.22011444668E+02  0.10326116124E+02 -0.92134349951E+02  0.95288356116E+02  0.00000000000E+00 0. -1.
         11    1    1    2    0    0  0.35424671489E+02 -0.28577652544E+02 -0.17024954370E+02  0.48594635983E+02  0.00000000000E+00 0.  1.
<mgrwt>
<rscale>  0 0.11773951E+03</rscale>
<asrwt>0</asrwt>
<pdfrwt beam="2">  1        2 0.59782701E-01 0.12703590E+03</pdfrwt>
<pdfrwt beam="1">  1       -2 0.50395250E-02 0.12703590E+03</pdfrwt>
<totfact> 0.14938891E+04</totfact>
</mgrwt>
</event>
<event>
 7    1  0.6008063E-006  0.1864946E+03  0.7546771E-02  0.1167001E+00
         -3   -1    0    0    0  501 -0.00000000000E+00  0.00000000000E+00  0.13597888766E+03  0.13597888766E+03  0.00000000000E+00 0.  1.
          3   -1    0    0  501    0  0.00000000000E+00 -0.00000000000E+00 -0.23278567005E+03  0.23278567005E+03  0.00000000000E+00 0. -1.
         23    2    1    2    0    0  0.11059985071E+03  0.83186674555E+02 -0.80440310132E+02  0.20310309866E+03  0.12501150104E+03 0.  0.
          5    1    3    3  502    0  0.46108078555E+02  0.47523303972E+02 -0.10590569373E+03  0.12499010078E+03  0.47000000000E+01 0.  1.
         -5    1    3    3    0  502  0.64491772150E+02  0.35663370583E+02  0.25465383599E+02  0.78112997883E+02  0.47000000000E+01 0.  1.
        -11    1    1    2    0    0 -0.73161621115E+01 -0.55062182976E+02 -0.18647745956E+02  0.58592735483E+02  0.00000000000E+00 0. -1.
         11    1    1    2    0    0 -0.10328368859E+03 -0.28124491579E+02  0.22812736980E+01  0.10706872357E+03  0.00000000000E+00 0.  1.
<mgrwt>
<rscale>  0 0.18083086E+03</rscale>
<asrwt>0</asrwt>
<pdfrwt beam="2">  1        3 0.35813180E-01 0.18649457E+03</pdfrwt>
<pdfrwt beam="1">  1       -3 0.20919829E-01 0.18649457E+03</pdfrwt>
<totfact> 0.38557168E+02</totfact>
</mgrwt>
</event>
<event>
 7    1  0.6008063E-006  0.1267127E+03  0.7546771E-02  0.1250568E+00
          2   -1    0    0  501    0  0.00000000000E+00  0.00000000000E+00  0.10720029129E+03  0.10720029129E+03  0.00000000000E+00 0. -1.
         -2   -1    0    0    0  501 -0.00000000000E+00 -0.00000000000E+00 -0.10730988358E+03  0.10730988358E+03  0.00000000000E+00 0.  1.
         23    2    1    2    0    0 -0.20737109908E+02 -0.13125999757E+01 -0.28786810414E+01  0.12674543816E+03  0.12499747455E+03 0.  0.
          5    1    3    3  502    0 -0.36350451019E+02 -0.57407081582E+02  0.18745879995E+01  0.68136131276E+02  0.47000000000E+01 0.  1.
         -5    1    3    3    0  502  0.15613341111E+02  0.56094481607E+02 -0.47532690409E+01  0.58609306888E+02  0.47000000000E+01 0.  1.
        -11    1    1    2    0    0 -0.91551741902E+01 -0.13185642453E+02  0.36834989201E+02  0.40180776632E+02  0.00000000000E+00 0. -1.
         11    1    1    2    0    0  0.29892284099E+02  0.14498242428E+02 -0.34065900449E+02  0.47583960066E+02  0.00000000000E+00 0.  1.
<mgrwt>
<rscale>  0 0.11558226E+03</rscale>
<asrwt>0</asrwt>
<pdfrwt beam="1">  1        2 0.16492353E-01 0.12671274E+03</pdfrwt>
<pdfrwt beam="2">  1       -2 0.16509213E-01 0.12671274E+03</pdfrwt>
<totfact> 0.94917514E+03</totfact>
</mgrwt>
</event>
<event>
 7    1  0.6008063E-006  0.2762094E+03  0.7546771E-02  0.1099679E+00
         -1   -1    0    0    0  501 -0.00000000000E+00  0.00000000000E+00  0.29945188758E+03  0.29945188758E+03  0.00000000000E+00 0.  1.
          1   -1    0    0  501    0  0.00000000000E+00 -0.00000000000E+00 -0.35308779947E+03  0.35308779947E+03  0.00000000000E+00 0. -1.
         23    2    1    2    0    0  0.24124914597E+03  0.49657161454E+02 -0.20972530416E+03  0.34680876720E+03  0.12499853473E+03 0.  0.
          5    1    3    3  502    0  0.23116235492E+03  0.78991770269E+02 -0.19222960524E+03  0.31088590388E+03  0.47000000000E+01 0. -1.
         -5    1    3    3    0  502  0.10086791055E+02 -0.29334608815E+02 -0.17495698920E+02  0.35922863316E+02  0.47000000000E+01 0. -1.
        -11    1    1    2    0    0 -0.20587810505E+03 -0.33111049252E+02  0.16472513699E+03  0.26573766477E+03  0.00000000000E+00 0.  1.
         11    1    1    2    0    0 -0.35371040926E+02 -0.16546112202E+02 -0.86357447154E+01  0.39993255081E+02  0.00000000000E+00 0. -1.
<mgrwt>
<rscale>  0 0.27281576E+03</rscale>
<asrwt>0</asrwt>
<pdfrwt beam="2">  1        1 0.54321200E-01 0.27620937E+03</pdfrwt>
<pdfrwt beam="1">  1       -1 0.46069521E-01 0.27620937E+03</pdfrwt>
<totfact> 0.34231959E+02</totfact>
</mgrwt>
</event>
<event>
 7    1  0.6008063E-006  0.1310883E+03  0.7546771E-02  0.1238536E+00
          2   -1    0    0  501    0  0.00000000000E+00  0.00000000000E+00  0.74954454893E+03  0.74954454893E+03  0.00000000000E+00 0. -1.
         -2   -1    0    0    0  501 -0.00000000000E+00 -0.00000000000E+00 -0.20939014092E+02  0.20939014092E+02  0.00000000000E+00 0.  1.
         23    2    1    2    0    0 -0.11368864122E+02 -0.37607777102E+02  0.54906502789E+03  0.56449672460E+03  0.12506218960E+03 0.  0.
          5    1    3    3  502    0 -0.53040045773E+02 -0.62534413744E+02  0.33036208288E+03  0.34041885254E+03  0.47000000000E+01 0. -1.
         -5    1    3    3    0  502  0.41671181650E+02  0.24926636642E+02  0.21870294500E+03  0.22407787206E+03  0.47000000000E+01 0. -1.
        -11    1    1    2    0    0 -0.16350720220E+02 -0.15601546986E+02  0.75428758903E+01  0.23825391849E+02  0.00000000000E+00 0.  1.
         11    1    1    2    0    0  0.27719584343E+02  0.53209324088E+02  0.17199763106E+03  0.18216144657E+03  0.00000000000E+00 0. -1.
<mgrwt>
<rscale>  0 0.12280769E+03</rscale>
<asrwt>0</asrwt>
<pdfrwt beam="1">  1        2 0.11531453E+00 0.13108832E+03</pdfrwt>
<pdfrwt beam="2">  1       -2 0.32213874E-02 0.13108832E+03</pdfrwt>
<totfact> 0.13950245E+04</totfact>
</mgrwt>
</event>
<event>
 7    1  0.6008063E-006  0.1464219E+03  0.7546771E-02  0.1215065E+00
          2   -1    0    0  501    0  0.00000000000E+00  0.00000000000E+00  0.63356030881E+03  0.63356030881E+03  0.00000000000E+00 0.  1.
         -2   -1    0    0    0  501 -0.00000000000E+00 -0.00000000000E+00 -0.27940660385E+02  0.27940660385E+02  0.00000000000E+00 0. -1.
         23    2    1    2    0    0 -0.62095700644E+02  0.44251954080E+02  0.29763200182E+03  0.33169893693E+03  0.12500105909E+03 0.  0.
          5    1    3    3  502    0 -0.84684666970E+02 -0.11946892689E+02  0.17674208414E+03  0.19640283951E+03  0.47000000000E+01 0.  1.
         -5    1    3    3    0  502  0.22588966327E+02  0.56198846769E+02  0.12088991769E+03  0.13529609742E+03  0.47000000000E+01 0.  1.
        -11    1    1    2    0    0  0.16178911286E+02 -0.25889179801E+02  0.17610397494E+02  0.35243905871E+02  0.00000000000E+00 0. -1.
         11    1    1    2    0    0  0.45916789358E+02 -0.18362774279E+02  0.29037724911E+03  0.29455812639E+03  0.00000000000E+00 0.  1.
<mgrwt>
<rscale>  0 0.13871777E+03</rscale>
<asrwt>0</asrwt>
<pdfrwt beam="1">  1        2 0.97470806E-01 0.14642191E+03</pdfrwt>
<pdfrwt beam="2">  1       -2 0.42985636E-02 0.14642191E+03</pdfrwt>
<totfact> 0.11182040E+04</totfact>
</mgrwt>
</event>
<event>
 7    1  0.6008063E-006  0.1883569E+03  0.7546771E-02  0.1164707E+00
          1   -1    0    0  501    0  0.00000000000E+00  0.00000000000E+00  0.23767537761E+03  0.23767537761E+03  0.00000000000E+00 0. -1.
         -1   -1    0    0    0  501 -0.00000000000E+00 -0.00000000000E+00 -0.16683318132E+03  0.16683318132E+03  0.00000000000E+00 0.  1.
         23    2    1    2    0    0 -0.62955661112E+02  0.12591798883E+03  0.12647109717E+03  0.22687717061E+03  0.12513815145E+03 0.  0.
          5    1    3    3  502    0 -0.88139567767E+02  0.12963463934E+03  0.86076059046E+02  0.17889913657E+03  0.47000000000E+01 0.  1.
         -5    1    3    3    0  502  0.25183906655E+02 -0.37166505158E+01  0.40395038125E+02  0.47978034043E+02  0.47000000000E+01 0.  1.
        -11    1    1    2    0    0  0.20086500622E+02  0.10511865029E+02  0.33937763291E+01  0.22923449379E+02  0.00000000000E+00 0. -1.
         11    1    1    2    0    0  0.42869160490E+02 -0.13642985386E+03 -0.59022677209E+02  0.15470793894E+03  0.00000000000E+00 0.  1.
<mgrwt>
<rscale>  0 0.18323663E+03</rscale>
<asrwt>0</asrwt>
<pdfrwt beam="1">  1        1 0.36565443E-01 0.18835687E+03</pdfrwt>
<pdfrwt beam="2">  1       -1 0.25666643E-01 0.18835687E+03</pdfrwt>
<totfact> 0.15545726E+03</totfact>
</mgrwt>
</event>
<event>
 7    1  0.6008063E-006  0.1331250E+03  0.7546771E-02  0.1235960E+00
          1   -1    0    0  501    0  0.00000000000E+00  0.00000000000E+00  0.62167666672E+02  0.62167666672E+02  0.00000000000E+00 0. -1.
         -1   -1    0    0    0  501 -0.00000000000E+00 -0.00000000000E+00 -0.22158876933E+03  0.22158876933E+03  0.00000000000E+00 0.  1.
         23    2    1    2    0    0  0.32722859736E+02  0.32059904343E+02 -0.90933272648E+02  0.16121765859E+03  0.12499460129E+03 0.  0.
          5    1    3    3  502    0 -0.36769090318E+02  0.25952065632E+02 -0.77909636863E+02  0.90097043401E+02  0.47000000000E+01 0. -1.
         -5    1    3    3    0  502  0.69491950054E+02  0.61078387102E+01 -0.13023635785E+02  0.71120615190E+02  0.47000000000E+01 0. -1.
        -11    1    1    2    0    0 -0.55048257311E+02  0.58234020822E+01 -0.50832906358E+02  0.75154554178E+02  0.00000000000E+00 0.  1.
         11    1    1    2    0    0  0.22325397576E+02 -0.37883306425E+02 -0.17654923656E+02  0.47384223238E+02  0.00000000000E+00 0. -1.
<mgrwt>
<rscale>  0 0.12443196E+03</rscale>
<asrwt>0</asrwt>
<pdfrwt beam="1">  1        1 0.95642566E-02 0.13312503E+03</pdfrwt>
<pdfrwt beam="2">  1       -1 0.34090579E-01 0.13312503E+03</pdfrwt>
<totfact> 0.53102281E+03</totfact>
</mgrwt>
</event>
<event>
 7    1  0.6008063E-006  0.1348257E+03  0.7546771E-02  0.1237179E+00
          3   -1    0    0  501    0  0.00000000000E+00  0.00000000000E+00  0.23202615037E+03  0.23202615037E+03  0.00000000000E+00 0.  1.
         -3   -1    0    0    0  501 -0.00000000000E+00 -0.00000000000E+00 -0.57327995620E+02  0.57327995620E+02  0.00000000000E+00 0. -1.
         23    2    1    2    0    0  0.45959058618E+02 -0.21049687316E+02  0.11093253827E+03  0.17459668168E+03  0.12499059486E+03 0.  0.
          5    1    3    3  502    0  0.71638257413E+02  0.90000726585E+01  0.11361809879E+03  0.13470042170E+03  0.47000000000E+01 0. -1.
         -5    1    3    3    0  502 -0.25679198795E+02 -0.30049759974E+02 -0.26855605224E+01  0.39896259983E+02  0.47000000000E+01 0. -1.
        -11    1    1    2    0    0 -0.56044939312E+02  0.34086022593E+02  0.71082081282E+02  0.96724115080E+02  0.00000000000E+00 0.  1.
         11    1    1    2    0    0  0.10085880694E+02 -0.13036335277E+02 -0.73164648072E+01  0.18033349221E+02  0.00000000000E+00 0. -1.
<mgrwt>
<rscale>  0 0.12365991E+03</rscale>
<asrwt>0</asrwt>
<pdfrwt beam="1">  1        3 0.35696330E-01 0.13482571E+03</pdfrwt>
<pdfrwt beam="2">  1       -3 0.88196917E-02 0.13482571E+03</pdfrwt>
<totfact> 0.16125355E+03</totfact>
</mgrwt>
</event>
<event>
 7    1  0.6008063E-006  0.2044710E+03  0.7546771E-02  0.1150005E+00
          2   -1    0    0  501    0  0.00000000000E+00  0.00000000000E+00  0.12450958982E+04  0.12450958982E+04  0.00000000000E+00 0. -1.
         -2   -1    0    0    0  501 -0.00000000000E+00 -0.00000000000E+00 -0.35276779489E+02  0.35276779489E+02  0.00000000000E+00 0.  1.
         23    2    1    2    0    0 -0.15726856511E+03 -0.38088707750E+02  0.86232502871E+03  0.88623521590E+03  0.12499700605E+03 0.  0.
          5    1    3    3  502    0 -0.57915750971E+02 -0.40854935208E+02  0.62318988452E+03  0.62722490552E+03  0.47000000000E+01 0.  1.
         -5    1    3    3    0  502 -0.99352814137E+02  0.27662274577E+01  0.23913514419E+03  0.25901031037E+03  0.47000000000E+01 0.  1.
        -11    1    1    2    0    0  0.10275870319E+03  0.38020134389E+02  0.30776247387E+03  0.32668428493E+03  0.00000000000E+00 0. -1.
         11    1    1    2    0    0  0.54509861922E+02  0.68573361411E-01  0.39731616143E+02  0.67453176874E+02  0.00000000000E+00 0.  1.
<mgrwt>
<rscale>  0 0.19968531E+03</rscale>
<asrwt>0</asrwt>
<pdfrwt beam="1">  1        2 0.19155318E+00 0.20447103E+03</pdfrwt>
<pdfrwt beam="2">  1       -2 0.54271978E-02 0.20447103E+03</pdfrwt>
<totfact> 0.32396233E+03</totfact>
</mgrwt>
</event>
<event>
 6    1  0.6008063E-006  0.2025266E+03  0.7546771E-02  0.1167925E+00
          1   -1    0    0  501    0  0.00000000000E+00  0.00000000000E+00  0.17604544994E+04  0.17604544994E+04  0.00000000000E+00 0. -1.
         -1   -1    0    0    0  501 -0.00000000000E+00 -0.00000000000E+00 -0.28014973523E+02  0.28014973523E+02  0.00000000000E+00 0.  1.
          5    1    1    2  502    0 -0.59177163237E+00  0.26251317354E+02  0.11485723754E+04  0.11488820973E+04  0.47000000000E+01 0. -1.
         -5    1    1    2    0  502 -0.71498208820E+02 -0.75624377566E+02  0.42078911655E+03  0.43349349586E+03  0.47000000000E+01 0.  1.
        -11    1    1    2    0    0  0.44425272231E+02 -0.20496797103E+02  0.47199578714E+02  0.67981789731E+02  0.00000000000E+00 0. -1.
         11    1    1    2    0    0  0.27664708222E+02  0.69869857315E+02  0.11587845519E+03  0.13811209006E+03  0.00000000000E+00 0.  1.
<mgrwt>
<rscale>  0 0.17987413E+03</rscale>
<asrwt>0</asrwt>
<pdfrwt beam="1">  1        1 0.27083907E+00 0.20252660E+03</pdfrwt>
<pdfrwt beam="2">  1       -1 0.43099973E-02 0.20252660E+03</pdfrwt>
<totfact> 0.10677007E+03</totfact>
</mgrwt>
</event>
<event>
 7    1  0.6008063E-006  0.1317787E+03  0.7546771E-02  0.1238906E+00
          2   -1    0    0  501    0  0.00000000000E+00  0.00000000000E+00  0.64041530522E+03  0.64041530522E+03  0.00000000000E+00 0. -1.
         -2   -1    0    0    0  501 -0.00000000000E+00 -0.00000000000E+00 -0.21445323886E+02  0.21445323886E+02  0.00000000000E+00 0.  1.
         23    2    1    2    0    0  0.41435392344E+02  0.50758546276E+01  0.41242860399E+03  0.43296993697E+03  0.12499182730E+03 0.  0.
          5    1    3    3  502    0  0.23416581936E+02  0.15840953258E+02  0.10585900580E+02  0.30551978672E+02  0.47000000000E+01 0.  1.
         -5    1    3    3    0  502  0.18018810408E+02 -0.10765098630E+02  0.40184270341E+03  0.40241795830E+03  0.47000000000E+01 0.  1.
        -11    1    1    2    0    0 -0.10787338476E+02 -0.45256787243E+02  0.78698158124E+02  0.91421789280E+02  0.00000000000E+00 0.  1.
         11    1    1    2    0    0 -0.30648053868E+02  0.40180932616E+02  0.12784321922E+03  0.13746890286E+03  0.00000000000E+00 0. -1.
<mgrwt>
<rscale>  0 0.12257640E+03</rscale>
<asrwt>0</asrwt>
<pdfrwt beam="1">  1        2 0.98525417E-01 0.13177865E+03</pdfrwt>
<pdfrwt beam="2">  1       -2 0.32992811E-02 0.13177865E+03</pdfrwt>
<totfact> 0.16228646E+04</totfact>
</mgrwt>
</event>
<event>
 7    1  0.6008063E-006  0.1570983E+03  0.7546771E-02  0.1199801E+00
         -2   -1    0    0    0  501 -0.00000000000E+00  0.00000000000E+00  0.39810509677E+03  0.39810509677E+03  0.00000000000E+00 0.  1.
          2   -1    0    0  501    0  0.00000000000E+00 -0.00000000000E+00 -0.71462326927E+02  0.71462326927E+02  0.00000000000E+00 0. -1.
         23    2    1    2    0    0 -0.41828728336E+01  0.95061319789E+02  0.53449282234E+02  0.16594188111E+03  0.12500292473E+03 0.  0.
          5    1    3    3  502    0  0.80423349261E+01  0.11676547001E+03  0.12527407248E+02  0.11780441448E+03  0.47000000000E+01 0.  1.
         -5    1    3    3    0  502 -0.12225207760E+02 -0.21704150223E+02  0.40921874986E+02  0.48137466635E+02  0.47000000000E+01 0.  1.
        -11    1    1    2    0    0  0.16722377043E+02 -0.10504112738E+02  0.26818508595E+01  0.19929039174E+02  0.00000000000E+00 0. -1.
         11    1    1    2    0    0 -0.12539504209E+02 -0.84557207051E+02  0.27051163675E+03  0.28369650341E+03  0.00000000000E+00 0.  1.
<mgrwt>
<rscale>  0 0.15054801E+03</rscale>
<asrwt>0</asrwt>
<pdfrwt beam="2">  1        2 0.10994204E-01 0.15709832E+03</pdfrwt>
<pdfrwt beam="1">  1       -2 0.61246937E-01 0.15709832E+03</pdfrwt>
<totfact> 0.14110926E+03</totfact>
</mgrwt>
</event>
<event>
 7    1  0.6008063E-006  0.1459901E+03  0.7546771E-02  0.1215403E+00
         -1   -1    0    0    0  501 -0.00000000000E+00  0.00000000000E+00  0.27136741480E+02  0.27136741480E+02  0.00000000000E+00 0.  1.
          1   -1    0    0  501    0  0.00000000000E+00 -0.00000000000E+00 -0.64344774744E+03  0.64344774744E+03  0.00000000000E+00 0. -1.
         23    2    1    2    0    0 -0.27010411341E+02 -0.70421256840E+02 -0.32989598524E+03  0.36075541483E+03  0.12499757005E+03 0.  0.
          5    1    3    3  502    0 -0.34100505977E+02 -0.48019250421E+02 -0.43525901667E+02  0.73384514952E+02  0.47000000000E+01 0.  1.
         -5    1    3    3    0  502  0.70900946360E+01 -0.22402006420E+02 -0.28637008357E+03  0.28737089988E+03  0.47000000000E+01 0.  1.
        -11    1    1    2    0    0 -0.28893437218E+02  0.16679383750E+02 -0.43398480483E+02  0.54739936654E+02  0.00000000000E+00 0.  1.
         11    1    1    2    0    0  0.55903848559E+02  0.53741873090E+02 -0.24301654024E+03  0.25508913743E+03  0.00000000000E+00 0. -1.
<mgrwt>
<rscale>  0 0.13846982E+03</rscale>
<asrwt>0</asrwt>
<pdfrwt beam="2">  1        1 0.98991956E-01 0.14599010E+03</pdfrwt>
<pdfrwt beam="1">  1       -1 0.41748835E-02 0.14599010E+03</pdfrwt>
<totfact> 0.70998134E+03</totfact>
</mgrwt>
</event>
<event>
 7    1  0.6008063E-006  0.1405692E+03  0.7546771E-02  0.1223121E+00
          1   -1    0    0  501    0  0.00000000000E+00  0.00000000000E+00  0.11897339513E+04  0.11897339513E+04  0.00000000000E+00 0. -1.
         -1   -1    0    0    0  501 -0.00000000000E+00 -0.00000000000E+00 -0.17765153132E+02  0.17765153132E+02  0.00000000000E+00 0.  1.
         23    2    1    2    0    0 -0.10668966197E+02  0.63440500291E+02  0.93095140564E+03  0.94150423915E+03  0.12498475407E+03 0.  0.
          5    1    3    3  502    0 -0.16883981853E+01 -0.24321986745E+01  0.72532954663E+03  0.72535081684E+03  0.47000000000E+01 0. -1.
         -5    1    3    3    0  502 -0.89805680116E+01  0.65872698965E+02  0.20562185901E+03  0.21615342230E+03  0.47000000000E+01 0. -1.
        -11    1    1    2    0    0  0.27746651539E+02 -0.27691085329E+02  0.25269186594E+02  0.46639089501E+02  0.00000000000E+00 0.  1.
         11    1    1    2    0    0 -0.17077685342E+02 -0.35749414962E+02  0.21574820588E+03  0.21935577574E+03  0.00000000000E+00 0. -1.
<mgrwt>
<rscale>  0 0.13296539E+03</rscale>
<asrwt>0</asrwt>
<pdfrwt beam="1">  1        1 0.18303593E+00 0.14056925E+03</pdfrwt>
<pdfrwt beam="2">  1       -1 0.27331014E-02 0.14056925E+03</pdfrwt>
<totfact> 0.49434681E+03</totfact>
</mgrwt>
</event>
<event>
 7    1  0.6008063E-006  0.1250551E+03  0.7546771E-02  0.1247830E+00
         -1   -1    0    0    0  501 -0.00000000000E+00  0.00000000000E+00  0.18120349894E+03  0.18120349894E+03  0.00000000000E+00 0.  1.
          1   -1    0    0  501    0  0.00000000000E+00 -0.00000000000E+00 -0.21345504229E+03  0.21345504229E+03  0.00000000000E+00 0. -1.
         23    2    1    2    0    0  0.29192551985E+01 -0.21721068262E+01 -0.17943818810E+03  0.21871634196E+03  0.12500213915E+03 0.  0.
          5    1    3    3  502    0 -0.24960188946E+02  0.52922974764E+02 -0.11631834176E+03  0.13029159190E+03  0.47000000000E+01 0. -1.
         -5    1    3    3    0  502  0.27879444145E+02 -0.55095081590E+02 -0.63119846337E+02  0.88424750058E+02  0.47000000000E+01 0. -1.
        -11    1    1    2    0    0  0.20690133345E+02 -0.11234976540E+02 -0.26255198670E+01  0.23689653232E+02  0.00000000000E+00 0. -1.
         11    1    1    2    0    0 -0.23609388543E+02  0.13407083366E+02  0.14981216461E+03  0.15225254604E+03  0.00000000000E+00 0.  1.
<mgrwt>
<rscale>  0 0.11717588E+03</rscale>
<asrwt>0</asrwt>
<pdfrwt beam="2">  1        1 0.32839237E-01 0.12505509E+03</pdfrwt>
<pdfrwt beam="1">  1       -1 0.27877461E-01 0.12505509E+03</pdfrwt>
<totfact> 0.15316694E+03</totfact>
</mgrwt>
</event>
<event>
 7    1  0.6008063E-006  0.1635341E+03  0.7546771E-02  0.1192041E+00
         -2   -1    0    0    0  501 -0.00000000000E+00  0.00000000000E+00  0.20552672837E+03  0.20552672837E+03  0.00000000000E+00 0.  1.
          2   -1    0    0  501    0  0.00000000000E+00 -0.00000000000E+00 -0.11157252430E+03  0.11157252430E+03  0.00000000000E+00 0. -1.
         23    2    1    2    0    0  0.91894005803E+02  0.51701603068E+02  0.55610571306E+02  0.17273078213E+03  0.12500329353E+03 0.  0.
          5    1    3    3  502    0  0.48703373250E+02  0.60182183683E+02 -0.24384051186E+02  0.81305508737E+02  0.47000000000E+01 0.  1.
         -5    1    3    3    0  502  0.43190632553E+02 -0.84805806145E+01  0.79994622491E+02  0.91425273395E+02  0.47000000000E+01 0.  1.
        -11    1    1    2    0    0 -0.44462710825E+02 -0.67586032431E+02 -0.71790788441E+00  0.80903150900E+02  0.00000000000E+00 0.  1.
         11    1    1    2    0    0 -0.47431294977E+02  0.15884429363E+02  0.39061540645E+02  0.63465319640E+02  0.00000000000E+00 0. -1.
<mgrwt>
<rscale>  0 0.15707354E+03</rscale>
<asrwt>0</asrwt>
<pdfrwt beam="2">  1        2 0.17165004E-01 0.16353406E+03</pdfrwt>
<pdfrwt beam="1">  1       -2 0.31619497E-01 0.16353406E+03</pdfrwt>
<totfact> 0.29969445E+03</totfact>
</mgrwt>
</event>
<event>
 7    1  0.6008063E-006  0.1380592E+03  0.7546771E-02  0.1229140E+00
          1   -1    0    0  501    0  0.00000000000E+00  0.00000000000E+00  0.13996550726E+04  0.13996550726E+04  0.00000000000E+00 0. -1.
         -1   -1    0    0    0  501 -0.00000000000E+00 -0.00000000000E+00 -0.18931496283E+02  0.18931496283E+02  0.00000000000E+00 0.  1.
         23    2    1    2    0    0  0.42048761742E+02  0.40828355538E+02  0.12128121990E+04  0.12206448192E+04  0.12500116600E+03 0.  0.
          5    1    3    3  502    0  0.49972083038E+02  0.77342638540E+02  0.64141601002E+03  0.64800901285E+03  0.47000000000E+01 0. -1.
         -5    1    3    3    0  502 -0.79233212958E+01 -0.36514283002E+02  0.57139618902E+03  0.57263580634E+03  0.47000000000E+01 0. -1.
        -11    1    1    2    0    0 -0.54318204286E+02 -0.19449681642E+02  0.16286336310E+03  0.17278087994E+03  0.00000000000E+00 0. -1.
         11    1    1    2    0    0  0.12269442543E+02 -0.21378673896E+02  0.50480141377E+01  0.25160869711E+02  0.00000000000E+00 0.  1.
<mgrwt>
<rscale>  0 0.12887167E+03</rscale>
<asrwt>0</asrwt>
<pdfrwt beam="1">  1        1 0.21533147E+00 0.13805921E+03</pdfrwt>
<pdfrwt beam="2">  1       -1 0.29125390E-02 0.13805921E+03</pdfrwt>
<totfact> 0.32576075E+03</totfact>
</mgrwt>
</event>
<event>
 7    1  0.6008063E-006  0.1314084E+03  0.7546771E-02  0.1242925E+00
          2   -1    0    0  501    0  0.00000000000E+00  0.00000000000E+00  0.17048178692E+04  0.17048178692E+04  0.00000000000E+00 0. -1.
         -2   -1    0    0    0  501 -0.00000000000E+00 -0.00000000000E+00 -0.83115611788E+01  0.83115611788E+01  0.00000000000E+00 0.  1.
         23    2    1    2    0    0  0.19669086356E+02  0.35494852017E+02  0.12755512939E+04  0.12823023323E+04  0.12498564128E+03 0.  0.
          5    1    3    3  502    0 -0.39112319314E+02 -0.21406567414E+02  0.30220494588E+03  0.30551257579E+03  0.47000000000E+01 0.  1.
         -5    1    3    3    0  502  0.58781405670E+02  0.56901419431E+02  0.97334634799E+03  0.97678975646E+03  0.47000000000E+01 0.  1.
        -11    1    1    2    0    0 -0.49909128531E+02 -0.83940446613E+01  0.25526436227E+03  0.26023311807E+03  0.00000000000E+00 0. -1.
         11    1    1    2    0    0  0.30240042175E+02 -0.27100807356E+02  0.16569065187E+03  0.17059398005E+03  0.00000000000E+00 0.  1.
<mgrwt>
<rscale>  0 0.12010457E+03</rscale>
<asrwt>0</asrwt>
<pdfrwt beam="1">  1        2 0.26227939E+00 0.13140840E+03</pdfrwt>
<pdfrwt beam="2">  1       -2 0.12787031E-02 0.13140840E+03</pdfrwt>
<totfact> 0.15352860E+04</totfact>
</mgrwt>
</event>
<event>
 7    1  0.6008063E-006  0.1390064E+03  0.7546771E-02  0.1225966E+00
          1   -1    0    0  501    0  0.00000000000E+00  0.00000000000E+00  0.22451416929E+03  0.22451416929E+03  0.00000000000E+00 0. -1.
         -1   -1    0    0    0  501 -0.00000000000E+00 -0.00000000000E+00 -0.72116785321E+02  0.72116785321E+02  0.00000000000E+00 0.  1.
         23    2    1    2    0    0 -0.23157325451E+02  0.56243929618E+02  0.11607929716E+03  0.18109993521E+03  0.12499256763E+03 0.  0.
          5    1    3    3  502    0  0.30285764887E+02  0.42988739644E+02  0.28675840064E+00  0.52796131689E+02  0.47000000000E+01 0.  1.
         -5    1    3    3    0  502 -0.53443090338E+02  0.13255189974E+02  0.11579253876E+03  0.12830380352E+03  0.47000000000E+01 0.  1.
        -11    1    1    2    0    0  0.14930960821E+02 -0.44650104948E+02  0.66900453124E+02  0.81806088350E+02  0.00000000000E+00 0. -1.
         11    1    1    2    0    0  0.82263646297E+01 -0.11593824670E+02 -0.30582366309E+02  0.33724931054E+02  0.00000000000E+00 0.  1.
<mgrwt>
<rscale>  0 0.13100931E+03</rscale>
<asrwt>0</asrwt>
<pdfrwt beam="1">  1        1 0.34540641E-01 0.13900641E+03</pdfrwt>
<pdfrwt beam="2">  1       -1 0.11094890E-01 0.13900641E+03</pdfrwt>
<totfact> 0.62580213E+03</totfact>
</mgrwt>
</event>
<event>
 7    1  0.6008063E-006  0.1308520E+03  0.7546771E-02  0.1240417E+00
          1   -1    0    0  501    0  0.00000000000E+00  0.00000000000E+00  0.10397968896E+03  0.10397968896E+03  0.00000000000E+00 0. -1.
         -1   -1    0    0    0  501 -0.00000000000E+00 -0.00000000000E+00 -0.16290521081E+03  0.16290521081E+03  0.00000000000E+00 0.  1.
         23    2    1    2    0    0  0.32067652107E+02 -0.21661737280E+02  0.30575979975E+02  0.13437689134E+03  0.12499877280E+03 0.  0.
          5    1    3    3  502    0  0.24472427506E+02 -0.66096021811E+02 -0.12631872572E+02  0.71758191253E+02  0.47000000000E+01 0.  1.
         -5    1    3    3    0  502  0.75952246011E+01  0.44434284531E+02  0.43207852547E+02  0.62618700084E+02  0.47000000000E+01 0.  1.
        -11    1    1    2    0    0 -0.11276521368E+01 -0.20770430613E+02 -0.75281344224E+02  0.78102261013E+02  0.00000000000E+00 0.  1.
         11    1    1    2    0    0 -0.30939999970E+02  0.42432167893E+02 -0.14220157600E+02  0.54405747421E+02  0.00000000000E+00 0. -1.
<mgrwt>
<rscale>  0 0.12163922E+03</rscale>
<asrwt>0</asrwt>
<pdfrwt beam="1">  1        1 0.15996875E-01 0.13085205E+03</pdfrwt>
<pdfrwt beam="2">  1       -1 0.25062340E-01 0.13085205E+03</pdfrwt>
<totfact> 0.45285074E+03</totfact>
</mgrwt>
</event>
<event>
 7    1  0.6008063E-006  0.1261045E+03  0.7546771E-02  0.1249054E+00
         -1   -1    0    0    0  501 -0.00000000000E+00  0.00000000000E+00  0.17677016076E+03  0.17677016076E+03  0.00000000000E+00 0. -1.
          1   -1    0    0  501    0  0.00000000000E+00 -0.00000000000E+00 -0.10085361966E+03  0.10085361966E+03  0.00000000000E+00 0.  1.
         23    2    1    2    0    0  0.15166855396E+02  0.71076357766E+01 -0.37681240068E+02  0.13161388739E+03  0.12498714939E+03 0.  0.
          5    1    3    3  502    0  0.61497357447E+02 -0.35084356693E+01  0.11742414828E+02  0.62882496768E+02  0.47000000000E+01 0. -1.
         -5    1    3    3    0  502 -0.46330502051E+02  0.10616071446E+02 -0.49423654896E+02  0.68731390620E+02  0.47000000000E+01 0. -1.
        -11    1    1    2    0    0  0.32848746643E+02  0.37996062840E+01  0.79540310876E+02  0.86140224159E+02  0.00000000000E+00 0. -1.
         11    1    1    2    0    0 -0.48015602039E+02 -0.10907242061E+02  0.34057470296E+02  0.59869668877E+02  0.00000000000E+00 0.  1.
<mgrwt>
<rscale>  0 0.11645979E+03</rscale>
<asrwt>0</asrwt>
<pdfrwt beam="2">  1        1 0.15515941E-01 0.12610448E+03</pdfrwt>
<pdfrwt beam="1">  1       -1 0.27195409E-01 0.12610448E+03</pdfrwt>
<totfact> 0.41072648E+03</totfact>
</mgrwt>
</event>
<event>
 7    1  0.6008063E-006  0.1443707E+03  0.7546771E-02  0.1213549E+00
         -1   -1    0    0    0  501 -0.00000000000E+00  0.00000000000E+00  0.52483860820E+02  0.52483860820E+02  0.00000000000E+00 0.  1.
          1   -1    0    0  501    0  0.00000000000E+00 -0.00000000000E+00 -0.36531425175E+03  0.36531425175E+03  0.00000000000E+00 0. -1.
         23    2    1    2    0    0 -0.65827561585E+02  0.29721848141E+02 -0.20730457595E+03  0.25262243345E+03  0.12500500210E+03 0.  0.
          5    1    3    3  502    0 -0.85837757035E+02  0.61416433931E+02 -0.13934290140E+03  0.17486747285E+03  0.47000000000E+01 0. -1.
         -5    1    3    3    0  502  0.20010195451E+02 -0.31694585790E+02 -0.67961674557E+02  0.77754960607E+02  0.47000000000E+01 0. -1.
        -11    1    1    2    0    0  0.92071399832E+02 -0.37703198375E+02 -0.85945827894E+02  0.13147379650E+03  0.00000000000E+00 0. -1.
         11    1    1    2    0    0 -0.26243838247E+02  0.79813502345E+01 -0.19579987080E+02  0.33701882612E+02  0.00000000000E+00 0.  1.
<mgrwt>
<rscale>  0 0.13983693E+03</rscale>
<asrwt>0</asrwt>
<pdfrwt beam="2">  1        1 0.56202195E-01 0.14437073E+03</pdfrwt>
<pdfrwt beam="1">  1       -1 0.80744398E-02 0.14437073E+03</pdfrwt>
<totfact> 0.55626225E+03</totfact>
</mgrwt>
</event>
<event>
 7    1  0.6008063E-006  0.1475181E+03  0.7546771E-02  0.1212963E+00
          2   -1    0    0  501    0  0.00000000000E+00  0.00000000000E+00  0.35474707462E+02  0.35474707462E+02  0.00000000000E+00 0. -1.
         -2   -1    0    0    0  501 -0.00000000000E+00 -0.00000000000E+00 -0.51149375022E+03  0.51149375022E+03  0.00000000000E+00 0.  1.
         23    2    1    2    0    0  0.66641525853E+02  0.41167349315E+02 -0.28825556113E+03  0.32380988828E+03  0.12500292640E+03 0.  0.
          5    1    3    3  502    0 -0.30818908959E+02  0.34379188508E+02 -0.12694804950E+03  0.13516519901E+03  0.47000000000E+01 0. -1.
         -5    1    3    3    0  502  0.97460434812E+02  0.67881608062E+01 -0.16130751163E+03  0.18864468926E+03  0.47000000000E+01 0. -1.
        -11    1    1    2    0    0 -0.13479179670E+02 -0.42842946633E+01  0.85020991730E+01  0.16502398483E+02  0.00000000000E+00 0. -1.
         11    1    1    2    0    0 -0.53162346183E+02 -0.36883054651E+02 -0.19626558081E+03  0.20665617093E+03  0.00000000000E+00 0.  1.
<mgrwt>
<rscale>  0 0.14027222E+03</rscale>
<asrwt>0</asrwt>
<pdfrwt beam="1">  1        2 0.54576474E-02 0.14751805E+03</pdfrwt>
<pdfrwt beam="2">  1       -2 0.78691345E-01 0.14751805E+03</pdfrwt>
<totfact> 0.19987874E+03</totfact>
</mgrwt>
</event>
<event>
 7    1  0.6008063E-006  0.1224983E+03  0.7546771E-02  0.1315895E+00
          2   -1    0    0  501    0  0.00000000000E+00  0.00000000000E+00  0.44972126155E+03  0.44972126155E+03  0.00000000000E+00 0.  1.
         -2   -1    0    0    0  501 -0.00000000000E+00 -0.00000000000E+00 -0.74384661551E+02  0.74384661551E+02  0.00000000000E+00 0. -1.
         23    2    1    2    0    0 -0.13075476191E+02  0.13097686380E+01  0.43831853329E+03  0.45511424802E+03  0.12179145518E+03 0.  0.
          5    1    3    3  502    0 -0.90632221706E+01 -0.53913149015E+02  0.11958154730E+03  0.13156977650E+03  0.47000000000E+01 0. -1.
         -5    1    3    3    0  502 -0.40122540205E+01  0.55222917654E+02  0.31873698599E+03  0.32354447152E+03  0.47000000000E+01 0.  1.
        -11    1    1    2    0    0  0.11859778747E+02  0.10392883038E+02 -0.43036997236E+02  0.45835024826E+02  0.00000000000E+00 0.  1.
         11    1    1    2    0    0  0.12156974442E+01 -0.11702651676E+02 -0.19944936057E+02  0.23156650251E+02  0.00000000000E+00 0. -1.
<mgrwt>
<rscale>  0 0.84823366E+02</rscale>
<asrwt>0</asrwt>
<pdfrwt beam="1">  1        2 0.69187884E-01 0.12249834E+03</pdfrwt>
<pdfrwt beam="2">  1       -2 0.11443794E-01 0.12249834E+03</pdfrwt>
<totfact> 0.36108664E+03</totfact>
</mgrwt>
</event>
<event>
 7    1  0.6008063E-006  0.1572930E+03  0.7546771E-02  0.1199541E+00
          2   -1    0    0  501    0  0.00000000000E+00  0.00000000000E+00  0.58361512483E+03  0.58361512483E+03  0.00000000000E+00 0.  1.
         -2   -1    0    0    0  501 -0.00000000000E+00 -0.00000000000E+00 -0.36819002852E+02  0.36819002852E+02  0.00000000000E+00 0. -1.
         23    2    1    2    0    0 -0.11380740420E+02  0.94793054222E+02  0.34113851276E+03  0.37565487112E+03  0.12500341166E+03 0.  0.
          5    1    3    3  502    0 -0.59642299796E+02  0.77764997485E+02  0.27445135368E+03  0.29146223477E+03  0.47000000000E+01 0.  1.
         -5    1    3    3    0  502  0.48261559376E+02  0.17028056737E+02  0.66687159076E+02  0.84192636348E+02  0.47000000000E+01 0.  1.
        -11    1    1    2    0    0  0.47095792716E+02 -0.22891569493E+02  0.76584375503E+02  0.92775019357E+02  0.00000000000E+00 0.  1.
         11    1    1    2    0    0 -0.35715052296E+02 -0.71901484729E+02  0.12907323372E+03  0.15200423721E+03  0.00000000000E+00 0. -1.
<mgrwt>
<rscale>  0 0.15076082E+03</rscale>
<asrwt>0</asrwt>
<pdfrwt beam="1">  1        2 0.89786936E-01 0.15729303E+03</pdfrwt>
<pdfrwt beam="2">  1       -2 0.56644624E-02 0.15729303E+03</pdfrwt>
<totfact> 0.81475044E+03</totfact>
</mgrwt>
</event>
<event>
 6    1  0.6008063E-006  0.1687647E+03  0.7546771E-02  0.1196228E+00
          2   -1    0    0  501    0  0.00000000000E+00  0.00000000000E+00  0.11437653414E+04  0.11437653414E+04  0.00000000000E+00 0. -1.
         -2   -1    0    0    0  501 -0.00000000000E+00 -0.00000000000E+00 -0.19184363349E+02  0.19184363349E+02  0.00000000000E+00 0.  1.
          5    1    1    2  502    0  0.73566965432E+01 -0.69273743507E+02  0.60636513269E+03  0.61037180199E+03  0.47000000000E+01 0. -1.
         -5    1    1    2    0  502  0.58070954960E+02  0.49136229404E+02  0.21384438068E+03  0.22702007400E+03  0.47000000000E+01 0.  1.
        -11    1    1    2    0    0 -0.65008911845E+02  0.49584505560E+02  0.25781493640E+03  0.27046871028E+03  0.00000000000E+00 0.  1.
         11    1    1    2    0    0 -0.41873965847E+00 -0.29446991457E+02  0.46556528273E+02  0.55089118468E+02  0.00000000000E+00 0. -1.
<mgrwt>
<rscale>  0 0.15350752E+03</rscale>
<asrwt>0</asrwt>
<pdfrwt beam="1">  1        2 0.17596385E+00 0.16876465E+03</pdfrwt>
<pdfrwt beam="2">  1       -2 0.29514414E-02 0.16876465E+03</pdfrwt>
<totfact> 0.91505401E+03</totfact>
</mgrwt>
</event>
<event>
 7    1  0.6008063E-006  0.1604762E+03  0.7546771E-02  0.1195733E+00
          1   -1    0    0  501    0  0.00000000000E+00  0.00000000000E+00  0.11551320026E+04  0.11551320026E+04  0.00000000000E+00 0. -1.
         -1   -1    0    0    0  501 -0.00000000000E+00 -0.00000000000E+00 -0.27587830443E+02  0.27587830443E+02  0.00000000000E+00 0.  1.
         23    2    1    2    0    0  0.99837580596E+02  0.13082086985E+02  0.92519690479E+03  0.93901114228E+03  0.12495570894E+03 0.  0.
          5    1    3    3  502    0  0.31322681976E+02  0.35066950556E+02  0.71933533891E+03  0.72088571996E+03  0.47000000000E+01 0. -1.
         -5    1    3    3    0  502  0.68514898620E+02 -0.21984863571E+02  0.20586156587E+03  0.21812542232E+03  0.47000000000E+01 0. -1.
        -11    1    1    2    0    0 -0.40405631526E+02 -0.48724063253E+02  0.12320231668E+03  0.13851158881E+03  0.00000000000E+00 0. -1.
         11    1    1    2    0    0 -0.59431949069E+02  0.35641976268E+02  0.79144950732E+02  0.10519710200E+03  0.00000000000E+00 0.  1.
<mgrwt>
<rscale>  0 0.15392391E+03</rscale>
<asrwt>0</asrwt>
<pdfrwt beam="1">  1        1 0.17771258E+00 0.16047621E+03</pdfrwt>
<pdfrwt beam="2">  1       -1 0.42442825E-02 0.16047621E+03</pdfrwt>
<totfact> 0.27504980E+03</totfact>
</mgrwt>
</event>
<event>
 7    1  0.6008063E-006  0.1288568E+03  0.7546771E-02  0.1243210E+00
         -2   -1    0    0    0  501 -0.00000000000E+00  0.00000000000E+00  0.83079158881E+02  0.83079158881E+02  0.00000000000E+00 0.  1.
          2   -1    0    0  501    0  0.00000000000E+00 -0.00000000000E+00 -0.16119942494E+03  0.16119942494E+03  0.00000000000E+00 0. -1.
         23    2    1    2    0    0 -0.24896992234E+02 -0.18987442379E+02 -0.71477096178E+02  0.14735345501E+03  0.12499472883E+03 0.  0.
          5    1    3    3  502    0  0.26864933678E+02 -0.57415842742E+02 -0.28027481054E+02  0.69468938048E+02  0.47000000000E+01 0. -1.
         -5    1    3    3    0  502 -0.51761925913E+02  0.38428400363E+02 -0.43449615124E+02  0.77884516966E+02  0.47000000000E+01 0. -1.
        -11    1    1    2    0    0  0.12582461691E+02  0.21198247132E+02  0.40904799439E+02  0.47758628967E+02  0.00000000000E+00 0.  1.
         11    1    1    2    0    0  0.12314530543E+02 -0.22108047534E+01 -0.47547969320E+02  0.49166499841E+02  0.00000000000E+00 0. -1.
<mgrwt>
<rscale>  0 0.11993167E+03</rscale>
<asrwt>0</asrwt>
<pdfrwt beam="2">  1        2 0.24799911E-01 0.12885676E+03</pdfrwt>
<pdfrwt beam="1">  1       -2 0.12781409E-01 0.12885676E+03</pdfrwt>
<totfact> 0.90969235E+03</totfact>
</mgrwt>
</event>
<event>
 7    1  0.6008063E-006  0.3580844E+03  0.7546771E-02  0.1060522E+00
         -2   -1    0    0    0  501 -0.00000000000E+00  0.00000000000E+00  0.12066531835E+03  0.12066531835E+03  0.00000000000E+00 0.  1.
          2   -1    0    0  501    0  0.00000000000E+00 -0.00000000000E+00 -0.11151472540E+04  0.11151472540E+04  0.00000000000E+00 0. -1.
         23    2    1    2    0    0 -0.17097186921E+03  0.28872492128E+03 -0.33255364556E+03  0.48868839169E+03  0.12502382481E+03 0.  0.
          5    1    3    3  502    0 -0.11779952539E+03  0.25144284947E+03 -0.20399289239E+03  0.34458007034E+03  0.47000000000E+01 0. -1.
         -5    1    3    3    0  502 -0.53172343824E+02  0.37282071806E+02 -0.12856075317E+03  0.14410832135E+03  0.47000000000E+01 0. -1.
        -11    1    1    2    0    0  0.48513116777E+02 -0.14290860045E+03 -0.35748649819E+03  0.38803735254E+03  0.00000000000E+00 0. -1.
         11    1    1    2    0    0  0.12245875243E+03 -0.14581632083E+03 -0.30444179192E+03  0.35908682812E+03  0.00000000000E+00 0.  1.
<mgrwt>
<rscale>  0 0.35514626E+03</rscale>
<asrwt>0</asrwt>
<pdfrwt beam="2">  1        2 0.17156111E+00 0.35808437E+03</pdfrwt>
<pdfrwt beam="1">  1       -2 0.18563896E-01 0.35808437E+03</pdfrwt>
<totfact> 0.53325617E+02</totfact>
</mgrwt>
</event>
<event>
 7    1  0.6008063E-006  0.1490663E+03  0.7546771E-02  0.1210486E+00
          3   -1    0    0  501    0  0.00000000000E+00  0.00000000000E+00  0.28207695819E+03  0.28207695819E+03  0.00000000000E+00 0. -1.
         -3   -1    0    0    0  501 -0.00000000000E+00 -0.00000000000E+00 -0.71402055339E+02  0.71402055339E+02  0.00000000000E+00 0.  1.
         23    2    1    2    0    0 -0.77588455957E+02 -0.23987300321E+02  0.16425868844E+03  0.22181449008E+03  0.12500156881E+03 0.  0.
          5    1    3    3  502    0 -0.32581558602E+02  0.31832594542E+02  0.13785070340E+03  0.14525762790E+03  0.47000000000E+01 0.  1.
         -5    1    3    3    0  502 -0.45006897355E+02 -0.55819894863E+02  0.26407985042E+02  0.76556862175E+02  0.47000000000E+01 0.  1.
        -11    1    1    2    0    0  0.55667665201E+02  0.41275184232E+02  0.67453223315E+02  0.96708154350E+02  0.00000000000E+00 0. -1.
         11    1    1    2    0    0  0.21920790757E+02 -0.17287883911E+02 -0.21037008902E+02  0.34956369105E+02  0.00000000000E+00 0.  1.
<mgrwt>
<rscale>  0 0.14213380E+03</rscale>
<asrwt>0</asrwt>
<pdfrwt beam="1">  1        3 0.43396454E-01 0.14906626E+03</pdfrwt>
<pdfrwt beam="2">  1       -3 0.10984932E-01 0.14906626E+03</pdfrwt>
<totfact> 0.78283456E+02</totfact>
</mgrwt>
</event>
<event>
 7    1  0.6008063E-006  0.1392523E+03  0.7546771E-02  0.1224785E+00
          1   -1    0    0  501    0  0.00000000000E+00  0.00000000000E+00  0.29096485695E+03  0.29096485695E+03  0.00000000000E+00 0. -1.
         -1   -1    0    0    0  501 -0.00000000000E+00 -0.00000000000E+00 -0.56341679389E+02  0.56341679389E+02  0.00000000000E+00 0.  1.
         23    2    1    2    0    0  0.31010096299E+02  0.52968560143E+02  0.16363819058E+03  0.21486891978E+03  0.12499560325E+03 0.  0.
          5    1    3    3  502    0  0.69963179418E+02  0.58562472889E+02  0.76564417490E+02  0.11919987303E+03  0.47000000000E+01 0.  1.
         -5    1    3    3    0  502 -0.38953083119E+02 -0.55939127459E+01  0.87073773092E+02  0.95669046744E+02  0.47000000000E+01 0.  1.
        -11    1    1    2    0    0 -0.46480548878E+02 -0.17552324817E+02  0.78658074251E+02  0.93035574783E+02  0.00000000000E+00 0. -1.
         11    1    1    2    0    0  0.15470452579E+02 -0.35416235326E+02 -0.76730872767E+01  0.39402041774E+02  0.00000000000E+00 0.  1.
<mgrwt>
<rscale>  0 0.13181632E+03</rscale>
<asrwt>0</asrwt>
<pdfrwt beam="1">  1        1 0.44763823E-01 0.13925227E+03</pdfrwt>
<pdfrwt beam="2">  1       -1 0.86679509E-02 0.13925227E+03</pdfrwt>
<totfact> 0.66176975E+03</totfact>
</mgrwt>
</event>
<event>
 7    1  0.6008063E-006  0.1526357E+03  0.7546771E-02  0.1205077E+00
          2   -1    0    0  501    0  0.00000000000E+00  0.00000000000E+00  0.81294648431E+03  0.81294648431E+03  0.00000000000E+00 0. -1.
         -2   -1    0    0    0  501 -0.00000000000E+00 -0.00000000000E+00 -0.24372619609E+02  0.24372619609E+02  0.00000000000E+00 0.  1.
         23    2    1    2    0    0  0.54227025602E+02 -0.68779166686E+02  0.42436613598E+03  0.45098144964E+03  0.12500602577E+03 0.  0.
          5    1    3    3  502    0 -0.22629259190E+02 -0.69809027395E+02  0.24463175990E+03  0.25544504620E+03  0.47000000000E+01 0. -1.
         -5    1    3    3    0  502  0.76856284792E+02  0.10298607091E+01  0.17973437609E+03  0.19553640344E+03  0.47000000000E+01 0. -1.
        -11    1    1    2    0    0 -0.22630516208E+02  0.88581295945E+02  0.26730581504E+03  0.28250873439E+03  0.00000000000E+00 0.  1.
         11    1    1    2    0    0 -0.31596509394E+02 -0.19802129259E+02  0.96901913677E+02  0.10382891988E+03  0.00000000000E+00 0. -1.
<mgrwt>
<rscale>  0 0.14631426E+03</rscale>
<asrwt>0</asrwt>
<pdfrwt beam="1">  1        2 0.12506867E+00 0.15263568E+03</pdfrwt>
<pdfrwt beam="2">  1       -2 0.37496344E-02 0.15263568E+03</pdfrwt>
<totfact> 0.10179948E+04</totfact>
</mgrwt>
</event>
<event>
 7    1  0.6008063E-006  0.1269605E+03  0.7546771E-02  0.1246608E+00
          2   -1    0    0  501    0  0.00000000000E+00  0.00000000000E+00  0.78684689905E+03  0.78684689905E+03  0.00000000000E+00 0. -1.
         -2   -1    0    0    0  501 -0.00000000000E+00 -0.00000000000E+00 -0.16888159298E+02  0.16888159298E+02  0.00000000000E+00 0.  1.
         23    2    1    2    0    0  0.97412509555E+01  0.19995788692E+02  0.54834343383E+03  0.56284944402E+03  0.12499700664E+03 0.  0.
          5    1    3    3  502    0  0.19938343138E+02 -0.38130893072E+02  0.41122365652E+03  0.41349545126E+03  0.47000000000E+01 0.  1.
         -5    1    3    3    0  502 -0.10197092182E+02  0.58126681765E+02  0.13711977731E+03  0.14935399276E+03  0.47000000000E+01 0.  1.
        -11    1    1    2    0    0  0.52213145761E+01  0.15472424698E+02  0.38820887827E+00  0.16334281682E+02  0.00000000000E+00 0.  1.
         11    1    1    2    0    0 -0.14962565532E+02 -0.35468213390E+02  0.22122709704E+03  0.22455133265E+03  0.00000000000E+00 0. -1.
<mgrwt>
<rscale>  0 0.11789671E+03</rscale>
<asrwt>0</asrwt>
<pdfrwt beam="1">  1        2 0.12105334E+00 0.12696053E+03</pdfrwt>
<pdfrwt beam="2">  1       -2 0.25981790E-02 0.12696053E+03</pdfrwt>
<totfact> 0.17973948E+04</totfact>
</mgrwt>
</event>
<event>
 7    1  0.6008063E-006  0.1379569E+03  0.7546771E-02  0.1226772E+00
          2   -1    0    0  501    0  0.00000000000E+00  0.00000000000E+00  0.41924869460E+03  0.41924869460E+03  0.00000000000E+00 0. -1.
         -2   -1    0    0    0  501 -0.00000000000E+00 -0.00000000000E+00 -0.36807167215E+02  0.36807167215E+02  0.00000000000E+00 0.  1.
         23    2    1    2    0    0 -0.36544266559E+02 -0.45523272717E+02  0.22049409799E+03  0.26009564365E+03  0.12499697925E+03 0.  0.
          5    1    3    3  502    0  0.58009963136E+01  0.37778819252E+02  0.10257376958E+03  0.10956440548E+03  0.47000000000E+01 0.  1.
         -5    1    3    3    0  502 -0.42345262873E+02 -0.83302091969E+02  0.11792032841E+03  0.15053123818E+03  0.47000000000E+01 0.  1.
        -11    1    1    2    0    0 -0.23315732110E+02  0.13862033774E+02  0.88126069911E+01  0.28520893853E+02  0.00000000000E+00 0.  1.
         11    1    1    2    0    0  0.59859998669E+02  0.31661238943E+02  0.15313482240E+03  0.16743932431E+03  0.00000000000E+00 0. -1.
<mgrwt>
<rscale>  0 0.13046203E+03</rscale>
<asrwt>0</asrwt>
<pdfrwt beam="1">  1        2 0.64499796E-01 0.13795686E+03</pdfrwt>
<pdfrwt beam="2">  1       -2 0.56626414E-02 0.13795686E+03</pdfrwt>
<totfact> 0.11632715E+04</totfact>
</mgrwt>
</event>
<event>
 7    1  0.6008063E-006  0.1353579E+03  0.7546771E-02  0.1232184E+00
         -1   -1    0    0    0  501 -0.00000000000E+00  0.00000000000E+00  0.53562977758E+03  0.53562977758E+03  0.00000000000E+00 0. -1.
          1   -1    0    0  501    0  0.00000000000E+00 -0.00000000000E+00 -0.27767461834E+02  0.27767461834E+02  0.00000000000E+00 0.  1.
         23    2    1    2    0    0 -0.33945821977E+02  0.39230992528E+02  0.23453451438E+03  0.27079181650E+03  0.12502151753E+03 0.  0.
          5    1    3    3  502    0 -0.65063991235E+02  0.26588302069E+02  0.22469365294E+03  0.23547736289E+03  0.47000000000E+01 0. -1.
         -5    1    3    3    0  502  0.31118169258E+02  0.12642690459E+02  0.98408614355E+01  0.35314453610E+02  0.47000000000E+01 0. -1.
        -11    1    1    2    0    0 -0.35189372935E+01  0.26625727643E+02  0.49725042980E+02  0.56514530800E+02  0.00000000000E+00 0. -1.
         11    1    1    2    0    0  0.37464759270E+02 -0.65856720171E+02  0.22360275839E+03  0.23609089211E+03  0.00000000000E+00 0.  1.
<mgrwt>
<rscale>  0 0.12686450E+03</rscale>
<asrwt>0</asrwt>
<pdfrwt beam="2">  1        1 0.42719176E-02 0.13535793E+03</pdfrwt>
<pdfrwt beam="1">  1       -1 0.82404573E-01 0.13535793E+03</pdfrwt>
<totfact> 0.30624850E+03</totfact>
</mgrwt>
</event>
<event>
 7    1  0.6008063E-006  0.1265978E+03  0.7546771E-02  0.1247294E+00
          3   -1    0    0  501    0  0.00000000000E+00  0.00000000000E+00  0.23870524602E+03  0.23870524602E+03  0.00000000000E+00 0. -1.
         -3   -1    0    0    0  501 -0.00000000000E+00 -0.00000000000E+00 -0.75309604765E+02  0.75309604765E+02  0.00000000000E+00 0.  1.
         23    2    1    2    0    0 -0.97560169955E+01 -0.17531938266E+02  0.17855690540E+03  0.21888254681E+03  0.12499780841E+03 0.  0.
          5    1    3    3  502    0 -0.55275070038E+02 -0.40514618491E+02  0.13574131618E+03  0.15213337108E+03  0.47000000000E+01 0.  1.
         -5    1    3    3    0  502  0.45519053043E+02  0.22982680225E+02  0.42815589216E+02  0.66749175726E+02  0.47000000000E+01 0.  1.
        -11    1    1    2    0    0  0.94826565717E+00  0.55046813894E+02 -0.50085430765E+01  0.55282333809E+02  0.00000000000E+00 0.  1.
         11    1    1    2    0    0  0.88077513383E+01 -0.37514875627E+02 -0.10152721066E+02  0.39849970163E+02  0.00000000000E+00 0. -1.
<mgrwt>
<rscale>  0 0.11749110E+03</rscale>
<asrwt>0</asrwt>
<pdfrwt beam="1">  1        3 0.36723884E-01 0.12659779E+03</pdfrwt>
<pdfrwt beam="2">  1       -3 0.11586093E-01 0.12659779E+03</pdfrwt>
<totfact> 0.96329193E+02</totfact>
</mgrwt>
</event>
<event>
 7    1  0.6008063E-006  0.1532252E+03  0.7546771E-02  0.1205280E+00
         -2   -1    0    0    0  501 -0.00000000000E+00  0.00000000000E+00  0.54707898839E+02  0.54707898839E+02  0.00000000000E+00 0.  1.
          2   -1    0    0  501    0  0.00000000000E+00 -0.00000000000E+00 -0.67079309489E+03  0.67079309489E+03  0.00000000000E+00 0. -1.
         23    2    1    2    0    0 -0.76288892869E+02  0.45089135533E+02 -0.57050013514E+03  0.59071852712E+03  0.12499979506E+03 0.  0.
          5    1    3    3  502    0 -0.10777937104E+03  0.51420174280E+02 -0.47699784211E+03  0.49174125160E+03  0.47000000000E+01 0. -1.
         -5    1    3    3    0  502  0.31490478172E+02 -0.63310387470E+01 -0.93502293028E+02  0.98977275516E+02  0.47000000000E+01 0. -1.
        -11    1    1    2    0    0  0.90877110947E+02 -0.33950206136E+02 -0.13675797491E+02  0.97970879488E+02  0.00000000000E+00 0. -1.
         11    1    1    2    0    0 -0.14588218077E+02 -0.11138929397E+02 -0.31909263421E+02  0.36811587127E+02  0.00000000000E+00 0.  1.
<mgrwt>
<rscale>  0 0.14615429E+03</rscale>
<asrwt>0</asrwt>
<pdfrwt beam="2">  1        2 0.10319894E+00 0.15322524E+03</pdfrwt>
<pdfrwt beam="1">  1       -2 0.84165998E-02 0.15322524E+03</pdfrwt>
<totfact> 0.37722985E+03</totfact>
</mgrwt>
</event>
<event>
 7    1  0.6008063E-006  0.1556258E+03  0.7546771E-02  0.1201820E+00
          1   -1    0    0  501    0  0.00000000000E+00  0.00000000000E+00  0.11169259442E+03  0.11169259442E+03  0.00000000000E+00 0. -1.
         -1   -1    0    0    0  501 -0.00000000000E+00 -0.00000000000E+00 -0.18420886200E+03  0.18420886200E+03  0.00000000000E+00 0.  1.
         23    2    1    2    0    0 -0.21777236841E+02  0.90081576791E+02 -0.28405154894E+02  0.15819684729E+03  0.12502180268E+03 0.  0.
          5    1    3    3  502    0 -0.60835344264E+02  0.39937912037E+02  0.22837878242E+02  0.76417502002E+02  0.47000000000E+01 0.  1.
         -5    1    3    3    0  502  0.39058107424E+02  0.50143664753E+02 -0.51243033136E+02  0.81779345286E+02  0.47000000000E+01 0.  1.
        -11    1    1    2    0    0  0.17797672828E+02 -0.66010241800E+02  0.18232556372E+02  0.70756874524E+02  0.00000000000E+00 0. -1.
         11    1    1    2    0    0  0.39795640127E+01 -0.24071334991E+02 -0.62343669059E+02  0.66947734613E+02  0.00000000000E+00 0.  1.
<mgrwt>
<rscale>  0 0.14890896E+03</rscale>
<asrwt>0</asrwt>
<pdfrwt beam="1">  1        1 0.17183476E-01 0.15562580E+03</pdfrwt>
<pdfrwt beam="2">  1       -1 0.28339825E-01 0.15562580E+03</pdfrwt>
<totfact> 0.34016258E+03</totfact>
</mgrwt>
</event>
<event>
 7    1  0.6008063E-006  0.1433104E+03  0.7546771E-02  0.1218359E+00
          1   -1    0    0  501    0  0.00000000000E+00  0.00000000000E+00  0.38068309504E+02  0.38068309504E+02  0.00000000000E+00 0. -1.
         -1   -1    0    0    0  501 -0.00000000000E+00 -0.00000000000E+00 -0.48283566276E+03  0.48283566276E+03  0.00000000000E+00 0.  1.
         23    2    1    2    0    0  0.69257210157E+02 -0.10823839768E+02 -0.17143607374E+03  0.22344620875E+03  0.12499665659E+03 0.  0.
          5    1    3    3  502    0  0.16462331723E+02  0.40910343398E+02 -0.13259206545E+03  0.13981205378E+03  0.47000000000E+01 0. -1.
         -5    1    3    3    0  502  0.52794878434E+02 -0.51734183166E+02 -0.38844008294E+02  0.83634154967E+02  0.47000000000E+01 0. -1.
        -11    1    1    2    0    0 -0.45951561160E+02  0.51695780140E+02 -0.18243374036E+03  0.19510527742E+03  0.00000000000E+00 0. -1.
         11    1    1    2    0    0 -0.23305648997E+02 -0.40871940372E+02 -0.90897539158E+02  0.10235248610E+03  0.00000000000E+00 0.  1.
<mgrwt>
<rscale>  0 0.13632628E+03</rscale>
<asrwt>0</asrwt>
<pdfrwt beam="1">  1        1 0.58566628E-02 0.14331044E+03</pdfrwt>
<pdfrwt beam="2">  1       -1 0.74282412E-01 0.14331044E+03</pdfrwt>
<totfact> 0.24643025E+03</totfact>
</mgrwt>
</event>
<event>
 7    1  0.6008063E-006  0.1195969E+03  0.7546771E-02  0.1306944E+00
          2   -1    0    0  501    0  0.00000000000E+00  0.00000000000E+00  0.15373684833E+03  0.15373684833E+03  0.00000000000E+00 0. -1.
         -2   -1    0    0    0  501 -0.00000000000E+00 -0.00000000000E+00 -0.10610809809E+03  0.10610809809E+03  0.00000000000E+00 0.  1.
         23    2    1    2    0    0 -0.16746006529E+02 -0.30136715112E+02  0.12603058909E+03  0.17374444417E+03  0.11451974573E+03 0.  0.
          5    1    3    3  502    0 -0.89244847458E+00 -0.19206342750E+02  0.14497841696E+03  0.14632331137E+03  0.47000000000E+01 0. -1.
         -5    1    3    3    0  502 -0.15853558055E+02 -0.10930372362E+02 -0.18947827873E+02  0.27421132801E+02  0.47000000000E+01 0.  1.
        -11    1    1    2    0    0  0.72842080797E+01  0.14240887166E+02 -0.25968261637E+02  0.30499396175E+02  0.00000000000E+00 0. -1.
         11    1    1    2    0    0  0.94617984496E+01  0.15895827946E+02 -0.52433577217E+02  0.55601106066E+02  0.00000000000E+00 0.  1.
<mgrwt>
<rscale>  0 0.88331054E+02</rscale>
<asrwt>0</asrwt>
<pdfrwt beam="1">  1        2 0.23651823E-01 0.11959692E+03</pdfrwt>
<pdfrwt beam="2">  1       -2 0.16324323E-01 0.11959692E+03</pdfrwt>
<totfact> 0.64061401E+03</totfact>
</mgrwt>
</event>
<event>
 7    1  0.6008063E-006  0.1741230E+03  0.7546771E-02  0.1179420E+00
          1   -1    0    0  501    0  0.00000000000E+00  0.00000000000E+00  0.29796224441E+03  0.29796224441E+03  0.00000000000E+00 0. -1.
         -1   -1    0    0    0  501 -0.00000000000E+00 -0.00000000000E+00 -0.10176970282E+03  0.10176970282E+03  0.00000000000E+00 0.  1.
         23    2    1    2    0    0  0.30665229595E+02  0.11727642755E+03  0.17268296993E+03  0.24523094302E+03  0.12499876217E+03 0.  0.
          5    1    3    3  502    0 -0.15717504320E+02  0.12219647308E+03  0.14671023006E+03  0.19163767787E+03  0.47000000000E+01 0.  1.
         -5    1    3    3    0  502  0.46382733915E+02 -0.49200455236E+01  0.25972739871E+02  0.53593265153E+02  0.47000000000E+01 0.  1.
        -11    1    1    2    0    0  0.26936138089E+02 -0.59773045858E+02  0.31465455920E+02  0.72721712456E+02  0.00000000000E+00 0. -1.
         11    1    1    2    0    0 -0.57601367684E+02 -0.57503381696E+02 -0.79558842679E+01  0.81779291755E+02  0.00000000000E+00 0.  1.
<mgrwt>
<rscale>  0 0.16850125E+03</rscale>
<asrwt>0</asrwt>
<pdfrwt beam="1">  1        1 0.45840345E-01 0.17412297E+03</pdfrwt>
<pdfrwt beam="2">  1       -1 0.15656877E-01 0.17412297E+03</pdfrwt>
<totfact> 0.26037602E+03</totfact>
</mgrwt>
</event>
<event>
 7    1  0.6008063E-006  0.2294294E+03  0.7546771E-02  0.1130035E+00
         -2   -1    0    0    0  501 -0.00000000000E+00  0.00000000000E+00  0.22891506537E+02  0.22891506537E+02  0.00000000000E+00 0.  1.
          2   -1    0    0  501    0  0.00000000000E+00 -0.00000000000E+00 -0.25434653671E+04  0.25434653671E+04  0.00000000000E+00 0. -1.
         23    2    1    2    0    0  0.17899273048E+03  0.70541294198E+02 -0.18107349542E+04  0.18252120266E+04  0.12499358339E+03 0.  0.
          5    1    3    3  502    0  0.99040500163E+02  0.10161097539E+03 -0.12278848061E+04  0.12360651270E+04  0.47000000000E+01 0. -1.
         -5    1    3    3    0  502  0.79952230315E+02 -0.31069681192E+02 -0.58285014811E+03  0.58914689965E+03  0.47000000000E+01 0. -1.
        -11    1    1    2    0    0 -0.80049818954E+02  0.15919347401E+02 -0.26019435212E+03  0.27269488446E+03  0.00000000000E+00 0.  1.
         11    1    1    2    0    0 -0.98942911525E+02 -0.86460641599E+02 -0.44964455418E+03  0.46844996253E+03  0.00000000000E+00 0. -1.
<mgrwt>
<rscale>  0 0.22524130E+03</rscale>
<asrwt>0</asrwt>
<pdfrwt beam="2">  1        2 0.39130216E+00 0.22942944E+03</pdfrwt>
<pdfrwt beam="1">  1       -2 0.35217721E-02 0.22942944E+03</pdfrwt>
<totfact> 0.12713526E+03</totfact>
</mgrwt>
</event>
<event>
 7    1  0.6008063E-006  0.1283651E+03  0.7546771E-02  0.1242477E+00
          4   -1    0    0  501    0  0.00000000000E+00  0.00000000000E+00  0.31177701026E+03  0.31177701026E+03  0.00000000000E+00 0. -1.
         -4   -1    0    0    0  501 -0.00000000000E+00 -0.00000000000E+00 -0.41662612761E+02  0.41662612761E+02  0.00000000000E+00 0.  1.
         23    2    1    2    0    0 -0.22420079278E+02 -0.18696240298E+02  0.16134454764E+03  0.20617872023E+03  0.12500156907E+03 0.  0.
          5    1    3    3  502    0  0.28543233898E+02 -0.26814528028E+02  0.14730004493E+03  0.15248976474E+03  0.47000000000E+01 0. -1.
         -5    1    3    3    0  502 -0.50963313176E+02  0.81182877298E+01  0.14044502708E+02  0.53688955492E+02  0.47000000000E+01 0. -1.
        -11    1    1    2    0    0 -0.12641381194E+02  0.25887028055E+02 -0.38736254487E+01  0.29067984349E+02  0.00000000000E+00 0.  1.
         11    1    1    2    0    0  0.35061460472E+02 -0.71907877570E+01  0.11264347531E+03  0.11819291844E+03  0.00000000000E+00 0. -1.
<mgrwt>
<rscale>  0 0.12037651E+03</rscale>
<asrwt>0</asrwt>
<pdfrwt beam="1">  1        4 0.47965692E-01 0.12836511E+03</pdfrwt>
<pdfrwt beam="2">  1       -4 0.64096329E-02 0.12836511E+03</pdfrwt>
<totfact> 0.10976086E+03</totfact>
</mgrwt>
</event>
<event>
 7    1  0.6008063E-006  0.1370589E+03  0.7546771E-02  0.1228887E+00
         -2   -1    0    0    0  501 -0.00000000000E+00  0.00000000000E+00  0.11715388037E+03  0.11715388037E+03  0.00000000000E+00 0.  1.
          2   -1    0    0  501    0  0.00000000000E+00 -0.00000000000E+00 -0.12827081877E+03  0.12827081877E+03  0.00000000000E+00 0. -1.
         23    2    1    2    0    0 -0.47457708391E+02  0.30373419795E+02  0.94217645030E+00  0.13706214942E+03  0.12494145185E+03 0.  0.
          5    1    3    3  502    0 -0.10403461966E+02  0.50823973609E+02 -0.48941325853E+02  0.71474832568E+02  0.47000000000E+01 0.  1.
         -5    1    3    3    0  502 -0.37054246425E+02 -0.20450553813E+02  0.49883502304E+02  0.65587316849E+02  0.47000000000E+01 0.  1.
        -11    1    1    2    0    0  0.50437362286E+02 -0.17188051198E+02 -0.46903450848E+02  0.70987958978E+02  0.00000000000E+00 0. -1.
         11    1    1    2    0    0 -0.29796538951E+01 -0.13185368598E+02  0.34844335992E+02  0.37374590742E+02  0.00000000000E+00 0.  1.
<mgrwt>
<rscale>  0 0.12903982E+03</rscale>
<asrwt>0</asrwt>
<pdfrwt beam="2">  1        2 0.19733972E-01 0.13705891E+03</pdfrwt>
<pdfrwt beam="1">  1       -2 0.18023674E-01 0.13705891E+03</pdfrwt>
<totfact> 0.67232150E+03</totfact>
</mgrwt>
</event>
<event>
 7    1  0.6008063E-006  0.1385097E+03  0.7546771E-02  0.1227168E+00
          4   -1    0    0  501    0  0.00000000000E+00  0.00000000000E+00  0.91700919964E+02  0.91700919964E+02  0.00000000000E+00 0. -1.
         -4   -1    0    0    0  501 -0.00000000000E+00 -0.00000000000E+00 -0.16750535105E+03  0.16750535105E+03  0.00000000000E+00 0.  1.
         23    2    1    2    0    0  0.51010776802E+02 -0.30957419410E+02 -0.29678658845E+02  0.14165367629E+03  0.12499792018E+03 0.  0.
          5    1    3    3  502    0 -0.20006994857E+02 -0.42037843815E+02  0.23266709444E+02  0.52257917335E+02  0.47000000000E+01 0. -1.
         -5    1    3    3    0  502  0.71017771659E+02  0.11080424404E+02 -0.52945368289E+02  0.89395758957E+02  0.47000000000E+01 0. -1.
        -11    1    1    2    0    0 -0.12324636487E+01  0.40157732971E+02 -0.52956727776E+02  0.66472381488E+02  0.00000000000E+00 0.  1.
         11    1    1    2    0    0 -0.49778313153E+02 -0.92003135606E+01  0.68309555394E+01  0.51080213229E+02  0.00000000000E+00 0. -1.
<mgrwt>
<rscale>  0 0.13019423E+03</rscale>
<asrwt>0</asrwt>
<pdfrwt beam="1">  1        4 0.14107834E-01 0.13850972E+03</pdfrwt>
<pdfrwt beam="2">  1       -4 0.25770054E-01 0.13850972E+03</pdfrwt>
<totfact> 0.98520939E+02</totfact>
</mgrwt>
</event>
<event>
 7    1  0.6008063E-006  0.1724279E+03  0.7546771E-02  0.1179528E+00
         -1   -1    0    0    0  501 -0.00000000000E+00  0.00000000000E+00  0.61329241324E+02  0.61329241324E+02  0.00000000000E+00 0.  1.
          1   -1    0    0  501    0  0.00000000000E+00 -0.00000000000E+00 -0.47791736394E+03  0.47791736394E+03  0.00000000000E+00 0. -1.
         23    2    1    2    0    0  0.92578715369E+02  0.74396022107E+02 -0.29121517443E+03  0.33843411754E+03  0.12500314978E+03 0.  0.
          5    1    3    3  502    0  0.33416370002E+02 -0.20421680268E+02 -0.16559865934E+03  0.17023132727E+03  0.47000000000E+01 0. -1.
         -5    1    3    3    0  502  0.59162345366E+02  0.94817702374E+02 -0.12561651509E+03  0.16820279028E+03  0.47000000000E+01 0. -1.
        -11    1    1    2    0    0 -0.11526723889E+03 -0.59875667218E+02 -0.10550904062E+03  0.16734332834E+03  0.00000000000E+00 0. -1.
         11    1    1    2    0    0  0.22688523525E+02 -0.14520354888E+02 -0.19863907562E+02  0.33469159378E+02  0.00000000000E+00 0.  1.
<mgrwt>
<rscale>  0 0.16839864E+03</rscale>
<asrwt>0</asrwt>
<pdfrwt beam="2">  1        1 0.73525751E-01 0.17242788E+03</pdfrwt>
<pdfrwt beam="1">  1       -1 0.94352675E-02 0.17242788E+03</pdfrwt>
<totfact> 0.31418038E+03</totfact>
</mgrwt>
</event>
<event>
 7    1  0.6008063E-006  0.1408394E+03  0.7546771E-02  0.1223705E+00
         -1   -1    0    0    0  501 -0.00000000000E+00  0.00000000000E+00  0.23668718542E+03  0.23668718542E+03  0.00000000000E+00 0.  1.
          1   -1    0    0  501    0  0.00000000000E+00 -0.00000000000E+00 -0.68025823077E+02  0.68025823077E+02  0.00000000000E+00 0. -1.
         23    2    1    2    0    0  0.41445755371E+02  0.49874112311E+02  0.73517897392E+02  0.15887298289E+03  0.12502226098E+03 0.  0.
          5    1    3    3  502    0  0.47090904270E+02  0.26482241752E+02  0.10547153468E+03  0.11859678335E+03  0.47000000000E+01 0. -1.
         -5    1    3    3    0  502 -0.56451488988E+01  0.23391870560E+02 -0.31953637284E+02  0.40276199548E+02  0.47000000000E+01 0. -1.
        -11    1    1    2    0    0  0.94057782571E+01  0.19087997840E+02  0.58121807320E+01  0.22059051907E+02  0.00000000000E+00 0. -1.
         11    1    1    2    0    0 -0.50851533628E+02 -0.68962110151E+02  0.89331284216E+02  0.12378097369E+03  0.00000000000E+00 0.  1.
<mgrwt>
<rscale>  0 0.13256043E+03</rscale>
<asrwt>0</asrwt>
<pdfrwt beam="2">  1        1 0.10465511E-01 0.14083942E+03</pdfrwt>
<pdfrwt beam="1">  1       -1 0.36413413E-01 0.14083942E+03</pdfrwt>
<totfact> 0.42228858E+03</totfact>
</mgrwt>
</event>
<event>
 7    1  0.6008063E-006  0.1364390E+03  0.7546771E-02  0.1232624E+00
          1   -1    0    0  501    0  0.00000000000E+00  0.00000000000E+00  0.16567930666E+03  0.16567930666E+03  0.00000000000E+00 0. -1.
         -1   -1    0    0    0  501 -0.00000000000E+00 -0.00000000000E+00 -0.89234075816E+02  0.89234075816E+02  0.00000000000E+00 0.  1.
         23    2    1    2    0    0  0.52196555656E+02 -0.16269105581E+02  0.70732092410E+02  0.15368356839E+03  0.12500578418E+03 0.  0.
          5    1    3    3  502    0 -0.32680181917E+02 -0.55841986316E+01  0.58131792078E+02  0.67086308698E+02  0.47000000000E+01 0.  1.
         -5    1    3    3    0  502  0.84876737574E+02 -0.10684906949E+02  0.12600300333E+02  0.86597259692E+02  0.47000000000E+01 0.  1.
        -11    1    1    2    0    0 -0.31459249639E+02  0.96340809519E+01  0.45337374677E+02  0.56017652988E+02  0.00000000000E+00 0. -1.
         11    1    1    2    0    0 -0.20737306018E+02  0.66350246289E+01 -0.39624236247E+02  0.45212161095E+02  0.00000000000E+00 0.  1.
<mgrwt>
<rscale>  0 0.12657790E+03</rscale>
<asrwt>0</asrwt>
<pdfrwt beam="1">  1        1 0.25489124E-01 0.13643904E+03</pdfrwt>
<pdfrwt beam="2">  1       -1 0.13728319E-01 0.13643904E+03</pdfrwt>
<totfact> 0.65653499E+03</totfact>
</mgrwt>
</event>
<event>
 7    1  0.6008063E-006  0.1350319E+03  0.7546771E-02  0.1233329E+00
         -2   -1    0    0    0  501 -0.00000000000E+00  0.00000000000E+00  0.10830312049E+03  0.10830312049E+03  0.00000000000E+00 0.  1.
          2   -1    0    0  501    0  0.00000000000E+00 -0.00000000000E+00 -0.15298080688E+03  0.15298080688E+03  0.00000000000E+00 0. -1.
         23    2    1    2    0    0  0.44555082398E+01  0.50878254498E+02 -0.74581406319E+02  0.15425954135E+03  0.12500068638E+03 0.  0.
          5    1    3    3  502    0 -0.99550483225E+01  0.38468015006E+02  0.28633364998E+02  0.49202141790E+02  0.47000000000E+01 0.  1.
         -5    1    3    3    0  502  0.14410556562E+02  0.12410239492E+02 -0.10321477132E+03  0.10505739956E+03  0.47000000000E+01 0.  1.
        -11    1    1    2    0    0 -0.40704665274E+02 -0.18771586400E+02 -0.79966641533E+01  0.45532283806E+02  0.00000000000E+00 0. -1.
         11    1    1    2    0    0  0.36249157034E+02 -0.32106668098E+02  0.37900384083E+02  0.61492102222E+02  0.00000000000E+00 0.  1.
<mgrwt>
<rscale>  0 0.12612038E+03</rscale>
<asrwt>0</asrwt>
<pdfrwt beam="2">  1        2 0.23535509E-01 0.13503192E+03</pdfrwt>
<pdfrwt beam="1">  1       -2 0.16662019E-01 0.13503192E+03</pdfrwt>
<totfact> 0.62811081E+03</totfact>
</mgrwt>
</event>
<event>
 7    1  0.6008063E-006  0.1282706E+03  0.7546771E-02  0.1244641E+00
          2   -1    0    0  501    0  0.00000000000E+00  0.00000000000E+00  0.15278098000E+02  0.15278098000E+02  0.00000000000E+00 0. -1.
         -2   -1    0    0    0  501 -0.00000000000E+00 -0.00000000000E+00 -0.82706903351E+03  0.82706903351E+03  0.00000000000E+00 0.  1.
         23    2    1    2    0    0  0.27364526841E+02  0.96293421725E+01 -0.42024356511E+03  0.43938365053E+03  0.12494717596E+03 0.  0.
          5    1    3    3  502    0  0.26063557773E+02  0.29815252995E+02 -0.33499067588E+02  0.52082011138E+02  0.47000000000E+01 0.  1.
         -5    1    3    3    0  502  0.13009690680E+01 -0.20185910822E+02 -0.38674449752E+03  0.38730163939E+03  0.47000000000E+01 0.  1.
        -11    1    1    2    0    0  0.28266869357E+02  0.76652331362E+01 -0.65463798816E+02  0.71716669316E+02  0.00000000000E+00 0. -1.
         11    1    1    2    0    0 -0.55631396198E+02 -0.17294575309E+02 -0.32608357158E+03  0.33124681166E+03  0.00000000000E+00 0.  1.
<mgrwt>
<rscale>  0 0.11906867E+03</rscale>
<asrwt>0</asrwt>
<pdfrwt beam="1">  1        2 0.23504764E-02 0.12827057E+03</pdfrwt>
<pdfrwt beam="2">  1       -2 0.12724140E+00 0.12827057E+03</pdfrwt>
<totfact> 0.20084261E+03</totfact>
</mgrwt>
</event>
<event>
 7    1  0.6008063E-006  0.1301378E+03  0.7546771E-02  0.1242420E+00
         -2   -1    0    0    0  501 -0.00000000000E+00  0.00000000000E+00  0.11985831379E+02  0.11985831379E+02  0.00000000000E+00 0. -1.
          2   -1    0    0  501    0  0.00000000000E+00 -0.00000000000E+00 -0.11163621701E+04  0.11163621701E+04  0.00000000000E+00 0.  1.
         23    2    1    2    0    0  0.92114392041E+01 -0.35029326875E+02 -0.75748940046E+03  0.76858704756E+03  0.12499581399E+03 0.  0.
          5    1    3    3  502    0 -0.42285822964E+02 -0.22310288487E+01 -0.56472942254E+03  0.56633424671E+03  0.47000000000E+01 0. -1.
         -5    1    3    3    0  502  0.51497262168E+02 -0.32798298026E+02 -0.19275997792E+03  0.20225280085E+03  0.47000000000E+01 0. -1.
        -11    1    1    2    0    0 -0.47068575516E+02  0.15343885279E+02 -0.23157406859E+03  0.23680674580E+03  0.00000000000E+00 0.  1.
         11    1    1    2    0    0  0.37857136312E+02  0.19685441596E+02 -0.11531286966E+03  0.12295420810E+03  0.00000000000E+00 0. -1.
<mgrwt>
<rscale>  0 0.12041133E+03</rscale>
<asrwt>0</asrwt>
<pdfrwt beam="2">  1        2 0.17174804E+00 0.13013784E+03</pdfrwt>
<pdfrwt beam="1">  1       -2 0.18439739E-02 0.13013784E+03</pdfrwt>
<totfact> 0.18586584E+04</totfact>
</mgrwt>
</event>
<event>
 7    1  0.6008063E-006  0.1661331E+03  0.7546771E-02  0.1188825E+00
         -1   -1    0    0    0  501 -0.00000000000E+00  0.00000000000E+00  0.25369690192E+02  0.25369690192E+02  0.00000000000E+00 0.  1.
          1   -1    0    0  501    0  0.00000000000E+00 -0.00000000000E+00 -0.12780998381E+04  0.12780998381E+04  0.00000000000E+00 0. -1.
         23    2    1    2    0    0  0.97496073825E+02  0.49693925168E+02 -0.99663731452E+03  0.10103891023E+04  0.12500092340E+03 0.  0.
          5    1    3    3  502    0  0.26320083289E+02 -0.29336796775E+02 -0.10218320193E+03  0.10962158175E+03  0.47000000000E+01 0. -1.
         -5    1    3    3    0  502  0.71175990536E+02  0.79030721942E+02 -0.89445411258E+03  0.90076752059E+03  0.47000000000E+01 0. -1.
        -11    1    1    2    0    0 -0.74058162337E+02 -0.62788633759E+02 -0.24587982024E+03  0.26435565048E+03  0.00000000000E+00 0.  1.
         11    1    1    2    0    0 -0.23437911488E+02  0.13094708591E+02 -0.10213013155E+02  0.28724775468E+02  0.00000000000E+00 0. -1.
<mgrwt>
<rscale>  0 0.15988686E+03</rscale>
<asrwt>0</asrwt>
<pdfrwt beam="2">  1        1 0.19663071E+00 0.16613308E+03</pdfrwt>
<pdfrwt beam="1">  1       -1 0.39030299E-02 0.16613308E+03</pdfrwt>
<totfact> 0.25644910E+03</totfact>
</mgrwt>
</event>
<event>
 7    1  0.6008063E-006  0.1350922E+03  0.7546771E-02  0.1225793E+00
          1   -1    0    0  501    0  0.00000000000E+00  0.00000000000E+00  0.45667350823E+03  0.45667350823E+03  0.00000000000E+00 0. -1.
         -1   -1    0    0    0  501 -0.00000000000E+00 -0.00000000000E+00 -0.97057572436E+02  0.97057572436E+02  0.00000000000E+00 0.  1.
         23    2    1    2    0    0  0.74011727850E+02  0.16194401372E+02  0.40390498532E+03  0.42589803601E+03  0.11184768846E+03 0.  0.
          5    1    3    3  502    0  0.80872439670E+02  0.19135772825E+02  0.14769255694E+03  0.16953380393E+03  0.47000000000E+01 0. -1.
         -5    1    3    3    0  502 -0.68607118194E+01 -0.29413714537E+01  0.25621242838E+03  0.25636423208E+03  0.47000000000E+01 0.  1.
        -11    1    1    2    0    0 -0.91818930214E+02 -0.63250926255E+00 -0.48451983053E+02  0.10382056962E+03  0.00000000000E+00 0.  1.
         11    1    1    2    0    0  0.17807202364E+02 -0.15561892109E+02  0.41629335263E+01  0.24012475041E+02  0.00000000000E+00 0. -1.
<mgrwt>
<rscale>  0 0.13112686E+03</rscale>
<asrwt>0</asrwt>
<pdfrwt beam="1">  1        1 0.70257461E-01 0.13509219E+03</pdfrwt>
<pdfrwt beam="2">  1       -1 0.14931935E-01 0.13509219E+03</pdfrwt>
<totfact> 0.16258842E+03</totfact>
</mgrwt>
</event>
<event>
 7    1  0.6008063E-006  0.1429416E+03  0.7546771E-02  0.1219789E+00
         -1   -1    0    0    0  501 -0.00000000000E+00  0.00000000000E+00  0.12876384113E+03  0.12876384113E+03  0.00000000000E+00 0.  1.
          1   -1    0    0  501    0  0.00000000000E+00 -0.00000000000E+00 -0.13013200291E+03  0.13013200291E+03  0.00000000000E+00 0. -1.
         23    2    1    2    0    0  0.52756922818E+02  0.45011360198E+02 -0.13087224250E+02  0.14353942733E+03  0.12499190497E+03 0.  0.
          5    1    3    3  502    0  0.64459031593E+02  0.44202820527E+01  0.39537256434E+02  0.75893282270E+02  0.47000000000E+01 0.  1.
         -5    1    3    3    0  502 -0.11702108775E+02  0.40591078145E+02 -0.52624480684E+02  0.67646145064E+02  0.47000000000E+01 0.  1.
        -11    1    1    2    0    0 -0.25098017386E+02 -0.71598767424E+02  0.25628001125E+01  0.75913516041E+02  0.00000000000E+00 0.  1.
         11    1    1    2    0    0 -0.27658905433E+02  0.26587407226E+02  0.91562623535E+01  0.39442900667E+02  0.00000000000E+00 0. -1.
<mgrwt>
<rscale>  0 0.13530572E+03</rscale>
<asrwt>0</asrwt>
<pdfrwt beam="2">  1        1 0.20020308E-01 0.14294157E+03</pdfrwt>
<pdfrwt beam="1">  1       -1 0.19809822E-01 0.14294157E+03</pdfrwt>
<totfact> 0.50042708E+03</totfact>
</mgrwt>
</event>
<event>
 7    1  0.6008063E-006  0.1323992E+03  0.7546771E-02  0.1236669E+00
          1   -1    0    0  501    0  0.00000000000E+00  0.00000000000E+00  0.34285079304E+02  0.34285079304E+02  0.00000000000E+00 0. -1.
         -1   -1    0    0    0  501 -0.00000000000E+00 -0.00000000000E+00 -0.41473839010E+03  0.41473839010E+03  0.00000000000E+00 0.  1.
         23    2    1    2    0    0  0.40133445191E+02  0.17082158254E+02 -0.17217519034E+03  0.21719537573E+03  0.12500816580E+03 0.  0.
          5    1    3    3  502    0  0.64530902699E+02  0.10004495240E+02 -0.17889697677E+03  0.19050077592E+03  0.47000000000E+01 0. -1.
         -5    1    3    3    0  502 -0.24397457507E+02  0.70776630139E+01  0.67217864262E+01  0.26694599816E+02  0.47000000000E+01 0. -1.
        -11    1    1    2    0    0 -0.44035890036E+02 -0.45070156017E+02 -0.18427687935E+03  0.19475227043E+03  0.00000000000E+00 0.  1.
         11    1    1    2    0    0  0.39024448446E+01  0.27987997763E+02 -0.24001241106E+02  0.37075823244E+02  0.00000000000E+00 0. -1.
<mgrwt>
<rscale>  0 0.12398164E+03</rscale>
<asrwt>0</asrwt>
<pdfrwt beam="1">  1        1 0.52746277E-02 0.13239915E+03</pdfrwt>
<pdfrwt beam="2">  1       -1 0.63805905E-01 0.13239915E+03</pdfrwt>
<totfact> 0.38150840E+03</totfact>
</mgrwt>
</event>
<event>
 7    1  0.6008063E-006  0.1287487E+03  0.7546771E-02  0.1244650E+00
         -1   -1    0    0    0  501 -0.00000000000E+00  0.00000000000E+00  0.24161602099E+02  0.24161602099E+02  0.00000000000E+00 0.  1.
          1   -1    0    0  501    0  0.00000000000E+00 -0.00000000000E+00 -0.52414715682E+03  0.52414715682E+03  0.00000000000E+00 0. -1.
         23    2    1    2    0    0 -0.22974159155E+02 -0.20567256232E+02 -0.32545552506E+03  0.34999645082E+03  0.12500157110E+03 0.  0.
          5    1    3    3  502    0 -0.37394643885E+02  0.45693852455E+02 -0.17875274624E+03  0.18831070557E+03  0.47000000000E+01 0.  1.
         -5    1    3    3    0  502  0.14420484730E+02 -0.66261108687E+02 -0.14670277881E+03  0.16168574525E+03  0.47000000000E+01 0.  1.
        -11    1    1    2    0    0  0.43452497162E+02  0.43824649833E+02 -0.98846183145E+02  0.11653019937E+03  0.00000000000E+00 0.  1.
         11    1    1    2    0    0 -0.20478338007E+02 -0.23257393600E+02 -0.75683846515E+02  0.81782108727E+02  0.00000000000E+00 0. -1.
<mgrwt>
<rscale>  0 0.11906370E+03</rscale>
<asrwt>0</asrwt>
<pdfrwt beam="2">  1        1 0.80638015E-01 0.12874866E+03</pdfrwt>
<pdfrwt beam="1">  1       -1 0.37171700E-02 0.12874866E+03</pdfrwt>
<totfact> 0.11017827E+04</totfact>
</mgrwt>
</event>
<event>
 7    1  0.6008063E-006  0.1529512E+03  0.7546771E-02  0.1205797E+00
          3   -1    0    0  501    0  0.00000000000E+00  0.00000000000E+00  0.47444975721E+02  0.47444975721E+02  0.00000000000E+00 0. -1.
         -3   -1    0    0    0  501 -0.00000000000E+00 -0.00000000000E+00 -0.45076527902E+03  0.45076527902E+03  0.00000000000E+00 0.  1.
         23    2    1    2    0    0 -0.78374499948E+02  0.40315948612E+02 -0.29359669686E+03  0.33104847802E+03  0.12500454569E+03 0.  0.
          5    1    3    3  502    0 -0.10304677408E+03  0.39436396106E+02 -0.28298161117E+03  0.30376726164E+03  0.47000000000E+01 0.  1.
         -5    1    3    3    0  502  0.24672274128E+02  0.87955250671E+00 -0.10615085690E+02  0.27281216385E+02  0.47000000000E+01 0.  1.
        -11    1    1    2    0    0  0.29952410835E+02 -0.52614589350E+02 -0.99030006677E+02  0.11607059985E+03  0.00000000000E+00 0.  1.
         11    1    1    2    0    0  0.48422089113E+02  0.12298640738E+02 -0.10693599770E+02  0.51091176871E+02  0.00000000000E+00 0. -1.
<mgrwt>
<rscale>  0 0.14574789E+03</rscale>
<asrwt>0</asrwt>
<pdfrwt beam="1">  1        3 0.72992272E-02 0.15295122E+03</pdfrwt>
<pdfrwt beam="2">  1       -3 0.69348502E-01 0.15295122E+03</pdfrwt>
<totfact> 0.59279479E+02</totfact>
</mgrwt>
</event>
<event>
 7    1  0.6008063E-006  0.1569204E+03  0.7546771E-02  0.1199712E+00
         -2   -1    0    0    0  501 -0.00000000000E+00  0.00000000000E+00  0.20770630625E+02  0.20770630625E+02  0.00000000000E+00 0. -1.
          2   -1    0    0  501    0  0.00000000000E+00 -0.00000000000E+00 -0.10296024783E+04  0.10296024783E+04  0.00000000000E+00 0.  1.
         23    2    1    2    0    0  0.56180989574E+02 -0.76448742206E+02 -0.61127129902E+03  0.63109159642E+03  0.12499315299E+03 0.  0.
          5    1    3    3  502    0 -0.15517801475E+02  0.19607017162E+02 -0.22980274949E+03  0.23120690076E+03  0.47000000000E+01 0.  1.
         -5    1    3    3    0  502  0.71698791049E+02 -0.96055759367E+02 -0.38146854953E+03  0.39988469566E+03  0.47000000000E+01 0.  1.
        -11    1    1    2    0    0 -0.75723265380E+02  0.52971593062E+02 -0.35540035140E+03  0.36721848043E+03  0.00000000000E+00 0.  1.
         11    1    1    2    0    0  0.19542275805E+02  0.23477149144E+02 -0.42160197208E+02  0.52063032030E+02  0.00000000000E+00 0. -1.
<mgrwt>
<rscale>  0 0.15062139E+03</rscale>
<asrwt>0</asrwt>
<pdfrwt beam="2">  1        2 0.15840036E+00 0.15692037E+03</pdfrwt>
<pdfrwt beam="1">  1       -2 0.31954820E-02 0.15692037E+03</pdfrwt>
<totfact> 0.94456022E+03</totfact>
</mgrwt>
</event>
<event>
 6    1  0.6008063E-006  0.2178267E+03  0.7546771E-02  0.1161783E+00
          2   -1    0    0  501    0  0.00000000000E+00  0.00000000000E+00  0.19329700028E+03  0.19329700028E+03  0.00000000000E+00 0. -1.
         -2   -1    0    0    0  501 -0.00000000000E+00 -0.00000000000E+00 -0.14918732801E+03  0.14918732801E+03  0.00000000000E+00 0.  1.
          5    1    1    2  502    0  0.98515213317E+01 -0.11461974939E+03  0.10234837329E+03  0.15405200076E+03  0.47000000000E+01 0. -1.
         -5    1    1    2    0  502 -0.30631396245E+02  0.44785115487E+02 -0.45615812964E+02  0.71041406219E+02  0.47000000000E+01 0.  1.
        -11    1    1    2    0    0  0.40902755368E+02  0.81826254027E+02 -0.15800107252E+01  0.91493539000E+02  0.00000000000E+00 0.  1.
         11    1    1    2    0    0 -0.20122880455E+02 -0.11991620125E+02 -0.11042877322E+02  0.25897382312E+02  0.00000000000E+00 0. -1.
<mgrwt>
<rscale>  0 0.18636338E+03</rscale>
<asrwt>0</asrwt>
<pdfrwt beam="1">  1        2 0.29738000E-01 0.21782667E+03</pdfrwt>
<pdfrwt beam="2">  1       -2 0.22951897E-01 0.21782667E+03</pdfrwt>
<totfact> 0.28908228E+03</totfact>
</mgrwt>
</event>
<event>
 7    1  0.6008063E-006  0.1461239E+03  0.7546771E-02  0.1215332E+00
         -2   -1    0    0    0  501 -0.00000000000E+00  0.00000000000E+00  0.52539819211E+02  0.52539819211E+02  0.00000000000E+00 0.  1.
          2   -1    0    0  501    0  0.00000000000E+00 -0.00000000000E+00 -0.34224507875E+03  0.34224507875E+03  0.00000000000E+00 0. -1.
         23    2    1    2    0    0  0.64535091220E+02 -0.39521158983E+02 -0.19383784327E+03  0.24274531755E+03  0.12500191880E+03 0.  0.
          5    1    3    3  502    0  0.11808037040E+01 -0.56677736907E+02 -0.15775474097E+03  0.16769737165E+03  0.47000000000E+01 0. -1.
         -5    1    3    3    0  502  0.63354287516E+02  0.17156577924E+02 -0.36083102301E+02  0.75047945904E+02  0.47000000000E+01 0. -1.
        -11    1    1    2    0    0  0.86578826647E+01 -0.65253057219E+01  0.10407999634E+02  0.15028805787E+02  0.00000000000E+00 0.  1.
         11    1    1    2    0    0 -0.73192973885E+02  0.46046464704E+02 -0.10627541590E+03  0.13701077462E+03  0.00000000000E+00 0. -1.
<mgrwt>
<rscale>  0 0.13852146E+03</rscale>
<asrwt>0</asrwt>
<pdfrwt beam="2">  1        2 0.52653091E-01 0.14612385E+03</pdfrwt>
<pdfrwt beam="1">  1       -2 0.80830488E-02 0.14612385E+03</pdfrwt>
<totfact> 0.84174322E+03</totfact>
</mgrwt>
</event>
<event>
 7    1  0.6008063E-006  0.2012972E+03  0.7546771E-02  0.1152841E+00
          2   -1    0    0  501    0  0.00000000000E+00  0.00000000000E+00  0.21184846099E+03  0.21184846099E+03  0.00000000000E+00 0. -1.
         -2   -1    0    0    0  501 -0.00000000000E+00 -0.00000000000E+00 -0.17893266281E+03  0.17893266281E+03  0.00000000000E+00 0.  1.
         23    2    1    2    0    0  0.40878909268E+02  0.15238794845E+03  0.50831638925E+02  0.20761601672E+03  0.12500953095E+03 0.  0.
          5    1    3    3  502    0 -0.40541707299E+02  0.19362832205E+02  0.13989293813E+02  0.47289952877E+02  0.47000000000E+01 0. -1.
         -5    1    3    3    0  502  0.81420616567E+02  0.13302511624E+03  0.36842345112E+02  0.16032606384E+03  0.47000000000E+01 0. -1.
        -11    1    1    2    0    0 -0.62703592403E+02 -0.12730236075E+03  0.62749567202E+01  0.14204579063E+03  0.00000000000E+00 0. -1.
         11    1    1    2    0    0  0.21824683135E+02 -0.25085587698E+02 -0.24190797459E+02  0.41119316456E+02  0.00000000000E+00 0.  1.
<mgrwt>
<rscale>  0 0.19636635E+03</rscale>
<asrwt>0</asrwt>
<pdfrwt beam="1">  1        2 0.32592071E-01 0.20129718E+03</pdfrwt>
<pdfrwt beam="2">  1       -2 0.27528102E-01 0.20129718E+03</pdfrwt>
<totfact> 0.18922907E+03</totfact>
</mgrwt>
</event>
<event>
 7    1  0.6008063E-006  0.1349240E+03  0.7546771E-02  0.1232749E+00
         -2   -1    0    0    0  501 -0.00000000000E+00  0.00000000000E+00  0.15444748834E+03  0.15444748834E+03  0.00000000000E+00 0.  1.
          2   -1    0    0  501    0  0.00000000000E+00 -0.00000000000E+00 -0.92680022494E+02  0.92680022494E+02  0.00000000000E+00 0. -1.
         23    2    1    2    0    0 -0.25564046760E+02  0.43885580190E+02  0.30992334171E+02  0.13843773373E+03  0.12500006683E+03 0.  0.
          5    1    3    3  502    0 -0.37946376242E+02  0.79867126420E+02  0.42758352970E+02  0.98331338348E+02  0.47000000000E+01 0.  1.
         -5    1    3    3    0  502  0.12382329482E+02 -0.35981546230E+02 -0.11766018800E+02  0.40106395386E+02  0.47000000000E+01 0.  1.
        -11    1    1    2    0    0 -0.20815732358E+02 -0.31169556578E+02  0.44975205365E+02  0.58545751925E+02  0.00000000000E+00 0.  1.
         11    1    1    2    0    0  0.46379779118E+02 -0.12716023612E+02 -0.14200073693E+02  0.50144025172E+02  0.00000000000E+00 0. -1.
<mgrwt>
<rscale>  0 0.12649617E+03</rscale>
<asrwt>0</asrwt>
<pdfrwt beam="2">  1        2 0.14258465E-01 0.13492398E+03</pdfrwt>
<pdfrwt beam="1">  1       -2 0.23761152E-01 0.13492398E+03</pdfrwt>
<totfact> 0.61100315E+03</totfact>
</mgrwt>
</event>
<event>
 7    1  0.6008063E-006  0.1721087E+03  0.7546771E-02  0.1182254E+00
         -1   -1    0    0    0  501 -0.00000000000E+00  0.00000000000E+00  0.25651932459E+02  0.25651932459E+02  0.00000000000E+00 0.  1.
          1   -1    0    0  501    0  0.00000000000E+00 -0.00000000000E+00 -0.10154258545E+04  0.10154258545E+04  0.00000000000E+00 0. -1.
         23    2    1    2    0    0 -0.29441328116E+02 -0.11458398086E+03 -0.59281169287E+03  0.61729013641E+03  0.12500051534E+03 0.  0.
          5    1    3    3  502    0 -0.60641497799E+02 -0.10297927944E+03 -0.30644874273E+03  0.32896055261E+03  0.47000000000E+01 0.  1.
         -5    1    3    3    0  502  0.31200169684E+02 -0.11604701413E+02 -0.28636295014E+03  0.28832958380E+03  0.47000000000E+01 0.  1.
        -11    1    1    2    0    0 -0.52121149763E+01  0.69762827600E+02 -0.32370810362E+03  0.33118115074E+03  0.00000000000E+00 0. -1.
         11    1    1    2    0    0  0.34653443092E+02  0.44821153258E+02 -0.73254125572E+02  0.92606499830E+02  0.00000000000E+00 0.  1.
<mgrwt>
<rscale>  0 0.16584287E+03</rscale>
<asrwt>0</asrwt>
<pdfrwt beam="2">  1        1 0.15621936E+00 0.17210871E+03</pdfrwt>
<pdfrwt beam="1">  1       -1 0.39464511E-02 0.17210871E+03</pdfrwt>
<totfact> 0.38596875E+03</totfact>
</mgrwt>
</event>
<event>
 7    1  0.6008063E-006  0.3022283E+03  0.7546771E-02  0.1085632E+00
         -1   -1    0    0    0  501 -0.00000000000E+00  0.00000000000E+00  0.15403952871E+03  0.15403952871E+03  0.00000000000E+00 0.  1.
          1   -1    0    0  501    0  0.00000000000E+00 -0.00000000000E+00 -0.12358156799E+04  0.12358156799E+04  0.00000000000E+00 0. -1.
         23    2    1    2    0    0  0.22530493623E+03 -0.15796854949E+03 -0.10559431956E+04  0.10983432962E+04  0.12500234853E+03 0.  0.
          5    1    3    3  502    0  0.10317343516E+03 -0.69555551700E+02 -0.71154035498E+03  0.72235344483E+03  0.47000000000E+01 0. -1.
         -5    1    3    3    0  502  0.12213150107E+03 -0.88412997788E+02 -0.34440284058E+03  0.37598985137E+03  0.47000000000E+01 0. -1.
        -11    1    1    2    0    0 -0.12750463253E+03  0.59249200291E+02  0.26403975106E+02  0.14305617411E+03  0.00000000000E+00 0.  1.
         11    1    1    2    0    0 -0.97800303701E+02  0.98719349196E+02 -0.52236930773E+02  0.14845573834E+03  0.00000000000E+00 0. -1.
<mgrwt>
<rscale>  0 0.29921782E+03</rscale>
<asrwt>0</asrwt>
<pdfrwt beam="2">  1        1 0.19012548E+00 0.30222833E+03</pdfrwt>
<pdfrwt beam="1">  1       -1 0.23698390E-01 0.30222833E+03</pdfrwt>
<totfact> 0.16514778E+02</totfact>
</mgrwt>
</event>
<event>
 7    1  0.6008063E-006  0.1790529E+03  0.7546771E-02  0.1174393E+00
          2   -1    0    0  501    0  0.00000000000E+00  0.00000000000E+00  0.74426382964E+03  0.74426382964E+03  0.00000000000E+00 0.  1.
         -2   -1    0    0    0  501 -0.00000000000E+00 -0.00000000000E+00 -0.51035600988E+02  0.51035600988E+02  0.00000000000E+00 0. -1.
         23    2    1    2    0    0  0.38097089448E+02 -0.12241311884E+03  0.56387780282E+03  0.59162330300E+03  0.12499438492E+03 0.  0.
          5    1    3    3  502    0  0.28507586711E+02 -0.14760933615E+03  0.44868940183E+03  0.47322876913E+03  0.47000000000E+01 0. -1.
         -5    1    3    3    0  502  0.95895027374E+01  0.25196217312E+02  0.11518840099E+03  0.11839453388E+03  0.47000000000E+01 0. -1.
        -11    1    1    2    0    0 -0.11406561504E+02  0.20339219771E+02  0.86859661397E+02  0.89935500690E+02  0.00000000000E+00 0.  1.
         11    1    1    2    0    0 -0.26690527944E+02  0.10207389907E+03  0.42490764440E+02  0.11374062693E+03  0.00000000000E+00 0. -1.
<mgrwt>
<rscale>  0 0.17335578E+03</rscale>
<asrwt>0</asrwt>
<pdfrwt beam="1">  1        2 0.11450212E+00 0.17905294E+03</pdfrwt>
<pdfrwt beam="2">  1       -2 0.78516315E-02 0.17905294E+03</pdfrwt>
<totfact> 0.37292669E+03</totfact>
</mgrwt>
</event>
<event>
 6    1  0.6008063E-006  0.2306271E+03  0.7546771E-02  0.1144252E+00
          1   -1    0    0  501    0  0.00000000000E+00  0.00000000000E+00  0.38719462255E+03  0.38719462255E+03  0.00000000000E+00 0. -1.
         -1   -1    0    0    0  501 -0.00000000000E+00 -0.00000000000E+00 -0.20268594077E+03  0.20268594077E+03  0.00000000000E+00 0.  1.
          5    1    1    2  502    0  0.13229287490E+03  0.92380397984E+02  0.18988338343E+03  0.24922546416E+03  0.47000000000E+01 0. -1.
         -5    1    1    2    0  502 -0.64994710415E+02  0.20829279744E+01  0.12626179837E+03  0.14210131139E+03  0.47000000000E+01 0.  1.
        -11    1    1    2    0    0 -0.53667356101E+02 -0.38138133475E+02 -0.12360870579E+03  0.14004932875E+03  0.00000000000E+00 0.  1.
         11    1    1    2    0    0 -0.13630808384E+02 -0.56325192483E+02 -0.80277942207E+01  0.58504459022E+02  0.00000000000E+00 0. -1.
<mgrwt>
<rscale>  0 0.20664296E+03</rscale>
<asrwt>0</asrwt>
<pdfrwt beam="1">  1        1 0.59568403E-01 0.23062712E+03</pdfrwt>
<pdfrwt beam="2">  1       -1 0.31182452E-01 0.23062712E+03</pdfrwt>
<totfact> 0.60725987E+02</totfact>
</mgrwt>
</event>
<event>
 7    1  0.6008063E-006  0.1259217E+03  0.7546771E-02  0.1249342E+00
         -2   -1    0    0    0  501 -0.00000000000E+00  0.00000000000E+00  0.24159935197E+02  0.24159935197E+02  0.00000000000E+00 0.  1.
          2   -1    0    0  501    0  0.00000000000E+00 -0.00000000000E+00 -0.53672596417E+03  0.53672596417E+03  0.00000000000E+00 0. -1.
         23    2    1    2    0    0 -0.12499526786E+02  0.85408212840E+01 -0.37531010892E+03  0.39587114290E+03  0.12500840023E+03 0.  0.
          5    1    3    3  502    0  0.36639501955E+02 -0.19618006486E+02 -0.48010174894E+02  0.63674062029E+02  0.47000000000E+01 0. -1.
         -5    1    3    3    0  502 -0.49139028741E+02  0.28158827770E+02 -0.32729993403E+03  0.33219708088E+03  0.47000000000E+01 0. -1.
        -11    1    1    2    0    0  0.39279750834E+02 -0.27225563834E+01 -0.13115656113E+03  0.13693923713E+03  0.00000000000E+00 0. -1.
         11    1    1    2    0    0 -0.26780224048E+02 -0.58182649006E+01 -0.60993589220E+01  0.28075519332E+02  0.00000000000E+00 0.  1.
<mgrwt>
<rscale>  0 0.11629209E+03</rscale>
<asrwt>0</asrwt>
<pdfrwt beam="2">  1        2 0.82573222E-01 0.12592174E+03</pdfrwt>
<pdfrwt beam="1">  1       -2 0.37169133E-02 0.12592174E+03</pdfrwt>
<totfact> 0.16556028E+04</totfact>
</mgrwt>
</event>
<event>
 7    1  0.6008063E-006  0.1604695E+03  0.7546771E-02  0.1195932E+00
         -2   -1    0    0    0  501 -0.00000000000E+00  0.00000000000E+00  0.31030055968E+03  0.31030055968E+03  0.00000000000E+00 0.  1.
          2   -1    0    0  501    0  0.00000000000E+00 -0.00000000000E+00 -0.11671939334E+03  0.11671939334E+03  0.00000000000E+00 0. -1.
         23    2    1    2    0    0  0.18767600600E+02 -0.98860804480E+02 -0.32350028562E+02  0.16369781780E+03  0.12499907884E+03 0.  0.
          5    1    3    3  502    0 -0.26793777935E+02 -0.96053010505E+02 -0.53395046341E+02  0.11321311027E+03  0.47000000000E+01 0.  1.
         -5    1    3    3    0  502  0.45561378536E+02 -0.28077939745E+01  0.21045017779E+02  0.50484707530E+02  0.47000000000E+01 0.  1.
        -11    1    1    2    0    0 -0.92020140744E+01 -0.72639526783E+01 -0.18324276837E+01  0.11865911796E+02  0.00000000000E+00 0. -1.
         11    1    1    2    0    0 -0.95655865260E+01  0.10612475716E+03  0.22776362258E+03  0.25145622342E+03  0.00000000000E+00 0.  1.
<mgrwt>
<rscale>  0 0.15375592E+03</rscale>
<asrwt>0</asrwt>
<pdfrwt beam="2">  1        2 0.17956830E-01 0.16046947E+03</pdfrwt>
<pdfrwt beam="1">  1       -2 0.47738547E-01 0.16046947E+03</pdfrwt>
<totfact> 0.13048086E+03</totfact>
</mgrwt>
</event>
<event>
 7    1  0.6008063E-006  0.1322818E+03  0.7546771E-02  0.1237551E+00
          1   -1    0    0  501    0  0.00000000000E+00  0.00000000000E+00  0.88209676785E+03  0.88209676785E+03  0.00000000000E+00 0. -1.
         -1   -1    0    0    0  501 -0.00000000000E+00 -0.00000000000E+00 -0.15398032539E+02  0.15398032539E+02  0.00000000000E+00 0.  1.
         23    2    1    2    0    0 -0.34659799074E+02 -0.25952320099E+02  0.52321918529E+03  0.53968212995E+03  0.12499464364E+03 0.  0.
          5    1    3    3  502    0 -0.73131329347E+01 -0.53752940458E+02  0.47202746432E+03  0.47515773970E+03  0.47000000000E+01 0.  1.
         -5    1    3    3    0  502 -0.27346666139E+02  0.27800620359E+02  0.51191720966E+02  0.64524390247E+02  0.47000000000E+01 0.  1.
        -11    1    1    2    0    0  0.55190475417E+02  0.18106751252E+02  0.32158866029E+03  0.32679215022E+03  0.00000000000E+00 0. -1.
         11    1    1    2    0    0 -0.20530676343E+02  0.78455688471E+01  0.21890889732E+02  0.31020520223E+02  0.00000000000E+00 0.  1.
<mgrwt>
<rscale>  0 0.12342557E+03</rscale>
<asrwt>0</asrwt>
<pdfrwt beam="1">  1        1 0.13570716E+00 0.13228184E+03</pdfrwt>
<pdfrwt beam="2">  1       -1 0.23689288E-02 0.13228184E+03</pdfrwt>
<totfact> 0.10133004E+04</totfact>
</mgrwt>
</event>
<event>
 7    1  0.6008063E-006  0.1161522E+03  0.7546771E-02  0.1259319E+00
         -2   -1    0    0    0  501 -0.00000000000E+00  0.00000000000E+00  0.44666777400E+02  0.44666777400E+02  0.00000000000E+00 0.  1.
          2   -1    0    0  501    0  0.00000000000E+00 -0.00000000000E+00 -0.40936896348E+03  0.40936896348E+03  0.00000000000E+00 0. -1.
         23    2    1    2    0    0  0.88755412966E+01  0.14131210234E+02 -0.33377808900E+03  0.35341074104E+03  0.11494726116E+03 0.  0.
          5    1    3    3  502    0 -0.34255791417E+02  0.47091304890E+02 -0.21383071783E+03  0.22166803137E+03  0.47000000000E+01 0. -1.
         -5    1    3    3    0  502  0.43131332714E+02 -0.32960094656E+02 -0.11994737117E+03  0.13174270967E+03  0.47000000000E+01 0.  1.
        -11    1    1    2    0    0 -0.15693763488E+02  0.31160118711E+02 -0.40889995260E+02  0.53751641118E+02  0.00000000000E+00 0.  1.
         11    1    1    2    0    0  0.68182221910E+01 -0.45291328945E+02  0.99658981801E+01  0.46873358723E+02  0.00000000000E+00 0. -1.
<mgrwt>
<rscale>  0 0.11067803E+03</rscale>
<asrwt>0</asrwt>
<pdfrwt beam="2">  1        2 0.62979840E-01 0.11615222E+03</pdfrwt>
<pdfrwt beam="1">  1       -2 0.68718120E-02 0.11615222E+03</pdfrwt>
<totfact> 0.87852466E+03</totfact>
</mgrwt>
</event>
<event>
 7    1  0.6008063E-006  0.1252823E+03  0.7546771E-02  0.1250395E+00
          2   -1    0    0  501    0  0.00000000000E+00  0.00000000000E+00  0.72833052246E+03  0.72833052246E+03  0.00000000000E+00 0. -1.
         -2   -1    0    0    0  501 -0.00000000000E+00 -0.00000000000E+00 -0.16128620974E+02  0.16128620974E+02  0.00000000000E+00 0.  1.
         23    2    1    2    0    0 -0.35749622430E+01 -0.76211841994E+01  0.43478780880E+03  0.45247771564E+03  0.12499912664E+03 0.  0.
          5    1    3    3  502    0  0.56291547779E+02  0.14564512191E+02  0.15917456570E+03  0.16952727135E+03  0.47000000000E+01 0. -1.
         -5    1    3    3    0  502 -0.59866510022E+02 -0.22185696390E+02  0.27561324311E+03  0.28295044429E+03  0.47000000000E+01 0. -1.
        -11    1    1    2    0    0 -0.40115027995E+02 -0.42886105772E+01  0.81975830680E+02  0.91365444602E+02  0.00000000000E+00 0.  1.
         11    1    1    2    0    0  0.43689990238E+02  0.11909794777E+02  0.19543826200E+03  0.20061598319E+03  0.00000000000E+00 0. -1.
<mgrwt>
<rscale>  0 0.11568218E+03</rscale>
<asrwt>0</asrwt>
<pdfrwt beam="1">  1        2 0.11205082E+00 0.12528226E+03</pdfrwt>
<pdfrwt beam="2">  1       -2 0.24813269E-02 0.12528226E+03</pdfrwt>
<totfact> 0.21091286E+04</totfact>
</mgrwt>
</event>
<event>
 7    1  0.6008063E-006  0.1339611E+03  0.7546771E-02  0.1235449E+00
          2   -1    0    0  501    0  0.00000000000E+00  0.00000000000E+00  0.63705710453E+03  0.63705710453E+03  0.00000000000E+00 0. -1.
         -2   -1    0    0    0  501 -0.00000000000E+00 -0.00000000000E+00 -0.21947509765E+02  0.21947509765E+02  0.00000000000E+00 0.  1.
         23    2    1    2    0    0 -0.43911575888E+02  0.19821760759E+02  0.39010789385E+03  0.41246786525E+03  0.12499776930E+03 0.  0.
          5    1    3    3  502    0  0.35947495710E+01 -0.27367166882E+02  0.15721071284E+02  0.32111152734E+02  0.47000000000E+01 0.  1.
         -5    1    3    3    0  502 -0.47506325459E+02  0.47188927641E+02  0.37438682256E+03  0.38035671252E+03  0.47000000000E+01 0.  1.
        -11    1    1    2    0    0  0.21295388347E+02  0.27027188165E+02  0.15803673502E+03  0.16173921009E+03  0.00000000000E+00 0. -1.
         11    1    1    2    0    0  0.22616187540E+02 -0.46848948924E+02  0.66964965897E+02  0.84797538949E+02  0.00000000000E+00 0.  1.
<mgrwt>
<rscale>  0 0.12475755E+03</rscale>
<asrwt>0</asrwt>
<pdfrwt beam="1">  1        2 0.98008771E-01 0.13396108E+03</pdfrwt>
<pdfrwt beam="2">  1       -2 0.33765404E-02 0.13396108E+03</pdfrwt>
<totfact> 0.15799632E+04</totfact>
</mgrwt>
</event>
<event>
 7    1  0.6008063E-006  0.1343234E+03  0.7546771E-02  0.1234532E+00
          1   -1    0    0  501    0  0.00000000000E+00  0.00000000000E+00  0.57544391056E+02  0.57544391056E+02  0.00000000000E+00 0. -1.
         -1   -1    0    0    0  501 -0.00000000000E+00 -0.00000000000E+00 -0.24481834348E+03  0.24481834348E+03  0.00000000000E+00 0.  1.
         23    2    1    2    0    0  0.40607435916E+02 -0.27717676499E+02 -0.91279532639E+02  0.16240296882E+03  0.12500215103E+03 0.  0.
          5    1    3    3  502    0  0.33500002801E+02 -0.69472306020E+02 -0.20765906037E+02  0.80012276214E+02  0.47000000000E+01 0.  1.
         -5    1    3    3    0  502  0.71074331151E+01  0.41754629521E+02 -0.70513626602E+02  0.82390692608E+02  0.47000000000E+01 0.  1.
        -11    1    1    2    0    0 -0.35167095519E+02  0.48862421255E+02 -0.24139883012E+02  0.64861350356E+02  0.00000000000E+00 0. -1.
         11    1    1    2    0    0 -0.54403403969E+01 -0.21144744756E+02 -0.71854536770E+02  0.75098415355E+02  0.00000000000E+00 0.  1.
<mgrwt>
<rscale>  0 0.12534470E+03</rscale>
<asrwt>0</asrwt>
<pdfrwt beam="1">  1        1 0.88529831E-02 0.13432338E+03</pdfrwt>
<pdfrwt beam="2">  1       -1 0.37664361E-01 0.13432338E+03</pdfrwt>
<totfact> 0.49603198E+03</totfact>
</mgrwt>
</event>
<event>
 7    1  0.6008063E-006  0.1324686E+03  0.7546771E-02  0.1237268E+00
         -1   -1    0    0    0  501 -0.00000000000E+00  0.00000000000E+00  0.25513150642E+02  0.25513150642E+02  0.00000000000E+00 0.  1.
          1   -1    0    0  501    0  0.00000000000E+00 -0.00000000000E+00 -0.71958697050E+03  0.71958697050E+03  0.00000000000E+00 0. -1.
         23    2    1    2    0    0 -0.30715042234E+02  0.31286600158E+02 -0.57148565676E+03  0.58663768811E+03  0.12500262423E+03 0.  0.
          5    1    3    3  502    0 -0.59686822558E+02  0.49155668528E+02 -0.51291090019E+03  0.51872774947E+03  0.47000000000E+01 0.  1.
         -5    1    3    3    0  502  0.28971780324E+02 -0.17869068370E+02 -0.58574756566E+02  0.67909938642E+02  0.47000000000E+01 0.  1.
        -11    1    1    2    0    0 -0.29086100757E+02 -0.24279816917E+02 -0.64467590387E+02  0.74776874614E+02  0.00000000000E+00 0.  1.
         11    1    1    2    0    0  0.59801142991E+02 -0.70067832411E+01 -0.58120572711E+02  0.83685558412E+02  0.00000000000E+00 0. -1.
<mgrwt>
<rscale>  0 0.12360345E+03</rscale>
<asrwt>0</asrwt>
<pdfrwt beam="2">  1        1 0.11070571E+00 0.13246857E+03</pdfrwt>
<pdfrwt beam="1">  1       -1 0.39250994E-02 0.13246857E+03</pdfrwt>
<totfact> 0.65993286E+03</totfact>
</mgrwt>
</event>
<event>
 7    1  0.6008063E-006  0.1864188E+03  0.7546771E-02  0.1167065E+00
         -2   -1    0    0    0  501 -0.00000000000E+00  0.00000000000E+00  0.48925962575E+02  0.48925962575E+02  0.00000000000E+00 0. -1.
          2   -1    0    0  501    0  0.00000000000E+00 -0.00000000000E+00 -0.63471878434E+03  0.63471878434E+03  0.00000000000E+00 0.  1.
         23    2    1    2    0    0 -0.13453375238E+03 -0.32076793975E+02 -0.33906874780E+03  0.38693612766E+03  0.12499479954E+03 0.  0.
          5    1    3    3  502    0 -0.13456655603E+03  0.27194169460E+01 -0.31953345312E+03  0.34675534732E+03  0.47000000000E+01 0.  1.
         -5    1    3    3    0  502  0.32803644610E-01 -0.34796210921E+02 -0.19535294675E+02  0.40180780338E+02  0.47000000000E+01 0.  1.
        -11    1    1    2    0    0  0.19136939926E+02 -0.54836336853E+01  0.19506125378E+01  0.20002439786E+02  0.00000000000E+00 0. -1.
         11    1    1    2    0    0  0.11539681246E+03  0.37560427660E+02 -0.24867468650E+03  0.27670617947E+03  0.00000000000E+00 0.  1.
<mgrwt>
<rscale>  0 0.18076522E+03</rscale>
<asrwt>0</asrwt>
<pdfrwt beam="2">  1        2 0.97649032E-01 0.18641875E+03</pdfrwt>
<pdfrwt beam="1">  1       -2 0.75270721E-02 0.18641875E+03</pdfrwt>
<totfact> 0.48235620E+03</totfact>
</mgrwt>
</event>
<event>
 7    1  0.6008063E-006  0.1477493E+03  0.7546771E-02  0.1212723E+00
          1   -1    0    0  501    0  0.00000000000E+00  0.00000000000E+00  0.52749638054E+02  0.52749638054E+02  0.00000000000E+00 0. -1.
         -1   -1    0    0    0  501 -0.00000000000E+00 -0.00000000000E+00 -0.35099081841E+03  0.35099081841E+03  0.00000000000E+00 0.  1.
         23    2    1    2    0    0  0.74043499691E+02 -0.26868942040E+02 -0.13058648337E+03  0.19718693601E+03  0.12500191279E+03 0.  0.
          5    1    3    3  502    0  0.66658331234E+02 -0.40263154603E+02 -0.15176495142E+03  0.17064332750E+03  0.47000000000E+01 0. -1.
         -5    1    3    3    0  502  0.73851684573E+01  0.13394212564E+02  0.21178468054E+02  0.26543608505E+02  0.47000000000E+01 0. -1.
        -11    1    1    2    0    0 -0.21176285305E+02  0.50820203421E+02 -0.11784247871E+03  0.13006912748E+03  0.00000000000E+00 0.  1.
         11    1    1    2    0    0 -0.52867214386E+02 -0.23951261381E+02 -0.49812218276E+02  0.76484392972E+02  0.00000000000E+00 0. -1.
<mgrwt>
<rscale>  0 0.14045116E+03</rscale>
<asrwt>0</asrwt>
<pdfrwt beam="1">  1        1 0.81153291E-02 0.14774931E+03</pdfrwt>
<pdfrwt beam="2">  1       -1 0.53998587E-01 0.14774931E+03</pdfrwt>
<totfact> 0.29372339E+03</totfact>
</mgrwt>
</event>
<event>
 7    1  0.1024424E-005  0.4759833E+03  0.7546771E-02  0.1020781E+00
         -2   -1    0    0    0  501 -0.00000000000E+00  0.00000000000E+00  0.33335884542E+03  0.33335884542E+03  0.00000000000E+00 0.  1.
          2   -1    0    0  501    0  0.00000000000E+00 -0.00000000000E+00 -0.70182962078E+03  0.70182962078E+03  0.00000000000E+00 0. -1.
         23    2    1    2    0    0 -0.35283838801E+03 -0.29400519229E+03 -0.29805036886E+03  0.56159964069E+03  0.12500461152E+03 0.  0.
          5    1    3    3  502    0 -0.12928456847E+03 -0.92286705327E+02 -0.37249348917E+02  0.16322052450E+03  0.47000000000E+01 0.  1.
         -5    1    3    3    0  502 -0.22355381954E+03 -0.20171848697E+03 -0.26080101994E+03  0.39837911619E+03  0.47000000000E+01 0.  1.
        -11    1    1    2    0    0  0.28638931081E+03  0.23900766004E+03 -0.19731428373E+02  0.37354093239E+03  0.00000000000E+00 0.  1.
         11    1    1    2    0    0  0.66449077191E+02  0.54997532257E+02 -0.50688978131E+02  0.10004789312E+03  0.00000000000E+00 0. -1.
<mgrwt>
<rscale>  0 0.47405683E+03</rscale>
<asrwt>0</asrwt>
<pdfrwt beam="2">  1        2 0.10797379E+00 0.47598333E+03</pdfrwt>
<pdfrwt beam="1">  1       -2 0.51285976E-01 0.47598333E+03</pdfrwt>
<totfact> 0.15099142E+02</totfact>
</mgrwt>
</event>
<event>
 7    1  0.6008063E-006  0.1861524E+03  0.7546771E-02  0.1167184E+00
         -1   -1    0    0    0  501 -0.00000000000E+00  0.00000000000E+00  0.33305613624E+03  0.33305613624E+03  0.00000000000E+00 0.  1.
          1   -1    0    0  501    0  0.00000000000E+00 -0.00000000000E+00 -0.13077234340E+03  0.13077234340E+03  0.00000000000E+00 0. -1.
         23    2    1    2    0    0 -0.40511187240E+02 -0.13185132126E+03 -0.19707037259E+02  0.18719268404E+03  0.12500722551E+03 0.  0.
          5    1    3    3  502    0  0.55909714654E+01 -0.19369593591E+02 -0.56438033978E+02  0.60114738601E+02  0.47000000000E+01 0. -1.
         -5    1    3    3    0  502 -0.46102158706E+02 -0.11248172767E+03  0.36730996719E+02  0.12707794544E+03  0.47000000000E+01 0. -1.
        -11    1    1    2    0    0  0.10637839899E+02  0.70392661128E+02  0.38720999639E+02  0.81040768699E+02  0.00000000000E+00 0. -1.
         11    1    1    2    0    0  0.29873347341E+02  0.61458660136E+02  0.18326983046E+03  0.19559502689E+03  0.00000000000E+00 0.  1.
<mgrwt>
<rscale>  0 0.18064139E+03</rscale>
<asrwt>0</asrwt>
<pdfrwt beam="2">  1        1 0.20118822E-01 0.18615245E+03</pdfrwt>
<pdfrwt beam="1">  1       -1 0.51239405E-01 0.18615245E+03</pdfrwt>
<totfact> 0.98955660E+02</totfact>
</mgrwt>
</event>
<event>
 7    1  0.6008063E-006  0.1862355E+03  0.7546771E-02  0.1172048E+00
         -1   -1    0    0    0  501 -0.00000000000E+00  0.00000000000E+00  0.27521747970E+02  0.27521747970E+02  0.00000000000E+00 0.  1.
          1   -1    0    0  501    0  0.00000000000E+00 -0.00000000000E+00 -0.10154310057E+04  0.10154310057E+04  0.00000000000E+00 0. -1.
         23    2    1    2    0    0 -0.77962638399E+02 -0.11392365549E+03 -0.51935442883E+03  0.55173606581E+03  0.12500756497E+03 0.  0.
          5    1    3    3  502    0 -0.72343340556E+02 -0.12191412788E+03 -0.52170567589E+03  0.54064361252E+03  0.47000000000E+01 0. -1.
         -5    1    3    3    0  502 -0.56192978432E+01  0.79904723947E+01  0.23512470549E+01  0.11092453293E+02  0.47000000000E+01 0. -1.
        -11    1    1    2    0    0  0.18389230421E+01  0.24135499543E+02 -0.39677796928E+02  0.46478291117E+02  0.00000000000E+00 0.  1.
         11    1    1    2    0    0  0.76123715357E+02  0.89788155944E+02 -0.42887703195E+03  0.44473839672E+03  0.00000000000E+00 0. -1.
<mgrwt>
<rscale>  0 0.17568302E+03</rscale>
<asrwt>0</asrwt>
<pdfrwt beam="2">  1        1 0.15622018E+00 0.18623551E+03</pdfrwt>
<pdfrwt beam="1">  1       -1 0.42341144E-02 0.18623551E+03</pdfrwt>
<totfact> 0.34853681E+03</totfact>
</mgrwt>
</event>
<event>
 7    1  0.6008063E-006  0.1284910E+03  0.7546771E-02  0.1244262E+00
         -2   -1    0    0    0  501 -0.00000000000E+00  0.00000000000E+00  0.30993123686E+03  0.30993123686E+03  0.00000000000E+00 0.  1.
          2   -1    0    0  501    0  0.00000000000E+00 -0.00000000000E+00 -0.40936474842E+02  0.40936474842E+02  0.00000000000E+00 0. -1.
         23    2    1    2    0    0 -0.22878055366E+02  0.19977089695E+02  0.13539946896E+03  0.18666264394E+03  0.12484965727E+03 0.  0.
          5    1    3    3  502    0 -0.31214457590E+02  0.31598845987E+02  0.15536472056E+03  0.16165740263E+03  0.47000000000E+01 0.  1.
         -5    1    3    3    0  502  0.83364022242E+01 -0.11621756292E+02 -0.19965251605E+02  0.25005241310E+02  0.47000000000E+01 0.  1.
        -11    1    1    2    0    0 -0.39149450085E+01  0.26642083643E+02  0.93032049276E+02  0.96850862711E+02  0.00000000000E+00 0.  1.
         11    1    1    2    0    0  0.26793000374E+02 -0.46619173338E+02  0.40563243787E+02  0.67354205053E+02  0.00000000000E+00 0. -1.
<mgrwt>
<rscale>  0 0.11929647E+03</rscale>
<asrwt>0</asrwt>
<pdfrwt beam="2">  1        2 0.62979194E-02 0.12849096E+03</pdfrwt>
<pdfrwt beam="1">  1       -2 0.47681727E-01 0.12849096E+03</pdfrwt>
<totfact> 0.46342048E+03</totfact>
</mgrwt>
</event>
<event>
 7    1  0.6008063E-006  0.1298987E+03  0.7546771E-02  0.1242817E+00
         -2   -1    0    0    0  501 -0.00000000000E+00  0.00000000000E+00  0.20007331055E+03  0.20007331055E+03  0.00000000000E+00 0.  1.
          2   -1    0    0  501    0  0.00000000000E+00 -0.00000000000E+00 -0.63339053569E+02  0.63339053569E+02  0.00000000000E+00 0. -1.
         23    2    1    2    0    0 -0.35122633817E+02  0.40390414624E+01  0.74954851905E+02  0.14997303869E+03  0.12499507690E+03 0.  0.
          5    1    3    3  502    0  0.38886957596E+02 -0.42920913532E+01 -0.60132513882E+01  0.39860590958E+02  0.47000000000E+01 0.  1.
         -5    1    3    3    0  502 -0.74009591413E+02  0.83311328157E+01  0.80968103293E+02  0.11011244773E+03  0.47000000000E+01 0.  1.
        -11    1    1    2    0    0  0.36968250906E+02  0.32363553685E+02  0.59150995169E+02  0.76895327632E+02  0.00000000000E+00 0.  1.
         11    1    1    2    0    0 -0.18456170885E+01 -0.36402595147E+02  0.26284099036E+01  0.36543997790E+02  0.00000000000E+00 0. -1.
<mgrwt>
<rscale>  0 0.12016984E+03</rscale>
<asrwt>0</asrwt>
<pdfrwt beam="2">  1        2 0.97444699E-02 0.12989874E+03</pdfrwt>
<pdfrwt beam="1">  1       -2 0.30780509E-01 0.12989874E+03</pdfrwt>
<totfact> 0.60968144E+03</totfact>
</mgrwt>
</event>
<event>
 7    1  0.6008063E-006  0.1281753E+03  0.7546771E-02  0.1244766E+00
          2   -1    0    0  501    0  0.00000000000E+00  0.00000000000E+00  0.65961125624E+03  0.65961125624E+03  0.00000000000E+00 0.  1.
         -2   -1    0    0    0  501 -0.00000000000E+00 -0.00000000000E+00 -0.19143484863E+02  0.19143484863E+02  0.00000000000E+00 0. -1.
         23    2    1    2    0    0 -0.24080493962E+02 -0.14873194698E+02  0.40373786362E+03  0.42359551488E+03  0.12501126185E+03 0.  0.
          5    1    3    3  502    0 -0.28171666626E+02 -0.45622249369E+02  0.38116095170E+03  0.38494258473E+03  0.47000000000E+01 0.  1.
         -5    1    3    3    0  502  0.40911726635E+01  0.30749054671E+02  0.22576911927E+02  0.38652930148E+02  0.47000000000E+01 0.  1.
        -11    1    1    2    0    0 -0.16041662045E+02 -0.29467255211E+02  0.62237759475E+02  0.70704969806E+02  0.00000000000E+00 0.  1.
         11    1    1    2    0    0  0.40122156007E+02  0.44340449909E+02  0.17449214828E+03  0.18445425642E+03  0.00000000000E+00 0. -1.
<mgrwt>
<rscale>  0 0.11899404E+03</rscale>
<asrwt>0</asrwt>
<pdfrwt beam="1">  1        2 0.10147864E+00 0.12817526E+03</pdfrwt>
<pdfrwt beam="2">  1       -2 0.29451520E-02 0.12817526E+03</pdfrwt>
<totfact> 0.18489689E+04</totfact>
</mgrwt>
</event>
<event>
 7    1  0.6008063E-006  0.1305984E+03  0.7546771E-02  0.1239450E+00
          1   -1    0    0  501    0  0.00000000000E+00  0.00000000000E+00  0.14494657389E+04  0.14494657389E+04  0.00000000000E+00 0. -1.
         -1   -1    0    0    0  501 -0.00000000000E+00 -0.00000000000E+00 -0.16898864698E+02  0.16898864698E+02  0.00000000000E+00 0.  1.
         23    2    1    2    0    0  0.12220109006E+02 -0.35798376729E+02  0.12603800803E+04  0.12671282040E+04  0.12500033471E+03 0.  0.
          5    1    3    3  502    0 -0.37284413501E+02  0.12384850732E+02  0.16967397666E+03  0.17422646289E+03  0.47000000000E+01 0. -1.
         -5    1    3    3    0  502  0.49504522507E+02 -0.48183227462E+02  0.10907061037E+04  0.10929017411E+04  0.47000000000E+01 0. -1.
        -11    1    1    2    0    0 -0.34954399753E+02  0.36229422863E+01  0.16833265257E+02  0.38965299847E+02  0.00000000000E+00 0.  1.
         11    1    1    2    0    0  0.22734290748E+02  0.32175434443E+02  0.15535352865E+03  0.16027109977E+03  0.00000000000E+00 0. -1.
<mgrwt>
<rscale>  0 0.12223824E+03</rscale>
<asrwt>0</asrwt>
<pdfrwt beam="1">  1        1 0.22299463E+00 0.13059839E+03</pdfrwt>
<pdfrwt beam="2">  1       -1 0.25998265E-02 0.13059839E+03</pdfrwt>
<totfact> 0.35599278E+03</totfact>
</mgrwt>
</event>
<event>
 7    1  0.6008063E-006  0.2027933E+03  0.7546771E-02  0.1151788E+00
         -2   -1    0    0    0  501 -0.00000000000E+00  0.00000000000E+00  0.31810228739E+02  0.31810228739E+02  0.00000000000E+00 0.  1.
          2   -1    0    0  501    0  0.00000000000E+00 -0.00000000000E+00 -0.14832352208E+04  0.14832352208E+04  0.00000000000E+00 0. -1.
         23    2    1    2    0    0  0.62011738147E+02  0.14715754762E+03 -0.11040860566E+04  0.11225556335E+04  0.12499732197E+03 0.  0.
          5    1    3    3  502    0 -0.34231684192E+02  0.57219955222E+02 -0.48570259660E+03  0.49028056643E+03  0.47000000000E+01 0. -1.
         -5    1    3    3    0  502  0.96243422338E+02  0.89937592403E+02 -0.61838346000E+03  0.63227506709E+03  0.47000000000E+01 0. -1.
        -11    1    1    2    0    0  0.32805108650E+01 -0.28731275889E+02 -0.12747397807E+02  0.31602913103E+02  0.00000000000E+00 0.  1.
         11    1    1    2    0    0 -0.65292249012E+02 -0.11842627174E+03 -0.33459153763E+03  0.36088690288E+03  0.00000000000E+00 0. -1.
<mgrwt>
<rscale>  0 0.19758998E+03</rscale>
<asrwt>0</asrwt>
<pdfrwt beam="2">  1        2 0.22818999E+00 0.20279332E+03</pdfrwt>
<pdfrwt beam="1">  1       -2 0.48938824E-02 0.20279332E+03</pdfrwt>
<totfact> 0.28155016E+03</totfact>
</mgrwt>
</event>
<event>
 7    1  0.6008063E-006  0.3211649E+03  0.7546771E-02  0.1076475E+00
          2   -1    0    0  501    0  0.00000000000E+00  0.00000000000E+00  0.24210761083E+03  0.24210761083E+03  0.00000000000E+00 0. -1.
         -2   -1    0    0    0  501 -0.00000000000E+00 -0.00000000000E+00 -0.44288670939E+03  0.44288670939E+03  0.00000000000E+00 0.  1.
         23    2    1    2    0    0  0.33861364675E+02 -0.29388461416E+03 -0.98250429447E+01  0.32131516003E+03  0.12502856528E+03 0.  0.
          5    1    3    3  502    0 -0.76786863307E+01 -0.10315809097E+02 -0.31011357038E+02  0.33899445518E+02  0.47000000000E+01 0.  1.
         -5    1    3    3    0  502  0.41540051006E+02 -0.28356880507E+03  0.21186314093E+02  0.28741571451E+03  0.47000000000E+01 0.  1.
        -11    1    1    2    0    0 -0.51104259562E+02  0.18503857329E+03 -0.15808044839E+03  0.24867719460E+03  0.00000000000E+00 0.  1.
         11    1    1    2    0    0  0.17242894887E+02  0.10884604087E+03 -0.32873607223E+02  0.11500196559E+03  0.00000000000E+00 0. -1.
<mgrwt>
<rscale>  0 0.31821177E+03</rscale>
<asrwt>0</asrwt>
<pdfrwt beam="1">  1        2 0.37247325E-01 0.32116491E+03</pdfrwt>
<pdfrwt beam="2">  1       -2 0.68136417E-01 0.32116491E+03</pdfrwt>
<totfact> 0.28038142E+02</totfact>
</mgrwt>
</event>
<event>
 7    1  0.6008063E-006  0.1449368E+03  0.7546771E-02  0.1217127E+00
          2   -1    0    0  501    0  0.00000000000E+00  0.00000000000E+00  0.24504271457E+03  0.24504271457E+03  0.00000000000E+00 0. -1.
         -2   -1    0    0    0  501 -0.00000000000E+00 -0.00000000000E+00 -0.70156188865E+02  0.70156188865E+02  0.00000000000E+00 0.  1.
         23    2    1    2    0    0 -0.63676144665E+02 -0.36405406551E+02  0.10963090085E+03  0.18172946385E+03  0.12500663417E+03 0.  0.
          5    1    3    3  502    0  0.25728157767E+02  0.24710337857E+02  0.34424310441E+02  0.49796205161E+02  0.47000000000E+01 0. -1.
         -5    1    3    3    0  502 -0.89404302432E+02 -0.61115744408E+02  0.75206590412E+02  0.13193325869E+03  0.47000000000E+01 0. -1.
        -11    1    1    2    0    0 -0.82986333087E+01 -0.20374528013E+02  0.25125169897E+02  0.33395551633E+02  0.00000000000E+00 0. -1.
         11    1    1    2    0    0  0.71974777974E+02  0.56779934564E+02  0.40130454951E+02  0.10007388794E+03  0.00000000000E+00 0.  1.
<mgrwt>
<rscale>  0 0.13721435E+03</rscale>
<asrwt>0</asrwt>
<pdfrwt beam="1">  1        2 0.37698879E-01 0.14493676E+03</pdfrwt>
<pdfrwt beam="2">  1       -2 0.10793260E-01 0.14493676E+03</pdfrwt>
<totfact> 0.76323372E+03</totfact>
</mgrwt>
</event>
<event>
 7    1  0.6008063E-006  0.1344043E+03  0.7546771E-02  0.1233654E+00
         -2   -1    0    0    0  501 -0.00000000000E+00  0.00000000000E+00  0.30016417181E+02  0.30016417181E+02  0.00000000000E+00 0.  1.
          2   -1    0    0  501    0  0.00000000000E+00 -0.00000000000E+00 -0.48118017591E+03  0.48118017591E+03  0.00000000000E+00 0. -1.
         23    2    1    2    0    0 -0.26877709669E+02  0.41445179102E+02 -0.29031766382E+03  0.31992008058E+03  0.12499759152E+03 0.  0.
          5    1    3    3  502    0  0.17700984656E+02  0.72167163261E+02 -0.12077114782E+03  0.14187735710E+03  0.47000000000E+01 0.  1.
         -5    1    3    3    0  502 -0.44578694325E+02 -0.30721984159E+02 -0.16954651600E+03  0.17804272348E+03  0.47000000000E+01 0.  1.
        -11    1    1    2    0    0  0.31093737668E+02  0.23142380582E+02 -0.58074910703E+02  0.69821812884E+02  0.00000000000E+00 0. -1.
         11    1    1    2    0    0 -0.42160279993E+01 -0.64587559684E+02 -0.10277118421E+03  0.12145469963E+03  0.00000000000E+00 0.  1.
<mgrwt>
<rscale>  0 0.12590995E+03</rscale>
<asrwt>0</asrwt>
<pdfrwt beam="2">  1        2 0.74027724E-01 0.13440429E+03</pdfrwt>
<pdfrwt beam="1">  1       -2 0.46179100E-02 0.13440429E+03</pdfrwt>
<totfact> 0.13591141E+04</totfact>
</mgrwt>
</event>
<event>
 6    1  0.6008063E-006  0.1494418E+03  0.7546771E-02  0.1221698E+00
          1   -1    0    0  501    0  0.00000000000E+00  0.00000000000E+00  0.12240160964E+03  0.12240160964E+03  0.00000000000E+00 0. -1.
         -1   -1    0    0    0  501 -0.00000000000E+00 -0.00000000000E+00 -0.12761712237E+03  0.12761712237E+03  0.00000000000E+00 0.  1.
          5    1    1    2  502    0  0.17552920164E+02  0.74530049324E+02  0.11245789805E+02  0.77533160950E+02  0.47000000000E+01 0. -1.
         -5    1    1    2    0  502 -0.43281980022E+02 -0.58214166917E+02  0.74709978656E+01  0.73076157764E+02  0.47000000000E+01 0.  1.
        -11    1    1    2    0    0 -0.11852596076E+02 -0.14726023019E+02  0.28912824292E+02  0.34544047190E+02  0.00000000000E+00 0. -1.
         11    1    1    2    0    0  0.37581655934E+02 -0.15898593883E+01 -0.52845124691E+02  0.64865366099E+02  0.00000000000E+00 0.  1.
<mgrwt>
<rscale>  0 0.13395832E+03</rscale>
<asrwt>0</asrwt>
<pdfrwt beam="1">  1        1 0.18831017E-01 0.14944179E+03</pdfrwt>
<pdfrwt beam="2">  1       -1 0.19633404E-01 0.14944179E+03</pdfrwt>
<totfact> 0.55045439E+03</totfact>
</mgrwt>
</event>
<event>
 7    1  0.6008063E-006  0.3577610E+03  0.7546771E-02  0.1099546E+00
          2   -1    0    0  501    0  0.00000000000E+00  0.00000000000E+00  0.92077471661E+02  0.92077471661E+02  0.00000000000E+00 0. -1.
         -2   -1    0    0    0  501 -0.00000000000E+00 -0.00000000000E+00 -0.63212070863E+03  0.63212070863E+03  0.00000000000E+00 0.  1.
         23    2    1    2    0    0  0.38555425448E+02  0.32481744401E+02 -0.10149530443E+03  0.15823241824E+03  0.11042923893E+03 0.  0.
          5    1    3    3  502    0  0.65218825654E+02  0.19264853567E+02 -0.19536146697E+02  0.70911076923E+02  0.47000000000E+01 0. -1.
         -5    1    3    3    0  502 -0.26663400206E+02  0.13216890834E+02 -0.81959157730E+02  0.87321341319E+02  0.47000000000E+01 0.  1.
        -11    1    1    2    0    0  0.81658611250E+02 -0.16131576145E+03 -0.24034628955E+03  0.30076110550E+03  0.00000000000E+00 0.  1.
         11    1    1    2    0    0 -0.12021403670E+03  0.12883401705E+03 -0.19820164299E+03  0.26520465654E+03  0.00000000000E+00 0. -1.
<mgrwt>
<rscale>  0 0.27305049E+03</rscale>
<asrwt>0</asrwt>
<pdfrwt beam="1">  1        2 0.14165765E-01 0.35776103E+03</pdfrwt>
<pdfrwt beam="2">  1       -2 0.97249339E-01 0.35776103E+03</pdfrwt>
<totfact> 0.38321502E+02</totfact>
</mgrwt>
</event>
<event>
 7    1  0.6008063E-006  0.1737561E+03  0.7546771E-02  0.1180210E+00
         -2   -1    0    0    0  501 -0.00000000000E+00  0.00000000000E+00  0.36249847647E+02  0.36249847647E+02  0.00000000000E+00 0.  1.
          2   -1    0    0  501    0  0.00000000000E+00 -0.00000000000E+00 -0.10182334760E+04  0.10182334760E+04  0.00000000000E+00 0. -1.
         23    2    1    2    0    0 -0.11904915710E+03 -0.19834385111E+02 -0.79697698305E+03  0.81569816183E+03  0.12500030024E+03 0.  0.
          5    1    3    3  502    0  0.15492218848E+02 -0.21141457956E+02 -0.28759591495E+03  0.28882602096E+03  0.47000000000E+01 0. -1.
         -5    1    3    3    0  502 -0.13454137595E+03  0.13070728449E+01 -0.50938106810E+03  0.52687214087E+03  0.47000000000E+01 0. -1.
        -11    1    1    2    0    0  0.31636495193E+02  0.12331805918E+02 -0.13196545572E+03  0.13626379846E+03  0.00000000000E+00 0. -1.
         11    1    1    2    0    0  0.87412661905E+02  0.75025791938E+01 -0.53041189600E+02  0.10252136338E+03  0.00000000000E+00 0.  1.
<mgrwt>
<rscale>  0 0.16775490E+03</rscale>
<asrwt>0</asrwt>
<pdfrwt beam="2">  1        2 0.15665131E+00 0.17375609E+03</pdfrwt>
<pdfrwt beam="1">  1       -2 0.55768996E-02 0.17375609E+03</pdfrwt>
<totfact> 0.41834455E+03</totfact>
</mgrwt>
</event>
<event>
 7    1  0.6008063E-006  0.1531958E+03  0.7546771E-02  0.1204211E+00
          2   -1    0    0  501    0  0.00000000000E+00  0.00000000000E+00  0.63738229151E+03  0.63738229151E+03  0.00000000000E+00 0.  1.
         -2   -1    0    0    0  501 -0.00000000000E+00 -0.00000000000E+00 -0.35237581853E+02  0.35237581853E+02  0.00000000000E+00 0. -1.
         23    2    1    2    0    0  0.80547939824E+02 -0.36823123868E+02  0.43345368463E+03  0.45972933427E+03  0.12500020405E+03 0.  0.
          5    1    3    3  502    0  0.23416288929E+02 -0.66067445011E+02  0.33373126379E+03  0.34104527017E+03  0.47000000000E+01 0.  1.
         -5    1    3    3    0  502  0.57131650895E+02  0.29244321144E+02  0.99722420840E+02  0.11868406410E+03  0.47000000000E+01 0.  1.
        -11    1    1    2    0    0 -0.27154767678E+02  0.46330992203E+02  0.24865411332E+02  0.59179649601E+02  0.00000000000E+00 0. -1.
         11    1    1    2    0    0 -0.53393172146E+02 -0.95078683352E+01  0.14382561369E+03  0.15371088949E+03  0.00000000000E+00 0.  1.
<mgrwt>
<rscale>  0 0.14699780E+03</rscale>
<asrwt>0</asrwt>
<pdfrwt beam="1">  1        2 0.98058806E-01 0.15319584E+03</pdfrwt>
<pdfrwt beam="2">  1       -2 0.54211669E-02 0.15319584E+03</pdfrwt>
<totfact> 0.78572365E+03</totfact>
</mgrwt>
</event>
<event>
 7    1  0.6008063E-006  0.1357318E+03  0.7546771E-02  0.1230673E+00
         -2   -1    0    0    0  501 -0.00000000000E+00  0.00000000000E+00  0.22092757692E+02  0.22092757692E+02  0.00000000000E+00 0.  1.
          2   -1    0    0  501    0  0.00000000000E+00 -0.00000000000E+00 -0.66603928254E+03  0.66603928254E+03  0.00000000000E+00 0. -1.
         23    2    1    2    0    0 -0.47990349096E+02 -0.22289452175E+02 -0.35690268861E+03  0.38184114034E+03  0.12499293594E+03 0.  0.
          5    1    3    3  502    0 -0.16931441391E+02 -0.22864985361E+02 -0.58989694911E+01  0.29434148607E+02  0.47000000000E+01 0. -1.
         -5    1    3    3    0  502 -0.31058907705E+02  0.57553318598E+00 -0.35100371912E+03  0.35240699174E+03  0.47000000000E+01 0. -1.
        -11    1    1    2    0    0 -0.40413891669E+01  0.24364570717E+02 -0.14130548549E+02  0.28454130366E+02  0.00000000000E+00 0.  1.
         11    1    1    2    0    0  0.52031738263E+02 -0.20751185419E+01 -0.27291328768E+03  0.27783676952E+03  0.00000000000E+00 0. -1.
<mgrwt>
<rscale>  0 0.12785546E+03</rscale>
<asrwt>0</asrwt>
<pdfrwt beam="2">  1        2 0.10246759E+00 0.13573182E+03</pdfrwt>
<pdfrwt beam="1">  1       -2 0.33988854E-02 0.13573182E+03</pdfrwt>
<totfact> 0.14872727E+04</totfact>
</mgrwt>
</event>
<event>
 7    1  0.6008063E-006  0.1839186E+03  0.7546771E-02  0.1169045E+00
          2   -1    0    0  501    0  0.00000000000E+00  0.00000000000E+00  0.11073213220E+04  0.11073213220E+04  0.00000000000E+00 0.  1.
         -2   -1    0    0    0  501 -0.00000000000E+00 -0.00000000000E+00 -0.28061292381E+02  0.28061292381E+02  0.00000000000E+00 0. -1.
         23    2    1    2    0    0 -0.47153034111E+02  0.12640435304E+03  0.66131487502E+03  0.68641344605E+03  0.12499834356E+03 0.  0.
          5    1    3    3  502    0  0.69225347048E+01  0.12859350040E+03  0.49206010542E+03  0.50865454601E+03  0.47000000000E+01 0.  1.
         -5    1    3    3    0  502 -0.54075568816E+02 -0.21891473548E+01  0.16925476960E+03  0.17775890004E+03  0.47000000000E+01 0.  1.
        -11    1    1    2    0    0  0.71922880485E+02 -0.98951556671E+02  0.36014920107E+03  0.38035740868E+03  0.00000000000E+00 0.  1.
         11    1    1    2    0    0 -0.24769846374E+02 -0.27452796373E+02  0.57795953475E+02  0.68611759605E+02  0.00000000000E+00 0. -1.
<mgrwt>
<rscale>  0 0.17872221E+03</rscale>
<asrwt>0</asrwt>
<pdfrwt beam="1">  1        2 0.17035709E+00 0.18391861E+03</pdfrwt>
<pdfrwt beam="2">  1       -2 0.43171227E-02 0.18391861E+03</pdfrwt>
<totfact> 0.54680777E+03</totfact>
</mgrwt>
</event>
<event>
 7    1  0.6008063E-006  0.1454498E+03  0.7546771E-02  0.1216144E+00
          2   -1    0    0  501    0  0.00000000000E+00  0.00000000000E+00  0.50880738653E+03  0.50880738653E+03  0.00000000000E+00 0. -1.
         -2   -1    0    0    0  501 -0.00000000000E+00 -0.00000000000E+00 -0.40291949604E+02  0.40291949604E+02  0.00000000000E+00 0.  1.
         23    2    1    2    0    0  0.16257385085E+02 -0.72583607692E+02  0.36312307311E+03  0.39117006268E+03  0.12499187587E+03 0.  0.
          5    1    3    3  502    0  0.13832900453E+02 -0.11238070326E+02  0.30792887233E+03  0.30848002168E+03  0.47000000000E+01 0. -1.
         -5    1    3    3    0  502  0.24244846320E+01 -0.61345537365E+02  0.55194200780E+02  0.82690040997E+02  0.47000000000E+01 0. -1.
        -11    1    1    2    0    0 -0.29643343076E+02  0.88109791764E+02  0.10040210596E+03  0.13683072051E+03  0.00000000000E+00 0. -1.
         11    1    1    2    0    0  0.13385957991E+02 -0.15526184072E+02  0.49902578542E+01  0.21098552951E+02  0.00000000000E+00 0.  1.
<mgrwt>
<rscale>  0 0.13792843E+03</rscale>
<asrwt>0</asrwt>
<pdfrwt beam="1">  1        2 0.78278055E-01 0.14544983E+03</pdfrwt>
<pdfrwt beam="2">  1       -2 0.61987618E-02 0.14544983E+03</pdfrwt>
<totfact> 0.82451602E+03</totfact>
</mgrwt>
</event>
<event>
 7    1  0.6008063E-006  0.1309717E+03  0.7546771E-02  0.1239176E+00
          4   -1    0    0  501    0  0.00000000000E+00  0.00000000000E+00  0.28408281417E+02  0.28408281417E+02  0.00000000000E+00 0. -1.
         -4   -1    0    0    0  501 -0.00000000000E+00 -0.00000000000E+00 -0.53227454287E+03  0.53227454287E+03  0.00000000000E+00 0.  1.
         23    2    1    2    0    0 -0.17390960093E+02  0.35064772559E+02 -0.18605706393E+03  0.22753198728E+03  0.12498636097E+03 0.  0.
          5    1    3    3  502    0  0.35151002108E+02 -0.23436865892E+02 -0.27909235944E+02  0.50851696953E+02  0.47000000000E+01 0.  1.
         -5    1    3    3    0  502 -0.52541962201E+02  0.58501638451E+02 -0.15814782798E+03  0.17668029032E+03  0.47000000000E+01 0.  1.
        -11    1    1    2    0    0  0.12909553797E+02 -0.53997228100E+02 -0.30463895294E+03  0.30965666289E+03  0.00000000000E+00 0.  1.
         11    1    1    2    0    0  0.44814062960E+01  0.18932455541E+02 -0.13170244583E+02  0.23494174120E+02  0.00000000000E+00 0. -1.
<mgrwt>
<rscale>  0 0.12240841E+03</rscale>
<asrwt>0</asrwt>
<pdfrwt beam="1">  1        4 0.43705047E-02 0.13097165E+03</pdfrwt>
<pdfrwt beam="2">  1       -4 0.81888395E-01 0.13097165E+03</pdfrwt>
<totfact> 0.65897803E+02</totfact>
</mgrwt>
</event>
<event>
 7    1  0.6008063E-006  0.1795351E+03  0.7546771E-02  0.1173679E+00
          2   -1    0    0  501    0  0.00000000000E+00  0.00000000000E+00  0.21445821239E+03  0.21445821239E+03  0.00000000000E+00 0. -1.
         -2   -1    0    0    0  501 -0.00000000000E+00 -0.00000000000E+00 -0.13573104139E+03  0.13573104139E+03  0.00000000000E+00 0.  1.
         23    2    1    2    0    0 -0.12752891832E+03  0.18582349571E+02  0.65166615464E+02  0.19099617671E+03  0.12499569203E+03 0.  0.
          5    1    3    3  502    0 -0.27841331339E+01 -0.28356814723E+02 -0.17805418771E+02  0.33926144434E+02  0.47000000000E+01 0. -1.
         -5    1    3    3    0  502 -0.12474478518E+03  0.46939164294E+02  0.82972034235E+02  0.15707003228E+03  0.47000000000E+01 0. -1.
        -11    1    1    2    0    0  0.96251635795E+01 -0.37831366966E+02  0.59354236994E+01  0.39485254905E+02  0.00000000000E+00 0.  1.
         11    1    1    2    0    0  0.11790375474E+03  0.19249017395E+02  0.76251318397E+01  0.11970782216E+03  0.00000000000E+00 0. -1.
<mgrwt>
<rscale>  0 0.17405949E+03</rscale>
<asrwt>0</asrwt>
<pdfrwt beam="1">  1        2 0.32993571E-01 0.17953510E+03</pdfrwt>
<pdfrwt beam="2">  1       -2 0.20881699E-01 0.17953510E+03</pdfrwt>
<totfact> 0.30144822E+03</totfact>
</mgrwt>
</event>
<event>
 7    1  0.6008063E-006  0.1461882E+03  0.7546771E-02  0.1214871E+00
          1   -1    0    0  501    0  0.00000000000E+00  0.00000000000E+00  0.76093067097E+03  0.76093067097E+03  0.00000000000E+00 0. -1.
         -1   -1    0    0    0  501 -0.00000000000E+00 -0.00000000000E+00 -0.47435220286E+02  0.47435220286E+02  0.00000000000E+00 0.  1.
         23    2    1    2    0    0 -0.74978996436E+02 -0.11121180226E+02  0.66327782476E+03  0.67919692450E+03  0.12500183547E+03 0.  0.
          5    1    3    3  502    0  0.10797160821E+02  0.41948283203E+02  0.15617906139E+03  0.16214261119E+03  0.47000000000E+01 0.  1.
         -5    1    3    3    0  502 -0.85776157257E+02 -0.53069463430E+02  0.50709876337E+03  0.51705431331E+03  0.47000000000E+01 0.  1.
        -11    1    1    2    0    0  0.40867474125E+02 -0.54468937448E+00 -0.23473266802E+02  0.47132169292E+02  0.00000000000E+00 0.  1.
         11    1    1    2    0    0  0.34111522311E+02  0.11665869601E+02  0.73690892730E+02  0.82036797471E+02  0.00000000000E+00 0. -1.
<mgrwt>
<rscale>  0 0.13886024E+03</rscale>
<asrwt>0</asrwt>
<pdfrwt beam="1">  1        1 0.11706625E+00 0.14618820E+03</pdfrwt>
<pdfrwt beam="2">  1       -1 0.72977268E-02 0.14618820E+03</pdfrwt>
<totfact> 0.24317194E+03</totfact>
</mgrwt>
</event>
<event>
 7    1  0.6008063E-006  0.1444127E+03  0.7546771E-02  0.1217194E+00
         -1   -1    0    0    0  501 -0.00000000000E+00  0.00000000000E+00  0.18711873431E+02  0.18711873431E+02  0.00000000000E+00 0.  1.
          1   -1    0    0  501    0  0.00000000000E+00 -0.00000000000E+00 -0.10733983639E+04  0.10733983639E+04  0.00000000000E+00 0. -1.
         23    2    1    2    0    0  0.53587763347E+01 -0.72103610947E+02 -0.78121887232E+03  0.79445450934E+03  0.12500957462E+03 0.  0.
          5    1    3    3  502    0 -0.15532144328E+02 -0.10371697833E+03 -0.52345636912E+03  0.53387931171E+03  0.47000000000E+01 0. -1.
         -5    1    3    3    0  502  0.20890920663E+02  0.31613367381E+02 -0.25776250320E+03  0.26057519763E+03  0.47000000000E+01 0. -1.
        -11    1    1    2    0    0 -0.17537044669E+02  0.53327975536E+02 -0.26905046491E+03  0.27484463535E+03  0.00000000000E+00 0. -1.
         11    1    1    2    0    0  0.12178268334E+02  0.18775635410E+02 -0.44171532338E+01  0.22811092639E+02  0.00000000000E+00 0.  1.
<mgrwt>
<rscale>  0 0.13716573E+03</rscale>
<asrwt>0</asrwt>
<pdfrwt beam="2">  1        1 0.16513823E+00 0.14441275E+03</pdfrwt>
<pdfrwt beam="1">  1       -1 0.28787493E-02 0.14441275E+03</pdfrwt>
<totfact> 0.55331880E+03</totfact>
</mgrwt>
</event>
<event>
 7    1  0.6008063E-006  0.1433827E+03  0.7546771E-02  0.1220613E+00
         -1   -1    0    0    0  501 -0.00000000000E+00  0.00000000000E+00  0.64425636596E+02  0.64425636596E+02  0.00000000000E+00 0.  1.
          1   -1    0    0  501    0  0.00000000000E+00 -0.00000000000E+00 -0.51064727238E+03  0.51064727238E+03  0.00000000000E+00 0. -1.
         23    2    1    2    0    0 -0.69511989255E+02  0.10104033509E+02 -0.44041541387E+03  0.46316772786E+03  0.12499839685E+03 0.  0.
          5    1    3    3  502    0  0.32670499547E+02 -0.16162261404E+02 -0.90997353893E+02  0.98138619564E+02  0.47000000000E+01 0. -1.
         -5    1    3    3    0  502 -0.10218248880E+03  0.26266294912E+02 -0.34941805998E+03  0.36502910830E+03  0.47000000000E+01 0. -1.
        -11    1    1    2    0    0  0.21807139010E+02 -0.46001444817E+02 -0.10635869545E+02  0.52007749019E+02  0.00000000000E+00 0.  1.
         11    1    1    2    0    0  0.47704850245E+02  0.35897411309E+02  0.48296476315E+01  0.59897432097E+02  0.00000000000E+00 0. -1.
<mgrwt>
<rscale>  0 0.13472210E+03</rscale>
<asrwt>0</asrwt>
<pdfrwt beam="2">  1        1 0.78561120E-01 0.14338273E+03</pdfrwt>
<pdfrwt beam="1">  1       -1 0.99116362E-02 0.14338273E+03</pdfrwt>
<totfact> 0.26547264E+03</totfact>
</mgrwt>
</event>
<event>
 7    1  0.6008063E-006  0.1591017E+03  0.7546771E-02  0.1198940E+00
          1   -1    0    0  501    0  0.00000000000E+00  0.00000000000E+00  0.47019246417E+03  0.47019246417E+03  0.00000000000E+00 0. -1.
         -1   -1    0    0    0  501 -0.00000000000E+00 -0.00000000000E+00 -0.44442153447E+02  0.44442153447E+02  0.00000000000E+00 0.  1.
         23    2    1    2    0    0 -0.93815938415E+02  0.29822026861E+02  0.23916876330E+03  0.28725431135E+03  0.12499023349E+03 0.  0.
          5    1    3    3  502    0 -0.36950972535E+01 -0.32063717699E+02  0.12471134340E+03  0.12890595373E+03  0.47000000000E+01 0.  1.
         -5    1    3    3    0  502 -0.90120841162E+02  0.61885744560E+02  0.11445741990E+03  0.15834835762E+03  0.47000000000E+01 0.  1.
        -11    1    1    2    0    0  0.19185786540E+02 -0.12606643758E+02  0.13037113252E+03  0.13237693933E+03  0.00000000000E+00 0. -1.
         11    1    1    2    0    0  0.74630151875E+02 -0.17215383104E+02  0.56210414909E+02  0.95003366933E+02  0.00000000000E+00 0.  1.
<mgrwt>
<rscale>  0 0.15125403E+03</rscale>
<asrwt>0</asrwt>
<pdfrwt beam="1">  1        1 0.72337299E-01 0.15910167E+03</pdfrwt>
<pdfrwt beam="2">  1       -1 0.68372547E-02 0.15910167E+03</pdfrwt>
<totfact> 0.52123376E+03</totfact>
</mgrwt>
</event>
<event>
 7    1  0.6008063E-006  0.2246766E+03  0.7546771E-02  0.1133676E+00
         -1   -1    0    0    0  501 -0.00000000000E+00  0.00000000000E+00  0.82053997857E+02  0.82053997857E+02  0.00000000000E+00 0.  1.
          1   -1    0    0  501    0  0.00000000000E+00 -0.00000000000E+00 -0.57293402014E+03  0.57293402014E+03  0.00000000000E+00 0. -1.
         23    2    1    2    0    0 -0.11224953478E+03 -0.14917565937E+03 -0.28109031446E+03  0.35984905782E+03  0.12500497639E+03 0.  0.
          5    1    3    3  502    0 -0.83094103586E+02 -0.15598756199E+03 -0.17213677710E+03  0.24675880851E+03  0.47000000000E+01 0.  1.
         -5    1    3    3    0  502 -0.29155431199E+02  0.68119026218E+01 -0.10895353736E+03  0.11309024931E+03  0.47000000000E+01 0.  1.
        -11    1    1    2    0    0  0.12271795292E+03  0.11809900355E+03 -0.15002215414E+03  0.22696633526E+03  0.00000000000E+00 0.  1.
         11    1    1    2    0    0 -0.10468418137E+02  0.31076655820E+02 -0.59767553675E+02  0.68172624914E+02  0.00000000000E+00 0. -1.
<mgrwt>
<rscale>  0 0.22027850E+03</rscale>
<asrwt>0</asrwt>
<pdfrwt beam="2">  1        1 0.88143696E-01 0.22467661E+03</pdfrwt>
<pdfrwt beam="1">  1       -1 0.12623692E-01 0.22467661E+03</pdfrwt>
<totfact> 0.15818096E+03</totfact>
</mgrwt>
</event>
<event>
 7    1  0.6008063E-006  0.1636245E+03  0.7546771E-02  0.1192186E+00
         -2   -1    0    0    0  501 -0.00000000000E+00  0.00000000000E+00  0.52527884735E+03  0.52527884735E+03  0.00000000000E+00 0.  1.
          2   -1    0    0  501    0  0.00000000000E+00 -0.00000000000E+00 -0.44024957605E+02  0.44024957605E+02  0.00000000000E+00 0. -1.
         23    2    1    2    0    0  0.64872274348E+02  0.83310784060E+02  0.22782671500E+03  0.28049597968E+03  0.12499553523E+03 0.  0.
          5    1    3    3  502    0  0.29252164516E+01 -0.31122233012E+02  0.62604088733E+02  0.70132105380E+02  0.47000000000E+01 0. -1.
         -5    1    3    3    0  502  0.61947057896E+02  0.11443301707E+03  0.16522262627E+03  0.21036387430E+03  0.47000000000E+01 0. -1.
        -11    1    1    2    0    0 -0.69475457458E+02 -0.57734267361E+02  0.10672842588E+03  0.13982503963E+03  0.00000000000E+00 0. -1.
         11    1    1    2    0    0  0.46031831098E+01 -0.25576516698E+02  0.14669874887E+03  0.14898278565E+03  0.00000000000E+00 0.  1.
<mgrwt>
<rscale>  0 0.15694788E+03</rscale>
<asrwt>0</asrwt>
<pdfrwt beam="2">  1        2 0.67730708E-02 0.16362452E+03</pdfrwt>
<pdfrwt beam="1">  1       -2 0.80812126E-01 0.16362452E+03</pdfrwt>
<totfact> 0.14346998E+03</totfact>
</mgrwt>
</event>
<event>
 7    1  0.6008063E-006  0.1286613E+03  0.7546771E-02  0.1243924E+00
          2   -1    0    0  501    0  0.00000000000E+00  0.00000000000E+00  0.36074502357E+03  0.36074502357E+03  0.00000000000E+00 0. -1.
         -2   -1    0    0    0  501 -0.00000000000E+00 -0.00000000000E+00 -0.39787800504E+02  0.39787800504E+02  0.00000000000E+00 0.  1.
         23    2    1    2    0    0  0.75110754514E+01 -0.29496701745E+02  0.25065263456E+03  0.28174541444E+03  0.12500905438E+03 0.  0.
          5    1    3    3  502    0  0.17132501996E+02  0.19451912140E+02  0.22293044606E+03  0.22448156559E+03  0.47000000000E+01 0.  1.
         -5    1    3    3    0  502 -0.96214265446E+01 -0.48948613885E+02  0.27722188508E+02  0.57263848855E+02  0.47000000000E+01 0.  1.
        -11    1    1    2    0    0  0.40277979764E+01  0.10614761041E+02 -0.21521566618E+02  0.24332573604E+02  0.00000000000E+00 0.  1.
         11    1    1    2    0    0 -0.11538873428E+02  0.18881940705E+02  0.91826155120E+02  0.94454836027E+02  0.00000000000E+00 0. -1.
<mgrwt>
<rscale>  0 0.11950020E+03</rscale>
<asrwt>0</asrwt>
<pdfrwt beam="1">  1        2 0.55499232E-01 0.12866132E+03</pdfrwt>
<pdfrwt beam="2">  1       -2 0.61212003E-02 0.12866132E+03</pdfrwt>
<totfact> 0.12072141E+04</totfact>
</mgrwt>
</event>
<event>
 7    1  0.6008063E-006  0.1183214E+03  0.7546771E-02  0.1257612E+00
          1   -1    0    0  501    0  0.00000000000E+00  0.00000000000E+00  0.65823050264E+03  0.65823050264E+03  0.00000000000E+00 0. -1.
         -1   -1    0    0    0  501 -0.00000000000E+00 -0.00000000000E+00 -0.58448063528E+02  0.58448063528E+02  0.00000000000E+00 0.  1.
         23    2    1    2    0    0  0.77508957949E+00 -0.21760056899E+02  0.61097703732E+03  0.62232859980E+03  0.11630066707E+03 0.  0.
          5    1    3    3  502    0  0.21191034948E+01 -0.65984011119E+02  0.46603196666E+03  0.47070825813E+03  0.47000000000E+01 0. -1.
         -5    1    3    3    0  502 -0.13440139153E+01  0.44223954219E+02  0.14494507065E+03  0.15162034167E+03  0.47000000000E+01 0.  1.
        -11    1    1    2    0    0  0.91656688891E+00 -0.26328658274E+02  0.23279682835E+02  0.35156535299E+02  0.00000000000E+00 0.  1.
         11    1    1    2    0    0 -0.16916564684E+01  0.48088715173E+02 -0.34474281039E+02  0.59193431070E+02  0.00000000000E+00 0. -1.
<mgrwt>
<rscale>  0 0.11161258E+03</rscale>
<asrwt>0</asrwt>
<pdfrwt beam="1">  1        1 0.10126623E+00 0.11832137E+03</pdfrwt>
<pdfrwt beam="2">  1       -1 0.89920103E-02 0.11832137E+03</pdfrwt>
<totfact> 0.21725352E+03</totfact>
</mgrwt>
</event>
<event>
 7    1  0.6008063E-006  0.1424717E+03  0.7546771E-02  0.1221165E+00
          1   -1    0    0  501    0  0.00000000000E+00  0.00000000000E+00  0.45309404370E+03  0.45309404370E+03  0.00000000000E+00 0. -1.
         -1   -1    0    0    0  501 -0.00000000000E+00 -0.00000000000E+00 -0.41294797456E+02  0.41294797456E+02  0.00000000000E+00 0.  1.
         23    2    1    2    0    0 -0.51779748493E+02 -0.44630870252E+02  0.31568859931E+03  0.34634877923E+03  0.12500051283E+03 0.  0.
          5    1    3    3  502    0  0.23503070609E+02  0.15098679769E+02  0.18156842462E+02  0.33647071002E+02  0.47000000000E+01 0.  1.
         -5    1    3    3    0  502 -0.75282819102E+02 -0.59729550021E+02  0.29753175685E+03  0.31270170823E+03  0.47000000000E+01 0.  1.
        -11    1    1    2    0    0  0.64246409440E+02 -0.16784873006E+01  0.49037352371E+02  0.80839843970E+02  0.00000000000E+00 0.  1.
         11    1    1    2    0    0 -0.12466660947E+02  0.46309357552E+02  0.47073294564E+02  0.67200217955E+02  0.00000000000E+00 0. -1.
<mgrwt>
<rscale>  0 0.13433228E+03</rscale>
<asrwt>0</asrwt>
<pdfrwt beam="1">  1        1 0.69706772E-01 0.14247170E+03</pdfrwt>
<pdfrwt beam="2">  1       -1 0.63530461E-02 0.14247170E+03</pdfrwt>
<totfact> 0.60676301E+03</totfact>
</mgrwt>
</event>
<event>
 7    1  0.6008063E-006  0.1509822E+03  0.7546771E-02  0.1207839E+00
          1   -1    0    0  501    0  0.00000000000E+00  0.00000000000E+00  0.12286108054E+03  0.12286108054E+03  0.00000000000E+00 0. -1.
         -1   -1    0    0    0  501 -0.00000000000E+00 -0.00000000000E+00 -0.15783453961E+03  0.15783453961E+03  0.00000000000E+00 0.  1.
         23    2    1    2    0    0 -0.82667248093E+02  0.18336923608E+02 -0.21894103605E+01  0.15099810729E+03  0.12500207283E+03 0.  0.
          5    1    3    3  502    0  0.29548035575E+02  0.11805291725E+02  0.17756711742E+02  0.36740197753E+02  0.47000000000E+01 0.  1.
         -5    1    3    3    0  502 -0.11221528367E+03  0.65316318826E+01 -0.19946122103E+02  0.11425790953E+03  0.47000000000E+01 0.  1.
        -11    1    1    2    0    0  0.25128143590E+02  0.30119200652E+02 -0.37577968559E+02  0.54320286903E+02  0.00000000000E+00 0. -1.
         11    1    1    2    0    0  0.57539104503E+02 -0.48456124260E+02  0.47939198529E+01  0.75377225956E+02  0.00000000000E+00 0.  1.
<mgrwt>
<rscale>  0 0.14415938E+03</rscale>
<asrwt>0</asrwt>
<pdfrwt beam="1">  1        1 0.18901705E-01 0.15098223E+03</pdfrwt>
<pdfrwt beam="2">  1       -1 0.24282237E-01 0.15098223E+03</pdfrwt>
<totfact> 0.38818827E+03</totfact>
</mgrwt>
</event>
<event>
 7    1  0.6008063E-006  0.1343986E+03  0.7546771E-02  0.1229727E+00
          3   -1    0    0  501    0  0.00000000000E+00  0.00000000000E+00  0.16883580495E+03  0.16883580495E+03  0.00000000000E+00 0. -1.
         -3   -1    0    0    0  501 -0.00000000000E+00 -0.00000000000E+00 -0.96882523093E+02  0.96882523093E+02  0.00000000000E+00 0.  1.
         23    2    1    2    0    0  0.26379490600E+02 -0.41735634007E+02  0.74056856863E+02  0.15345159836E+03  0.12500093728E+03 0.  0.
          5    1    3    3  502    0  0.44980515152E+02 -0.75112216265E+02  0.74343376651E+02  0.11495268343E+03  0.47000000000E+01 0. -1.
         -5    1    3    3    0  502 -0.18601024552E+02  0.33376582258E+02 -0.28651978822E+00  0.38498914936E+02  0.47000000000E+01 0. -1.
        -11    1    1    2    0    0 -0.57181285470E+02  0.47021087859E+02  0.16566571906E+02  0.75862595633E+02  0.00000000000E+00 0. -1.
         11    1    1    2    0    0  0.30801794869E+02 -0.52854538518E+01 -0.18670146915E+02  0.36404134043E+02  0.00000000000E+00 0.  1.
<mgrwt>
<rscale>  0 0.12848123E+03</rscale>
<asrwt>0</asrwt>
<pdfrwt beam="1">  1        3 0.25974739E-01 0.13439857E+03</pdfrwt>
<pdfrwt beam="2">  1       -3 0.14905004E-01 0.13439857E+03</pdfrwt>
<totfact> 0.12086398E+03</totfact>
</mgrwt>
</event>
<event>
 7    1  0.6008063E-006  0.1441595E+03  0.7546771E-02  0.1216733E+00
          1   -1    0    0  501    0  0.00000000000E+00  0.00000000000E+00  0.42978675539E+03  0.42978675539E+03  0.00000000000E+00 0. -1.
         -1   -1    0    0    0  501 -0.00000000000E+00 -0.00000000000E+00 -0.43501880434E+02  0.43501880434E+02  0.00000000000E+00 0.  1.
         23    2    1    2    0    0  0.30253736695E+02 -0.65112719808E+02  0.27319752052E+03  0.30889940874E+03  0.12500801829E+03 0.  0.
          5    1    3    3  502    0 -0.32623436437E+01  0.26371196924E+02  0.14669916177E+03  0.14916037335E+03  0.47000000000E+01 0. -1.
         -5    1    3    3    0  502  0.33516080339E+02 -0.91483916732E+02  0.12649835874E+03  0.15973903539E+03  0.47000000000E+01 0. -1.
        -11    1    1    2    0    0 -0.39466438486E+02  0.85450075539E+02  0.10404182284E+03  0.14029973655E+03  0.00000000000E+00 0. -1.
         11    1    1    2    0    0  0.92127017902E+01 -0.20337355731E+02  0.90455316020E+01  0.24089490537E+02  0.00000000000E+00 0.  1.
<mgrwt>
<rscale>  0 0.13749990E+03</rscale>
<asrwt>0</asrwt>
<pdfrwt beam="1">  1        1 0.66121036E-01 0.14415949E+03</pdfrwt>
<pdfrwt beam="2">  1       -1 0.66925973E-02 0.14415949E+03</pdfrwt>
<totfact> 0.60089529E+03</totfact>
</mgrwt>
</event>
<event>
 7    1  0.6008063E-006  0.1442433E+03  0.7546771E-02  0.1217948E+00
          2   -1    0    0  501    0  0.00000000000E+00  0.00000000000E+00  0.14573933531E+04  0.14573933531E+04  0.00000000000E+00 0. -1.
         -2   -1    0    0    0  501 -0.00000000000E+00 -0.00000000000E+00 -0.12179512470E+02  0.12179512470E+02  0.00000000000E+00 0.  1.
         23    2    1    2    0    0  0.20946819095E+02  0.68868213637E+02  0.95299259407E+03  0.96384698105E+03  0.12499807371E+03 0.  0.
          5    1    3    3  502    0  0.44515222301E+02 -0.21188155385E+02  0.40001432417E+03  0.40306834717E+03  0.47000000000E+01 0. -1.
         -5    1    3    3    0  502 -0.23568403205E+02  0.90056369022E+02  0.55297826990E+03  0.56077863388E+03  0.47000000000E+01 0. -1.
        -11    1    1    2    0    0 -0.17637348608E+02  0.14491748233E+02  0.41640476790E+02  0.47487010225E+02  0.00000000000E+00 0.  1.
         11    1    1    2    0    0 -0.33094704872E+01 -0.83359961870E+02  0.45058076980E+03  0.45823887433E+03  0.00000000000E+00 0. -1.
<mgrwt>
<rscale>  0 0.13662194E+03</rscale>
<asrwt>0</asrwt>
<pdfrwt beam="1">  1        2 0.22421422E+00 0.14424326E+03</pdfrwt>
<pdfrwt beam="2">  1       -2 0.18737723E-02 0.14424326E+03</pdfrwt>
<totfact> 0.11927976E+04</totfact>
</mgrwt>
</event>
<event>
 7    1  0.6008063E-006  0.1294794E+03  0.7546771E-02  0.1242575E+00
         -1   -1    0    0    0  501 -0.00000000000E+00  0.00000000000E+00  0.32440979049E+02  0.32440979049E+02  0.00000000000E+00 0.  1.
          1   -1    0    0  501    0  0.00000000000E+00 -0.00000000000E+00 -0.39503174370E+03  0.39503174370E+03  0.00000000000E+00 0. -1.
         23    2    1    2    0    0  0.41470631512E+00  0.33755997158E+02 -0.22003017420E+03  0.25530020086E+03  0.12500110270E+03 0.  0.
          5    1    3    3  502    0  0.61116336878E+02  0.29482429975E+02 -0.12628401275E+03  0.14343696241E+03  0.47000000000E+01 0.  1.
         -5    1    3    3    0  502 -0.60701630563E+02  0.42735671832E+01 -0.93746161451E+02  0.11186323845E+03  0.47000000000E+01 0.  1.
        -11    1    1    2    0    0  0.22560376149E+02 -0.41188871318E+02 -0.27114691643E+02  0.54228223236E+02  0.00000000000E+00 0.  1.
         11    1    1    2    0    0 -0.22975082464E+02  0.74328741600E+01 -0.11544589881E+03  0.11794429865E+03  0.00000000000E+00 0. -1.
<mgrwt>
<rscale>  0 0.12031691E+03</rscale>
<asrwt>0</asrwt>
<pdfrwt beam="2">  1        1 0.60774112E-01 0.12947940E+03</pdfrwt>
<pdfrwt beam="1">  1       -1 0.49909201E-02 0.12947940E+03</pdfrwt>
<totfact> 0.10271651E+04</totfact>
</mgrwt>
</event>
<event>
 7    1  0.6008063E-006  0.1341174E+03  0.7546771E-02  0.1234435E+00
         -2   -1    0    0    0  501 -0.00000000000E+00  0.00000000000E+00  0.12839492542E+02  0.12839492542E+02  0.00000000000E+00 0.  1.
          2   -1    0    0  501    0  0.00000000000E+00 -0.00000000000E+00 -0.11036361388E+04  0.11036361388E+04  0.00000000000E+00 0. -1.
         23    2    1    2    0    0  0.42206357057E+02  0.24082808242E+02 -0.67799741277E+03  0.69113527833E+03  0.12500449194E+03 0.  0.
          5    1    3    3  502    0  0.65007104427E+02 -0.32202025863E+02 -0.33868576100E+03  0.34640009931E+03  0.47000000000E+01 0. -1.
         -5    1    3    3    0  502 -0.22800747370E+02  0.56284834105E+02 -0.33931165176E+03  0.34473517902E+03  0.47000000000E+01 0. -1.
        -11    1    1    2    0    0  0.32863018801E+01 -0.46798121259E+02 -0.13482844466E+03  0.14275704334E+03  0.00000000000E+00 0.  1.
         11    1    1    2    0    0 -0.45492658937E+02  0.22715313016E+02 -0.27797078883E+03  0.28258330967E+03  0.00000000000E+00 0. -1.
<mgrwt>
<rscale>  0 0.12540662E+03</rscale>
<asrwt>0</asrwt>
<pdfrwt beam="2">  1        2 0.16979024E+00 0.13411742E+03</pdfrwt>
<pdfrwt beam="1">  1       -2 0.19753058E-02 0.13411742E+03</pdfrwt>
<totfact> 0.17141181E+04</totfact>
</mgrwt>
</event>
<event>
 7    1  0.6008063E-006  0.1339639E+03  0.7546771E-02  0.1229048E+00
          2   -1    0    0  501    0  0.00000000000E+00  0.00000000000E+00  0.12670912077E+03  0.12670912077E+03  0.00000000000E+00 0.  1.
         -2   -1    0    0    0  501 -0.00000000000E+00 -0.00000000000E+00 -0.12713876749E+03  0.12713876749E+03  0.00000000000E+00 0. -1.
         23    2    1    2    0    0  0.25815703925E+02  0.40709113935E+02  0.24614636421E+02  0.13620648849E+03  0.12499057826E+03 0.  0.
          5    1    3    3  502    0  0.15107179737E+02  0.87009203912E+01 -0.50549821494E+02  0.53677810577E+02  0.47000000000E+01 0.  1.
         -5    1    3    3    0  502  0.10708524188E+02  0.32008193544E+02  0.75164457915E+02  0.82528677912E+02  0.47000000000E+01 0.  1.
        -11    1    1    2    0    0 -0.21872181081E+02 -0.30846943260E+01  0.38095362781E+02  0.44035943385E+02  0.00000000000E+00 0.  1.
         11    1    1    2    0    0 -0.39435228435E+01 -0.37624419609E+02 -0.63139645925E+02  0.73605456394E+02  0.00000000000E+00 0. -1.
<mgrwt>
<rscale>  0 0.12893270E+03</rscale>
<asrwt>0</asrwt>
<pdfrwt beam="1">  1        2 0.19493711E-01 0.13396390E+03</pdfrwt>
<pdfrwt beam="2">  1       -2 0.19559810E-01 0.13396390E+03</pdfrwt>
<totfact> 0.59336275E+03</totfact>
</mgrwt>
</event>
<event>
 7    1  0.6008063E-006  0.1524448E+03  0.7546771E-02  0.1205819E+00
         -4   -1    0    0    0  501 -0.00000000000E+00  0.00000000000E+00  0.32989023940E+02  0.32989023940E+02  0.00000000000E+00 0.  1.
          4   -1    0    0  501    0  0.00000000000E+00 -0.00000000000E+00 -0.80496832188E+03  0.80496832188E+03  0.00000000000E+00 0. -1.
         23    2    1    2    0    0 -0.58238328439E+02  0.65001022146E+02 -0.62584652501E+03  0.64414540456E+03  0.12499037393E+03 0.  0.
          5    1    3    3  502    0 -0.71979643544E+02 -0.12191825277E+02 -0.27019797234E+03  0.27992631877E+03  0.47000000000E+01 0. -1.
         -5    1    3    3    0  502  0.13741315106E+02  0.77192847423E+02 -0.35564855267E+03  0.36421908579E+03  0.47000000000E+01 0. -1.
        -11    1    1    2    0    0  0.55327102034E+02 -0.48891824699E+01 -0.30280497875E+02  0.63260579165E+02  0.00000000000E+00 0.  1.
         11    1    1    2    0    0  0.29112264046E+01 -0.60111839676E+02 -0.11585227505E+03  0.13055136209E+03  0.00000000000E+00 0. -1.
<mgrwt>
<rscale>  0 0.14573091E+03</rscale>
<asrwt>0</asrwt>
<pdfrwt beam="2">  1        4 0.12384128E+00 0.15244484E+03</pdfrwt>
<pdfrwt beam="1">  1       -4 0.50752343E-02 0.15244484E+03</pdfrwt>
<totfact> 0.20433089E+02</totfact>
</mgrwt>
</event>
<event>
 7    1  0.6008063E-006  0.1899262E+03  0.7546771E-02  0.1163784E+00
         -1   -1    0    0    0  501 -0.00000000000E+00  0.00000000000E+00  0.20090629335E+03  0.20090629335E+03  0.00000000000E+00 0.  1.
          1   -1    0    0  501    0  0.00000000000E+00 -0.00000000000E+00 -0.21429614391E+03  0.21429614391E+03  0.00000000000E+00 0. -1.
         23    2    1    2    0    0  0.14059070234E+03  0.26123785598E+02 -0.11182835546E+03  0.22040311600E+03  0.12499501870E+03 0.  0.
          5    1    3    3  502    0  0.57888822066E+02  0.24062213129E+02  0.18882599582E+02  0.65641057181E+02  0.47000000000E+01 0. -1.
         -5    1    3    3    0  502  0.82701880273E+02  0.20615724687E+01 -0.13071095504E+03  0.15476205882E+03  0.47000000000E+01 0. -1.
        -11    1    1    2    0    0 -0.43981133037E+02  0.32809233334E+02  0.29703089568E+02  0.62394385845E+02  0.00000000000E+00 0.  1.
         11    1    1    2    0    0 -0.96609569302E+02 -0.58933018932E+02  0.68735415328E+02  0.13240493541E+03  0.00000000000E+00 0. -1.
<mgrwt>
<rscale>  0 0.18421656E+03</rscale>
<asrwt>0</asrwt>
<pdfrwt beam="2">  1        1 0.32968638E-01 0.18992618E+03</pdfrwt>
<pdfrwt beam="1">  1       -1 0.30908660E-01 0.18992618E+03</pdfrwt>
<totfact> 0.12951914E+03</totfact>
</mgrwt>
</event>
<event>
 7    1  0.6008063E-006  0.1273437E+03  0.7546771E-02  0.1244170E+00
         -2   -1    0    0    0  501 -0.00000000000E+00  0.00000000000E+00  0.12339851594E+02  0.12339851594E+02  0.00000000000E+00 0.  1.
          2   -1    0    0  501    0  0.00000000000E+00 -0.00000000000E+00 -0.24574135467E+04  0.24574135467E+04  0.00000000000E+00 0. -1.
         23    2    1    2    0    0 -0.18237854167E+02 -0.16048798480E+02 -0.22261487711E+04  0.22297880539E+04  0.12500492370E+03 0.  0.
          5    1    3    3  502    0 -0.43028522482E+02 -0.29758217419E+02 -0.20892370798E+04  0.20898972871E+04  0.47000000000E+01 0.  1.
         -5    1    3    3    0  502  0.24790668315E+02  0.13709418940E+02 -0.13691169131E+03  0.13989076674E+03  0.47000000000E+01 0.  1.
        -11    1    1    2    0    0 -0.29986179287E+02 -0.12774990196E+02 -0.35794793749E+02  0.48411141096E+02  0.00000000000E+00 0. -1.
         11    1    1    2    0    0  0.48224033454E+02  0.28823788676E+02 -0.18313013024E+03  0.19155420329E+03  0.00000000000E+00 0.  1.
<mgrwt>
<rscale>  0 0.11935166E+03</rscale>
<asrwt>0</asrwt>
<pdfrwt beam="2">  1        2 0.37806383E+00 0.12734369E+03</pdfrwt>
<pdfrwt beam="1">  1       -2 0.18984377E-02 0.12734369E+03</pdfrwt>
<totfact> 0.35537274E+03</totfact>
</mgrwt>
</event>
<event>
 7    1  0.6008063E-006  0.1515507E+03  0.7546771E-02  0.1207727E+00
         -1   -1    0    0    0  501 -0.00000000000E+00  0.00000000000E+00  0.91044491304E+02  0.91044491304E+02  0.00000000000E+00 0.  1.
          1   -1    0    0  501    0  0.00000000000E+00 -0.00000000000E+00 -0.21184258548E+03  0.21184258548E+03  0.00000000000E+00 0. -1.
         23    2    1    2    0    0  0.84365710977E+02 -0.14789566098E+02 -0.83524884786E+02  0.17304338613E+03  0.12502520806E+03 0.  0.
          5    1    3    3  502    0  0.51303855630E+02  0.50735981219E+02 -0.64937802789E+02  0.97186591790E+02  0.47000000000E+01 0. -1.
         -5    1    3    3    0  502  0.33061855347E+02 -0.65525547318E+02 -0.18587081997E+02  0.75856794339E+02  0.47000000000E+01 0. -1.
        -11    1    1    2    0    0 -0.74251510659E+02  0.25282249116E+02  0.11194284445E+02  0.79232512012E+02  0.00000000000E+00 0.  1.
         11    1    1    2    0    0 -0.10114200318E+02 -0.10492683017E+02 -0.48467493839E+02  0.50611178647E+02  0.00000000000E+00 0. -1.
<mgrwt>
<rscale>  0 0.14424641E+03</rscale>
<asrwt>0</asrwt>
<pdfrwt beam="2">  1        1 0.32591167E-01 0.15155068E+03</pdfrwt>
<pdfrwt beam="1">  1       -1 0.14006845E-01 0.15155068E+03</pdfrwt>
<totfact> 0.47118578E+03</totfact>
</mgrwt>
</event>
<event>
 7    1  0.6008063E-006  0.1500260E+03  0.7546771E-02  0.1211880E+00
         -2   -1    0    0    0  501 -0.00000000000E+00  0.00000000000E+00  0.39907330808E+02  0.39907330808E+02  0.00000000000E+00 0.  1.
          2   -1    0    0  501    0  0.00000000000E+00 -0.00000000000E+00 -0.48940278907E+03  0.48940278907E+03  0.00000000000E+00 0. -1.
         23    2    1    2    0    0 -0.78737803854E+02 -0.26154766258E+02 -0.32656440687E+03  0.35937738673E+03  0.12499632276E+03 0.  0.
          5    1    3    3  502    0 -0.90667473693E+02 -0.60305128158E+02 -0.27827638410E+03  0.29885972498E+03  0.47000000000E+01 0. -1.
         -5    1    3    3    0  502  0.11929669839E+02  0.34150361900E+02 -0.48288022769E+02  0.60517661747E+02  0.47000000000E+01 0. -1.
        -11    1    1    2    0    0  0.19330733231E+02  0.36595920676E+02 -0.94672163597E+02  0.10332355597E+03  0.00000000000E+00 0. -1.
         11    1    1    2    0    0  0.59407070624E+02 -0.10441154418E+02 -0.28258887796E+02  0.66609177184E+02  0.00000000000E+00 0.  1.
<mgrwt>
<rscale>  0 0.14108220E+03</rscale>
<asrwt>0</asrwt>
<pdfrwt beam="2">  1        2 0.75292738E-01 0.15002598E+03</pdfrwt>
<pdfrwt beam="1">  1       -2 0.61395893E-02 0.15002598E+03</pdfrwt>
<totfact> 0.87494882E+03</totfact>
</mgrwt>
</event>
<event>
 7    1  0.6008063E-006  0.1525323E+03  0.7546771E-02  0.1206129E+00
          2   -1    0    0  501    0  0.00000000000E+00  0.00000000000E+00  0.13090787616E+04  0.13090787616E+04  0.00000000000E+00 0. -1.
         -2   -1    0    0    0  501 -0.00000000000E+00 -0.00000000000E+00 -0.16339256489E+02  0.16339256489E+02  0.00000000000E+00 0.  1.
         23    2    1    2    0    0  0.85959208963E+02  0.16189124016E+02  0.90150768461E+03  0.91432062283E+03  0.12496008395E+03 0.  0.
          5    1    3    3  502    0  0.76899298408E+02 -0.38783766226E+02  0.37198262949E+03  0.38185186822E+03  0.47000000000E+01 0. -1.
         -5    1    3    3    0  502  0.90599105557E+01  0.54972890242E+02  0.52952505512E+03  0.53246875461E+03  0.47000000000E+01 0. -1.
        -11    1    1    2    0    0 -0.71258593660E+02  0.24949992001E+02  0.30774602346E+03  0.31687206287E+03  0.00000000000E+00 0. -1.
         11    1    1    2    0    0 -0.14700615303E+02 -0.41139116017E+02  0.83485797075E+02  0.94225332423E+02  0.00000000000E+00 0.  1.
<mgrwt>
<rscale>  0 0.14548829E+03</rscale>
<asrwt>0</asrwt>
<pdfrwt beam="1">  1        2 0.20139665E+00 0.15253228E+03</pdfrwt>
<pdfrwt beam="2">  1       -2 0.25137328E-02 0.15253228E+03</pdfrwt>
<totfact> 0.93439113E+03</totfact>
</mgrwt>
</event>
<event>
 6    1  0.6008063E-006  0.1570271E+03  0.7546771E-02  0.1214351E+00
          2   -1    0    0  501    0  0.00000000000E+00  0.00000000000E+00  0.76948355190E+03  0.76948355190E+03  0.00000000000E+00 0. -1.
         -2   -1    0    0    0  501 -0.00000000000E+00 -0.00000000000E+00 -0.23232032231E+02  0.23232032231E+02  0.00000000000E+00 0.  1.
          5    1    1    2  502    0 -0.41130720141E+02  0.27712709450E+01  0.55170043503E+03  0.55325841711E+03  0.47000000000E+01 0. -1.
         -5    1    1    2    0  502  0.23017383369E+02 -0.25690693879E+02  0.21171470343E+02  0.40744727826E+02  0.47000000000E+01 0.  1.
        -11    1    1    2    0    0  0.48380095081E+02  0.28827354558E+02  0.64868432183E+02  0.85904385597E+02  0.00000000000E+00 0.  1.
         11    1    1    2    0    0 -0.30266758309E+02 -0.59079316245E+01  0.10851118211E+03  0.11280805360E+03  0.00000000000E+00 0. -1.
<mgrwt>
<rscale>  0 0.13924280E+03</rscale>
<asrwt>0</asrwt>
<pdfrwt beam="1">  1        2 0.11838207E+00 0.15702712E+03</pdfrwt>
<pdfrwt beam="2">  1       -2 0.35741594E-02 0.15702712E+03</pdfrwt>
<totfact> 0.11725430E+04</totfact>
</mgrwt>
</event>
<event>
 7    1  0.6008063E-006  0.1947487E+03  0.7546771E-02  0.1162232E+00
          2   -1    0    0  501    0  0.00000000000E+00  0.00000000000E+00  0.25991133343E+03  0.25991133343E+03  0.00000000000E+00 0. -1.
         -2   -1    0    0    0  501 -0.00000000000E+00 -0.00000000000E+00 -0.12813839941E+03  0.12813839941E+03  0.00000000000E+00 0.  1.
         23    2    1    2    0    0  0.14173173523E+03 -0.47007881168E+02  0.11347365167E+03  0.22539590592E+03  0.12501767523E+03 0.  0.
          5    1    3    3  502    0  0.76708705320E+01  0.20784913188E+02 -0.15417538201E+02  0.27397907861E+02  0.47000000000E+01 0.  1.
         -5    1    3    3    0  502  0.13406086470E+03 -0.67792794357E+02  0.12889118987E+03  0.19799799806E+03  0.47000000000E+01 0.  1.
        -11    1    1    2    0    0 -0.89533330991E+02  0.55658731782E+02 -0.33717565123E+01  0.10547739343E+03  0.00000000000E+00 0.  1.
         11    1    1    2    0    0 -0.52198404239E+02 -0.86508506130E+01  0.21671038863E+02  0.57176433491E+02  0.00000000000E+00 0. -1.
<mgrwt>
<rscale>  0 0.18587905E+03</rscale>
<asrwt>0</asrwt>
<pdfrwt beam="1">  1        2 0.39986359E-01 0.19474867E+03</pdfrwt>
<pdfrwt beam="2">  1       -2 0.19713600E-01 0.19474867E+03</pdfrwt>
<totfact> 0.27116605E+03</totfact>
</mgrwt>
</event>
<event>
 7    1  0.6008063E-006  0.1419323E+03  0.7546771E-02  0.1220995E+00
          1   -1    0    0  501    0  0.00000000000E+00  0.00000000000E+00  0.88609669961E+03  0.88609669961E+03  0.00000000000E+00 0. -1.
         -1   -1    0    0    0  501 -0.00000000000E+00 -0.00000000000E+00 -0.28855098172E+02  0.28855098172E+02  0.00000000000E+00 0.  1.
         23    2    1    2    0    0 -0.11418932408E+02  0.66246666842E+02  0.73102248792E+03  0.74467352642E+03  0.12500308087E+03 0.  0.
          5    1    3    3  502    0  0.13191499446E+02  0.29945982138E+02  0.38490829390E+02  0.50738658348E+02  0.47000000000E+01 0.  1.
         -5    1    3    3    0  502 -0.24610431854E+02  0.36300684704E+02  0.69253165853E+03  0.69393486807E+03  0.47000000000E+01 0.  1.
        -11    1    1    2    0    0 -0.11723340321E+02 -0.75345154641E+02  0.12366116722E+03  0.14528046432E+03  0.00000000000E+00 0. -1.
         11    1    1    2    0    0  0.23142272729E+02  0.90984877990E+01  0.25579462993E+01  0.24997807035E+02  0.00000000000E+00 0.  1.
<mgrwt>
<rscale>  0 0.13445226E+03</rscale>
<asrwt>0</asrwt>
<pdfrwt beam="1">  1        1 0.13632255E+00 0.14193232E+03</pdfrwt>
<pdfrwt beam="2">  1       -1 0.44392465E-02 0.14193232E+03</pdfrwt>
<totfact> 0.40354386E+03</totfact>
</mgrwt>
</event>
<event>
 7    1  0.6008063E-006  0.1359254E+03  0.7546771E-02  0.1231647E+00
          1   -1    0    0  501    0  0.00000000000E+00  0.00000000000E+00  0.30167735023E+02  0.30167735023E+02  0.00000000000E+00 0. -1.
         -1   -1    0    0    0  501 -0.00000000000E+00 -0.00000000000E+00 -0.47840930630E+03  0.47840930630E+03  0.00000000000E+00 0.  1.
         23    2    1    2    0    0  0.13386611462E+02  0.51699382885E+02 -0.25890307869E+03  0.29241498621E+03  0.12499476970E+03 0.  0.
          5    1    3    3  502    0 -0.22480977231E+02 -0.29910152253E+02 -0.13185258797E+03  0.13713936889E+03  0.47000000000E+01 0.  1.
         -5    1    3    3    0  502  0.35867588693E+02  0.81609535139E+02 -0.12705049072E+03  0.15527561733E+03  0.47000000000E+01 0.  1.
        -11    1    1    2    0    0  0.35561971816E+02 -0.33550710956E+02 -0.11829616918E+03  0.12800112378E+03  0.00000000000E+00 0.  1.
         11    1    1    2    0    0 -0.48948583279E+02 -0.18148671930E+02 -0.71042323403E+02  0.88160931326E+02  0.00000000000E+00 0. -1.
<mgrwt>
<rscale>  0 0.12721520E+03</rscale>
<asrwt>0</asrwt>
<pdfrwt beam="1">  1        1 0.46411902E-02 0.13592542E+03</pdfrwt>
<pdfrwt beam="2">  1       -1 0.73601429E-01 0.13592542E+03</pdfrwt>
<totfact> 0.34390689E+03</totfact>
</mgrwt>
</event>
<event>
 7    1  0.6008063E-006  0.1397367E+03  0.7546771E-02  0.1225246E+00
          2   -1    0    0  501    0  0.00000000000E+00  0.00000000000E+00  0.12420351373E+03  0.12420351373E+03  0.00000000000E+00 0. -1.
         -2   -1    0    0    0  501 -0.00000000000E+00 -0.00000000000E+00 -0.13373242259E+03  0.13373242259E+03  0.00000000000E+00 0.  1.
         23    2    1    2    0    0 -0.59139597596E+02  0.20126971146E+02  0.27186513881E+02  0.14235679145E+03  0.12499505016E+03 0.  0.
          5    1    3    3  502    0 -0.32382896928E+02  0.34451563479E+02  0.73060121000E+02  0.87151784377E+02  0.47000000000E+01 0. -1.
         -5    1    3    3    0  502 -0.26756700668E+02 -0.14324592333E+02 -0.45873607119E+02  0.55205007076E+02  0.47000000000E+01 0. -1.
        -11    1    1    2    0    0  0.32666525523E+02  0.93787562203E+01 -0.60469495709E+02  0.69365862420E+02  0.00000000000E+00 0.  1.
         11    1    1    2    0    0  0.26473072072E+02 -0.29505727366E+02  0.23754072964E+02  0.46213282449E+02  0.00000000000E+00 0. -1.
<mgrwt>
<rscale>  0 0.13150071E+03</rscale>
<asrwt>0</asrwt>
<pdfrwt beam="1">  1        2 0.19108233E-01 0.13973672E+03</pdfrwt>
<pdfrwt beam="2">  1       -2 0.20574219E-01 0.13973672E+03</pdfrwt>
<totfact> 0.55872900E+03</totfact>
</mgrwt>
</event>
<event>
 7    1  0.6008063E-006  0.1413667E+03  0.7546771E-02  0.1222218E+00
          1   -1    0    0  501    0  0.00000000000E+00  0.00000000000E+00  0.61848093394E+03  0.61848093394E+03  0.00000000000E+00 0. -1.
         -1   -1    0    0    0  501 -0.00000000000E+00 -0.00000000000E+00 -0.27159186396E+02  0.27159186396E+02  0.00000000000E+00 0.  1.
         23    2    1    2    0    0 -0.68576308756E+01 -0.65641588528E+02  0.39096044841E+03  0.41573382693E+03  0.12501478867E+03 0.  0.
          5    1    3    3  502    0  0.36678867271E+02  0.13316552972E+02  0.20831923556E+03  0.21199449001E+03  0.47000000000E+01 0. -1.
         -5    1    3    3    0  502 -0.43536498147E+02 -0.78958141500E+02  0.18264121285E+03  0.20373933693E+03  0.47000000000E+01 0. -1.
        -11    1    1    2    0    0  0.27469005143E+02  0.75372669025E+02  0.18701099797E+03  0.20349127461E+03  0.00000000000E+00 0.  1.
         11    1    1    2    0    0 -0.20611374267E+02 -0.97310804965E+01  0.13350301158E+02  0.26415018792E+02  0.00000000000E+00 0. -1.
<mgrwt>
<rscale>  0 0.13359437E+03</rscale>
<asrwt>0</asrwt>
<pdfrwt beam="1">  1        1 0.95150902E-01 0.14136670E+03</pdfrwt>
<pdfrwt beam="2">  1       -1 0.41783369E-02 0.14136670E+03</pdfrwt>
<totfact> 0.74767178E+03</totfact>
</mgrwt>
</event>
<event>
 7    1  0.6008063E-006  0.1441960E+03  0.7546771E-02  0.1218245E+00
         -2   -1    0    0    0  501 -0.00000000000E+00  0.00000000000E+00  0.77295822688E+02  0.77295822688E+02  0.00000000000E+00 0.  1.
          2   -1    0    0  501    0  0.00000000000E+00 -0.00000000000E+00 -0.29093617341E+03  0.29093617341E+03  0.00000000000E+00 0. -1.
         23    2    1    2    0    0 -0.28153765670E+02  0.66145496042E+02 -0.20737697477E+03  0.25258203305E+03  0.12499845033E+03 0.  0.
          5    1    3    3  502    0 -0.88037971547E+01 -0.37388833412E+02 -0.52328660296E+02  0.65083103772E+02  0.47000000000E+01 0. -1.
         -5    1    3    3    0  502 -0.19349968515E+02  0.10353432945E+03 -0.15504831448E+03  0.18749892927E+03  0.47000000000E+01 0. -1.
        -11    1    1    2    0    0  0.61189242346E+01  0.16493655865E+02 -0.22535890716E+02  0.28589303733E+02  0.00000000000E+00 0. -1.
         11    1    1    2    0    0  0.22034841435E+02 -0.82639151907E+02  0.16272514763E+02  0.87060659322E+02  0.00000000000E+00 0.  1.
<mgrwt>
<rscale>  0 0.13640859E+03</rscale>
<asrwt>0</asrwt>
<pdfrwt beam="2">  1        2 0.44759411E-01 0.14419596E+03</pdfrwt>
<pdfrwt beam="1">  1       -2 0.11891665E-01 0.14419596E+03</pdfrwt>
<totfact> 0.54477705E+03</totfact>
</mgrwt>
</event>
<event>
 7    1  0.6008063E-006  0.1647889E+03  0.7546771E-02  0.1190262E+00
         -2   -1    0    0    0  501 -0.00000000000E+00  0.00000000000E+00  0.11853437808E+03  0.11853437808E+03  0.00000000000E+00 0.  1.
          2   -1    0    0  501    0  0.00000000000E+00 -0.00000000000E+00 -0.20578862346E+03  0.20578862346E+03  0.00000000000E+00 0. -1.
         23    2    1    2    0    0  0.87601418012E+02  0.62100898058E+02 -0.78635394796E+02  0.18258946083E+03  0.12499942366E+03 0.  0.
          5    1    3    3  502    0  0.42364903224E+02  0.92044368731E+01 -0.10044263062E+03  0.10950031383E+03  0.47000000000E+01 0. -1.
         -5    1    3    3    0  502  0.45236514787E+02  0.52896461185E+02  0.21807235820E+02  0.73089147006E+02  0.47000000000E+01 0. -1.
        -11    1    1    2    0    0 -0.27387423864E+01 -0.55876818605E+02  0.20204045273E+01  0.55980368003E+02  0.00000000000E+00 0. -1.
         11    1    1    2    0    0 -0.84862675625E+02 -0.62240794530E+01 -0.10639255113E+02  0.85753172703E+02  0.00000000000E+00 0.  1.
<mgrwt>
<rscale>  0 0.15862186E+03</rscale>
<asrwt>0</asrwt>
<pdfrwt beam="2">  1        2 0.31659788E-01 0.16478891E+03</pdfrwt>
<pdfrwt beam="1">  1       -2 0.18236058E-01 0.16478891E+03</pdfrwt>
<totfact> 0.39507417E+03</totfact>
</mgrwt>
</event>
<event>
 7    1  0.6008063E-006  0.1945628E+03  0.7546771E-02  0.1158959E+00
         -1   -1    0    0    0  501 -0.00000000000E+00  0.00000000000E+00  0.47465706063E+02  0.47465706063E+02  0.00000000000E+00 0. -1.
          1   -1    0    0  501    0  0.00000000000E+00 -0.00000000000E+00 -0.99981877726E+03  0.99981877726E+03  0.00000000000E+00 0.  1.
         23    2    1    2    0    0 -0.72003486968E+02  0.13056254506E+03 -0.77165654035E+03  0.79580681492E+03  0.12499436023E+03 0.  0.
          5    1    3    3  502    0 -0.27918071287E+02  0.11829092458E+02 -0.43504409958E+03  0.43612475820E+03  0.47000000000E+01 0.  1.
         -5    1    3    3    0  502 -0.44085415680E+02  0.11873345260E+03 -0.33661244078E+03  0.35968205672E+03  0.47000000000E+01 0.  1.
        -11    1    1    2    0    0  0.84357815217E+02 -0.13237772103E+03 -0.18019911455E+03  0.23898080027E+03  0.00000000000E+00 0.  1.
         11    1    1    2    0    0 -0.12354328249E+02  0.18151759703E+01 -0.49741629312E+00  0.12496868138E+02  0.00000000000E+00 0. -1.
<mgrwt>
<rscale>  0 0.18944880E+03</rscale>
<asrwt>0</asrwt>
<pdfrwt beam="2">  1        1 0.15381828E+00 0.19456277E+03</pdfrwt>
<pdfrwt beam="1">  1       -1 0.73024159E-02 0.19456277E+03</pdfrwt>
<totfact> 0.15828048E+03</totfact>
</mgrwt>
</event>
<event>
 7    1  0.6008063E-006  0.1218196E+03  0.7546771E-02  0.1250088E+00
         -1   -1    0    0    0  501 -0.00000000000E+00  0.00000000000E+00  0.46895351173E+02  0.46895351173E+02  0.00000000000E+00 0.  1.
          1   -1    0    0  501    0  0.00000000000E+00 -0.00000000000E+00 -0.50488308766E+03  0.50488308766E+03  0.00000000000E+00 0. -1.
         23    2    1    2    0    0  0.32385019629E+01  0.43909893867E+02 -0.43189566910E+03  0.44874701947E+03  0.11358455802E+03 0.  0.
          5    1    3    3  502    0  0.25329204343E+02 -0.31232688069E+02 -0.19621626134E+03  0.20034959598E+03  0.47000000000E+01 0. -1.
         -5    1    3    3    0  502 -0.22090702380E+02  0.75142581937E+02 -0.23567940776E+03  0.24839742349E+03  0.47000000000E+01 0.  1.
        -11    1    1    2    0    0 -0.40317006711E+02 -0.16279118073E+01  0.15263913791E+01  0.40378719613E+02  0.00000000000E+00 0.  1.
         11    1    1    2    0    0  0.37078504748E+02 -0.42281982060E+02 -0.27618458764E+02  0.62652699749E+02  0.00000000000E+00 0. -1.
<mgrwt>
<rscale>  0 0.11585963E+03</rscale>
<asrwt>0</asrwt>
<pdfrwt beam="2">  1        1 0.77674318E-01 0.12181961E+03</pdfrwt>
<pdfrwt beam="1">  1       -1 0.72146697E-02 0.12181961E+03</pdfrwt>
<totfact> 0.43250115E+03</totfact>
</mgrwt>
</event>
<event>
 7    1  0.6008063E-006  0.1636274E+03  0.7546771E-02  0.1191528E+00
         -4   -1    0    0    0  501 -0.00000000000E+00  0.00000000000E+00  0.10070279806E+03  0.10070279806E+03  0.00000000000E+00 0.  1.
          4   -1    0    0  501    0  0.00000000000E+00 -0.00000000000E+00 -0.25126844296E+03  0.25126844296E+03  0.00000000000E+00 0. -1.
         23    2    1    2    0    0 -0.98124839868E+02  0.38972802524E+02 -0.13198716685E+03  0.21022499355E+03  0.12500628850E+03 0.  0.
          5    1    3    3  502    0 -0.10928862911E+03  0.23199848774E+02 -0.14743392503E+03  0.18504348053E+03  0.47000000000E+01 0. -1.
         -5    1    3    3    0  502  0.11163789246E+02  0.15772953750E+02  0.15446758173E+02  0.25181513028E+02  0.47000000000E+01 0. -1.
        -11    1    1    2    0    0 -0.14910576501E+02 -0.21414180615E+02 -0.47443207327E+01  0.26521708132E+02  0.00000000000E+00 0.  1.
         11    1    1    2    0    0  0.11303541637E+03 -0.17558621908E+02 -0.13834157317E+02  0.11522453934E+03  0.00000000000E+00 0. -1.
<mgrwt>
<rscale>  0 0.15751767E+03</rscale>
<asrwt>0</asrwt>
<pdfrwt beam="2">  1        4 0.38656683E-01 0.16362743E+03</pdfrwt>
<pdfrwt beam="1">  1       -4 0.15492738E-01 0.16362743E+03</pdfrwt>
<totfact> 0.39846110E+02</totfact>
</mgrwt>
</event>
<event>
 7    1  0.6008063E-006  0.1428941E+03  0.7546771E-02  0.1220417E+00
          1   -1    0    0  501    0  0.00000000000E+00  0.00000000000E+00  0.35857995221E+03  0.35857995221E+03  0.00000000000E+00 0. -1.
         -1   -1    0    0    0  501 -0.00000000000E+00 -0.00000000000E+00 -0.48118642284E+02  0.48118642284E+02  0.00000000000E+00 0.  1.
         23    2    1    2    0    0  0.37587767835E+02  0.58152790747E+02  0.21674413457E+03  0.25960881973E+03  0.12499652813E+03 0.  0.
          5    1    3    3  502    0  0.40886300767E+02 -0.31813181086E+02  0.66995632593E+02  0.84819059578E+02  0.47000000000E+01 0.  1.
         -5    1    3    3    0  502 -0.32985329322E+01  0.89965971832E+02  0.14974850198E+03  0.17478976015E+03  0.47000000000E+01 0.  1.
        -11    1    1    2    0    0 -0.60732719826E+02 -0.17157072508E+02  0.36172808481E+02  0.72741325723E+02  0.00000000000E+00 0. -1.
         11    1    1    2    0    0  0.23144951992E+02 -0.40995718238E+02  0.57544366871E+02  0.74348449043E+02  0.00000000000E+00 0.  1.
<mgrwt>
<rscale>  0 0.13486030E+03</rscale>
<asrwt>0</asrwt>
<pdfrwt beam="1">  1        1 0.55166145E-01 0.14289408E+03</pdfrwt>
<pdfrwt beam="2">  1       -1 0.74028683E-02 0.14289408E+03</pdfrwt>
<totfact> 0.64866512E+03</totfact>
</mgrwt>
</event>
<event>
 7    1  0.6008063E-006  0.1603497E+03  0.7546771E-02  0.1196187E+00
          2   -1    0    0  501    0  0.00000000000E+00  0.00000000000E+00  0.12258592610E+04  0.12258592610E+04  0.00000000000E+00 0. -1.
         -2   -1    0    0    0  501 -0.00000000000E+00 -0.00000000000E+00 -0.18560213666E+02  0.18560213666E+02  0.00000000000E+00 0.  1.
         23    2    1    2    0    0  0.98774239725E+02  0.18181477502E+02  0.78189545230E+03  0.79816822215E+03  0.12500038387E+03 0.  0.
          5    1    3    3  502    0  0.10576161332E+03  0.46684515887E+02  0.43914083491E+03  0.45412743340E+03  0.47000000000E+01 0. -1.
         -5    1    3    3    0  502 -0.69873735909E+01 -0.28503038386E+02  0.34275461738E+03  0.34404078875E+03  0.47000000000E+01 0. -1.
        -11    1    1    2    0    0 -0.68505562260E+02  0.29129873820E+02  0.18591313172E+03  0.20026296251E+03  0.00000000000E+00 0.  1.
         11    1    1    2    0    0 -0.30268677465E+02 -0.47311351322E+02  0.23949046335E+03  0.24598829004E+03  0.00000000000E+00 0. -1.
<mgrwt>
<rscale>  0 0.15354167E+03</rscale>
<asrwt>0</asrwt>
<pdfrwt beam="1">  1        2 0.18859367E+00 0.16034966E+03</pdfrwt>
<pdfrwt beam="2">  1       -2 0.28554185E-02 0.16034966E+03</pdfrwt>
<totfact> 0.86226236E+03</totfact>
</mgrwt>
</event>
<event>
 7    1  0.6008063E-006  0.1332583E+03  0.7546771E-02  0.1235796E+00
         -1   -1    0    0    0  501 -0.00000000000E+00  0.00000000000E+00  0.10748363780E+02  0.10748363780E+02  0.00000000000E+00 0.  1.
          1   -1    0    0  501    0  0.00000000000E+00 -0.00000000000E+00 -0.13079352895E+04  0.13079352895E+04  0.00000000000E+00 0. -1.
         23    2    1    2    0    0 -0.44522647921E+01 -0.45971986879E+02 -0.82358666303E+03  0.83429777417E+03  0.12499815283E+03 0.  0.
          5    1    3    3  502    0  0.15750077139E+02 -0.74876213682E+02 -0.30478533437E+03  0.31427806534E+03  0.47000000000E+01 0. -1.
         -5    1    3    3    0  502 -0.20202341931E+02  0.28904226803E+02 -0.51880132866E+03  0.52001970883E+03  0.47000000000E+01 0. -1.
        -11    1    1    2    0    0 -0.42917955547E+02  0.17722598535E+02 -0.22489255973E+03  0.22963602685E+03  0.00000000000E+00 0.  1.
         11    1    1    2    0    0  0.47370220340E+02  0.28249388344E+02 -0.24870770293E+03  0.25474985223E+03  0.00000000000E+00 0. -1.
<mgrwt>
<rscale>  0 0.12453640E+03</rscale>
<asrwt>0</asrwt>
<pdfrwt beam="2">  1        1 0.20122076E+00 0.13325834E+03</pdfrwt>
<pdfrwt beam="1">  1       -1 0.16535949E-02 0.13325834E+03</pdfrwt>
<totfact> 0.84809272E+03</totfact>
</mgrwt>
</event>
<event>
 7    1  0.6008063E-006  0.1280284E+03  0.7546771E-02  0.1243053E+00
         -2   -1    0    0    0  501 -0.00000000000E+00  0.00000000000E+00  0.69769213240E+02  0.69769213240E+02  0.00000000000E+00 0.  1.
          2   -1    0    0  501    0  0.00000000000E+00 -0.00000000000E+00 -0.19970761148E+03  0.19970761148E+03  0.00000000000E+00 0. -1.
         23    2    1    2    0    0  0.15447709904E+02 -0.22965053470E+02 -0.10954266536E+03  0.16849586186E+03  0.12500093803E+03 0.  0.
          5    1    3    3  502    0  0.48703962931E+02  0.82693678909E+01  0.12414017787E+00  0.49624226556E+02  0.47000000000E+01 0. -1.
         -5    1    3    3    0  502 -0.33256253027E+02 -0.31234421361E+02 -0.10966680554E+03  0.11887163530E+03  0.47000000000E+01 0. -1.
        -11    1    1    2    0    0  0.18693462236E+01 -0.15214873808E+02 -0.48263960178E+02  0.50639872555E+02  0.00000000000E+00 0. -1.
         11    1    1    2    0    0 -0.17317056127E+02  0.38179927278E+02  0.27868227301E+02  0.50341090302E+02  0.00000000000E+00 0.  1.
<mgrwt>
<rscale>  0 0.12002687E+03</rscale>
<asrwt>0</asrwt>
<pdfrwt beam="2">  1        2 0.30724247E-01 0.12802836E+03</pdfrwt>
<pdfrwt beam="1">  1       -2 0.10733725E-01 0.12802836E+03</pdfrwt>
<totfact> 0.95040557E+03</totfact>
</mgrwt>
</event>
<event>
 7    1  0.6008063E-006  0.1312918E+03  0.7546771E-02  0.1238713E+00
          2   -1    0    0  501    0  0.00000000000E+00  0.00000000000E+00  0.47415770475E+03  0.47415770475E+03  0.00000000000E+00 0. -1.
         -2   -1    0    0    0  501 -0.00000000000E+00 -0.00000000000E+00 -0.31336109057E+02  0.31336109057E+02  0.00000000000E+00 0.  1.
         23    2    1    2    0    0  0.24976655743E+02  0.31432913654E+02  0.32705050836E+03  0.35241960496E+03  0.12500272617E+03 0.  0.
          5    1    3    3  502    0 -0.38330508367E+02  0.14586282368E+02  0.23917793773E+03  0.24271415987E+03  0.47000000000E+01 0.  1.
         -5    1    3    3    0  502  0.63307164110E+02  0.16846631286E+02  0.87872570631E+02  0.10970544509E+03  0.47000000000E+01 0.  1.
        -11    1    1    2    0    0 -0.22987629705E+02 -0.63721520389E+02  0.80656054856E+02  0.10532930487E+03  0.00000000000E+00 0.  1.
         11    1    1    2    0    0 -0.19890260378E+01  0.32288606735E+02  0.35115032475E+02  0.47744903970E+02  0.00000000000E+00 0. -1.
<mgrwt>
<rscale>  0 0.12269708E+03</rscale>
<asrwt>0</asrwt>
<pdfrwt beam="1">  1        2 0.72947334E-01 0.13129182E+03</pdfrwt>
<pdfrwt beam="2">  1       -2 0.48209402E-02 0.13129182E+03</pdfrwt>
<totfact> 0.12926078E+04</totfact>
</mgrwt>
</event>
<event>
 6    1  0.6008063E-006  0.1383061E+03  0.7546771E-02  0.1290725E+00
          2   -1    0    0  501    0  0.00000000000E+00  0.00000000000E+00  0.10256648650E+04  0.10256648650E+04  0.00000000000E+00 0. -1.
         -2   -1    0    0    0  501 -0.00000000000E+00 -0.00000000000E+00 -0.79376819387E+01  0.79376819387E+01  0.00000000000E+00 0.  1.
          5    1    1    2  502    0 -0.42101774826E+02 -0.34807397529E+02  0.82616920138E+03  0.82798656612E+03  0.47000000000E+01 0. -1.
         -5    1    1    2    0  502  0.24274704305E+02  0.35986285210E+02  0.11007682807E+03  0.11841989728E+03  0.47000000000E+01 0.  1.
        -11    1    1    2    0    0  0.15894227519E+02 -0.11895209996E+02  0.58234361971E+02  0.61525307016E+02  0.00000000000E+00 0.  1.
         11    1    1    2    0    0  0.19328430015E+01  0.10716322315E+02  0.23246791639E+02  0.25670776528E+02  0.00000000000E+00 0. -1.
<mgrwt>
<rscale>  0 0.95200522E+02</rscale>
<asrwt>0</asrwt>
<pdfrwt beam="1">  1        2 0.15779449E+00 0.13830606E+03</pdfrwt>
<pdfrwt beam="2">  1       -2 0.12211826E-02 0.13830606E+03</pdfrwt>
<totfact> 0.38174825E+04</totfact>
</mgrwt>
</event>
<event>
 7    1  0.6008063E-006  0.1626699E+03  0.7546771E-02  0.1194148E+00
          1   -1    0    0  501    0  0.00000000000E+00  0.00000000000E+00  0.11099305193E+04  0.11099305193E+04  0.00000000000E+00 0. -1.
         -1   -1    0    0    0  501 -0.00000000000E+00 -0.00000000000E+00 -0.21067501820E+02  0.21067501820E+02  0.00000000000E+00 0.  1.
         23    2    1    2    0    0  0.87080558983E+02  0.57043815124E+02  0.72148842968E+03  0.73959926023E+03  0.12499796391E+03 0.  0.
          5    1    3    3  502    0 -0.31036549941E+02  0.22717579719E+02  0.14278777663E+03  0.14795200240E+03  0.47000000000E+01 0.  1.
         -5    1    3    3    0  502  0.11811710892E+03  0.34326235405E+02  0.57870065305E+03  0.59164725783E+03  0.47000000000E+01 0.  1.
        -11    1    1    2    0    0 -0.52327681376E+02 -0.16454736610E+02  0.68359658092E+02  0.87646947748E+02  0.00000000000E+00 0.  1.
         11    1    1    2    0    0 -0.34752877606E+02 -0.40589078514E+02  0.29901492974E+03  0.30375181317E+03  0.00000000000E+00 0. -1.
<mgrwt>
<rscale>  0 0.15526571E+03</rscale>
<asrwt>0</asrwt>
<pdfrwt beam="1">  1        1 0.17075850E+00 0.16266995E+03</pdfrwt>
<pdfrwt beam="2">  1       -1 0.32411550E-02 0.16266995E+03</pdfrwt>
<totfact> 0.44014238E+03</totfact>
</mgrwt>
</event>
<event>
 7    1  0.6008063E-006  0.1495701E+03  0.7546771E-02  0.1210525E+00
         -1   -1    0    0    0  501 -0.00000000000E+00  0.00000000000E+00  0.42844318180E+02  0.42844318180E+02  0.00000000000E+00 0.  1.
          1   -1    0    0  501    0  0.00000000000E+00 -0.00000000000E+00 -0.43510592016E+03  0.43510592016E+03  0.00000000000E+00 0. -1.
         23    2    1    2    0    0 -0.58420937325E+02 -0.57699643178E+02 -0.18997308545E+03  0.24178709272E+03  0.12501588006E+03 0.  0.
          5    1    3    3  502    0 -0.39175038784E+02  0.25630302007E+02 -0.12711894901E+03  0.13554671977E+03  0.47000000000E+01 0.  1.
         -5    1    3    3    0  502 -0.19245898541E+02 -0.83329945185E+02 -0.62854136448E+02  0.10624037295E+03  0.47000000000E+01 0.  1.
        -11    1    1    2    0    0 -0.15647629013E+02  0.14484785564E+02 -0.62980149103E+01  0.22233360033E+02  0.00000000000E+00 0.  1.
         11    1    1    2    0    0  0.74068566338E+02  0.43214857615E+02 -0.19599050162E+03  0.21392978559E+03  0.00000000000E+00 0. -1.
<mgrwt>
<rscale>  0 0.14210462E+03</rscale>
<asrwt>0</asrwt>
<pdfrwt beam="2">  1        1 0.66939371E-01 0.14957013E+03</pdfrwt>
<pdfrwt beam="1">  1       -1 0.65914337E-02 0.14957013E+03</pdfrwt>
<totfact> 0.60646720E+03</totfact>
</mgrwt>
</event>
<event>
 7    1  0.6008063E-006  0.1789816E+03  0.7546771E-02  0.1173385E+00
          1   -1    0    0  501    0  0.00000000000E+00  0.00000000000E+00  0.15681608882E+03  0.15681608882E+03  0.00000000000E+00 0. -1.
         -1   -1    0    0    0  501 -0.00000000000E+00 -0.00000000000E+00 -0.19237172736E+03  0.19237172736E+03  0.00000000000E+00 0.  1.
         23    2    1    2    0    0  0.47654985429E+02  0.11890447849E+03  0.16709718959E+02  0.17975988004E+03  0.12500050850E+03 0.  0.
          5    1    3    3  502    0  0.12941959540E+02  0.45752318609E+02  0.68508083042E+02  0.83523747622E+02  0.47000000000E+01 0.  1.
         -5    1    3    3    0  502  0.34713025889E+02  0.73152159883E+02 -0.51798364083E+02  0.96236132423E+02  0.47000000000E+01 0.  1.
        -11    1    1    2    0    0  0.12285828831E+02 -0.48305020757E+02  0.18193304260E+02  0.53059522616E+02  0.00000000000E+00 0. -1.
         11    1    1    2    0    0 -0.59940814260E+02 -0.70599457736E+02 -0.70458661766E+02  0.11636841352E+03  0.00000000000E+00 0.  1.
<mgrwt>
<rscale>  0 0.17435078E+03</rscale>
<asrwt>0</asrwt>
<pdfrwt beam="1">  1        1 0.24125552E-01 0.17898156E+03</pdfrwt>
<pdfrwt beam="2">  1       -1 0.29595650E-01 0.17898156E+03</pdfrwt>
<totfact> 0.20620902E+03</totfact>
</mgrwt>
</event>
<event>
 7    1  0.6008063E-006  0.1764555E+03  0.7546771E-02  0.1177134E+00
         -1   -1    0    0    0  501 -0.00000000000E+00  0.00000000000E+00  0.29682796908E+02  0.29682796908E+02  0.00000000000E+00 0.  1.
          1   -1    0    0  501    0  0.00000000000E+00 -0.00000000000E+00 -0.13701800034E+04  0.13701800034E+04  0.00000000000E+00 0. -1.
         23    2    1    2    0    0 -0.12253275497E+03  0.21117962415E+02 -0.10997222087E+04  0.11137887982E+04  0.12520505687E+03 0.  0.
          5    1    3    3  502    0 -0.27129222993E+02  0.65539455807E+02 -0.45219690384E+03  0.45775052687E+03  0.47000000000E+01 0. -1.
         -5    1    3    3    0  502 -0.95403531976E+02 -0.44421493392E+02 -0.64752530487E+03  0.65603827132E+03  0.47000000000E+01 0.  1.
        -11    1    1    2    0    0  0.12668239350E+03 -0.37347323872E+02 -0.23249113112E+03  0.26738619537E+03  0.00000000000E+00 0.  1.
         11    1    1    2    0    0 -0.41496385355E+01  0.16229361457E+02 -0.82838666184E+01  0.18687806705E+02  0.00000000000E+00 0. -1.
<mgrwt>
<rscale>  0 0.17068615E+03</rscale>
<asrwt>0</asrwt>
<pdfrwt beam="2">  1        1 0.21079692E+00 0.17645552E+03</pdfrwt>
<pdfrwt beam="1">  1       -1 0.45665842E-02 0.17645552E+03</pdfrwt>
<totfact> 0.17640719E+03</totfact>
</mgrwt>
</event>
<event>
 7    1  0.6008063E-006  0.1467845E+03  0.7546771E-02  0.1213389E+00
          1   -1    0    0  501    0  0.00000000000E+00  0.00000000000E+00  0.41380926056E+03  0.41380926056E+03  0.00000000000E+00 0. -1.
         -1   -1    0    0    0  501 -0.00000000000E+00 -0.00000000000E+00 -0.43538232869E+02  0.43538232869E+02  0.00000000000E+00 0.  1.
         23    2    1    2    0    0 -0.68638196514E+02 -0.34774948815E+02  0.21429693996E+03  0.25974770744E+03  0.12500077582E+03 0.  0.
          5    1    3    3  502    0 -0.80160381118E+02  0.26267137841E+02  0.12270853067E+03  0.14898027631E+03  0.47000000000E+01 0.  1.
         -5    1    3    3    0  502  0.11522184604E+02 -0.61042086656E+02  0.91588409293E+02  0.11076743113E+03  0.47000000000E+01 0.  1.
        -11    1    1    2    0    0  0.66045894906E+02  0.46836348833E+02  0.16398886717E+03  0.18288808699E+03  0.00000000000E+00 0. -1.
         11    1    1    2    0    0  0.25923016073E+01 -0.12061400018E+02 -0.80147794426E+01  0.14711699002E+02  0.00000000000E+00 0.  1.
<mgrwt>
<rscale>  0 0.13995563E+03</rscale>
<asrwt>0</asrwt>
<pdfrwt beam="1">  1        1 0.63662961E-01 0.14678451E+03</pdfrwt>
<pdfrwt beam="2">  1       -1 0.66981899E-02 0.14678451E+03</pdfrwt>
<totfact> 0.63042311E+03</totfact>
</mgrwt>
</event>
<event>
 7    1  0.6008063E-006  0.1346067E+03  0.7546771E-02  0.1232487E+00
         -2   -1    0    0    0  501 -0.00000000000E+00  0.00000000000E+00  0.15254565866E+03  0.15254565866E+03  0.00000000000E+00 0.  1.
          2   -1    0    0  501    0  0.00000000000E+00 -0.00000000000E+00 -0.10442147437E+03  0.10442147437E+03  0.00000000000E+00 0. -1.
         23    2    1    2    0    0  0.37289779018E+02 -0.33226090358E+02 -0.12603579992E+02  0.13519549844E+03  0.12499788746E+03 0.  0.
          5    1    3    3  502    0  0.34733433828E+02  0.32055995776E+02  0.30808030405E+02  0.56614689155E+02  0.47000000000E+01 0. -1.
         -5    1    3    3    0  502  0.25563451901E+01 -0.65282086133E+02 -0.43411610396E+02  0.78580809285E+02  0.47000000000E+01 0. -1.
        -11    1    1    2    0    0  0.15433332692E+02  0.48303581114E+02  0.29601472023E+02  0.58716870254E+02  0.00000000000E+00 0.  1.
         11    1    1    2    0    0 -0.52723111711E+02 -0.15077490757E+02  0.31126292255E+02  0.63054764337E+02  0.00000000000E+00 0. -1.
<mgrwt>
<rscale>  0 0.12666687E+03</rscale>
<asrwt>0</asrwt>
<pdfrwt beam="2">  1        2 0.16064842E-01 0.13460673E+03</pdfrwt>
<pdfrwt beam="1">  1       -2 0.23468563E-01 0.13460673E+03</pdfrwt>
<totfact> 0.54290529E+03</totfact>
</mgrwt>
</event>
<event>
 7    1  0.6008063E-006  0.1575712E+03  0.7546771E-02  0.1199260E+00
          1   -1    0    0  501    0  0.00000000000E+00  0.00000000000E+00  0.20930244481E+04  0.20930244481E+04  0.00000000000E+00 0. -1.
         -1   -1    0    0    0  501 -0.00000000000E+00 -0.00000000000E+00 -0.22363242598E+02  0.22363242598E+02  0.00000000000E+00 0.  1.
         23    2    1    2    0    0 -0.73211627772E+02 -0.61998924258E+02  0.18577829900E+04  0.18644533542E+04  0.12499945116E+03 0.  0.
          5    1    3    3  502    0 -0.85257703016E+02 -0.90075519913E+02  0.16040089398E+04  0.16088036686E+04  0.47000000000E+01 0.  1.
         -5    1    3    3    0  502  0.12046075244E+02  0.28076595655E+02  0.25377405024E+03  0.25564968556E+03  0.47000000000E+01 0.  1.
        -11    1    1    2    0    0  0.55576866645E+02  0.79227528037E+02  0.20200224693E+03  0.22398816279E+03  0.00000000000E+00 0. -1.
         11    1    1    2    0    0  0.17634761127E+02 -0.17228603779E+02  0.10875968570E+02  0.26946173764E+02  0.00000000000E+00 0.  1.
<mgrwt>
<rscale>  0 0.15099183E+03</rscale>
<asrwt>0</asrwt>
<pdfrwt beam="1">  1        1 0.32200361E+00 0.15757116E+03</pdfrwt>
<pdfrwt beam="2">  1       -1 0.34405005E-02 0.15757116E+03</pdfrwt>
<totfact> 0.91580961E+02</totfact>
</mgrwt>
</event>
<event>
 7    1  0.6008063E-006  0.1440179E+03  0.7546771E-02  0.1219158E+00
         -3   -1    0    0    0  501 -0.00000000000E+00  0.00000000000E+00  0.20236775027E+02  0.20236775027E+02  0.00000000000E+00 0.  1.
          3   -1    0    0  501    0  0.00000000000E+00 -0.00000000000E+00 -0.10999728231E+04  0.10999728231E+04  0.00000000000E+00 0. -1.
         23    2    1    2    0    0  0.60396785377E+02  0.38312171353E+02 -0.86808174137E+03  0.87994719599E+03  0.12500225544E+03 0.  0.
          5    1    3    3  502    0  0.69575511765E+02  0.52451439495E+02 -0.32283096349E+03  0.33441564905E+03  0.47000000000E+01 0. -1.
         -5    1    3    3    0  502 -0.91787263882E+01 -0.14139268142E+02 -0.54525077788E+03  0.54553154693E+03  0.47000000000E+01 0. -1.
        -11    1    1    2    0    0 -0.61751407256E+02  0.31218245668E+01 -0.17247096897E+03  0.18321904165E+03  0.00000000000E+00 0. -1.
         11    1    1    2    0    0  0.13546218790E+01 -0.41433995919E+02 -0.39183337687E+02  0.57043360443E+02  0.00000000000E+00 0.  1.
<mgrwt>
<rscale>  0 0.13575499E+03</rscale>
<asrwt>0</asrwt>
<pdfrwt beam="2">  1        3 0.16922660E+00 0.14401791E+03</pdfrwt>
<pdfrwt beam="1">  1       -3 0.31133497E-02 0.14401791E+03</pdfrwt>
<totfact> 0.28609516E+02</totfact>
</mgrwt>
</event>
<event>
 7    1  0.6008063E-006  0.1840310E+03  0.7546771E-02  0.1169389E+00
          1   -1    0    0  501    0  0.00000000000E+00  0.00000000000E+00  0.17783393424E+03  0.17783393424E+03  0.00000000000E+00 0. -1.
         -1   -1    0    0    0  501 -0.00000000000E+00 -0.00000000000E+00 -0.21465973652E+03  0.21465973652E+03  0.00000000000E+00 0.  1.
         23    2    1    2    0    0 -0.71473486801E+02  0.11460391564E+03  0.71321912913E+02  0.19736822424E+03  0.12499953553E+03 0.  0.
          5    1    3    3  502    0 -0.94389891368E+02  0.90930152716E+02  0.15074375544E+02  0.13201163230E+03  0.47000000000E+01 0. -1.
         -5    1    3    3    0  502  0.22916404567E+02  0.23673762922E+02  0.56247537370E+02  0.65356591935E+02  0.47000000000E+01 0. -1.
        -11    1    1    2    0    0  0.11473190257E+02  0.95877162903E-01  0.13343058486E+02  0.17597741243E+02  0.00000000000E+00 0. -1.
         11    1    1    2    0    0  0.60000296544E+02 -0.11469979280E+03 -0.12149077368E+03  0.17752770528E+03  0.00000000000E+00 0.  1.
<mgrwt>
<rscale>  0 0.17837068E+03</rscale>
<asrwt>0</asrwt>
<pdfrwt beam="1">  1        1 0.27359067E-01 0.18403098E+03</pdfrwt>
<pdfrwt beam="2">  1       -1 0.33024575E-01 0.18403098E+03</pdfrwt>
<totfact> 0.14609183E+03</totfact>
</mgrwt>
</event>
<event>
 7    1  0.6008063E-006  0.1218704E+03  0.7546771E-02  0.1247910E+00
         -1   -1    0    0    0  501 -0.00000000000E+00  0.00000000000E+00  0.51166392590E+02  0.51166392590E+02  0.00000000000E+00 0.  1.
          1   -1    0    0  501    0  0.00000000000E+00 -0.00000000000E+00 -0.26451492038E+03  0.26451492038E+03  0.00000000000E+00 0. -1.
         23    2    1    2    0    0 -0.49966517234E+02  0.10016441757E+02 -0.15245801144E+03  0.19518156483E+03  0.11070418260E+03 0.  0.
          5    1    3    3  502    0  0.20695193056E+02  0.35674709695E+02 -0.29274664404E+02  0.50794408190E+02  0.47000000000E+01 0. -1.
         -5    1    3    3    0  502 -0.70661710290E+02 -0.25658267937E+02 -0.12318334704E+03  0.14438715664E+03  0.47000000000E+01 0.  1.
        -11    1    1    2    0    0  0.19283853060E+02  0.27064302393E+02  0.10099702620E+02  0.34732512807E+02  0.00000000000E+00 0.  1.
         11    1    1    2    0    0  0.30682664174E+02 -0.37080744150E+02 -0.70990218963E+02  0.85767235329E+02  0.00000000000E+00 0. -1.
<mgrwt>
<rscale>  0 0.11712906E+03</rscale>
<asrwt>0</asrwt>
<pdfrwt beam="2">  1        1 0.40694604E-01 0.12187041E+03</pdfrwt>
<pdfrwt beam="1">  1       -1 0.78717526E-02 0.12187041E+03</pdfrwt>
<totfact> 0.85290698E+03</totfact>
</mgrwt>
</event>
<event>
 7    1  0.6008063E-006  0.1323515E+03  0.7546771E-02  0.1237228E+00
         -1   -1    0    0    0  501 -0.00000000000E+00  0.00000000000E+00  0.25879095227E+03  0.25879095227E+03  0.00000000000E+00 0.  1.
          1   -1    0    0  501    0  0.00000000000E+00 -0.00000000000E+00 -0.52574187153E+02  0.52574187153E+02  0.00000000000E+00 0. -1.
         23    2    1    2    0    0 -0.38624200072E+02  0.21831787430E+02  0.12304282643E+03  0.18071094133E+03  0.12469342969E+03 0.  0.
          5    1    3    3  502    0  0.70229394881E+01 -0.41149773965E+02  0.96156304899E+01  0.43094964047E+02  0.47000000000E+01 0.  1.
         -5    1    3    3    0  502 -0.45647139560E+02  0.62981561395E+02  0.11342719594E+03  0.13761597728E+03  0.47000000000E+01 0.  1.
        -11    1    1    2    0    0  0.22859032049E+02  0.68432212606E+01  0.93376891301E+02  0.96377429165E+02  0.00000000000E+00 0.  1.
         11    1    1    2    0    0  0.15765168023E+02 -0.28675008691E+02 -0.10202952610E+02  0.34276768928E+02  0.00000000000E+00 0. -1.
<mgrwt>
<rscale>  0 0.12362855E+03</rscale>
<asrwt>0</asrwt>
<pdfrwt beam="2">  1        1 0.80883366E-02 0.13235145E+03</pdfrwt>
<pdfrwt beam="1">  1       -1 0.39813992E-01 0.13235145E+03</pdfrwt>
<totfact> 0.50760634E+03</totfact>
</mgrwt>
</event>
<event>
 6    1  0.6008063E-006  0.1589244E+03  0.7546771E-02  0.1205184E+00
          2   -1    0    0  501    0  0.00000000000E+00  0.00000000000E+00  0.11891693954E+04  0.11891693954E+04  0.00000000000E+00 0. -1.
         -2   -1    0    0    0  501 -0.00000000000E+00 -0.00000000000E+00 -0.16280201981E+02  0.16280201981E+02  0.00000000000E+00 0.  1.
          5    1    1    2  502    0 -0.14466431566E+02  0.71297493366E+01  0.64171878857E+03  0.64193862991E+03  0.47000000000E+01 0. -1.
         -5    1    1    2    0  502 -0.20089495818E+02 -0.67869323635E+02  0.15478657109E+03  0.17026686560E+03  0.47000000000E+01 0.  1.
        -11    1    1    2    0    0  0.57868044086E+02  0.43002245656E+02  0.33419281895E+03  0.34188118388E+03  0.00000000000E+00 0.  1.
         11    1    1    2    0    0 -0.23312116703E+02  0.17737328642E+02  0.42191014793E+02  0.51362917964E+02  0.00000000000E+00 0. -1.
<mgrwt>
<rscale>  0 0.14622990E+03</rscale>
<asrwt>0</asrwt>
<pdfrwt beam="1">  1        2 0.18294907E+00 0.15892444E+03</pdfrwt>
<pdfrwt beam="2">  1       -2 0.25046474E-02 0.15892444E+03</pdfrwt>
<totfact> 0.10953430E+04</totfact>
</mgrwt>
</event>
<event>
 7    1  0.6008063E-006  0.1757447E+03  0.7546771E-02  0.1178162E+00
         -1   -1    0    0    0  501 -0.00000000000E+00  0.00000000000E+00  0.51617993142E+03  0.51617993142E+03  0.00000000000E+00 0.  1.
          1   -1    0    0  501    0  0.00000000000E+00 -0.00000000000E+00 -0.52320657788E+02  0.52320657788E+02  0.00000000000E+00 0. -1.
         23    2    1    2    0    0  0.92091046090E+02 -0.82338563125E+02  0.25667819392E+03  0.31107858218E+03  0.12500315721E+03 0.  0.
          5    1    3    3  502    0  0.36261294271E+02 -0.69015144372E+02  0.23807483620E+03  0.25055875408E+03  0.47000000000E+01 0. -1.
         -5    1    3    3    0  502  0.55829751819E+02 -0.13323418753E+02  0.18603357725E+02  0.60519828107E+02  0.47000000000E+01 0. -1.
        -11    1    1    2    0    0 -0.83584573426E+02  0.34546070078E+02  0.78035496138E+02  0.11945438682E+03  0.00000000000E+00 0.  1.
         11    1    1    2    0    0 -0.85064726635E+01  0.47792493047E+02  0.12914558357E+03  0.13796762021E+03  0.00000000000E+00 0. -1.
<mgrwt>
<rscale>  0 0.16969892E+03</rscale>
<asrwt>0</asrwt>
<pdfrwt beam="2">  1        1 0.80493323E-02 0.17574467E+03</pdfrwt>
<pdfrwt beam="1">  1       -1 0.79412294E-01 0.17574467E+03</pdfrwt>
<totfact> 0.14093981E+03</totfact>
</mgrwt>
</event>
<event>
 7    1  0.6008063E-006  0.1260843E+03  0.7546771E-02  0.1246433E+00
          3   -1    0    0  501    0  0.00000000000E+00  0.00000000000E+00  0.14969246288E+03  0.14969246288E+03  0.00000000000E+00 0. -1.
         -3   -1    0    0    0  501 -0.00000000000E+00 -0.00000000000E+00 -0.10195846008E+03  0.10195846008E+03  0.00000000000E+00 0.  1.
         23    2    1    2    0    0  0.52210251729E+01 -0.15617257401E+02  0.80422440511E+02  0.14954939329E+03  0.12500437698E+03 0.  0.
          5    1    3    3  502    0 -0.57016549637E+02  0.14328594227E+00  0.57775322205E+02  0.81307965903E+02  0.47000000000E+01 0.  1.
         -5    1    3    3    0  502  0.62237574810E+02 -0.15760543343E+02  0.22647118307E+02  0.68241427391E+02  0.47000000000E+01 0.  1.
        -11    1    1    2    0    0  0.28963511039E+02  0.41579212150E+02 -0.30449543674E+02  0.59117599449E+02  0.00000000000E+00 0.  1.
         11    1    1    2    0    0 -0.34184536212E+02 -0.25961954749E+02 -0.22388940465E+01  0.42983930218E+02  0.00000000000E+00 0. -1.
<mgrwt>
<rscale>  0 0.11800031E+03</rscale>
<asrwt>0</asrwt>
<pdfrwt beam="1">  1        3 0.23029609E-01 0.12608431E+03</pdfrwt>
<pdfrwt beam="2">  1       -3 0.15685917E-01 0.12608431E+03</pdfrwt>
<totfact> 0.13606823E+03</totfact>
</mgrwt>
</event>
<event>
 7    1  0.6008063E-006  0.1355758E+03  0.7546771E-02  0.1228392E+00
          3   -1    0    0  501    0  0.00000000000E+00  0.00000000000E+00  0.16326128898E+03  0.16326128898E+03  0.00000000000E+00 0. -1.
         -3   -1    0    0    0  501 -0.00000000000E+00 -0.00000000000E+00 -0.96554262562E+02  0.96554262562E+02  0.00000000000E+00 0.  1.
         23    2    1    2    0    0 -0.11951448417E+02  0.51175448067E+02  0.56724731935E+02  0.14696424683E+03  0.12497612183E+03 0.  0.
          5    1    3    3  502    0  0.12829857699E+02  0.50769473904E+02 -0.27295186989E+02  0.59239023977E+02  0.47000000000E+01 0. -1.
         -5    1    3    3    0  502 -0.24781306116E+02  0.40597416326E+00  0.84019918924E+02  0.87725222848E+02  0.47000000000E+01 0. -1.
        -11    1    1    2    0    0 -0.30788996189E+02 -0.48864370185E+02 -0.19408388311E+02  0.60929258134E+02  0.00000000000E+00 0.  1.
         11    1    1    2    0    0  0.42740444606E+02 -0.23110778816E+01  0.29390682792E+02  0.51922046580E+02  0.00000000000E+00 0. -1.
<mgrwt>
<rscale>  0 0.12937097E+03</rscale>
<asrwt>0</asrwt>
<pdfrwt beam="1">  1        3 0.25117121E-01 0.13557579E+03</pdfrwt>
<pdfrwt beam="2">  1       -3 0.14854502E-01 0.13557579E+03</pdfrwt>
<totfact> 0.12936677E+03</totfact>
</mgrwt>
</event>
<event>
 7    1  0.6008063E-006  0.2008855E+03  0.7546771E-02  0.1153346E+00
          2   -1    0    0  501    0  0.00000000000E+00  0.00000000000E+00  0.85062972472E+03  0.85062972472E+03  0.00000000000E+00 0. -1.
         -2   -1    0    0    0  501 -0.00000000000E+00 -0.00000000000E+00 -0.43300355791E+02  0.43300355791E+02  0.00000000000E+00 0.  1.
         23    2    1    2    0    0  0.98423778159E+02 -0.12264904214E+03  0.46631685587E+03  0.50774639964E+03  0.12499987454E+03 0.  0.
          5    1    3    3  502    0  0.16679773319E+02 -0.29182145897E+02  0.10846939702E+02  0.35630865525E+02  0.47000000000E+01 0.  1.
         -5    1    3    3    0  502  0.81744004840E+02 -0.93466896246E+02  0.45546991617E+03  0.47211553412E+03  0.47000000000E+01 0.  1.
        -11    1    1    2    0    0  0.12267978168E+02  0.37877494009E+02  0.53916582455E+02  0.67023918897E+02  0.00000000000E+00 0. -1.
         11    1    1    2    0    0 -0.11069175633E+03  0.84771548134E+02  0.28709593060E+03  0.31915976197E+03  0.00000000000E+00 0.  1.
<mgrwt>
<rscale>  0 0.19578328E+03</rscale>
<asrwt>0</asrwt>
<pdfrwt beam="1">  1        2 0.13086610E+00 0.20088553E+03</pdfrwt>
<pdfrwt beam="2">  1       -2 0.66615939E-02 0.20088553E+03</pdfrwt>
<totfact> 0.40784412E+03</totfact>
</mgrwt>
</event>
<event>
 7    1  0.6008063E-006  0.3459329E+03  0.7546771E-02  0.1065430E+00
          2   -1    0    0  501    0  0.00000000000E+00  0.00000000000E+00  0.22888209874E+04  0.22888209874E+04  0.00000000000E+00 0. -1.
         -2   -1    0    0    0  501 -0.00000000000E+00 -0.00000000000E+00 -0.51837035594E+02  0.51837035594E+02  0.00000000000E+00 0.  1.
         23    2    1    2    0    0 -0.13053643894E+03 -0.29496664096E+03  0.96081301551E+03  0.10211910729E+04  0.12499790175E+03 0.  0.
          5    1    3    3  502    0  0.72950905384E+01 -0.90357774385E+02  0.36895987959E+03  0.37996214085E+03  0.47000000000E+01 0. -1.
         -5    1    3    3    0  502 -0.13783152948E+03 -0.20460886657E+03  0.59185313593E+03  0.64122893205E+03  0.47000000000E+01 0. -1.
        -11    1    1    2    0    0  0.48876316762E+02  0.53382272245E+02  0.17962705068E+03  0.19366062756E+03  0.00000000000E+00 0.  1.
         11    1    1    2    0    0  0.81660122181E+02  0.24158436871E+03  0.10965438856E+04  0.11258063225E+04  0.00000000000E+00 0. -1.
<mgrwt>
<rscale>  0 0.34322616E+03</rscale>
<asrwt>0</asrwt>
<pdfrwt beam="1">  1        2 0.35212623E+00 0.34593288E+03</pdfrwt>
<pdfrwt beam="2">  1       -2 0.79749303E-02 0.34593288E+03</pdfrwt>
<totfact> 0.49001861E+02</totfact>
</mgrwt>
</event>
<event>
 7    1  0.6008063E-006  0.1270542E+03  0.7546771E-02  0.1245783E+00
         -2   -1    0    0    0  501 -0.00000000000E+00  0.00000000000E+00  0.88694408684E+02  0.88694408684E+02  0.00000000000E+00 0.  1.
          2   -1    0    0  501    0  0.00000000000E+00 -0.00000000000E+00 -0.14693946089E+03  0.14693946089E+03  0.00000000000E+00 0. -1.
         23    2    1    2    0    0  0.17083198106E+02 -0.14980041300E+02 -0.58465018371E+02  0.13986037633E+03  0.12500611665E+03 0.  0.
          5    1    3    3  502    0  0.41781435719E+02  0.44156574018E+02 -0.40287089386E+02  0.73079620763E+02  0.47000000000E+01 0.  1.
         -5    1    3    3    0  502 -0.24698237614E+02 -0.59136615317E+02 -0.18177928985E+02  0.66780755571E+02  0.47000000000E+01 0.  1.
        -11    1    1    2    0    0 -0.52049223333E+02  0.83020352864E+00 -0.16365394620E+02  0.54567728820E+02  0.00000000000E+00 0. -1.
         11    1    1    2    0    0  0.34966025228E+02  0.14149837771E+02  0.16585360784E+02  0.41205764421E+02  0.00000000000E+00 0.  1.
<mgrwt>
<rscale>  0 0.11838666E+03</rscale>
<asrwt>0</asrwt>
<pdfrwt beam="2">  1        2 0.22606071E-01 0.12705419E+03</pdfrwt>
<pdfrwt beam="1">  1       -2 0.13645294E-01 0.12705419E+03</pdfrwt>
<totfact> 0.90620927E+03</totfact>
</mgrwt>
</event>
<event>
 7    1  0.6008063E-006  0.2345266E+03  0.7546771E-02  0.1126314E+00
         -1   -1    0    0    0  501 -0.00000000000E+00  0.00000000000E+00  0.36114559735E+02  0.36114559735E+02  0.00000000000E+00 0.  1.
          1   -1    0    0  501    0  0.00000000000E+00 -0.00000000000E+00 -0.14230604183E+04  0.14230604183E+04  0.00000000000E+00 0. -1.
         23    2    1    2    0    0  0.14089764256E+03 -0.13974808762E+03 -0.73835452184E+03  0.77470647615E+03  0.12498420137E+03 0.  0.
          5    1    3    3  502    0  0.11313462198E+03 -0.15132625095E+03 -0.50201892512E+03  0.53641790433E+03  0.47000000000E+01 0. -1.
         -5    1    3    3    0  502  0.27763020586E+02  0.11578163331E+02 -0.23633559672E+03  0.23828857181E+03  0.47000000000E+01 0. -1.
        -11    1    1    2    0    0 -0.85226323661E+02  0.41730054599E+02 -0.19202994840E+03  0.21419716334E+03  0.00000000000E+00 0.  1.
         11    1    1    2    0    0 -0.55671318900E+02  0.98018033019E+02 -0.45656138830E+03  0.47027133852E+03  0.00000000000E+00 0. -1.
<mgrwt>
<rscale>  0 0.23046371E+03</rscale>
<asrwt>0</asrwt>
<pdfrwt beam="2">  1        1 0.21893232E+00 0.23452660E+03</pdfrwt>
<pdfrwt beam="1">  1       -1 0.55560876E-02 0.23452660E+03</pdfrwt>
<totfact> 0.12114972E+03</totfact>
</mgrwt>
</event>
<event>
 7    1  0.6008063E-006  0.1831193E+03  0.7546771E-02  0.1169752E+00
         -2   -1    0    0    0  501 -0.00000000000E+00  0.00000000000E+00  0.19801289378E+03  0.19801289378E+03  0.00000000000E+00 0.  1.
          2   -1    0    0  501    0  0.00000000000E+00 -0.00000000000E+00 -0.18562238783E+03  0.18562238783E+03  0.00000000000E+00 0. -1.
         23    2    1    2    0    0  0.23006832890E+02  0.13182786027E+03 -0.75437560017E+02  0.19804924719E+03  0.12499911899E+03 0.  0.
          5    1    3    3  502    0  0.51127373230E+02  0.47386949303E+01 -0.32304302328E+02  0.60845061196E+02  0.47000000000E+01 0. -1.
         -5    1    3    3    0  502 -0.28120540339E+02  0.12708916534E+03 -0.43133257689E+02  0.13720418599E+03  0.47000000000E+01 0. -1.
        -11    1    1    2    0    0 -0.36397035652E+02 -0.76183597409E+01  0.30670523816E+02  0.48202330240E+02  0.00000000000E+00 0.  1.
         11    1    1    2    0    0  0.13390202762E+02 -0.12420950053E+03  0.57157542147E+02  0.13738370418E+03  0.00000000000E+00 0. -1.
<mgrwt>
<rscale>  0 0.17800091E+03</rscale>
<asrwt>0</asrwt>
<pdfrwt beam="2">  1        2 0.28557290E-01 0.18311930E+03</pdfrwt>
<pdfrwt beam="1">  1       -2 0.30463522E-01 0.18311930E+03</pdfrwt>
<totfact> 0.18160497E+03</totfact>
</mgrwt>
</event>
<event>
 7    1  0.6008063E-006  0.1275897E+03  0.7546771E-02  0.1243439E+00
          1   -1    0    0  501    0  0.00000000000E+00  0.00000000000E+00  0.95059324973E+03  0.95059324973E+03  0.00000000000E+00 0. -1.
         -1   -1    0    0    0  501 -0.00000000000E+00 -0.00000000000E+00 -0.14144166798E+02  0.14144166798E+02  0.00000000000E+00 0.  1.
         23    2    1    2    0    0 -0.41820044882E+01 -0.25271378310E+02  0.62491529029E+03  0.63780738556E+03  0.12499203697E+03 0.  0.
          5    1    3    3  502    0  0.32164750020E+01 -0.49510475953E+02  0.95115826239E+02  0.10738129885E+03  0.47000000000E+01 0.  1.
         -5    1    3    3    0  502 -0.73984794902E+01  0.24239097643E+02  0.52979946406E+03  0.53042608671E+03  0.47000000000E+01 0.  1.
        -11    1    1    2    0    0 -0.18780940578E+02 -0.32101085767E+02  0.12608962936E+03  0.13146025281E+03  0.00000000000E+00 0.  1.
         11    1    1    2    0    0  0.22962945066E+02  0.57372464077E+02  0.18544416328E+03  0.19546977816E+03  0.00000000000E+00 0. -1.
<mgrwt>
<rscale>  0 0.11979279E+03</rscale>
<asrwt>0</asrwt>
<pdfrwt beam="1">  1        1 0.14624507E+00 0.12758974E+03</pdfrwt>
<pdfrwt beam="2">  1       -1 0.21760264E-02 0.12758974E+03</pdfrwt>
<totfact> 0.10138358E+04</totfact>
</mgrwt>
</event>
<event>
 7    1  0.6008063E-006  0.1265814E+03  0.7546771E-02  0.1248966E+00
          2   -1    0    0  501    0  0.00000000000E+00  0.00000000000E+00  0.32840715862E+03  0.32840715862E+03  0.00000000000E+00 0. -1.
         -2   -1    0    0    0  501 -0.00000000000E+00 -0.00000000000E+00 -0.38038605933E+02  0.38038605933E+02  0.00000000000E+00 0.  1.
         23    2    1    2    0    0  0.53399006715E+01  0.19216413759E+02  0.20970948465E+03  0.24495087217E+03  0.12500030691E+03 0.  0.
          5    1    3    3  502    0 -0.10302409500E+02 -0.29229663646E+02  0.24088289589E+01  0.31438914347E+02  0.47000000000E+01 0. -1.
         -5    1    3    3    0  502  0.15642310171E+02  0.48446077405E+02  0.20730065569E+03  0.21351195783E+03  0.47000000000E+01 0. -1.
        -11    1    1    2    0    0  0.25410650908E+02  0.19793737295E+02  0.75093454035E+01  0.33073909416E+02  0.00000000000E+00 0.  1.
         11    1    1    2    0    0 -0.30750551579E+02 -0.39010151054E+02  0.73149722631E+02  0.88420982966E+02  0.00000000000E+00 0. -1.
<mgrwt>
<rscale>  0 0.11651128E+03</rscale>
<asrwt>0</asrwt>
<pdfrwt beam="1">  1        2 0.50524176E-01 0.12658144E+03</pdfrwt>
<pdfrwt beam="2">  1       -2 0.58520935E-02 0.12658144E+03</pdfrwt>
<totfact> 0.14255083E+04</totfact>
</mgrwt>
</event>
<event>
 7    1  0.6008063E-006  0.1495015E+03  0.7546771E-02  0.1212462E+00
         -1   -1    0    0    0  501 -0.00000000000E+00  0.00000000000E+00  0.89384179870E+02  0.89384179870E+02  0.00000000000E+00 0.  1.
          1   -1    0    0  501    0  0.00000000000E+00 -0.00000000000E+00 -0.20056948157E+03  0.20056948157E+03  0.00000000000E+00 0. -1.
         23    2    1    2    0    0  0.74451606036E+02  0.34372890155E+02 -0.48776567767E+02  0.15725727138E+03  0.12500463440E+03 0.  0.
          5    1    3    3  502    0 -0.62165477096E+01  0.42390151163E+02 -0.61464514967E+02  0.75070280279E+02  0.47000000000E+01 0. -1.
         -5    1    3    3    0  502  0.80668153745E+02 -0.80172610085E+01  0.12687947201E+02  0.82186991105E+02  0.47000000000E+01 0. -1.
        -11    1    1    2    0    0 -0.86518512681E+00 -0.22680143544E+02 -0.52924061495E+02  0.57585534135E+02  0.00000000000E+00 0. -1.
         11    1    1    2    0    0 -0.73586420909E+02 -0.11692746611E+02 -0.94846724368E+01  0.75110855918E+02  0.00000000000E+00 0.  1.
<mgrwt>
<rscale>  0 0.14064607E+03</rscale>
<asrwt>0</asrwt>
<pdfrwt beam="2">  1        1 0.30856843E-01 0.14950149E+03</pdfrwt>
<pdfrwt beam="1">  1       -1 0.13751412E-01 0.14950149E+03</pdfrwt>
<totfact> 0.51869366E+03</totfact>
</mgrwt>
</event>
<event>
 7    1  0.6008063E-006  0.1366794E+03  0.7546771E-02  0.1230528E+00
         -2   -1    0    0    0  501 -0.00000000000E+00  0.00000000000E+00  0.17176456263E+02  0.17176456263E+02  0.00000000000E+00 0.  1.
          2   -1    0    0  501    0  0.00000000000E+00 -0.00000000000E+00 -0.97554644381E+03  0.97554644381E+03  0.00000000000E+00 0. -1.
         23    2    1    2    0    0 -0.54796362576E+02 -0.73313914996E+01 -0.71074653193E+03  0.72376921717E+03  0.12499942566E+03 0.  0.
          5    1    3    3  502    0 -0.50770824465E+01  0.19839909043E+02 -0.58929065205E+03  0.58966512645E+03  0.47000000000E+01 0.  1.
         -5    1    3    3    0  502 -0.49719280129E+02 -0.27171300542E+02 -0.12145587988E+03  0.13410409072E+03  0.47000000000E+01 0.  1.
        -11    1    1    2    0    0  0.18384269305E+02 -0.21779234304E+02 -0.15999377587E+02  0.32684805153E+02  0.00000000000E+00 0.  1.
         11    1    1    2    0    0  0.36412093270E+02  0.29110625803E+02 -0.23162407803E+03  0.23626887775E+03  0.00000000000E+00 0. -1.
<mgrwt>
<rscale>  0 0.12795096E+03</rscale>
<asrwt>0</asrwt>
<pdfrwt beam="2">  1        2 0.15008406E+00 0.13667936E+03</pdfrwt>
<pdfrwt beam="1">  1       -2 0.26425319E-02 0.13667936E+03</pdfrwt>
<totfact> 0.13353558E+04</totfact>
</mgrwt>
</event>
<event>
 7    1  0.6008063E-006  0.1519320E+03  0.7546771E-02  0.1205473E+00
          2   -1    0    0  501    0  0.00000000000E+00  0.00000000000E+00  0.76971613048E+03  0.76971613048E+03  0.00000000000E+00 0. -1.
         -2   -1    0    0    0  501 -0.00000000000E+00 -0.00000000000E+00 -0.32642195153E+02  0.32642195153E+02  0.00000000000E+00 0.  1.
         23    2    1    2    0    0 -0.19748011937E+02 -0.84074311767E+02  0.57567625116E+03  0.59538766125E+03  0.12499938861E+03 0.  0.
          5    1    3    3  502    0 -0.71358973907E+02 -0.40786019149E+02  0.36435308219E+03  0.37353829926E+03  0.47000000000E+01 0.  1.
         -5    1    3    3    0  502  0.51610961970E+02 -0.43288292618E+02  0.21132316897E+03  0.22184936199E+03  0.47000000000E+01 0.  1.
        -11    1    1    2    0    0 -0.29575110179E+02  0.51367501883E+02  0.38820710906E+02  0.70854463424E+02  0.00000000000E+00 0.  1.
         11    1    1    2    0    0  0.49323122116E+02  0.32706809884E+02  0.12257697327E+03  0.13611620096E+03  0.00000000000E+00 0. -1.
<mgrwt>
<rscale>  0 0.14600260E+03</rscale>
<asrwt>0</asrwt>
<pdfrwt beam="1">  1        2 0.11841785E+00 0.15193196E+03</pdfrwt>
<pdfrwt beam="2">  1       -2 0.50218768E-02 0.15193196E+03</pdfrwt>
<totfact> 0.70368578E+03</totfact>
</mgrwt>
</event>
<event>
 7    1  0.6008063E-006  0.1285381E+03  0.7546771E-02  0.1243960E+00
         -2   -1    0    0    0  501 -0.00000000000E+00  0.00000000000E+00  0.38594013771E+02  0.38594013771E+02  0.00000000000E+00 0.  1.
          2   -1    0    0  501    0  0.00000000000E+00 -0.00000000000E+00 -0.32657140772E+03  0.32657140772E+03  0.00000000000E+00 0. -1.
         23    2    1    2    0    0 -0.79294470770E+01 -0.28838371275E+02 -0.16832070909E+03  0.21178741487E+03  0.12501008039E+03 0.  0.
          5    1    3    3  502    0 -0.44132611678E+02 -0.59370082420E+02 -0.67306938380E+02  0.10012396344E+03  0.47000000000E+01 0. -1.
         -5    1    3    3    0  502  0.36203164601E+02  0.30531711145E+02 -0.10101377071E+03  0.11166345144E+03  0.47000000000E+01 0. -1.
        -11    1    1    2    0    0  0.16339759774E-01  0.40611844207E+02 -0.12975700682E+03  0.13596397675E+03  0.00000000000E+00 0. -1.
         11    1    1    2    0    0  0.79131073172E+01 -0.11773472931E+02  0.10100321964E+02  0.17414029863E+02  0.00000000000E+00 0.  1.
<mgrwt>
<rscale>  0 0.11947836E+03</rscale>
<asrwt>0</asrwt>
<pdfrwt beam="2">  1        2 0.50241754E-01 0.12853812E+03</pdfrwt>
<pdfrwt beam="1">  1       -2 0.59375406E-02 0.12853812E+03</pdfrwt>
<totfact> 0.14047348E+04</totfact>
</mgrwt>
</event>
<event>
 7    1  0.6008063E-006  0.2440748E+03  0.7546771E-02  0.1120140E+00
         -2   -1    0    0    0  501 -0.00000000000E+00  0.00000000000E+00  0.25033866343E+02  0.25033866343E+02  0.00000000000E+00 0.  1.
          2   -1    0    0  501    0  0.00000000000E+00 -0.00000000000E+00 -0.22851517952E+04  0.22851517952E+04  0.00000000000E+00 0. -1.
         23    2    1    2    0    0  0.13798962032E+03  0.15781226799E+03 -0.13827535049E+04  0.14041295335E+04  0.12500657716E+03 0.  0.
          5    1    3    3  502    0  0.37992809561E+01  0.12448851905E+01 -0.94790139836E-01  0.61711635930E+01  0.47000000000E+01 0. -1.
         -5    1    3    3    0  502  0.13419033936E+03  0.15656738280E+03 -0.13826587147E+04  0.13979583699E+04  0.47000000000E+01 0. -1.
        -11    1    1    2    0    0 -0.45459633279E+02 -0.52367618384E+02 -0.14956358866E+03  0.16485815953E+03  0.00000000000E+00 0.  1.
         11    1    1    2    0    0 -0.92529987042E+02 -0.10544464961E+03 -0.72780083536E+03  0.74119796856E+03  0.00000000000E+00 0. -1.
<mgrwt>
<rscale>  0 0.23947955E+03</rscale>
<asrwt>0</asrwt>
<pdfrwt beam="2">  1        2 0.35156191E+00 0.24407477E+03</pdfrwt>
<pdfrwt beam="1">  1       -2 0.38513630E-02 0.24407477E+03</pdfrwt>
<totfact> 0.15299295E+03</totfact>
</mgrwt>
</event>
<event>
 7    1  0.6008063E-006  0.1263001E+03  0.7546771E-02  0.1250921E+00
          2   -1    0    0  501    0  0.00000000000E+00  0.00000000000E+00  0.66668098420E+03  0.66668098420E+03  0.00000000000E+00 0. -1.
         -2   -1    0    0    0  501 -0.00000000000E+00 -0.00000000000E+00 -0.17541048399E+02  0.17541048399E+02  0.00000000000E+00 0.  1.
         23    2    1    2    0    0 -0.15974558935E+02 -0.84838255143E+01  0.42745300604E+03  0.44572164563E+03  0.12499820472E+03 0.  0.
          5    1    3    3  502    0 -0.30325046752E+02 -0.16338754458E+02  0.42728748963E+03  0.42869948933E+03  0.47000000000E+01 0. -1.
         -5    1    3    3    0  502  0.14350487818E+02  0.78549289437E+01  0.16551640628E+00  0.17022156297E+02  0.47000000000E+01 0. -1.
        -11    1    1    2    0    0 -0.28340885798E+02  0.25270550141E+02  0.70699231266E+02  0.80250780768E+02  0.00000000000E+00 0.  1.
         11    1    1    2    0    0  0.44315444733E+02 -0.16786724627E+02  0.15098769850E+03  0.15824960620E+03  0.00000000000E+00 0. -1.
<mgrwt>
<rscale>  0 0.11537898E+03</rscale>
<asrwt>0</asrwt>
<pdfrwt beam="1">  1        2 0.10256629E+00 0.12630009E+03</pdfrwt>
<pdfrwt beam="2">  1       -2 0.26986234E-02 0.12630009E+03</pdfrwt>
<totfact> 0.20729224E+04</totfact>
</mgrwt>
</event>
<event>
 7    1  0.6008063E-006  0.3082010E+03  0.7546771E-02  0.1082700E+00
          2   -1    0    0  501    0  0.00000000000E+00  0.00000000000E+00  0.13657534914E+04  0.13657534914E+04  0.00000000000E+00 0. -1.
         -2   -1    0    0    0  501 -0.00000000000E+00 -0.00000000000E+00 -0.67499505540E+02  0.67499505540E+02  0.00000000000E+00 0.  1.
         23    2    1    2    0    0 -0.18729590542E+03  0.21044442028E+03  0.73210135917E+03  0.79433006813E+03  0.12498498638E+03 0.  0.
          5    1    3    3  502    0 -0.59509314635E+02 -0.44246888311E+00  0.11058024132E+03  0.12566476864E+03  0.47000000000E+01 0. -1.
         -5    1    3    3    0  502 -0.12778659079E+03  0.21088688916E+03  0.62152111785E+03  0.66866529949E+03  0.47000000000E+01 0. -1.
        -11    1    1    2    0    0 -0.42514244752E+01 -0.25654492455E+02  0.26077127115E+02  0.36827220256E+02  0.00000000000E+00 0. -1.
         11    1    1    2    0    0  0.19154732990E+03 -0.18478992783E+03  0.54007549956E+03  0.60209570854E+03  0.00000000000E+00 0.  1.
<mgrwt>
<rscale>  0 0.30513821E+03</rscale>
<asrwt>0</asrwt>
<pdfrwt beam="1">  1        2 0.21011590E+00 0.30820100E+03</pdfrwt>
<pdfrwt beam="2">  1       -2 0.10384540E-01 0.30820100E+03</pdfrwt>
<totfact> 0.10072713E+03</totfact>
</mgrwt>
</event>
<event>
 7    1  0.6008063E-006  0.1368457E+03  0.7546771E-02  0.1229475E+00
         -2   -1    0    0    0  501 -0.00000000000E+00  0.00000000000E+00  0.52708330276E+02  0.52708330276E+02  0.00000000000E+00 0.  1.
          2   -1    0    0  501    0  0.00000000000E+00 -0.00000000000E+00 -0.29857371977E+03  0.29857371977E+03  0.00000000000E+00 0. -1.
         23    2    1    2    0    0 -0.51318336174E+02  0.21663907573E+02 -0.17856670866E+03  0.22497294448E+03  0.12499543907E+03 0.  0.
          5    1    3    3  502    0 -0.26923293818E+02  0.23246857411E+02  0.79931661548E+01  0.36759499924E+02  0.47000000000E+01 0.  1.
         -5    1    3    3    0  502 -0.24395042356E+02 -0.15829498374E+01 -0.18655987481E+03  0.18821344456E+03  0.47000000000E+01 0.  1.
        -11    1    1    2    0    0 -0.13159399523E+02 -0.55242749005E+01  0.14878134016E+02  0.20616650571E+02  0.00000000000E+00 0.  1.
         11    1    1    2    0    0  0.64477735697E+02 -0.16139632673E+02 -0.82176814853E+02  0.10569245500E+03  0.00000000000E+00 0. -1.
<mgrwt>
<rscale>  0 0.12864855E+03</rscale>
<asrwt>0</asrwt>
<pdfrwt beam="2">  1        2 0.45934420E-01 0.13684574E+03</pdfrwt>
<pdfrwt beam="1">  1       -2 0.81089737E-02 0.13684574E+03</pdfrwt>
<totfact> 0.96376727E+03</totfact>
</mgrwt>
</event>
<event>
 7    1  0.6008063E-006  0.1266268E+03  0.7546771E-02  0.1248819E+00
         -1   -1    0    0    0  501 -0.00000000000E+00  0.00000000000E+00  0.55858942741E+02  0.55858942741E+02  0.00000000000E+00 0.  1.
          1   -1    0    0  501    0  0.00000000000E+00 -0.00000000000E+00 -0.21899334820E+03  0.21899334820E+03  0.00000000000E+00 0. -1.
         23    2    1    2    0    0  0.14910468494E+02 -0.13628415069E+02 -0.11868460501E+03  0.17355223389E+03  0.12500514651E+03 0.  0.
          5    1    3    3  502    0  0.58613661152E+02  0.11289061740E+02 -0.10554355054E+03  0.12134469601E+03  0.47000000000E+01 0.  1.
         -5    1    3    3    0  502 -0.43703192659E+02 -0.24917476809E+02 -0.13141054463E+02  0.52207537880E+02  0.47000000000E+01 0.  1.
        -11    1    1    2    0    0 -0.23648595441E+02  0.23083358052E+02 -0.67354619608E+02  0.75024944304E+02  0.00000000000E+00 0. -1.
         11    1    1    2    0    0  0.87381269472E+01 -0.94549429826E+01  0.22904819154E+02  0.26275112747E+02  0.00000000000E+00 0.  1.
<mgrwt>
<rscale>  0 0.11659683E+03</rscale>
<asrwt>0</asrwt>
<pdfrwt beam="2">  1        1 0.33691285E-01 0.12662678E+03</pdfrwt>
<pdfrwt beam="1">  1       -1 0.85936834E-02 0.12662678E+03</pdfrwt>
<totfact> 0.94613047E+03</totfact>
</mgrwt>
</event>
<event>
 7    1  0.6008063E-006  0.1612800E+03  0.7546771E-02  0.1190970E+00
          1   -1    0    0  501    0  0.00000000000E+00  0.00000000000E+00  0.84433916959E+02  0.84433916959E+02  0.00000000000E+00 0. -1.
         -1   -1    0    0    0  501 -0.00000000000E+00 -0.00000000000E+00 -0.31371020416E+03  0.31371020416E+03  0.00000000000E+00 0.  1.
         23    2    1    2    0    0  0.29063315958E+02  0.97613145609E+02 -0.57951517548E+02  0.17137568004E+03  0.12505295995E+03 0.  0.
          5    1    3    3  502    0  0.43427832865E+02  0.11443158858E+03 -0.15744219021E+02  0.12349305878E+03  0.47000000000E+01 0.  1.
         -5    1    3    3    0  502 -0.14364516908E+02 -0.16818442975E+02 -0.42207298528E+02  0.47882621264E+02  0.47000000000E+01 0.  1.
        -11    1    1    2    0    0 -0.45413782406E+02 -0.11288706882E+03 -0.16180697152E+03  0.20245344643E+03  0.00000000000E+00 0.  1.
         11    1    1    2    0    0  0.16350466448E+02  0.15273923212E+02 -0.95177981327E+01  0.24314994647E+02  0.00000000000E+00 0. -1.
<mgrwt>
<rscale>  0 0.15800289E+03</rscale>
<asrwt>0</asrwt>
<pdfrwt beam="1">  1        1 0.12989833E-01 0.16128002E+03</pdfrwt>
<pdfrwt beam="2">  1       -1 0.48263109E-01 0.16128002E+03</pdfrwt>
<totfact> 0.19405886E+03</totfact>
</mgrwt>
</event>
<event>
 7    1  0.6008063E-006  0.2375990E+03  0.7546771E-02  0.1124112E+00
         -2   -1    0    0    0  501 -0.00000000000E+00  0.00000000000E+00  0.27761532810E+03  0.27761532810E+03  0.00000000000E+00 0.  1.
          2   -1    0    0  501    0  0.00000000000E+00 -0.00000000000E+00 -0.21927984652E+03  0.21927984652E+03  0.00000000000E+00 0. -1.
         23    2    1    2    0    0 -0.19511039399E+03  0.52552748351E+02 -0.60242945350E+02  0.24511732785E+03  0.12499373883E+03 0.  0.
          5    1    3    3  502    0 -0.37389679110E+02  0.51197912136E+02 -0.59862633092E+02  0.87320324964E+02  0.47000000000E+01 0. -1.
         -5    1    3    3    0  502 -0.15772071488E+03  0.13548362144E+01 -0.38031225745E+00  0.15779700289E+03  0.47000000000E+01 0. -1.
        -11    1    1    2    0    0  0.14294737833E+03 -0.23600264246E+02  0.34929302815E+02  0.14903349167E+03  0.00000000000E+00 0. -1.
         11    1    1    2    0    0  0.52163015656E+02 -0.28952484105E+02  0.83649124118E+02  0.10274435509E+03  0.00000000000E+00 0.  1.
<mgrwt>
<rscale>  0 0.23362738E+03</rscale>
<asrwt>0</asrwt>
<pdfrwt beam="2">  1        2 0.33735361E-01 0.23759902E+03</pdfrwt>
<pdfrwt beam="1">  1       -2 0.42710050E-01 0.23759902E+03</pdfrwt>
<totfact> 0.80840403E+02</totfact>
</mgrwt>
</event>
<event>
 7    1  0.6008063E-006  0.1307088E+03  0.7546771E-02  0.1240673E+00
         -2   -1    0    0    0  501 -0.00000000000E+00  0.00000000000E+00  0.54791486532E+02  0.54791486532E+02  0.00000000000E+00 0.  1.
          2   -1    0    0  501    0  0.00000000000E+00 -0.00000000000E+00 -0.30221437642E+03  0.30221437642E+03  0.00000000000E+00 0. -1.
         23    2    1    2    0    0 -0.37880851648E+02  0.50752201249E+01 -0.21965371559E+03  0.25560230648E+03  0.12499627004E+03 0.  0.
          5    1    3    3  502    0 -0.70294134082E+02 -0.29362978459E+02 -0.17260404685E+03  0.18872651319E+03  0.47000000000E+01 0.  1.
         -5    1    3    3    0  502  0.32413282434E+02  0.34438198584E+02 -0.47049668735E+02  0.66875793288E+02  0.47000000000E+01 0.  1.
        -11    1    1    2    0    0  0.57246321509E+02  0.15599362025E+02  0.32162445982E+01  0.59420751016E+02  0.00000000000E+00 0.  1.
         11    1    1    2    0    0 -0.19365469861E+02 -0.20674582150E+02 -0.30985418905E+02  0.41982805466E+02  0.00000000000E+00 0. -1.
<mgrwt>
<rscale>  0 0.12148146E+03</rscale>
<asrwt>0</asrwt>
<pdfrwt beam="2">  1        2 0.46494518E-01 0.13070878E+03</pdfrwt>
<pdfrwt beam="1">  1       -2 0.84294597E-02 0.13070878E+03</pdfrwt>
<totfact> 0.89311365E+03</totfact>
</mgrwt>
</event>
<event>
 7    1  0.6008063E-006  0.1394642E+03  0.7546771E-02  0.1225823E+00
          2   -1    0    0  501    0  0.00000000000E+00  0.00000000000E+00  0.50181276421E+03  0.50181276421E+03  0.00000000000E+00 0. -1.
         -2   -1    0    0    0  501 -0.00000000000E+00 -0.00000000000E+00 -0.35429452251E+02  0.35429452251E+02  0.00000000000E+00 0.  1.
         23    2    1    2    0    0  0.13861409723E+02  0.60271806611E+02  0.35519607623E+03  0.38159469417E+03  0.12500171479E+03 0.  0.
          5    1    3    3  502    0  0.15446928583E+02  0.98653767212E+02  0.23687432869E+03  0.25710447484E+03  0.47000000000E+01 0.  1.
         -5    1    3    3    0  502 -0.15855188597E+01 -0.38381960601E+02  0.11832174753E+03  0.12449021933E+03  0.47000000000E+01 0.  1.
        -11    1    1    2    0    0 -0.18300986454E+02 -0.73216939457E+02  0.44588356935E+02  0.87657104121E+02  0.00000000000E+00 0.  1.
         11    1    1    2    0    0  0.44395767312E+01  0.12945132846E+02  0.66598878801E+02  0.67990418174E+02  0.00000000000E+00 0. -1.
<mgrwt>
<rscale>  0 0.13110639E+03</rscale>
<asrwt>0</asrwt>
<pdfrwt beam="1">  1        2 0.77201958E-01 0.13946418E+03</pdfrwt>
<pdfrwt beam="2">  1       -2 0.54506853E-02 0.13946418E+03</pdfrwt>
<totfact> 0.10145500E+04</totfact>
</mgrwt>
</event>
<event>
 7    1  0.6008063E-006  0.2453383E+03  0.7546771E-02  0.1118963E+00
         -2   -1    0    0    0  501 -0.00000000000E+00  0.00000000000E+00  0.21619621637E+03  0.21619621637E+03  0.00000000000E+00 0.  1.
          2   -1    0    0  501    0  0.00000000000E+00 -0.00000000000E+00 -0.30878335548E+03  0.30878335548E+03  0.00000000000E+00 0. -1.
         23    2    1    2    0    0  0.14495816771E+03 -0.15346858781E+03 -0.15124179716E+03  0.28820991946E+03  0.12500159453E+03 0.  0.
          5    1    3    3  502    0 -0.41165960911E+01 -0.77193351935E+02 -0.55272635933E+02  0.95146803569E+02  0.47000000000E+01 0.  1.
         -5    1    3    3    0  502  0.14907476380E+03 -0.76275235872E+02 -0.95969161226E+02  0.19306311589E+03  0.47000000000E+01 0.  1.
        -11    1    1    2    0    0 -0.54212282011E+02  0.11372099319E+02  0.37396238210E+02  0.66833934465E+02  0.00000000000E+00 0. -1.
         11    1    1    2    0    0 -0.90745885702E+02  0.14209648849E+03  0.21258419841E+02  0.16993571792E+03  0.00000000000E+00 0.  1.
<mgrwt>
<rscale>  0 0.24125001E+03</rscale>
<asrwt>0</asrwt>
<pdfrwt beam="2">  1        2 0.47505131E-01 0.24533829E+03</pdfrwt>
<pdfrwt beam="1">  1       -2 0.33260957E-01 0.24533829E+03</pdfrwt>
<totfact> 0.89608982E+02</totfact>
</mgrwt>
</event>
<event>
 7    1  0.6008063E-006  0.1559689E+03  0.7546771E-02  0.1201844E+00
          2   -1    0    0  501    0  0.00000000000E+00  0.00000000000E+00  0.56843124821E+03  0.56843124821E+03  0.00000000000E+00 0. -1.
         -2   -1    0    0    0  501 -0.00000000000E+00 -0.00000000000E+00 -0.70743159826E+02  0.70743159826E+02  0.00000000000E+00 0.  1.
         23    2    1    2    0    0 -0.30795956775E+02  0.88050307328E+02  0.48449622612E+03  0.50898220506E+03  0.12500017749E+03 0.  0.
          5    1    3    3  502    0  0.32234482905E+01 -0.85494653752E+01 -0.30935716355E+01  0.10730524803E+02  0.47000000000E+01 0.  1.
         -5    1    3    3    0  502 -0.34019405065E+02  0.96599772704E+02  0.48758979776E+03  0.49825168026E+03  0.47000000000E+01 0.  1.
        -11    1    1    2    0    0  0.20597363919E+02 -0.77431150597E+02  0.47298779766E+02  0.93043049448E+02  0.00000000000E+00 0. -1.
         11    1    1    2    0    0  0.10198592856E+02 -0.10619156731E+02 -0.34106917503E+02  0.37149153523E+02  0.00000000000E+00 0.  1.
<mgrwt>
<rscale>  0 0.14888964E+03</rscale>
<asrwt>0</asrwt>
<pdfrwt beam="1">  1        2 0.87450958E-01 0.15596888E+03</pdfrwt>
<pdfrwt beam="2">  1       -2 0.10883563E-01 0.15596888E+03</pdfrwt>
<totfact> 0.30508694E+03</totfact>
</mgrwt>
</event>
<event>
 7    1  0.6008063E-006  0.1594224E+03  0.7546771E-02  0.1198502E+00
         -2   -1    0    0    0  501 -0.00000000000E+00  0.00000000000E+00  0.14808526473E+03  0.14808526473E+03  0.00000000000E+00 0.  1.
          2   -1    0    0  501    0  0.00000000000E+00 -0.00000000000E+00 -0.14240107868E+03  0.14240107868E+03  0.00000000000E+00 0. -1.
         23    2    1    2    0    0  0.87660616639E+02 -0.45895691993E+02 -0.61189516730E+01  0.15953975062E+03  0.12499876881E+03 0.  0.
          5    1    3    3  502    0  0.58296316925E+01  0.29018334205E+02 -0.33725158908E+02  0.45116789215E+02  0.47000000000E+01 0. -1.
         -5    1    3    3    0  502  0.81830984947E+02 -0.74914026198E+02  0.27606207235E+02  0.11442296140E+03  0.47000000000E+01 0. -1.
        -11    1    1    2    0    0 -0.22097814013E+02 -0.16017831032E+02 -0.21575899335E+02  0.34790856949E+02  0.00000000000E+00 0.  1.
         11    1    1    2    0    0 -0.65562802626E+02  0.61913523025E+02  0.33379037054E+02  0.96155735846E+02  0.00000000000E+00 0. -1.
<mgrwt>
<rscale>  0 0.15161516E+03</rscale>
<asrwt>0</asrwt>
<pdfrwt beam="2">  1        2 0.21907858E-01 0.15942236E+03</pdfrwt>
<pdfrwt beam="1">  1       -2 0.22782348E-01 0.15942236E+03</pdfrwt>
<totfact> 0.40520018E+03</totfact>
</mgrwt>
</event>
<event>
 7    1  0.6008063E-006  0.1310431E+03  0.7546771E-02  0.1239648E+00
         -2   -1    0    0    0  501 -0.00000000000E+00  0.00000000000E+00  0.76630802865E+02  0.76630802865E+02  0.00000000000E+00 0. -1.
          2   -1    0    0  501    0  0.00000000000E+00 -0.00000000000E+00 -0.59083860898E+03  0.59083860898E+03  0.00000000000E+00 0.  1.
         23    2    1    2    0    0  0.10940765159E+02 -0.37787274196E+02 -0.54767839763E+03  0.56313757508E+03  0.12499889122E+03 0.  0.
          5    1    3    3  502    0 -0.40336897360E+02 -0.58876467447E+02 -0.37351370778E+03  0.38029999159E+03  0.47000000000E+01 0. -1.
         -5    1    3    3    0  502  0.51277662519E+02  0.21089193251E+02 -0.17416468985E+03  0.18283758349E+03  0.47000000000E+01 0. -1.
        -11    1    1    2    0    0 -0.15725376923E+02  0.55877026462E+02 -0.82274442038E+01  0.58627812544E+02  0.00000000000E+00 0.  1.
         11    1    1    2    0    0  0.47846117643E+01 -0.18089752266E+02  0.41698035720E+02  0.45704024217E+02  0.00000000000E+00 0. -1.
<mgrwt>
<rscale>  0 0.12211497E+03</rscale>
<asrwt>0</asrwt>
<pdfrwt beam="2">  1        2 0.90898244E-01 0.13104313E+03</pdfrwt>
<pdfrwt beam="1">  1       -2 0.11789355E-01 0.13104313E+03</pdfrwt>
<totfact> 0.25566327E+03</totfact>
</mgrwt>
</event>
<event>
 7    1  0.6008063E-006  0.2296501E+03  0.7546771E-02  0.1130293E+00
         -2   -1    0    0    0  501 -0.00000000000E+00  0.00000000000E+00  0.58777017750E+02  0.58777017750E+02  0.00000000000E+00 0. -1.
          2   -1    0    0  501    0  0.00000000000E+00 -0.00000000000E+00 -0.91247285501E+03  0.91247285501E+03  0.00000000000E+00 0.  1.
         23    2    1    2    0    0  0.12328977283E+03 -0.14802922031E+03 -0.29413878001E+03  0.37317123437E+03  0.12500452033E+03 0.  0.
          5    1    3    3  502    0  0.26811910535E+01  0.19000869606E+02 -0.49536905202E+02  0.53331199201E+02  0.47000000000E+01 0.  1.
         -5    1    3    3    0  502  0.12060858177E+03 -0.16703008992E+03 -0.24460187481E+03  0.31984003516E+03  0.47000000000E+01 0.  1.
        -11    1    1    2    0    0 -0.39086144572E+02  0.32792021958E+02 -0.61148854717E+02  0.79638092862E+02  0.00000000000E+00 0. -1.
         11    1    1    2    0    0 -0.84203628253E+02  0.11523719836E+03 -0.49840820253E+03  0.51844054553E+03  0.00000000000E+00 0.  1.
<mgrwt>
<rscale>  0 0.22488445E+03</rscale>
<asrwt>0</asrwt>
<pdfrwt beam="2">  1        2 0.14038044E+00 0.22965006E+03</pdfrwt>
<pdfrwt beam="1">  1       -2 0.90426184E-02 0.22965006E+03</pdfrwt>
<totfact> 0.23157381E+03</totfact>
</mgrwt>
</event>
<event>
 7    1  0.6008063E-006  0.1764851E+03  0.7546771E-02  0.1177826E+00
          1   -1    0    0  501    0  0.00000000000E+00  0.00000000000E+00  0.55002436446E+03  0.55002436446E+03  0.00000000000E+00 0. -1.
         -1   -1    0    0    0  501 -0.00000000000E+00 -0.00000000000E+00 -0.69571135403E+02  0.69571135403E+02  0.00000000000E+00 0.  1.
         23    2    1    2    0    0  0.11872356472E+03  0.37741615918E+02  0.42076970377E+03  0.45628293497E+03  0.12500903464E+03 0.  0.
          5    1    3    3  502    0  0.12028880036E+03  0.63728899280E+01  0.40133923792E+03  0.41905284047E+03  0.47000000000E+01 0.  1.
         -5    1    3    3    0  502 -0.15652356408E+01  0.31368725990E+02  0.19430465853E+02  0.37230094495E+02  0.47000000000E+01 0.  1.
        -11    1    1    2    0    0 -0.74802035304E+02  0.20493944142E+02  0.19242066699E+02  0.79909970360E+02  0.00000000000E+00 0.  1.
         11    1    1    2    0    0 -0.43921529420E+02 -0.58235560060E+02  0.40441458590E+02  0.83402594534E+02  0.00000000000E+00 0. -1.
<mgrwt>
<rscale>  0 0.17002128E+03</rscale>
<asrwt>0</asrwt>
<pdfrwt beam="1">  1        1 0.84619130E-01 0.17648505E+03</pdfrwt>
<pdfrwt beam="2">  1       -1 0.10703252E-01 0.17648505E+03</pdfrwt>
<totfact> 0.21509202E+03</totfact>
</mgrwt>
</event>
<event>
 7    1  0.6008063E-006  0.1823384E+03  0.7546771E-02  0.1171320E+00
          2   -1    0    0  501    0  0.00000000000E+00  0.00000000000E+00  0.72712088969E+03  0.72712088969E+03  0.00000000000E+00 0. -1.
         -2   -1    0    0    0  501 -0.00000000000E+00 -0.00000000000E+00 -0.42656652957E+02  0.42656652957E+02  0.00000000000E+00 0.  1.
         23    2    1    2    0    0 -0.31817512281E+00 -0.13274466750E+03  0.45496212518E+03  0.49014061733E+03  0.12500416565E+03 0.  0.
          5    1    3    3  502    0 -0.19742457569E+02 -0.15132509450E+03  0.41048090746E+03  0.43795629262E+03  0.47000000000E+01 0. -1.
         -5    1    3    3    0  502  0.19424282447E+02  0.18580427001E+02  0.44481217713E+02  0.52184324709E+02  0.47000000000E+01 0. -1.
        -11    1    1    2    0    0 -0.24050265949E+02  0.37780690769E+02  0.21483446039E+02  0.49672269335E+02  0.00000000000E+00 0.  1.
         11    1    1    2    0    0  0.24368441072E+02  0.94963976729E+02  0.20801866552E+03  0.22996465598E+03  0.00000000000E+00 0. -1.
<mgrwt>
<rscale>  0 0.17641299E+03</rscale>
<asrwt>0</asrwt>
<pdfrwt beam="1">  1        2 0.11186474E+00 0.18233839E+03</pdfrwt>
<pdfrwt beam="2">  1       -2 0.65625625E-02 0.18233839E+03</pdfrwt>
<totfact> 0.50641275E+03</totfact>
</mgrwt>
</event>
<event>
 7    1  0.6008063E-006  0.1327368E+03  0.7546771E-02  0.1235773E+00
         -3   -1    0    0    0  501 -0.00000000000E+00  0.00000000000E+00  0.25800240720E+03  0.25800240720E+03  0.00000000000E+00 0.  1.
          3   -1    0    0  501    0  0.00000000000E+00 -0.00000000000E+00 -0.81584743163E+02  0.81584743163E+02  0.00000000000E+00 0. -1.
         23    2    1    2    0    0  0.37018242669E+02  0.24966347462E+02 -0.29835030516E+01  0.13277035494E+03  0.12500158825E+03 0.  0.
          5    1    3    3  502    0 -0.38338394213E+02 -0.52787031626E+01  0.25508992854E+02  0.46588581158E+02  0.47000000000E+01 0.  1.
         -5    1    3    3    0  502  0.75356636882E+02  0.30245050625E+02 -0.28492495906E+02  0.86181773783E+02  0.47000000000E+01 0.  1.
        -11    1    1    2    0    0 -0.56865106512E+02  0.48479681232E+01  0.14996121320E+03  0.16045407006E+03  0.00000000000E+00 0. -1.
         11    1    1    2    0    0  0.19846863843E+02 -0.29814315585E+02  0.29439953890E+02  0.46362725365E+02  0.00000000000E+00 0.  1.
<mgrwt>
<rscale>  0 0.12455106E+03</rscale>
<asrwt>0</asrwt>
<pdfrwt beam="2">  1        3 0.12551499E-01 0.13273683E+03</pdfrwt>
<pdfrwt beam="1">  1       -3 0.39692678E-01 0.13273683E+03</pdfrwt>
<totfact> 0.73144735E+02</totfact>
</mgrwt>
</event>
<event>
 7    1  0.6008063E-006  0.1460241E+03  0.7546771E-02  0.1215883E+00
         -2   -1    0    0    0  501 -0.00000000000E+00  0.00000000000E+00  0.19156685126E+02  0.19156685126E+02  0.00000000000E+00 0.  1.
          2   -1    0    0  501    0  0.00000000000E+00 -0.00000000000E+00 -0.90308234290E+03  0.90308234290E+03  0.00000000000E+00 0. -1.
         23    2    1    2    0    0  0.38678305583E+02 -0.64809042561E+02 -0.50664462237E+03  0.52726825424E+03  0.12500726072E+03 0.  0.
          5    1    3    3  502    0 -0.88635409603E+00 -0.34472852135E+02 -0.24575893897E+02  0.42605489303E+02  0.47000000000E+01 0. -1.
         -5    1    3    3    0  502  0.39564659679E+02 -0.30336190427E+02 -0.48206872847E+03  0.48466276494E+03  0.47000000000E+01 0. -1.
        -11    1    1    2    0    0 -0.50909194602E+02  0.27651075061E+02 -0.32246339685E+03  0.32762626628E+03  0.00000000000E+00 0. -1.
         11    1    1    2    0    0  0.12230889019E+02  0.37157967500E+02 -0.54817638559E+02  0.67344507513E+02  0.00000000000E+00 0.  1.
<mgrwt>
<rscale>  0 0.13811901E+03</rscale>
<asrwt>0</asrwt>
<pdfrwt beam="2">  1        2 0.13893575E+00 0.14602410E+03</pdfrwt>
<pdfrwt beam="1">  1       -2 0.29471822E-02 0.14602410E+03</pdfrwt>
<totfact> 0.12664684E+04</totfact>
</mgrwt>
</event>
<event>
 7    1  0.6008063E-006  0.1420843E+03  0.7546771E-02  0.1221511E+00
          3   -1    0    0  501    0  0.00000000000E+00  0.00000000000E+00  0.47486031317E+03  0.47486031317E+03  0.00000000000E+00 0. -1.
         -3   -1    0    0    0  501 -0.00000000000E+00 -0.00000000000E+00 -0.35256838319E+02  0.35256838319E+02  0.00000000000E+00 0.  1.
         23    2    1    2    0    0  0.50748062509E+02  0.44573846201E+02  0.28872119870E+03  0.32178854356E+03  0.12500297025E+03 0.  0.
          5    1    3    3  502    0 -0.20372243150E+02  0.28010263683E+02  0.21533833253E+03  0.21815657363E+03  0.47000000000E+01 0. -1.
         -5    1    3    3    0  502  0.71120305659E+02  0.16563582518E+02  0.73382866171E+02  0.10363196992E+03  0.47000000000E+01 0. -1.
        -11    1    1    2    0    0 -0.40403042223E+01 -0.14828626075E+02 -0.98972363364E+01  0.18280248811E+02  0.00000000000E+00 0.  1.
         11    1    1    2    0    0 -0.46707758287E+02 -0.29745220126E+02  0.16077951248E+03  0.17004835912E+03  0.00000000000E+00 0. -1.
<mgrwt>
<rscale>  0 0.13408937E+03</rscale>
<asrwt>0</asrwt>
<pdfrwt beam="1">  1        3 0.73055428E-01 0.14208426E+03</pdfrwt>
<pdfrwt beam="2">  1       -3 0.54241293E-02 0.14208426E+03</pdfrwt>
<totfact> 0.84643705E+02</totfact>
</mgrwt>
</event>
<event>
 6    1  0.6008063E-006  0.1621194E+03  0.7546771E-02  0.1203508E+00
          2   -1    0    0  501    0  0.00000000000E+00  0.00000000000E+00  0.75888194439E+03  0.75888194439E+03  0.00000000000E+00 0. -1.
         -2   -1    0    0    0  501 -0.00000000000E+00 -0.00000000000E+00 -0.24843073055E+02  0.24843073055E+02  0.00000000000E+00 0.  1.
          5    1    1    2  502    0 -0.94888472128E+02  0.29619508821E+02  0.40393413513E+03  0.41601203465E+03  0.47000000000E+01 0. -1.
         -5    1    1    2    0  502  0.29604704865E+02 -0.36728683323E+02  0.67236828149E+02  0.82269774451E+02  0.47000000000E+01 0.  1.
        -11    1    1    2    0    0  0.87941107900E+02  0.37281328310E+01  0.21702512466E+03  0.23419530774E+03  0.00000000000E+00 0.  1.
         11    1    1    2    0    0 -0.22657340636E+02  0.33810416711E+01  0.45842783388E+02  0.51247900604E+02  0.00000000000E+00 0. -1.
<mgrwt>
<rscale>  0 0.14755663E+03</rscale>
<asrwt>0</asrwt>
<pdfrwt beam="1">  1        2 0.11675105E+00 0.16211935E+03</pdfrwt>
<pdfrwt beam="2">  1       -2 0.38220118E-02 0.16211935E+03</pdfrwt>
<totfact> 0.10816395E+04</totfact>
</mgrwt>
</event>
<event>
 7    1  0.6008063E-006  0.1339320E+03  0.7546771E-02  0.1235499E+00
         -1   -1    0    0    0  501 -0.00000000000E+00  0.00000000000E+00  0.51861765829E+03  0.51861765829E+03  0.00000000000E+00 0.  1.
          1   -1    0    0  501    0  0.00000000000E+00 -0.00000000000E+00 -0.27514986562E+02  0.27514986562E+02  0.00000000000E+00 0. -1.
         23    2    1    2    0    0  0.19906367775E+02  0.43770486609E+02  0.22829415416E+03  0.26468095510E+03  0.12500267274E+03 0.  0.
          5    1    3    3  502    0  0.35103707671E+02  0.22586596585E+02  0.23386698693E+03  0.23760951625E+03  0.47000000000E+01 0.  1.
         -5    1    3    3    0  502 -0.15197339896E+02  0.21183890024E+02 -0.55728327661E+01  0.27071438852E+02  0.47000000000E+01 0.  1.
        -11    1    1    2    0    0 -0.45471934820E+02  0.92717881230E+00  0.16186286602E+03  0.16813132936E+03  0.00000000000E+00 0.  1.
         11    1    1    2    0    0  0.25565567046E+02 -0.44697665422E+02  0.10094565155E+03  0.11332036039E+03  0.00000000000E+00 0. -1.
<mgrwt>
<rscale>  0 0.12472518E+03</rscale>
<asrwt>0</asrwt>
<pdfrwt beam="2">  1        1 0.42330752E-02 0.13393202E+03</pdfrwt>
<pdfrwt beam="1">  1       -1 0.79787325E-01 0.13393202E+03</pdfrwt>
<totfact> 0.33116963E+03</totfact>
</mgrwt>
</event>
<event>
 7    1  0.6008063E-006  0.1298073E+03  0.7546771E-02  0.1241622E+00
         -2   -1    0    0    0  501 -0.00000000000E+00  0.00000000000E+00  0.11229053094E+03  0.11229053094E+03  0.00000000000E+00 0.  1.
          2   -1    0    0  501    0  0.00000000000E+00 -0.00000000000E+00 -0.11564953097E+03  0.11564953097E+03  0.00000000000E+00 0. -1.
         23    2    1    2    0    0 -0.30225515498E+02  0.17579525554E+02 -0.88599963348E+01  0.13010927980E+03  0.12500921425E+03 0.  0.
          5    1    3    3  502    0 -0.55305890325E+02 -0.31078277148E+02  0.21732791221E+02  0.67223545201E+02  0.47000000000E+01 0.  1.
         -5    1    3    3    0  502  0.25080374827E+02  0.48657802702E+02 -0.30592787556E+02  0.62885734596E+02  0.47000000000E+01 0.  1.
        -11    1    1    2    0    0  0.92790201396E+01 -0.98002856155E+01 -0.42657253962E+02  0.44741335792E+02  0.00000000000E+00 0. -1.
         11    1    1    2    0    0  0.20946495358E+02 -0.77792399382E+01  0.48158250272E+02  0.53089446325E+02  0.00000000000E+00 0.  1.
<mgrwt>
<rscale>  0 0.12089858E+03</rscale>
<asrwt>0</asrwt>
<pdfrwt beam="2">  1        2 0.17792236E-01 0.12980726E+03</pdfrwt>
<pdfrwt beam="1">  1       -2 0.17275466E-01 0.12980726E+03</pdfrwt>
<totfact> 0.80856031E+03</totfact>
</mgrwt>
</event>
<event>
 7    1  0.6008063E-006  0.1302224E+03  0.7546771E-02  0.1240686E+00
         -1   -1    0    0    0  501 -0.00000000000E+00  0.00000000000E+00  0.53818975037E+03  0.53818975037E+03  0.00000000000E+00 0.  1.
          1   -1    0    0  501    0  0.00000000000E+00 -0.00000000000E+00 -0.25247519816E+02  0.25247519816E+02  0.00000000000E+00 0. -1.
         23    2    1    2    0    0 -0.26153429145E+02  0.25412516054E+02  0.23716362787E+03  0.27056322919E+03  0.12501230652E+03 0.  0.
          5    1    3    3  502    0  0.30710632884E+02  0.56815467122E+02  0.12798992977E+03  0.14343867121E+03  0.47000000000E+01 0.  1.
         -5    1    3    3    0  502 -0.56864062028E+02 -0.31402951068E+02  0.10917369809E+03  0.12712455798E+03  0.47000000000E+01 0.  1.
        -11    1    1    2    0    0  0.25192725370E+02 -0.53883283159E+02  0.11378082463E+03  0.12839064479E+03  0.00000000000E+00 0. -1.
         11    1    1    2    0    0  0.96070377516E+00  0.28470767105E+02  0.16199777805E+03  0.16448339620E+03  0.00000000000E+00 0.  1.
<mgrwt>
<rscale>  0 0.12147312E+03</rscale>
<asrwt>0</asrwt>
<pdfrwt beam="2">  1        1 0.38842342E-02 0.13022240E+03</pdfrwt>
<pdfrwt beam="1">  1       -1 0.82798415E-01 0.13022240E+03</pdfrwt>
<totfact> 0.34480896E+03</totfact>
</mgrwt>
</event>
<event>
 7    1  0.6008063E-006  0.1531587E+03  0.7546771E-02  0.1205248E+00
         -4   -1    0    0    0  501 -0.00000000000E+00  0.00000000000E+00  0.25853141283E+03  0.25853141283E+03  0.00000000000E+00 0.  1.
          4   -1    0    0  501    0  0.00000000000E+00 -0.00000000000E+00 -0.81782963650E+02  0.81782963650E+02  0.00000000000E+00 0. -1.
         23    2    1    2    0    0 -0.12512615501E+02 -0.87611225305E+02  0.50742412321E+02  0.16134552172E+03  0.12500117049E+03 0.  0.
          5    1    3    3  502    0 -0.27567790530E+01 -0.70356395691E+02 -0.31019593680E+02  0.77083898691E+02  0.47000000000E+01 0. -1.
         -5    1    3    3    0  502 -0.97558364482E+01 -0.17254829614E+02  0.81762006001E+02  0.84261623026E+02  0.47000000000E+01 0. -1.
        -11    1    1    2    0    0 -0.38709128575E+02  0.43398432380E+02  0.70939823745E+02  0.91729380032E+02  0.00000000000E+00 0.  1.
         11    1    1    2    0    0  0.51221744076E+02  0.44212792925E+02  0.55066213112E+02  0.87239474728E+02  0.00000000000E+00 0. -1.
<mgrwt>
<rscale>  0 0.14617922E+03</rscale>
<asrwt>0</asrwt>
<pdfrwt beam="2">  1        4 0.12581995E-01 0.15315869E+03</pdfrwt>
<pdfrwt beam="1">  1       -4 0.39774063E-01 0.15315869E+03</pdfrwt>
<totfact> 0.53461776E+02</totfact>
</mgrwt>
</event>
<event>
 7    1  0.6008063E-006  0.2000454E+03  0.7546771E-02  0.1154008E+00
         -2   -1    0    0    0  501 -0.00000000000E+00  0.00000000000E+00  0.79420795769E+02  0.79420795769E+02  0.00000000000E+00 0.  1.
          2   -1    0    0  501    0  0.00000000000E+00 -0.00000000000E+00 -0.58120693654E+03  0.58120693654E+03  0.00000000000E+00 0. -1.
         23    2    1    2    0    0 -0.15570510711E+03 -0.12196207638E+02 -0.41386795342E+03  0.45967905997E+03  0.12500130980E+03 0.  0.
          5    1    3    3  502    0 -0.11189993550E+03 -0.52781008314E+02 -0.35384094893E+03  0.37487722996E+03  0.47000000000E+01 0.  1.
         -5    1    3    3    0  502 -0.43805171615E+02  0.40584800676E+02 -0.60027004491E+02  0.84801830017E+02  0.47000000000E+01 0.  1.
        -11    1    1    2    0    0  0.28823705362E+02  0.41555968363E+01  0.19049861564E+02  0.34799025870E+02  0.00000000000E+00 0.  1.
         11    1    1    2    0    0  0.12688140175E+03  0.80406108018E+01 -0.10696804892E+03  0.16614964647E+03  0.00000000000E+00 0. -1.
<mgrwt>
<rscale>  0 0.19502176E+03</rscale>
<asrwt>0</asrwt>
<pdfrwt beam="2">  1        2 0.89416450E-01 0.20004538E+03</pdfrwt>
<pdfrwt beam="1">  1       -2 0.12218584E-01 0.20004538E+03</pdfrwt>
<totfact> 0.24902673E+03</totfact>
</mgrwt>
</event>
<event>
 7    1  0.6008063E-006  0.2167305E+03  0.7546771E-02  0.1136696E+00
         -1   -1    0    0    0  501 -0.00000000000E+00  0.00000000000E+00  0.25381701473E+03  0.25381701473E+03  0.00000000000E+00 0.  1.
          1   -1    0    0  501    0  0.00000000000E+00 -0.00000000000E+00 -0.37795266659E+03  0.37795266659E+03  0.00000000000E+00 0. -1.
         23    2    1    2    0    0 -0.15222881307E+03  0.91271316241E+02 -0.28852002476E+03  0.35975067170E+03  0.12113082351E+03 0.  0.
          5    1    3    3  502    0 -0.14616802030E+03  0.52439582520E+02 -0.27852683404E+03  0.31892677412E+03  0.47000000000E+01 0. -1.
         -5    1    3    3    0  502 -0.60607927788E+01  0.38831733721E+02 -0.99931907198E+01  0.40823897581E+02  0.47000000000E+01 0.  1.
        -11    1    1    2    0    0  0.14445940143E+03 -0.36723360161E+02  0.15690200054E+03  0.21641479066E+03  0.00000000000E+00 0.  1.
         11    1    1    2    0    0  0.77694116443E+01 -0.54547956080E+02  0.74823723559E+01  0.55604218958E+02  0.00000000000E+00 0. -1.
<mgrwt>
<rscale>  0 0.21626835E+03</rscale>
<asrwt>0</asrwt>
<pdfrwt beam="2">  1        1 0.58146564E-01 0.21673052E+03</pdfrwt>
<pdfrwt beam="1">  1       -1 0.39048772E-01 0.21673052E+03</pdfrwt>
<totfact> 0.42394833E+02</totfact>
</mgrwt>
</event>
<event>
 7    1  0.6008063E-006  0.1448952E+03  0.7546771E-02  0.1216544E+00
         -1   -1    0    0    0  501 -0.00000000000E+00  0.00000000000E+00  0.87977162924E+02  0.87977162924E+02  0.00000000000E+00 0.  1.
          1   -1    0    0  501    0  0.00000000000E+00 -0.00000000000E+00 -0.20012686925E+03  0.20012686925E+03  0.00000000000E+00 0. -1.
         23    2    1    2    0    0  0.72947242857E+02  0.68300168161E+01 -0.81382023361E+02  0.16618559851E+03  0.12500668004E+03 0.  0.
          5    1    3    3  502    0  0.84822753202E+02 -0.40847052896E+02 -0.63645377395E+02  0.11373743999E+03  0.47000000000E+01 0. -1.
         -5    1    3    3    0  502 -0.11875510345E+02  0.47677069712E+02 -0.17736645966E+02  0.52448158523E+02  0.47000000000E+01 0. -1.
        -11    1    1    2    0    0 -0.70375260052E+02  0.31768766674E+02 -0.31076847187E+02  0.83232819215E+02  0.00000000000E+00 0.  1.
         11    1    1    2    0    0 -0.25719828045E+01 -0.38598783490E+02  0.30916422620E+00  0.38685614445E+02  0.00000000000E+00 0. -1.
<mgrwt>
<rscale>  0 0.13763709E+03</rscale>
<asrwt>0</asrwt>
<pdfrwt beam="2">  1        1 0.30788749E-01 0.14489520E+03</pdfrwt>
<pdfrwt beam="1">  1       -1 0.13534948E-01 0.14489520E+03</pdfrwt>
<totfact> 0.53215721E+03</totfact>
</mgrwt>
</event>
<event>
 7    1  0.6008063E-006  0.1729489E+03  0.7546771E-02  0.1180648E+00
         -2   -1    0    0    0  501 -0.00000000000E+00  0.00000000000E+00  0.25956449587E+02  0.25956449587E+02  0.00000000000E+00 0.  1.
          2   -1    0    0  501    0  0.00000000000E+00 -0.00000000000E+00 -0.10222351678E+04  0.10222351678E+04  0.00000000000E+00 0. -1.
         23    2    1    2    0    0  0.85149278522E+02 -0.84603978079E+02 -0.57635769868E+03  0.60174706338E+03  0.12451144011E+03 0.  0.
          5    1    3    3  502    0  0.95573430435E+02 -0.48267902070E+02 -0.23517309831E+03  0.25844254128E+03  0.47000000000E+01 0. -1.
         -5    1    3    3    0  502 -0.10424151913E+02 -0.36336076009E+02 -0.34118460037E+03  0.34330452210E+03  0.47000000000E+01 0. -1.
        -11    1    1    2    0    0 -0.31326623389E+02  0.62454155792E+02 -0.10455152770E+03  0.12574935726E+03  0.00000000000E+00 0.  1.
         11    1    1    2    0    0 -0.53822655134E+02  0.22149822287E+02 -0.31536949184E+03  0.32069519674E+03  0.00000000000E+00 0. -1.
<mgrwt>
<rscale>  0 0.16734201E+03</rscale>
<asrwt>0</asrwt>
<pdfrwt beam="2">  1        2 0.15726693E+00 0.17294893E+03</pdfrwt>
<pdfrwt beam="1">  1       -2 0.39933003E-02 0.17294893E+03</pdfrwt>
<totfact> 0.68804384E+03</totfact>
</mgrwt>
</event>
<event>
 7    1  0.6008063E-006  0.1377423E+03  0.7546771E-02  0.1221823E+00
          2   -1    0    0  501    0  0.00000000000E+00  0.00000000000E+00  0.59203968119E+03  0.59203968119E+03  0.00000000000E+00 0. -1.
         -2   -1    0    0    0  501 -0.00000000000E+00 -0.00000000000E+00 -0.28863294894E+02  0.28863294894E+02  0.00000000000E+00 0.  1.
         23    2    1    2    0    0 -0.75584479200E+02  0.31361726430E+02  0.32184283738E+03  0.35007963712E+03  0.11079877694E+03 0.  0.
          5    1    3    3  502    0 -0.94874393592E+02  0.16957866794E+02  0.30606332539E+03  0.32091364719E+03  0.47000000000E+01 0. -1.
         -5    1    3    3    0  502  0.19289914392E+02  0.14403859636E+02  0.15779511990E+02  0.29165989925E+02  0.47000000000E+01 0.  1.
        -11    1    1    2    0    0  0.12669978949E+02 -0.51842807783E+02  0.13973735758E+03  0.14958186451E+03  0.00000000000E+00 0. -1.
         11    1    1    2    0    0  0.62914500251E+02  0.20481081353E+02  0.10159619133E+03  0.12124147446E+03  0.00000000000E+00 0.  1.
<mgrwt>
<rscale>  0 0.13387048E+03</rscale>
<asrwt>0</asrwt>
<pdfrwt beam="1">  1        2 0.91083018E-01 0.13774230E+03</pdfrwt>
<pdfrwt beam="2">  1       -2 0.44405074E-02 0.13774230E+03</pdfrwt>
<totfact> 0.11465432E+04</totfact>
</mgrwt>
</event>
<event>
 7    1  0.6008063E-006  0.1263158E+03  0.7546771E-02  0.1247275E+00
         -1   -1    0    0    0  501 -0.00000000000E+00  0.00000000000E+00  0.29989815360E+02  0.29989815360E+02  0.00000000000E+00 0.  1.
          1   -1    0    0  501    0  0.00000000000E+00 -0.00000000000E+00 -0.44868983664E+03  0.44868983664E+03  0.00000000000E+00 0. -1.
         23    2    1    2    0    0 -0.18071084532E+02  0.19002015186E+01 -0.30907903184E+03  0.33389450039E+03  0.12500205842E+03 0.  0.
          5    1    3    3  502    0 -0.23144967243E+00  0.32289060280E+02 -0.29311273441E+03  0.29492338336E+03  0.47000000000E+01 0.  1.
         -5    1    3    3    0  502 -0.17839634860E+02 -0.30388858762E+02 -0.15966297429E+02  0.38971117027E+02  0.47000000000E+01 0.  1.
        -11    1    1    2    0    0  0.98518877823E+01  0.29495908879E+02 -0.67187006874E+00  0.31104979390E+02  0.00000000000E+00 0.  1.
         11    1    1    2    0    0  0.82191967497E+01 -0.31396110397E+02 -0.10894911937E+03  0.11368017222E+03  0.00000000000E+00 0. -1.
<mgrwt>
<rscale>  0 0.11750242E+03</rscale>
<asrwt>0</asrwt>
<pdfrwt beam="2">  1        1 0.69029209E-01 0.12631583E+03</pdfrwt>
<pdfrwt beam="1">  1       -1 0.46138175E-02 0.12631583E+03</pdfrwt>
<totfact> 0.97977956E+03</totfact>
</mgrwt>
</event>
<event>
 7    1  0.6008063E-006  0.1339668E+03  0.7546771E-02  0.1234517E+00
         -2   -1    0    0    0  501 -0.00000000000E+00  0.00000000000E+00  0.21601387884E+02  0.21601387884E+02  0.00000000000E+00 0. -1.
          2   -1    0    0  501    0  0.00000000000E+00 -0.00000000000E+00 -0.75367861621E+03  0.75367861621E+03  0.00000000000E+00 0.  1.
         23    2    1    2    0    0  0.26568815610E+02  0.40209469004E+02 -0.55154001743E+03  0.56757685748E+03  0.12499757979E+03 0.  0.
          5    1    3    3  502    0  0.56466210244E+02  0.66005608340E+02 -0.45369764383E+03  0.46196191970E+03  0.47000000000E+01 0.  1.
         -5    1    3    3    0  502 -0.29897394634E+02 -0.25796139335E+02 -0.97842373601E+02  0.10561493778E+03  0.47000000000E+01 0.  1.
        -11    1    1    2    0    0  0.23356661745E+02 -0.12876228354E+02 -0.12628738383E+03  0.12907298021E+03  0.00000000000E+00 0.  1.
         11    1    1    2    0    0 -0.49925477355E+02 -0.27333240651E+02 -0.54249827066E+02  0.78630166414E+02  0.00000000000E+00 0. -1.
<mgrwt>
<rscale>  0 0.12535409E+03</rscale>
<asrwt>0</asrwt>
<pdfrwt beam="2">  1        2 0.11595055E+00 0.13396678E+03</pdfrwt>
<pdfrwt beam="1">  1       -2 0.33232906E-02 0.13396678E+03</pdfrwt>
<totfact> 0.13256118E+04</totfact>
</mgrwt>
</event>
<event>
 7    1  0.6008063E-006  0.1322899E+03  0.7546771E-02  0.1237128E+00
          1   -1    0    0  501    0  0.00000000000E+00  0.00000000000E+00  0.60582044135E+03  0.60582044135E+03  0.00000000000E+00 0. -1.
         -1   -1    0    0    0  501 -0.00000000000E+00 -0.00000000000E+00 -0.24085976198E+02  0.24085976198E+02  0.00000000000E+00 0.  1.
         23    2    1    2    0    0  0.26368607108E+02 -0.34359690992E+02  0.40778956629E+03  0.42871079312E+03  0.12499888779E+03 0.  0.
          5    1    3    3  502    0 -0.10402631861E+02  0.96409042575E+01  0.33770298880E+03  0.33803337176E+03  0.47000000000E+01 0.  1.
         -5    1    3    3    0  502  0.36771238969E+02 -0.44000595249E+02  0.70086577498E+02  0.90677421351E+02  0.47000000000E+01 0.  1.
        -11    1    1    2    0    0 -0.60138015802E+02  0.29522658504E+02  0.11546828212E+03  0.13349566467E+03  0.00000000000E+00 0. -1.
         11    1    1    2    0    0  0.33769408694E+02  0.48370324878E+01  0.58476616743E+02  0.67699959767E+02  0.00000000000E+00 0.  1.
<mgrwt>
<rscale>  0 0.12369196E+03</rscale>
<asrwt>0</asrwt>
<pdfrwt beam="1">  1        1 0.93203133E-01 0.13228989E+03</pdfrwt>
<pdfrwt beam="2">  1       -1 0.37055353E-02 0.13228989E+03</pdfrwt>
<totfact> 0.91367349E+03</totfact>
</mgrwt>
</event>
<event>
 7    1  0.6008063E-006  0.1358202E+03  0.7546771E-02  0.1230858E+00
          2   -1    0    0  501    0  0.00000000000E+00  0.00000000000E+00  0.96445101963E+03  0.96445101963E+03  0.00000000000E+00 0. -1.
         -2   -1    0    0    0  501 -0.00000000000E+00 -0.00000000000E+00 -0.16975192409E+02  0.16975192409E+02  0.00000000000E+00 0.  1.
         23    2    1    2    0    0  0.22608510937E+02  0.48121611709E+02  0.68361853132E+03  0.69698021228E+03  0.12498114126E+03 0.  0.
          5    1    3    3  502    0 -0.50409590885E+01  0.11926282301E+02  0.21100550852E+01  0.13935200412E+02  0.47000000000E+01 0.  1.
         -5    1    3    3    0  502  0.27649470025E+02  0.36195329408E+02  0.68150847623E+03  0.68304501187E+03  0.47000000000E+01 0.  1.
        -11    1    1    2    0    0 -0.37530599492E+02  0.50215197090E+01  0.45374487551E+02  0.59098271370E+02  0.00000000000E+00 0.  1.
         11    1    1    2    0    0  0.14922088555E+02 -0.53143131418E+02  0.21848280835E+03  0.22534772838E+03  0.00000000000E+00 0. -1.
<mgrwt>
<rscale>  0 0.12773339E+03</rscale>
<asrwt>0</asrwt>
<pdfrwt beam="1">  1        2 0.14837704E+00 0.13582018E+03</pdfrwt>
<pdfrwt beam="2">  1       -2 0.26115688E-02 0.13582018E+03</pdfrwt>
<totfact> 0.13792516E+04</totfact>
</mgrwt>
</event>
<event>
 7    1  0.6008063E-006  0.1326725E+03  0.7546771E-02  0.1237470E+00
          4   -1    0    0  501    0  0.00000000000E+00  0.00000000000E+00  0.35538889754E+03  0.35538889754E+03  0.00000000000E+00 0. -1.
         -4   -1    0    0    0  501 -0.00000000000E+00 -0.00000000000E+00 -0.38203701617E+02  0.38203701617E+02  0.00000000000E+00 0.  1.
         23    2    1    2    0    0  0.39102584820E+02 -0.21163945163E+02  0.19750046238E+03  0.23792525002E+03  0.12500026897E+03 0.  0.
          5    1    3    3  502    0 -0.11796331682E+01 -0.46403536252E+02  0.14595524813E+02  0.48885571038E+02  0.47000000000E+01 0. -1.
         -5    1    3    3    0  502  0.40282217988E+02  0.25239591089E+02  0.18290493756E+03  0.18903967898E+03  0.47000000000E+01 0. -1.
        -11    1    1    2    0    0 -0.58634568856E+02  0.23791828275E+02  0.12032482193E+03  0.13594898503E+03  0.00000000000E+00 0. -1.
         11    1    1    2    0    0  0.19531984036E+02 -0.26278831119E+01 -0.64008838371E+00  0.19718364110E+02  0.00000000000E+00 0.  1.
<mgrwt>
<rscale>  0 0.12347622E+03</rscale>
<asrwt>0</asrwt>
<pdfrwt beam="1">  1        4 0.54675213E-01 0.13267250E+03</pdfrwt>
<pdfrwt beam="2">  1       -4 0.58774928E-02 0.13267250E+03</pdfrwt>
<totfact> 0.97407958E+02</totfact>
</mgrwt>
</event>
<event>
 7    1  0.6008063E-006  0.1268176E+03  0.7546771E-02  0.1247213E+00
         -2   -1    0    0    0  501 -0.00000000000E+00  0.00000000000E+00  0.47227164926E+02  0.47227164926E+02  0.00000000000E+00 0.  1.
          2   -1    0    0  501    0  0.00000000000E+00 -0.00000000000E+00 -0.27163321114E+03  0.27163321114E+03  0.00000000000E+00 0. -1.
         23    2    1    2    0    0 -0.21156510643E+02  0.31924226828E+01 -0.16464708650E+03  0.20782530593E+03  0.12499962075E+03 0.  0.
          5    1    3    3  502    0 -0.50716267610E+02  0.10116414283E+02 -0.13592085341E+02  0.53677895099E+02  0.47000000000E+01 0.  1.
         -5    1    3    3    0  502  0.29559756968E+02 -0.69239916006E+01 -0.15105500116E+03  0.15414741083E+03  0.47000000000E+01 0.  1.
        -11    1    1    2    0    0 -0.18270036644E+02  0.33191061260E+02 -0.36338082056E+02  0.52496637931E+02  0.00000000000E+00 0.  1.
         11    1    1    2    0    0  0.39426547287E+02 -0.36383483943E+02 -0.23420877662E+02  0.58538432207E+02  0.00000000000E+00 0. -1.
<mgrwt>
<rscale>  0 0.11753928E+03</rscale>
<asrwt>0</asrwt>
<pdfrwt beam="2">  1        2 0.41789725E-01 0.12681756E+03</pdfrwt>
<pdfrwt beam="1">  1       -2 0.72657176E-02 0.12681756E+03</pdfrwt>
<totfact> 0.12538444E+04</totfact>
</mgrwt>
</event>
<event>
 7    1  0.6008063E-006  0.2034790E+03  0.7546771E-02  0.1148761E+00
          1   -1    0    0  501    0  0.00000000000E+00  0.00000000000E+00  0.31164948753E+03  0.31164948753E+03  0.00000000000E+00 0. -1.
         -1   -1    0    0    0  501 -0.00000000000E+00 -0.00000000000E+00 -0.12762423270E+03  0.12762423270E+03  0.00000000000E+00 0.  1.
         23    2    1    2    0    0 -0.69705050115E+02 -0.13151475012E+03  0.10559000439E+03  0.22120078057E+03  0.12500245113E+03 0.  0.
          5    1    3    3  502    0 -0.34990652059E+02 -0.13970165155E+03  0.11460639687E+03  0.18411304512E+03  0.47000000000E+01 0. -1.
         -5    1    3    3    0  502 -0.34714398057E+02  0.81869014371E+01 -0.90163924839E+01  0.37087735453E+02  0.47000000000E+01 0. -1.
        -11    1    1    2    0    0  0.98050690597E+02  0.97491628821E+02  0.12753000592E+02  0.13885674143E+03  0.00000000000E+00 0.  1.
         11    1    1    2    0    0 -0.28345640481E+02  0.34023121296E+02  0.65682249850E+02  0.79216198232E+02  0.00000000000E+00 0. -1.
<mgrwt>
<rscale>  0 0.20116308E+03</rscale>
<asrwt>0</asrwt>
<pdfrwt beam="1">  1        1 0.47946075E-01 0.20347904E+03</pdfrwt>
<pdfrwt beam="2">  1       -1 0.19634497E-01 0.20347904E+03</pdfrwt>
<totfact> 0.17215493E+03</totfact>
</mgrwt>
</event>
<event>
 7    1  0.6008063E-006  0.2389216E+03  0.7546771E-02  0.1123264E+00
          2   -1    0    0  501    0  0.00000000000E+00  0.00000000000E+00  0.11639850703E+03  0.11639850703E+03  0.00000000000E+00 0. -1.
         -2   -1    0    0    0  501 -0.00000000000E+00 -0.00000000000E+00 -0.50633348708E+03  0.50633348708E+03  0.00000000000E+00 0.  1.
         23    2    1    2    0    0  0.12682877675E+03 -0.15928994055E+03 -0.10532009869E+03  0.26110507915E+03  0.12499886157E+03 0.  0.
          5    1    3    3  502    0  0.75343498140E+02 -0.12881598417E+03 -0.11519677247E+02  0.14974976946E+03  0.47000000000E+01 0.  1.
         -5    1    3    3    0  502  0.51485278611E+02 -0.30473956375E+02 -0.93800421447E+02  0.11135530968E+03  0.47000000000E+01 0.  1.
        -11    1    1    2    0    0 -0.42244765191E+02 -0.54881418998E+00 -0.54229098564E+02  0.68743847100E+02  0.00000000000E+00 0.  1.
         11    1    1    2    0    0 -0.84584011561E+02  0.15983875474E+03 -0.23038578279E+03  0.29288306786E+03  0.00000000000E+00 0. -1.
<mgrwt>
<rscale>  0 0.23486094E+03</rscale>
<asrwt>0</asrwt>
<pdfrwt beam="1">  1        2 0.17907463E-01 0.23892162E+03</pdfrwt>
<pdfrwt beam="2">  1       -2 0.77897459E-01 0.23892162E+03</pdfrwt>
<totfact> 0.47758612E+02</totfact>
</mgrwt>
</event>
<event>
 6    1  0.6008063E-006  0.2341915E+03  0.7546771E-02  0.1134659E+00
         -1   -1    0    0    0  501 -0.00000000000E+00  0.00000000000E+00  0.31943945529E+02  0.31943945529E+02  0.00000000000E+00 0.  1.
          1   -1    0    0  501    0  0.00000000000E+00 -0.00000000000E+00 -0.13370687029E+04  0.13370687029E+04  0.00000000000E+00 0. -1.
          5    1    1    2  502    0 -0.44186782495E+02  0.16469220918E+02 -0.22714973512E+03  0.23204051187E+03  0.47000000000E+01 0. -1.
         -5    1    1    2    0  502  0.16483845930E+03  0.78075711071E+02 -0.53264222190E+03  0.56302518671E+03  0.47000000000E+01 0.  1.
        -11    1    1    2    0    0 -0.23732908880E+02 -0.70272495583E+02 -0.16866638799E+03  0.18425478295E+03  0.00000000000E+00 0.  1.
         11    1    1    2    0    0 -0.96918767921E+02 -0.24272436406E+02 -0.37666641235E+03  0.38969216689E+03  0.00000000000E+00 0. -1.
<mgrwt>
<rscale>  0 0.21896175E+03</rscale>
<asrwt>0</asrwt>
<pdfrwt beam="2">  1        1 0.20570285E+00 0.23419148E+03</pdfrwt>
<pdfrwt beam="1">  1       -1 0.49144538E-02 0.23419148E+03</pdfrwt>
<totfact> 0.16639347E+03</totfact>
</mgrwt>
</event>
<event>
 7    1  0.6008063E-006  0.1380037E+03  0.7546771E-02  0.1229632E+00
         -1   -1    0    0    0  501 -0.00000000000E+00  0.00000000000E+00  0.50197585360E+02  0.50197585360E+02  0.00000000000E+00 0.  1.
          1   -1    0    0  501    0  0.00000000000E+00 -0.00000000000E+00 -0.30526322989E+03  0.30526322989E+03  0.00000000000E+00 0. -1.
         23    2    1    2    0    0 -0.57793202799E+02  0.86189059621E+01 -0.18223273949E+03  0.22859090501E+03  0.12502276067E+03 0.  0.
          5    1    3    3  502    0  0.39203737568E+00  0.47336073925E+02 -0.19480247840E+02  0.51404548863E+02  0.47000000000E+01 0. -1.
         -5    1    3    3    0  502 -0.58185240174E+02 -0.38717167963E+02 -0.16275249165E+03  0.17718635615E+03  0.47000000000E+01 0. -1.
        -11    1    1    2    0    0  0.14764037302E+02  0.22883587533E+02  0.94422080302E+01  0.28823439564E+02  0.00000000000E+00 0.  1.
         11    1    1    2    0    0  0.43029165497E+02 -0.31502493495E+02 -0.82275113074E+02  0.98046470671E+02  0.00000000000E+00 0. -1.
<mgrwt>
<rscale>  0 0.12854422E+03</rscale>
<asrwt>0</asrwt>
<pdfrwt beam="2">  1        1 0.46963574E-01 0.13800373E+03</pdfrwt>
<pdfrwt beam="1">  1       -1 0.77227054E-02 0.13800373E+03</pdfrwt>
<totfact> 0.74203191E+03</totfact>
</mgrwt>
</event>
<event>
 7    1  0.6008063E-006  0.2859909E+03  0.7546771E-02  0.1094274E+00
          1   -1    0    0  501    0  0.00000000000E+00  0.00000000000E+00  0.15006487803E+03  0.15006487803E+03  0.00000000000E+00 0. -1.
         -1   -1    0    0    0  501 -0.00000000000E+00 -0.00000000000E+00 -0.56091189306E+03  0.56091189306E+03  0.00000000000E+00 0.  1.
         23    2    1    2    0    0 -0.75628899759E+02  0.24585873154E+03 -0.11394891519E+03  0.30785576728E+03  0.12499828726E+03 0.  0.
          5    1    3    3  502    0 -0.92978256468E+02  0.19693788905E+03 -0.46714749915E+02  0.22278654847E+03  0.47000000000E+01 0. -1.
         -5    1    3    3    0  502  0.17349356708E+02  0.48920842495E+02 -0.67234165280E+02  0.85069218813E+02  0.47000000000E+01 0. -1.
        -11    1    1    2    0    0 -0.94149103393E+01 -0.11324968685E+03 -0.14559326236E+03  0.18469307013E+03  0.00000000000E+00 0.  1.
         11    1    1    2    0    0  0.85043810099E+02 -0.13260904469E+03 -0.15130483747E+03  0.21842793368E+03  0.00000000000E+00 0. -1.
<mgrwt>
<rscale>  0 0.28260524E+03</rscale>
<asrwt>0</asrwt>
<pdfrwt beam="1">  1        1 0.23086904E-01 0.28599094E+03</pdfrwt>
<pdfrwt beam="2">  1       -1 0.86294138E-01 0.28599094E+03</pdfrwt>
<totfact> 0.29586176E+02</totfact>
</mgrwt>
</event>
<event>
 7    1  0.6008063E-006  0.1645672E+03  0.7546771E-02  0.1190415E+00
          2   -1    0    0  501    0  0.00000000000E+00  0.00000000000E+00  0.26287148567E+03  0.26287148567E+03  0.00000000000E+00 0. -1.
         -2   -1    0    0    0  501 -0.00000000000E+00 -0.00000000000E+00 -0.12373485807E+03  0.12373485807E+03  0.00000000000E+00 0.  1.
         23    2    1    2    0    0 -0.10168485177E+03 -0.33414644699E+02  0.17535583434E+03  0.24048292108E+03  0.12500407646E+03 0.  0.
          5    1    3    3  502    0  0.49948579855E+01 -0.52363164704E+02  0.36062736690E+02  0.63948890543E+02  0.47000000000E+01 0.  1.
         -5    1    3    3    0  502 -0.10667970975E+03  0.18948520004E+02  0.13929309765E+03  0.17653403053E+03  0.47000000000E+01 0.  1.
        -11    1    1    2    0    0 -0.11493134450E+02  0.19710815209E+02  0.75082076257E+01  0.24020440409E+02  0.00000000000E+00 0.  1.
         11    1    1    2    0    0  0.11317798622E+03  0.13703829491E+02 -0.43727414365E+02  0.12210298225E+03  0.00000000000E+00 0. -1.
<mgrwt>
<rscale>  0 0.15848760E+03</rscale>
<asrwt>0</asrwt>
<pdfrwt beam="1">  1        2 0.40441767E-01 0.16456721E+03</pdfrwt>
<pdfrwt beam="2">  1       -2 0.19036132E-01 0.16456721E+03</pdfrwt>
<totfact> 0.28236451E+03</totfact>
</mgrwt>
</event>
<event>
 7    1  0.6008063E-006  0.1380562E+03  0.7546771E-02  0.1227039E+00
         -2   -1    0    0    0  501 -0.00000000000E+00  0.00000000000E+00  0.51000672779E+02  0.51000672779E+02  0.00000000000E+00 0.  1.
          2   -1    0    0  501    0  0.00000000000E+00 -0.00000000000E+00 -0.30499860238E+03  0.30499860238E+03  0.00000000000E+00 0. -1.
         23    2    1    2    0    0  0.50120686899E+02  0.30458506999E+02 -0.16320500029E+03  0.21376480040E+03  0.12497885369E+03 0.  0.
          5    1    3    3  502    0  0.26640482844E+02  0.46254815444E+02 -0.17479589054E+03  0.18282482497E+03  0.47000000000E+01 0. -1.
         -5    1    3    3    0  502  0.23480204055E+02 -0.15796308444E+02  0.11590890248E+02  0.30939975431E+02  0.47000000000E+01 0. -1.
        -11    1    1    2    0    0 -0.61966737786E+02  0.54649969120E+01 -0.82814426263E+02  0.10357592375E+03  0.00000000000E+00 0. -1.
         11    1    1    2    0    0  0.11846050886E+02 -0.35923503911E+02 -0.79785030491E+01  0.38658551005E+02  0.00000000000E+00 0.  1.
<mgrwt>
<rscale>  0 0.13028130E+03</rscale>
<asrwt>0</asrwt>
<pdfrwt beam="2">  1        2 0.46922862E-01 0.13805621E+03</pdfrwt>
<pdfrwt beam="1">  1       -2 0.78462573E-02 0.13805621E+03</pdfrwt>
<totfact> 0.99206642E+03</totfact>
</mgrwt>
</event>
<event>
 6    1  0.6008063E-006  0.1489697E+03  0.7546771E-02  0.1222546E+00
          2   -1    0    0  501    0  0.00000000000E+00  0.00000000000E+00  0.13652532478E+04  0.13652532478E+04  0.00000000000E+00 0. -1.
         -2   -1    0    0    0  501 -0.00000000000E+00 -0.00000000000E+00 -0.29058791496E+02  0.29058791496E+02  0.00000000000E+00 0.  1.
          5    1    1    2  502    0  0.50986334292E+02  0.61538828572E+02  0.89090232292E+03  0.89449185166E+03  0.47000000000E+01 0. -1.
         -5    1    1    2    0  502 -0.32290477863E+02 -0.53222078465E+02  0.37730692407E+03  0.38243675235E+03  0.47000000000E+01 0.  1.
        -11    1    1    2    0    0 -0.36627468924E+02 -0.64276749488E+01 -0.90447537156E+01  0.38271321571E+02  0.00000000000E+00 0.  1.
         11    1    1    2    0    0  0.17931612496E+02 -0.18890751577E+01  0.77029963021E+02  0.79112113703E+02  0.00000000000E+00 0. -1.
<mgrwt>
<rscale>  0 0.13336500E+03</rscale>
<asrwt>0</asrwt>
<pdfrwt beam="1">  1        2 0.21003891E+00 0.14896968E+03</pdfrwt>
<pdfrwt beam="2">  1       -2 0.44705844E-02 0.14896968E+03</pdfrwt>
<totfact> 0.37148255E+03</totfact>
</mgrwt>
</event>
<event>
 7    1  0.6008063E-006  0.1947343E+03  0.7546771E-02  0.1158787E+00
         -1   -1    0    0    0  501 -0.00000000000E+00  0.00000000000E+00  0.10271467020E+03  0.10271467020E+03  0.00000000000E+00 0.  1.
          1   -1    0    0  501    0  0.00000000000E+00 -0.00000000000E+00 -0.58070318886E+03  0.58070318886E+03  0.00000000000E+00 0. -1.
         23    2    1    2    0    0 -0.53479278663E+01 -0.14922756124E+03 -0.46925780313E+03  0.50805936558E+03  0.12499587108E+03 0.  0.
          5    1    3    3  502    0  0.42107897715E+02 -0.13798262355E+03 -0.32219681605E+03  0.35305121120E+03  0.47000000000E+01 0.  1.
         -5    1    3    3    0  502 -0.47455825581E+02 -0.11244937692E+02 -0.14706098707E+03  0.15500815438E+03  0.47000000000E+01 0.  1.
        -11    1    1    2    0    0  0.13501707863E+02  0.29160571621E+02  0.34815331884E+02  0.47378712379E+02  0.00000000000E+00 0.  1.
         11    1    1    2    0    0 -0.81537799968E+01  0.12006698962E+03 -0.43546047419E+02  0.12797978110E+03  0.00000000000E+00 0. -1.
<mgrwt>
<rscale>  0 0.18963948E+03</rscale>
<asrwt>0</asrwt>
<pdfrwt beam="2">  1        1 0.89338951E-01 0.19473426E+03</pdfrwt>
<pdfrwt beam="1">  1       -1 0.15802257E-01 0.19473426E+03</pdfrwt>
<totfact> 0.10883262E+03</totfact>
</mgrwt>
</event>
<event>
 7    1  0.6008063E-006  0.1281262E+03  0.7546771E-02  0.1245400E+00
          2   -1    0    0  501    0  0.00000000000E+00  0.00000000000E+00  0.73503991185E+03  0.73503991185E+03  0.00000000000E+00 0. -1.
         -2   -1    0    0    0  501 -0.00000000000E+00 -0.00000000000E+00 -0.17588543359E+02  0.17588543359E+02  0.00000000000E+00 0.  1.
         23    2    1    2    0    0 -0.10612404233E+02 -0.26048110899E+02  0.49003180076E+03  0.50650517348E+03  0.12500079121E+03 0.  0.
          5    1    3    3  502    0 -0.64173752723E+01 -0.61789776210E+02  0.44165928231E+03  0.44603158050E+03  0.47000000000E+01 0.  1.
         -5    1    3    3    0  502 -0.41950289608E+01  0.35741665311E+02  0.48372518445E+02  0.60473592980E+02  0.47000000000E+01 0.  1.
        -11    1    1    2    0    0  0.27053144963E+02  0.35066617264E+02  0.22232249760E+03  0.22669105240E+03  0.00000000000E+00 0. -1.
         11    1    1    2    0    0 -0.16440740730E+02 -0.90185063652E+01  0.50970701316E+01  0.19432229330E+02  0.00000000000E+00 0.  1.
<mgrwt>
<rscale>  0 0.11861493E+03</rscale>
<asrwt>0</asrwt>
<pdfrwt beam="1">  1        2 0.11308304E+00 0.12812621E+03</pdfrwt>
<pdfrwt beam="2">  1       -2 0.27059303E-02 0.12812621E+03</pdfrwt>
<totfact> 0.18415349E+04</totfact>
</mgrwt>
</event>
<event>
 7    1  0.6008063E-006  0.1361491E+03  0.7546771E-02  0.1230500E+00
         -1   -1    0    0    0  501 -0.00000000000E+00  0.00000000000E+00  0.17568666628E+02  0.17568666628E+02  0.00000000000E+00 0.  1.
          1   -1    0    0  501    0  0.00000000000E+00 -0.00000000000E+00 -0.83633339577E+03  0.83633339577E+03  0.00000000000E+00 0. -1.
         23    2    1    2    0    0  0.51948539485E+02 -0.14579870111E+02 -0.46518042307E+03  0.48469515319E+03  0.12500136859E+03 0.  0.
          5    1    3    3  502    0 -0.62369312411E+01  0.46297188683E+02 -0.10931432281E+03  0.11897075339E+03  0.47000000000E+01 0. -1.
         -5    1    3    3    0  502  0.58185470726E+02 -0.60877058794E+02 -0.35586610026E+03  0.36572439979E+03  0.47000000000E+01 0. -1.
        -11    1    1    2    0    0 -0.76185256369E+02  0.23603607058E+02 -0.24843722074E+03  0.26092599756E+03  0.00000000000E+00 0. -1.
         11    1    1    2    0    0  0.24236716884E+02 -0.90237369472E+01 -0.10514708534E+03  0.10828091166E+03  0.00000000000E+00 0.  1.
<mgrwt>
<rscale>  0 0.12796958E+03</rscale>
<asrwt>0</asrwt>
<pdfrwt beam="2">  1        1 0.12866666E+00 0.13614906E+03</pdfrwt>
<pdfrwt beam="1">  1       -1 0.27028722E-02 0.13614906E+03</pdfrwt>
<totfact> 0.91086817E+03</totfact>
</mgrwt>
</event>
<event>
 7    1  0.6008063E-006  0.2049593E+03  0.7546771E-02  0.1149540E+00
         -2   -1    0    0    0  501 -0.00000000000E+00  0.00000000000E+00  0.32872855119E+03  0.32872855119E+03  0.00000000000E+00 0.  1.
          2   -1    0    0  501    0  0.00000000000E+00 -0.00000000000E+00 -0.11928753231E+03  0.11928753231E+03  0.00000000000E+00 0. -1.
         23    2    1    2    0    0  0.86924938423E+01  0.16220196133E+03  0.76319682845E+02  0.21870762807E+03  0.12499318733E+03 0.  0.
          5    1    3    3  502    0  0.98435642801E+01  0.10904286353E+03  0.11025686467E+03  0.15545387757E+03  0.47000000000E+01 0. -1.
         -5    1    3    3    0  502 -0.11510704378E+01  0.53159097793E+02 -0.33937181828E+02  0.63253750495E+02  0.47000000000E+01 0. -1.
        -11    1    1    2    0    0 -0.32983917773E+02 -0.65866034512E+02  0.10076852219E+03  0.12482214707E+03  0.00000000000E+00 0.  1.
         11    1    1    2    0    0  0.24291423931E+02 -0.96335926814E+02  0.32352813845E+02  0.10448630836E+03  0.00000000000E+00 0. -1.
<mgrwt>
<rscale>  0 0.20023657E+03</rscale>
<asrwt>0</asrwt>
<pdfrwt beam="2">  1        2 0.18351928E-01 0.20495934E+03</pdfrwt>
<pdfrwt beam="1">  1       -2 0.50573623E-01 0.20495934E+03</pdfrwt>
<totfact> 0.11434233E+03</totfact>
</mgrwt>
</event>
<event>
 7    1  0.6008063E-006  0.1408484E+03  0.7546771E-02  0.1218311E+00
         -1   -1    0    0    0  501 -0.00000000000E+00  0.00000000000E+00  0.62700552581E+02  0.62700552581E+02  0.00000000000E+00 0.  1.
          1   -1    0    0  501    0  0.00000000000E+00 -0.00000000000E+00 -0.28242543932E+03  0.28242543932E+03  0.00000000000E+00 0. -1.
         23    2    1    2    0    0  0.57649055043E+02 -0.61798691982E+02 -0.13548991463E+03  0.19543746058E+03  0.11267560584E+03 0.  0.
          5    1    3    3  502    0  0.76680138407E+02 -0.89782644186E+00 -0.76275846423E+02  0.10826238713E+03  0.47000000000E+01 0. -1.
         -5    1    3    3    0  502 -0.19031083365E+02 -0.60900865540E+02 -0.59214068210E+02  0.87175073453E+02  0.47000000000E+01 0.  1.
        -11    1    1    2    0    0 -0.31043237735E+02  0.72127128272E+02 -0.91163289386E+02  0.12031936907E+03  0.00000000000E+00 0. -1.
         11    1    1    2    0    0 -0.26605817308E+02 -0.10328436290E+02  0.69283172832E+01  0.29369162249E+02  0.00000000000E+00 0.  1.
<mgrwt>
<rscale>  0 0.13636092E+03</rscale>
<asrwt>0</asrwt>
<pdfrwt beam="2">  1        1 0.43450068E-01 0.14084844E+03</pdfrwt>
<pdfrwt beam="1">  1       -1 0.96462388E-02 0.14084844E+03</pdfrwt>
<totfact> 0.58402439E+03</totfact>
</mgrwt>
</event>
<event>
 7    1  0.6008063E-006  0.1317816E+03  0.7546771E-02  0.1238340E+00
          2   -1    0    0  501    0  0.00000000000E+00  0.00000000000E+00  0.31396121288E+03  0.31396121288E+03  0.00000000000E+00 0. -1.
         -2   -1    0    0    0  501 -0.00000000000E+00 -0.00000000000E+00 -0.42874824539E+02  0.42874824539E+02  0.00000000000E+00 0.  1.
         23    2    1    2    0    0  0.10352781536E+02  0.40712380036E+02  0.14288881730E+03  0.19438005888E+03  0.12490682610E+03 0.  0.
          5    1    3    3  502    0  0.16959835404E+02  0.28600524054E+02 -0.14312641552E+02  0.36504351813E+02  0.47000000000E+01 0.  1.
         -5    1    3    3    0  502 -0.66070538689E+01  0.12111855982E+02  0.15720145885E+03  0.15787570707E+03  0.47000000000E+01 0.  1.
        -11    1    1    2    0    0  0.16680213771E+02 -0.62123651225E+02  0.93899758480E+02  0.11381890096E+03  0.00000000000E+00 0.  1.
         11    1    1    2    0    0 -0.27032995306E+02  0.21411271188E+02  0.34297812558E+02  0.48637077578E+02  0.00000000000E+00 0. -1.
<mgrwt>
<rscale>  0 0.12293031E+03</rscale>
<asrwt>0</asrwt>
<pdfrwt beam="1">  1        2 0.48301723E-01 0.13178161E+03</pdfrwt>
<pdfrwt beam="2">  1       -2 0.65961271E-02 0.13178161E+03</pdfrwt>
<totfact> 0.12509365E+04</totfact>
</mgrwt>
</event>
<event>
 7    1  0.6008063E-006  0.1270909E+03  0.7546771E-02  0.1247170E+00
         -2   -1    0    0    0  501 -0.00000000000E+00  0.00000000000E+00  0.90443294753E+01  0.90443294753E+01  0.00000000000E+00 0.  1.
          2   -1    0    0  501    0  0.00000000000E+00 -0.00000000000E+00 -0.13804930493E+04  0.13804930493E+04  0.00000000000E+00 0. -1.
         23    2    1    2    0    0  0.22720434921E+02 -0.33444191363E+01 -0.90665660384E+03  0.91552078343E+03  0.12499881718E+03 0.  0.
          5    1    3    3  502    0  0.72325726780E+02 -0.17811505248E+02 -0.49146761503E+03  0.49710237084E+03  0.47000000000E+01 0.  1.
         -5    1    3    3    0  502 -0.49605291859E+02  0.14467086111E+02 -0.41518898882E+03  0.41841841259E+03  0.47000000000E+01 0.  1.
        -11    1    1    2    0    0 -0.23582366168E+01 -0.41843796242E+02 -0.17019844746E+03  0.17528256069E+03  0.00000000000E+00 0.  1.
         11    1    1    2    0    0 -0.20362198304E+02  0.45188215379E+02 -0.29459366850E+03  0.29873403463E+03  0.00000000000E+00 0. -1.
<mgrwt>
<rscale>  0 0.11756440E+03</rscale>
<asrwt>0</asrwt>
<pdfrwt beam="2">  1        2 0.21238355E+00 0.12709094E+03</pdfrwt>
<pdfrwt beam="1">  1       -2 0.13914353E-02 0.12709094E+03</pdfrwt>
<totfact> 0.19984342E+04</totfact>
</mgrwt>
</event>
<event>
 7    1  0.6008063E-006  0.1996553E+03  0.7546771E-02  0.1155317E+00
          2   -1    0    0  501    0  0.00000000000E+00  0.00000000000E+00  0.46548987784E+02  0.46548987784E+02  0.00000000000E+00 0. -1.
         -2   -1    0    0    0  501 -0.00000000000E+00 -0.00000000000E+00 -0.87030063124E+03  0.87030063124E+03  0.00000000000E+00 0.  1.
         23    2    1    2    0    0  0.43418300674E+02 -0.14951049780E+03 -0.27050718232E+03  0.33620884808E+03  0.12499486412E+03 0.  0.
          5    1    3    3  502    0  0.65287617176E+02 -0.12383690501E+03 -0.26758850975E+03  0.30203270113E+03  0.47000000000E+01 0. -1.
         -5    1    3    3    0  502 -0.21869316502E+02 -0.25673592788E+02 -0.29186725648E+01  0.34176146951E+02  0.47000000000E+01 0. -1.
        -11    1    1    2    0    0  0.41094778010E+01  0.82869279762E+02 -0.17543396315E+03  0.19406514566E+03  0.00000000000E+00 0. -1.
         11    1    1    2    0    0 -0.47527778475E+02  0.66641218037E+02 -0.37781049799E+03  0.38657562528E+03  0.00000000000E+00 0.  1.
<mgrwt>
<rscale>  0 0.19352779E+03</rscale>
<asrwt>0</asrwt>
<pdfrwt beam="1">  1        2 0.71613831E-02 0.19965534E+03</pdfrwt>
<pdfrwt beam="2">  1       -2 0.13389240E+00 0.19965534E+03</pdfrwt>
<totfact> 0.41311874E+02</totfact>
</mgrwt>
</event>
<event>
 7    1  0.6008063E-006  0.1513311E+03  0.7546771E-02  0.1206043E+00
          2   -1    0    0  501    0  0.00000000000E+00  0.00000000000E+00  0.35325113685E+03  0.35325113685E+03  0.00000000000E+00 0. -1.
         -2   -1    0    0    0  501 -0.00000000000E+00 -0.00000000000E+00 -0.77434880516E+02  0.77434880516E+02  0.00000000000E+00 0.  1.
         23    2    1    2    0    0 -0.73690716537E+02  0.42959687238E+02  0.25914835228E+03  0.30009827686E+03  0.12500100340E+03 0.  0.
          5    1    3    3  502    0 -0.49050231584E+02 -0.40054656865E+02  0.12775113366E+03  0.14266303974E+03  0.47000000000E+01 0. -1.
         -5    1    3    3    0  502 -0.24640484953E+02  0.83014344103E+02  0.13139721862E+03  0.15743523712E+03  0.47000000000E+01 0. -1.
        -11    1    1    2    0    0 -0.16275071051E+02 -0.28112753729E+02 -0.12571513868E+02  0.34831707120E+02  0.00000000000E+00 0.  1.
         11    1    1    2    0    0  0.89965787588E+02 -0.14846933509E+02  0.29239417923E+02  0.95756033394E+02  0.00000000000E+00 0. -1.
<mgrwt>
<rscale>  0 0.14555599E+03</rscale>
<asrwt>0</asrwt>
<pdfrwt beam="1">  1        2 0.54346328E-01 0.15133112E+03</pdfrwt>
<pdfrwt beam="2">  1       -2 0.11913059E-01 0.15133112E+03</pdfrwt>
<totfact> 0.44309652E+03</totfact>
</mgrwt>
</event>
<event>
 7    1  0.6008063E-006  0.1304900E+03  0.7546771E-02  0.1238069E+00
         -2   -1    0    0    0  501 -0.00000000000E+00  0.00000000000E+00  0.35527159751E+02  0.35527159751E+02  0.00000000000E+00 0.  1.
          2   -1    0    0  501    0  0.00000000000E+00 -0.00000000000E+00 -0.40955463480E+03  0.40955463480E+03  0.00000000000E+00 0. -1.
         23    2    1    2    0    0 -0.10773816339E+02  0.35763699913E+02 -0.26179852213E+03  0.29251683576E+03  0.12503005905E+03 0.  0.
          5    1    3    3  502    0  0.28874644886E+02 -0.36681360809E+02 -0.11127395550E+03  0.12076113001E+03  0.47000000000E+01 0. -1.
         -5    1    3    3    0  502 -0.39648461225E+02  0.72445060722E+02 -0.15052456662E+03  0.17175570575E+03  0.47000000000E+01 0. -1.
        -11    1    1    2    0    0  0.31228904699E+02 -0.86984057259E+01  0.28946691826E+01  0.32546672035E+02  0.00000000000E+00 0.  1.
         11    1    1    2    0    0 -0.20455088360E+02 -0.27065294187E+02 -0.11512362211E+03  0.12001828676E+03  0.00000000000E+00 0. -1.
<mgrwt>
<rscale>  0 0.12309998E+03</rscale>
<asrwt>0</asrwt>
<pdfrwt beam="2">  1        2 0.63008402E-01 0.13048997E+03</pdfrwt>
<pdfrwt beam="1">  1       -2 0.54657172E-02 0.13048997E+03</pdfrwt>
<totfact> 0.12529621E+04</totfact>
</mgrwt>
</event>
<event>
 6    1  0.6008063E-006  0.1585958E+03  0.7546771E-02  0.1210131E+00
         -2   -1    0    0    0  501 -0.00000000000E+00  0.00000000000E+00  0.22067736292E+02  0.22067736292E+02  0.00000000000E+00 0.  1.
          2   -1    0    0  501    0  0.00000000000E+00 -0.00000000000E+00 -0.85795945759E+03  0.85795945759E+03  0.00000000000E+00 0. -1.
          5    1    1    2  502    0  0.11950589286E+00 -0.72404281546E+02 -0.49755063378E+03  0.50281320333E+03  0.47000000000E+01 0. -1.
         -5    1    1    2    0  502  0.40815187152E+02  0.48595187635E+02 -0.13393951416E+03  0.14828774467E+03  0.47000000000E+01 0.  1.
        -11    1    1    2    0    0  0.20701688414E+02  0.25121781021E+02 -0.31241016960E+02  0.45118343560E+02  0.00000000000E+00 0.  1.
         11    1    1    2    0    0 -0.61636381459E+02 -0.13126871104E+01 -0.17316055639E+03  0.18380790232E+03  0.00000000000E+00 0. -1.
<mgrwt>
<rscale>  0 0.14240371E+03</rscale>
<asrwt>0</asrwt>
<pdfrwt beam="2">  1        2 0.13199376E+00 0.15859583E+03</pdfrwt>
<pdfrwt beam="1">  1       -2 0.33950363E-02 0.15859583E+03</pdfrwt>
<totfact> 0.11039961E+04</totfact>
</mgrwt>
</event>
<event>
 7    1  0.6008063E-006  0.1419004E+03  0.7546771E-02  0.1221443E+00
          4   -1    0    0  501    0  0.00000000000E+00  0.00000000000E+00  0.24431255481E+03  0.24431255481E+03  0.00000000000E+00 0. -1.
         -4   -1    0    0    0  501 -0.00000000000E+00 -0.00000000000E+00 -0.69468753142E+02  0.69468753142E+02  0.00000000000E+00 0.  1.
         23    2    1    2    0    0 -0.61983373593E+02 -0.25880725333E+02  0.12826042146E+03  0.19127589008E+03  0.12499591940E+03 0.  0.
          5    1    3    3  502    0  0.25669421220E+02  0.28487016209E+02  0.36183796719E+02  0.52931903643E+02  0.47000000000E+01 0.  1.
         -5    1    3    3    0  502 -0.87652794813E+02 -0.54367741541E+02  0.92076624744E+02  0.13834398644E+03  0.47000000000E+01 0.  1.
        -11    1    1    2    0    0  0.37424394724E+02 -0.11894121120E+02 -0.18451283548E+02  0.43387847403E+02  0.00000000000E+00 0.  1.
         11    1    1    2    0    0  0.24558978869E+02  0.37774846452E+02  0.65034663756E+02  0.79117570472E+02  0.00000000000E+00 0. -1.
<mgrwt>
<rscale>  0 0.13413685E+03</rscale>
<asrwt>0</asrwt>
<pdfrwt beam="1">  1        4 0.37586547E-01 0.14190042E+03</pdfrwt>
<pdfrwt beam="2">  1       -4 0.10687501E-01 0.14190042E+03</pdfrwt>
<totfact> 0.77779937E+02</totfact>
</mgrwt>
</event>
<event>
 7    1  0.6008063E-006  0.2026036E+03  0.7546771E-02  0.1151865E+00
         -1   -1    0    0    0  501 -0.00000000000E+00  0.00000000000E+00  0.11866687063E+03  0.11866687063E+03  0.00000000000E+00 0. -1.
          1   -1    0    0  501    0  0.00000000000E+00 -0.00000000000E+00 -0.13299898116E+04  0.13299898116E+04  0.00000000000E+00 0.  1.
         23    2    1    2    0    0  0.11437108862E+03 -0.11112426474E+03 -0.12460703216E+04  0.12624339434E+04  0.12497546515E+03 0.  0.
          5    1    3    3  502    0  0.28329541538E+02 -0.10509635588E+03 -0.52336794853E+03  0.53458760413E+03  0.47000000000E+01 0.  1.
         -5    1    3    3    0  502  0.86041547084E+02 -0.60279088613E+01 -0.72270237310E+03  0.72784633927E+03  0.47000000000E+01 0.  1.
        -11    1    1    2    0    0 -0.85490140880E+02  0.33090733867E+02  0.45469589358E+02  0.10232812132E+03  0.00000000000E+00 0. -1.
         11    1    1    2    0    0 -0.28880947741E+02  0.78033530878E+02 -0.10722208669E+02  0.83894617482E+02  0.00000000000E+00 0.  1.
<mgrwt>
<rscale>  0 0.19750123E+03</rscale>
<asrwt>0</asrwt>
<pdfrwt beam="2">  1        1 0.20461381E+00 0.20260359E+03</pdfrwt>
<pdfrwt beam="1">  1       -1 0.18256442E-01 0.20260359E+03</pdfrwt>
<totfact> 0.22262595E+02</totfact>
</mgrwt>
</event>
<event>
 7    1  0.6008063E-006  0.1274936E+03  0.7546771E-02  0.1246363E+00
         -2   -1    0    0    0  501 -0.00000000000E+00  0.00000000000E+00  0.14121920833E+02  0.14121920833E+02  0.00000000000E+00 0.  1.
          2   -1    0    0  501    0  0.00000000000E+00 -0.00000000000E+00 -0.90085832585E+03  0.90085832585E+03  0.00000000000E+00 0. -1.
         23    2    1    2    0    0 -0.26548259445E+01  0.24940120957E+02 -0.59744390537E+03  0.61089593738E+03  0.12500227403E+03 0.  0.
          5    1    3    3  502    0  0.15657635491E+02  0.73445990401E+02 -0.33656226787E+03  0.34487059198E+03  0.47000000000E+01 0. -1.
         -5    1    3    3    0  502 -0.18312461435E+02 -0.48505869444E+02 -0.26088163749E+03  0.26602534540E+03  0.47000000000E+01 0. -1.
        -11    1    1    2    0    0 -0.18015211314E+02 -0.43696375993E+02 -0.25739798432E+03  0.26170143952E+03  0.00000000000E+00 0. -1.
         11    1    1    2    0    0  0.20670037258E+02  0.18756255036E+02 -0.31894515330E+02  0.42382869787E+02  0.00000000000E+00 0.  1.
<mgrwt>
<rscale>  0 0.11804167E+03</rscale>
<asrwt>0</asrwt>
<pdfrwt beam="2">  1        2 0.13859361E+00 0.12749363E+03</pdfrwt>
<pdfrwt beam="1">  1       -2 0.21726029E-02 0.12749363E+03</pdfrwt>
<totfact> 0.19656459E+04</totfact>
</mgrwt>
</event>
<event>
 7    1  0.6008063E-006  0.1342544E+03  0.7546771E-02  0.1233650E+00
          2   -1    0    0  501    0  0.00000000000E+00  0.00000000000E+00  0.16997103256E+03  0.16997103256E+03  0.00000000000E+00 0. -1.
         -2   -1    0    0    0  501 -0.00000000000E+00 -0.00000000000E+00 -0.98286889774E+02  0.98286889774E+02  0.00000000000E+00 0.  1.
         23    2    1    2    0    0 -0.36218403281E+02  0.32827800061E+02  0.91558317221E+02  0.16250286763E+03  0.12503927120E+03 0.  0.
          5    1    3    3  502    0 -0.28648094610E+02  0.71150191717E+02  0.95932899255E+02  0.12291572017E+03  0.47000000000E+01 0. -1.
         -5    1    3    3    0  502 -0.75703086712E+01 -0.38322391656E+02 -0.43745820338E+01  0.39587147454E+02  0.47000000000E+01 0. -1.
        -11    1    1    2    0    0 -0.17446810617E+02 -0.15534613938E+02 -0.39637276728E+02  0.46009011480E+02  0.00000000000E+00 0.  1.
         11    1    1    2    0    0  0.53665213897E+02 -0.17293186123E+02  0.19763102293E+02  0.59746043226E+02  0.00000000000E+00 0. -1.
<mgrwt>
<rscale>  0 0.12591281E+03</rscale>
<asrwt>0</asrwt>
<pdfrwt beam="1">  1        2 0.26149390E-01 0.13425445E+03</pdfrwt>
<pdfrwt beam="2">  1       -2 0.15121060E-01 0.13425445E+03</pdfrwt>
<totfact> 0.65564223E+03</totfact>
</mgrwt>
</event>
<event>
 6    1  0.6008063E-006  0.1709873E+03  0.7546771E-02  0.1195992E+00
         -4   -1    0    0    0  501 -0.00000000000E+00  0.00000000000E+00  0.38356764169E+03  0.38356764169E+03  0.00000000000E+00 0.  1.
          4   -1    0    0  501    0  0.00000000000E+00 -0.00000000000E+00 -0.52435382104E+02  0.52435382104E+02  0.00000000000E+00 0. -1.
          5    1    1    2  502    0 -0.38520359779E+02 -0.52656591343E+02  0.95569494932E+02  0.11581085049E+03  0.47000000000E+01 0. -1.
         -5    1    1    2    0  502  0.10040008147E+03  0.30138764503E+02  0.12237184639E+03  0.16120012492E+03  0.47000000000E+01 0.  1.
        -11    1    1    2    0    0  0.22042406866E+02  0.46414001332E+01  0.41331450256E+02  0.47071212815E+02  0.00000000000E+00 0.  1.
         11    1    1    2    0    0 -0.83922128554E+02  0.17876426708E+02  0.71859468009E+02  0.11192083557E+03  0.00000000000E+00 0. -1.
<mgrwt>
<rscale>  0 0.15370571E+03</rscale>
<asrwt>0</asrwt>
<pdfrwt beam="2">  1        4 0.80669821E-02 0.17098729E+03</pdfrwt>
<pdfrwt beam="1">  1       -4 0.59010405E-01 0.17098729E+03</pdfrwt>
<totfact> 0.51854350E+02</totfact>
</mgrwt>
</event>
<event>
 7    1  0.6008063E-006  0.1303820E+03  0.7546771E-02  0.1256121E+00
         -2   -1    0    0    0  501 -0.00000000000E+00  0.00000000000E+00  0.26667557713E+03  0.26667557713E+03  0.00000000000E+00 0.  1.
          2   -1    0    0  501    0  0.00000000000E+00 -0.00000000000E+00 -0.44806152572E+02  0.44806152572E+02  0.00000000000E+00 0. -1.
         23    2    1    2    0    0  0.35899456066E+02 -0.91579380877E+01  0.81736649025E+02  0.15388416826E+03  0.12500727447E+03 0.  0.
          5    1    3    3  502    0  0.52341029058E+02  0.43423590896E+02  0.69301178233E+02  0.97210775502E+02  0.47000000000E+01 0. -1.
         -5    1    3    3    0  502 -0.16441572992E+02 -0.52581528984E+02  0.12435470791E+02  0.56673392756E+02  0.47000000000E+01 0. -1.
        -11    1    1    2    0    0 -0.28860119157E+02  0.32640478592E+02  0.11258348409E+03  0.12072012347E+03  0.00000000000E+00 0.  1.
         11    1    1    2    0    0 -0.70393369093E+01 -0.23482540504E+02  0.27549291448E+02  0.36877437980E+02  0.00000000000E+00 0. -1.
<mgrwt>
<rscale>  0 0.11243757E+03</rscale>
<asrwt>0</asrwt>
<pdfrwt beam="2">  1        2 0.68932544E-02 0.13038197E+03</pdfrwt>
<pdfrwt beam="1">  1       -2 0.41027011E-01 0.13038197E+03</pdfrwt>
<totfact> 0.55242805E+03</totfact>
</mgrwt>
</event>
<event>
 7    1  0.6008063E-006  0.1266950E+03  0.7546771E-02  0.1247253E+00
          2   -1    0    0  501    0  0.00000000000E+00  0.00000000000E+00  0.11849053341E+03  0.11849053341E+03  0.00000000000E+00 0. -1.
         -2   -1    0    0    0  501 -0.00000000000E+00 -0.00000000000E+00 -0.10941427747E+03  0.10941427747E+03  0.00000000000E+00 0.  1.
         23    2    1    2    0    0  0.20342389094E+02 -0.35759808517E+01  0.33401015433E+02  0.13102387006E+03  0.12500010504E+03 0.  0.
          5    1    3    3  502    0 -0.20374492708E+02  0.52674961992E+02  0.20316899112E+02  0.60204966269E+02  0.47000000000E+01 0. -1.
         -5    1    3    3    0  502  0.40716881801E+02 -0.56250942844E+02  0.13084116321E+02  0.70818903792E+02  0.47000000000E+01 0. -1.
        -11    1    1    2    0    0  0.28707202380E+02 -0.17413889210E+02 -0.27549146714E+02  0.43431584021E+02  0.00000000000E+00 0.  1.
         11    1    1    2    0    0 -0.49049591474E+02  0.20989870062E+02  0.32243872161E+01  0.53449356796E+02  0.00000000000E+00 0. -1.
<mgrwt>
<rscale>  0 0.11751528E+03</rscale>
<asrwt>0</asrwt>
<pdfrwt beam="1">  1        2 0.18229313E-01 0.12669501E+03</pdfrwt>
<pdfrwt beam="2">  1       -2 0.16832966E-01 0.12669501E+03</pdfrwt>
<totfact> 0.81937826E+03</totfact>
</mgrwt>
</event>
<event>
 7    1  0.6008063E-006  0.1274547E+03  0.7546771E-02  0.1246068E+00
         -2   -1    0    0    0  501 -0.00000000000E+00  0.00000000000E+00  0.26599694168E+02  0.26599694168E+02  0.00000000000E+00 0.  1.
          2   -1    0    0  501    0  0.00000000000E+00 -0.00000000000E+00 -0.51846504253E+03  0.51846504253E+03  0.00000000000E+00 0. -1.
         23    2    1    2    0    0  0.17763279468E+02 -0.17439049119E+02 -0.36748335531E+03  0.38895851832E+03  0.12500023203E+03 0.  0.
          5    1    3    3  502    0 -0.52740374991E+02  0.36584439847E+01 -0.13494008242E+03  0.14500292139E+03  0.47000000000E+01 0.  1.
         -5    1    3    3    0  502  0.70503654459E+02 -0.21097493104E+02 -0.23254327289E+03  0.24395559693E+03  0.47000000000E+01 0.  1.
        -11    1    1    2    0    0 -0.11745860798E+02  0.51094562105E+02 -0.10356265099E+03  0.11607688057E+03  0.00000000000E+00 0. -1.
         11    1    1    2    0    0 -0.60174186696E+01 -0.33655512986E+02 -0.20819342060E+02  0.40029337811E+02  0.00000000000E+00 0.  1.
<mgrwt>
<rscale>  0 0.11821708E+03</rscale>
<asrwt>0</asrwt>
<pdfrwt beam="2">  1        2 0.79763858E-01 0.12745475E+03</pdfrwt>
<pdfrwt beam="1">  1       -2 0.40922604E-02 0.12745475E+03</pdfrwt>
<totfact> 0.14931194E+04</totfact>
</mgrwt>
</event>
<event>
 7    1  0.6008063E-006  0.1364551E+03  0.7546771E-02  0.1230594E+00
         -2   -1    0    0    0  501 -0.00000000000E+00  0.00000000000E+00  0.10419263893E+02  0.10419263893E+02  0.00000000000E+00 0.  1.
          2   -1    0    0  501    0  0.00000000000E+00 -0.00000000000E+00 -0.20198362731E+04  0.20198362731E+04  0.00000000000E+00 0. -1.
         23    2    1    2    0    0  0.52393542924E+02 -0.15880670478E+02 -0.16522916287E+04  0.16579166530E+04  0.12499089138E+03 0.  0.
          5    1    3    3  502    0  0.26153160073E+02  0.51858654057E+01 -0.67031029594E+02  0.72291976804E+02  0.47000000000E+01 0.  1.
         -5    1    3    3    0  502  0.26240382851E+02 -0.21066535884E+02 -0.15852605991E+04  0.15856246762E+04  0.47000000000E+01 0.  1.
        -11    1    1    2    0    0 -0.55198261678E+02 -0.26596758142E+02 -0.17896286872E+03  0.18916115885E+03  0.00000000000E+00 0.  1.
         11    1    1    2    0    0  0.28047187538E+01  0.42477428620E+02 -0.17816251175E+03  0.18317772512E+03  0.00000000000E+00 0. -1.
<mgrwt>
<rscale>  0 0.12790766E+03</rscale>
<asrwt>0</asrwt>
<pdfrwt beam="2">  1        2 0.31074415E+00 0.13645513E+03</pdfrwt>
<pdfrwt beam="1">  1       -2 0.16029631E-02 0.13645513E+03</pdfrwt>
<totfact> 0.76655625E+03</totfact>
</mgrwt>
</event>
<event>
 7    1  0.6008063E-006  0.1250997E+03  0.7546771E-02  0.1254051E+00
         -1   -1    0    0    0  501 -0.00000000000E+00  0.00000000000E+00  0.19071582689E+03  0.19071582689E+03  0.00000000000E+00 0.  1.
          1   -1    0    0  501    0  0.00000000000E+00 -0.00000000000E+00 -0.57927025627E+02  0.57927025627E+02  0.00000000000E+00 0. -1.
         23    2    1    2    0    0  0.29201124043E+01 -0.40777257859E+01  0.76065409320E+02  0.14641000954E+03  0.12499915797E+03 0.  0.
          5    1    3    3  502    0  0.58743350460E+02 -0.12090397499E+02  0.12758495137E+02  0.61496570093E+02  0.47000000000E+01 0.  1.
         -5    1    3    3    0  502 -0.55823238056E+02  0.80126717130E+01  0.63306914183E+02  0.84913439445E+02  0.47000000000E+01 0.  1.
        -11    1    1    2    0    0 -0.40126806387E+02  0.19157127972E+02  0.34988947976E+02  0.56580761955E+02  0.00000000000E+00 0.  1.
         11    1    1    2    0    0  0.37206693983E+02 -0.15079402186E+02  0.21734443968E+02  0.45652081026E+02  0.00000000000E+00 0. -1.
<mgrwt>
<rscale>  0 0.11359643E+03</rscale>
<asrwt>0</asrwt>
<pdfrwt beam="2">  1        1 0.89118502E-02 0.12509974E+03</pdfrwt>
<pdfrwt beam="1">  1       -1 0.29340896E-01 0.12509974E+03</pdfrwt>
<totfact> 0.74814917E+03</totfact>
</mgrwt>
</event>
<event>
 7    1  0.6008063E-006  0.2038570E+03  0.7546771E-02  0.1150553E+00
          1   -1    0    0  501    0  0.00000000000E+00  0.00000000000E+00  0.15654703437E+03  0.15654703437E+03  0.00000000000E+00 0. -1.
         -1   -1    0    0    0  501 -0.00000000000E+00 -0.00000000000E+00 -0.33327484267E+03  0.33327484267E+03  0.00000000000E+00 0.  1.
         23    2    1    2    0    0  0.94731235876E+02  0.13023192536E+03  0.36777632574E+02  0.20714791040E+03  0.12499320418E+03 0.  0.
          5    1    3    3  502    0  0.11406810605E+03  0.14082245726E+03  0.31618719991E+02  0.18402263649E+03  0.47000000000E+01 0. -1.
         -5    1    3    3    0  502 -0.19336870177E+02 -0.10590531901E+02  0.51589125829E+01  0.23125273906E+02  0.47000000000E+01 0. -1.
        -11    1    1    2    0    0 -0.10206271854E+03 -0.11844859523E+03 -0.21783187795E+03  0.26813726947E+03  0.00000000000E+00 0.  1.
         11    1    1    2    0    0  0.73314826622E+01 -0.11783330127E+02  0.43264370665E+01  0.14536697169E+02  0.00000000000E+00 0. -1.
<mgrwt>
<rscale>  0 0.19903872E+03</rscale>
<asrwt>0</asrwt>
<pdfrwt beam="1">  1        1 0.24084159E-01 0.20385697E+03</pdfrwt>
<pdfrwt beam="2">  1       -1 0.51273052E-01 0.20385697E+03</pdfrwt>
<totfact> 0.78640091E+02</totfact>
</mgrwt>
</event>
<event>
 6    1  0.6008063E-006  0.2489935E+03  0.7546771E-02  0.1127983E+00
          1   -1    0    0  501    0  0.00000000000E+00  0.00000000000E+00  0.63922932119E+03  0.63922932119E+03  0.00000000000E+00 0. -1.
         -1   -1    0    0    0  501 -0.00000000000E+00 -0.00000000000E+00 -0.76482672952E+02  0.76482672952E+02  0.00000000000E+00 0.  1.
          5    1    1    2  502    0  0.61297988584E+02  0.18575027681E+03  0.32504699573E+03  0.37939194532E+03  0.47000000000E+01 0. -1.
         -5    1    1    2    0  502 -0.37490697842E+02 -0.37251120320E+02  0.10055116324E+03  0.11369179750E+03  0.47000000000E+01 0.  1.
        -11    1    1    2    0    0 -0.54950486945E+02 -0.99226325216E+02  0.11113629550E+03  0.15879765681E+03  0.00000000000E+00 0.  1.
         11    1    1    2    0    0  0.31143196203E+02 -0.49272831273E+02  0.26012193766E+02  0.63830594513E+02  0.00000000000E+00 0. -1.
<mgrwt>
<rscale>  0 0.22810148E+03</rscale>
<asrwt>0</asrwt>
<pdfrwt beam="1">  1        1 0.98342969E-01 0.24899354E+03</pdfrwt>
<pdfrwt beam="2">  1       -1 0.11766565E-01 0.24899354E+03</pdfrwt>
<totfact> 0.15179174E+03</totfact>
</mgrwt>
</event>
<event>
 7    1  0.6008063E-006  0.1265251E+03  0.7546771E-02  0.1255031E+00
         -2   -1    0    0    0  501 -0.00000000000E+00  0.00000000000E+00  0.13207588259E+02  0.13207588259E+02  0.00000000000E+00 0.  1.
          2   -1    0    0  501    0  0.00000000000E+00 -0.00000000000E+00 -0.92447490799E+03  0.92447490799E+03  0.00000000000E+00 0. -1.
         23    2    1    2    0    0  0.19577672039E+02  0.24635007255E+00 -0.70410681133E+03  0.71538451379E+03  0.12500101951E+03 0.  0.
          5    1    3    3  502    0  0.59305230218E+02  0.26305805082E+02 -0.55552605705E+03  0.55932137074E+03  0.47000000000E+01 0.  1.
         -5    1    3    3    0  502 -0.39727558179E+02 -0.26059455009E+02 -0.14858075428E+03  0.15606314304E+03  0.47000000000E+01 0.  1.
        -11    1    1    2    0    0 -0.48389427532E+02  0.10483829599E+02 -0.13793911193E+03  0.14655594829E+03  0.00000000000E+00 0.  1.
         11    1    1    2    0    0  0.28811755493E+02 -0.10730179672E+02 -0.69221396473E+02  0.75742034169E+02  0.00000000000E+00 0. -1.
<mgrwt>
<rscale>  0 0.11304578E+03</rscale>
<asrwt>0</asrwt>
<pdfrwt beam="2">  1        2 0.14222695E+00 0.12652510E+03</pdfrwt>
<pdfrwt beam="1">  1       -2 0.20319360E-02 0.12652510E+03</pdfrwt>
<totfact> 0.20926786E+04</totfact>
</mgrwt>
</event>
<event>
 7    1  0.6008063E-006  0.1415849E+03  0.7546771E-02  0.1225419E+00
         -1   -1    0    0    0  501 -0.00000000000E+00  0.00000000000E+00  0.29479489653E+03  0.29479489653E+03  0.00000000000E+00 0.  1.
          1   -1    0    0  501    0  0.00000000000E+00 -0.00000000000E+00 -0.51622896488E+02  0.51622896488E+02  0.00000000000E+00 0. -1.
         23    2    1    2    0    0 -0.66447986201E+02 -0.22914675970E+01  0.14579264734E+03  0.20322839441E+03  0.12500279429E+03 0.  0.
          5    1    3    3  502    0  0.16975029387E+02  0.42800006174E+02  0.41138849170E+02  0.61923235237E+02  0.47000000000E+01 0. -1.
         -5    1    3    3    0  502 -0.83423015588E+02 -0.45091473771E+02  0.10465379817E+03  0.14130515917E+03  0.47000000000E+01 0. -1.
        -11    1    1    2    0    0  0.15035768112E+02  0.33010514630E+02  0.66635802773E+02  0.75868956827E+02  0.00000000000E+00 0.  1.
         11    1    1    2    0    0  0.51412218089E+02 -0.30719047033E+02  0.30743549926E+02  0.67320441780E+02  0.00000000000E+00 0. -1.
<mgrwt>
<rscale>  0 0.13138255E+03</rscale>
<asrwt>0</asrwt>
<pdfrwt beam="2">  1        1 0.79419842E-02 0.14158490E+03</pdfrwt>
<pdfrwt beam="1">  1       -1 0.45353060E-01 0.14158490E+03</pdfrwt>
<totfact> 0.41474872E+03</totfact>
</mgrwt>
</event>
<event>
 7    1  0.6008063E-006  0.1540674E+03  0.7546771E-02  0.1203886E+00
          2   -1    0    0  501    0  0.00000000000E+00  0.00000000000E+00  0.17899725731E+03  0.17899725731E+03  0.00000000000E+00 0.  1.
         -2   -1    0    0    0  501 -0.00000000000E+00 -0.00000000000E+00 -0.11239019970E+03  0.11239019970E+03  0.00000000000E+00 0. -1.
         23    2    1    2    0    0 -0.46336984736E+02 -0.77234584432E+02  0.23938143580E+02  0.15591597941E+03  0.12499784291E+03 0.  0.
          5    1    3    3  502    0  0.11896071155E+02  0.20017569273E+02  0.34594653493E+02  0.41965457686E+02  0.47000000000E+01 0.  1.
         -5    1    3    3    0  502 -0.58233055890E+02 -0.97252153705E+02 -0.10656509912E+02  0.11395052173E+03  0.47000000000E+01 0.  1.
        -11    1    1    2    0    0  0.16294925133E+02  0.63201040119E+02 -0.16789132415E+02  0.67392662987E+02  0.00000000000E+00 0. -1.
         11    1    1    2    0    0  0.30042059602E+02  0.14033544313E+02  0.59458046451E+02  0.68078814612E+02  0.00000000000E+00 0.  1.
<mgrwt>
<rscale>  0 0.14725611E+03</rscale>
<asrwt>0</asrwt>
<pdfrwt beam="1">  1        2 0.27538040E-01 0.15406738E+03</pdfrwt>
<pdfrwt beam="2">  1       -2 0.17290800E-01 0.15406738E+03</pdfrwt>
<totfact> 0.50088398E+03</totfact>
</mgrwt>
</event>
<event>
 7    1  0.6008063E-006  0.1258529E+03  0.7546771E-02  0.1243662E+00
          2   -1    0    0  501    0  0.00000000000E+00  0.00000000000E+00  0.34307497209E+04  0.34307497209E+04  0.00000000000E+00 0. -1.
         -2   -1    0    0    0  501 -0.00000000000E+00 -0.00000000000E+00 -0.12541626681E+02  0.12541626681E+02  0.00000000000E+00 0.  1.
         23    2    1    2    0    0  0.17275610146E+02  0.46268102801E+02  0.31955732425E+04  0.31980505481E+04  0.11575740319E+03 0.  0.
          5    1    3    3  502    0  0.39433371528E+01  0.26902604059E+02  0.30746202695E+04  0.30747440855E+04  0.47000000000E+01 0. -1.
         -5    1    3    3    0  502  0.13332272994E+02  0.19365498742E+02  0.12095297299E+03  0.12330646261E+03  0.47000000000E+01 0.  1.
        -11    1    1    2    0    0  0.34690684586E+02 -0.20309214876E+02  0.57268631040E+02  0.69968592290E+02  0.00000000000E+00 0.  1.
         11    1    1    2    0    0 -0.51966294733E+02 -0.25958887926E+02  0.16536622075E+03  0.17527220720E+03  0.00000000000E+00 0. -1.
<mgrwt>
<rscale>  0 0.11965797E+03</rscale>
<asrwt>0</asrwt>
<pdfrwt beam="1">  1        2 0.52780690E+00 0.12585293E+03</pdfrwt>
<pdfrwt beam="2">  1       -2 0.19294838E-02 0.12585293E+03</pdfrwt>
<totfact> 0.95822575E+02</totfact>
</mgrwt>
</event>
<event>
 7    1  0.6008063E-006  0.1435955E+03  0.7546771E-02  0.1219085E+00
         -1   -1    0    0    0  501 -0.00000000000E+00  0.00000000000E+00  0.34431148949E+02  0.34431148949E+02  0.00000000000E+00 0.  1.
          1   -1    0    0  501    0  0.00000000000E+00 -0.00000000000E+00 -0.73776209843E+03  0.73776209843E+03  0.00000000000E+00 0. -1.
         23    2    1    2    0    0  0.59222642436E+02 -0.38551097627E+02 -0.60236979077E+03  0.61924876614E+03  0.12500464401E+03 0.  0.
          5    1    3    3  502    0  0.52362442275E+02  0.45594771825E+01 -0.85198886638E+02  0.10021753578E+03  0.47000000000E+01 0. -1.
         -5    1    3    3    0  502  0.68602001604E+01 -0.43110574809E+02 -0.51717090414E+03  0.51903123036E+03  0.47000000000E+01 0. -1.
        -11    1    1    2    0    0 -0.51854430235E+02  0.14756731976E+02 -0.53917032771E+01  0.54182225294E+02  0.00000000000E+00 0.  1.
         11    1    1    2    0    0 -0.73682122005E+01  0.23794365651E+02 -0.95569455431E+02  0.98762255944E+02  0.00000000000E+00 0. -1.
<mgrwt>
<rscale>  0 0.13580717E+03</rscale>
<asrwt>0</asrwt>
<pdfrwt beam="2">  1        1 0.11350186E+00 0.14359551E+03</pdfrwt>
<pdfrwt beam="1">  1       -1 0.52971001E-02 0.14359551E+03</pdfrwt>
<totfact> 0.41052265E+03</totfact>
</mgrwt>
</event>
<event>
 7    1  0.6008063E-006  0.1143993E+03  0.7546771E-02  0.1298644E+00
         -1   -1    0    0    0  501 -0.00000000000E+00  0.00000000000E+00  0.36036364976E+02  0.36036364976E+02  0.00000000000E+00 0.  1.
          1   -1    0    0  501    0  0.00000000000E+00 -0.00000000000E+00 -0.61701119160E+03  0.61701119160E+03  0.00000000000E+00 0. -1.
         23    2    1    2    0    0  0.21361576148E+02 -0.19456986171E+02 -0.59320900992E+03  0.60413916262E+03  0.11069014009E+03 0.  0.
          5    1    3    3  502    0  0.11764078677E+02  0.37415835600E+02 -0.41258403768E+03  0.41447076670E+03  0.47000000000E+01 0. -1.
         -5    1    3    3    0  502  0.95974974714E+01 -0.56872821771E+02 -0.18062497224E+03  0.18966839592E+03  0.47000000000E+01 0.  1.
        -11    1    1    2    0    0 -0.31549203520E+02  0.19582990280E+02  0.10337997852E+02  0.38545037951E+02  0.00000000000E+00 0.  1.
         11    1    1    2    0    0  0.10187627372E+02 -0.12600410922E+00  0.18961854427E+01  0.10363356008E+02  0.00000000000E+00 0. -1.
<mgrwt>
<rscale>  0 0.91760458E+02</rscale>
<asrwt>0</asrwt>
<pdfrwt beam="2">  1        1 0.94924788E-01 0.11439929E+03</pdfrwt>
<pdfrwt beam="1">  1       -1 0.55440568E-02 0.11439929E+03</pdfrwt>
<totfact> 0.48853119E+03</totfact>
</mgrwt>
</event>
<event>
 7    1  0.6008063E-006  0.1888828E+03  0.7546771E-02  0.1164481E+00
          1   -1    0    0  501    0  0.00000000000E+00  0.00000000000E+00  0.30943979047E+03  0.30943979047E+03  0.00000000000E+00 0. -1.
         -1   -1    0    0    0  501 -0.00000000000E+00 -0.00000000000E+00 -0.11904852211E+03  0.11904852211E+03  0.00000000000E+00 0.  1.
         23    2    1    2    0    0  0.12698225929E+03 -0.62664513006E+02  0.17853134488E+03  0.25990411777E+03  0.12500149584E+03 0.  0.
          5    1    3    3  502    0  0.89029443644E+02  0.21383087755E+02  0.11825759374E+03  0.14963431009E+03  0.47000000000E+01 0.  1.
         -5    1    3    3    0  502  0.37952815649E+02 -0.84047600761E+02  0.60273751140E+02  0.11026980768E+03  0.47000000000E+01 0.  1.
        -11    1    1    2    0    0 -0.82605664225E+02  0.48107412434E+02  0.50369801106E+02  0.10805154213E+03  0.00000000000E+00 0. -1.
         11    1    1    2    0    0 -0.44376595068E+02  0.14557100571E+02 -0.38509877624E+02  0.60532652688E+02  0.00000000000E+00 0.  1.
<mgrwt>
<rscale>  0 0.18347596E+03</rscale>
<asrwt>0</asrwt>
<pdfrwt beam="1">  1        1 0.47606121E-01 0.18888279E+03</pdfrwt>
<pdfrwt beam="2">  1       -1 0.18315157E-01 0.18888279E+03</pdfrwt>
<totfact> 0.19395203E+03</totfact>
</mgrwt>
</event>
<event>
 7    1  0.6008063E-006  0.1315129E+03  0.7546771E-02  0.1240125E+00
         -2   -1    0    0    0  501 -0.00000000000E+00  0.00000000000E+00  0.40019864403E+02  0.40019864403E+02  0.00000000000E+00 0.  1.
          2   -1    0    0  501    0  0.00000000000E+00 -0.00000000000E+00 -0.42038573793E+03  0.42038573793E+03  0.00000000000E+00 0. -1.
         23    2    1    2    0    0  0.13427504230E+02  0.38630438297E+02 -0.32084835778E+03  0.34675538716E+03  0.12499208454E+03 0.  0.
          5    1    3    3  502    0 -0.36272275817E+02  0.63489875088E+02 -0.14820994558E+03  0.16533275598E+03  0.47000000000E+01 0. -1.
         -5    1    3    3    0  502  0.49699780046E+02 -0.24859436791E+02 -0.17263841220E+03  0.18142263118E+03  0.47000000000E+01 0. -1.
        -11    1    1    2    0    0  0.15114619970E+02 -0.50734081659E+02 -0.80213859717E+01  0.53541959355E+02  0.00000000000E+00 0.  1.
         11    1    1    2    0    0 -0.28542124199E+02  0.12103643362E+02 -0.51496129775E+02  0.60108255824E+02  0.00000000000E+00 0. -1.
<mgrwt>
<rscale>  0 0.12181955E+03</rscale>
<asrwt>0</asrwt>
<pdfrwt beam="2">  1        2 0.64674725E-01 0.13151285E+03</pdfrwt>
<pdfrwt beam="1">  1       -2 0.61569026E-02 0.13151285E+03</pdfrwt>
<totfact> 0.10182891E+04</totfact>
</mgrwt>
</event>
<event>
 7    1  0.6008063E-006  0.1765399E+03  0.7546771E-02  0.1177074E+00
          1   -1    0    0  501    0  0.00000000000E+00  0.00000000000E+00  0.53044560029E+03  0.53044560029E+03  0.00000000000E+00 0. -1.
         -1   -1    0    0    0  501 -0.00000000000E+00 -0.00000000000E+00 -0.55132608380E+02  0.55132608380E+02  0.00000000000E+00 0.  1.
         23    2    1    2    0    0 -0.64203911114E+00 -0.12466515588E+03  0.32602975828E+03  0.37075834218E+03  0.12499812683E+03 0.  0.
          5    1    3    3  502    0 -0.55944956549E+01  0.19666211457E+02  0.99542202409E+01  0.23221428795E+02  0.47000000000E+01 0. -1.
         -5    1    3    3    0  502  0.49524565438E+01 -0.14433136733E+03  0.31607553803E+03  0.34753691339E+03  0.47000000000E+01 0. -1.
        -11    1    1    2    0    0  0.13860302537E+02 -0.52182808417E+01 -0.20535589043E+01  0.14951773993E+02  0.00000000000E+00 0.  1.
         11    1    1    2    0    0 -0.13218263426E+02  0.12988343672E+03  0.15133679254E+03  0.19986809250E+03  0.00000000000E+00 0. -1.
<mgrwt>
<rscale>  0 0.17074412E+03</rscale>
<asrwt>0</asrwt>
<pdfrwt beam="1">  1        1 0.81607012E-01 0.17653992E+03</pdfrwt>
<pdfrwt beam="2">  1       -1 0.84819401E-02 0.17653992E+03</pdfrwt>
<totfact> 0.32246929E+03</totfact>
</mgrwt>
</event>
<event>
 7    1  0.6008063E-006  0.1642560E+03  0.7546771E-02  0.1191608E+00
          2   -1    0    0  501    0  0.00000000000E+00  0.00000000000E+00  0.83817832377E+03  0.83817832377E+03  0.00000000000E+00 0. -1.
         -2   -1    0    0    0  501 -0.00000000000E+00 -0.00000000000E+00 -0.27514904101E+02  0.27514904101E+02  0.00000000000E+00 0.  1.
         23    2    1    2    0    0  0.39715786912E+02  0.98904924191E+02  0.47063248436E+03  0.49847262455E+03  0.12498197604E+03 0.  0.
          5    1    3    3  502    0 -0.33176180382E+02 -0.17625796983E+00  0.49929631353E+02  0.60131090949E+02  0.47000000000E+01 0.  1.
         -5    1    3    3    0  502  0.72891967294E+02  0.99081182160E+02  0.42070285300E+03  0.43834153360E+03  0.47000000000E+01 0.  1.
        -11    1    1    2    0    0  0.19584691825E+02 -0.20298141055E+02  0.15574332345E+03  0.15827683811E+03  0.00000000000E+00 0. -1.
         11    1    1    2    0    0 -0.59300478737E+02 -0.78606783136E+02  0.18428761186E+03  0.20894376521E+03  0.00000000000E+00 0.  1.
<mgrwt>
<rscale>  0 0.15744834E+03</rscale>
<asrwt>0</asrwt>
<pdfrwt beam="1">  1        2 0.12895049E+00 0.16425597E+03</pdfrwt>
<pdfrwt beam="2">  1       -2 0.42330628E-02 0.16425597E+03</pdfrwt>
<totfact> 0.82053344E+03</totfact>
</mgrwt>
</event>
<event>
 7    1  0.6008063E-006  0.2218111E+03  0.7546771E-02  0.1135936E+00
          1   -1    0    0  501    0  0.00000000000E+00  0.00000000000E+00  0.47811906677E+03  0.47811906677E+03  0.00000000000E+00 0. -1.
         -1   -1    0    0    0  501 -0.00000000000E+00 -0.00000000000E+00 -0.19404018260E+03  0.19404018260E+03  0.00000000000E+00 0.  1.
         23    2    1    2    0    0  0.41521776184E+02 -0.17846971136E+03  0.38504704513E+03  0.44436626279E+03  0.12499861109E+03 0.  0.
          5    1    3    3  502    0  0.84777833304E+02 -0.94508996907E+02  0.22996224548E+03  0.26272410598E+03  0.47000000000E+01 0.  1.
         -5    1    3    3    0  502 -0.43256057121E+02 -0.83960714451E+02  0.15508479965E+03  0.18164215681E+03  0.47000000000E+01 0.  1.
        -11    1    1    2    0    0 -0.62733447160E+02  0.73191079700E+02 -0.40635154872E+02  0.10461183180E+03  0.00000000000E+00 0. -1.
         11    1    1    2    0    0  0.21211670976E+02  0.10527863166E+03 -0.60333006084E+02  0.12318115478E+03  0.00000000000E+00 0.  1.
<mgrwt>
<rscale>  0 0.21726912E+03</rscale>
<asrwt>0</asrwt>
<pdfrwt beam="1">  1        1 0.73556779E-01 0.22181106E+03</pdfrwt>
<pdfrwt beam="2">  1       -1 0.29852336E-01 0.22181106E+03</pdfrwt>
<totfact> 0.49791529E+02</totfact>
</mgrwt>
</event>
<event>
 7    1  0.6008063E-006  0.1649358E+03  0.7546771E-02  0.1190348E+00
          1   -1    0    0  501    0  0.00000000000E+00  0.00000000000E+00  0.10987233197E+03  0.10987233197E+03  0.00000000000E+00 0. -1.
         -1   -1    0    0    0  501 -0.00000000000E+00 -0.00000000000E+00 -0.21317998084E+03  0.21317998084E+03  0.00000000000E+00 0.  1.
         23    2    1    2    0    0  0.10245692040E+03  0.32883893049E+02 -0.48249577370E+02  0.17184825833E+03  0.12500012485E+03 0.  0.
          5    1    3    3  502    0  0.83096664867E+02  0.56463405260E+02 -0.79290367874E+02  0.12807116882E+03  0.47000000000E+01 0.  1.
         -5    1    3    3    0  502  0.19360255535E+02 -0.23579512212E+02  0.31040790504E+02  0.43777089507E+02  0.47000000000E+01 0.  1.
        -11    1    1    2    0    0 -0.15585645311E+02  0.23234297021E+02 -0.36729850375E+02  0.46171710022E+02  0.00000000000E+00 0.  1.
         11    1    1    2    0    0 -0.86871275091E+02 -0.56118190070E+02 -0.18328221130E+02  0.10503234446E+03  0.00000000000E+00 0. -1.
<mgrwt>
<rscale>  0 0.15854587E+03</rscale>
<asrwt>0</asrwt>
<pdfrwt beam="1">  1        1 0.16903436E-01 0.16493575E+03</pdfrwt>
<pdfrwt beam="2">  1       -1 0.32796920E-01 0.16493575E+03</pdfrwt>
<totfact> 0.27217023E+03</totfact>
</mgrwt>
</event>
<event>
 7    1  0.6008063E-006  0.1831536E+03  0.7546771E-02  0.1170498E+00
         -1   -1    0    0    0  501 -0.00000000000E+00  0.00000000000E+00  0.43392802396E+02  0.43392802396E+02  0.00000000000E+00 0.  1.
          1   -1    0    0  501    0  0.00000000000E+00 -0.00000000000E+00 -0.68439740202E+03  0.68439740202E+03  0.00000000000E+00 0. -1.
         23    2    1    2    0    0 -0.12255686393E+03  0.53848804082E+02 -0.36724425216E+03  0.41038223323E+03  0.12500143205E+03 0.  0.
          5    1    3    3  502    0 -0.77065939411E+02 -0.28502345085E+02 -0.22681811102E+03  0.24128839213E+03  0.47000000000E+01 0. -1.
         -5    1    3    3    0  502 -0.45490924522E+02  0.82351149166E+02 -0.14042614114E+03  0.16909384110E+03  0.47000000000E+01 0. -1.
        -11    1    1    2    0    0  0.83968501114E+00 -0.35379511180E+02 -0.41527040121E+02  0.54561066187E+02  0.00000000000E+00 0.  1.
         11    1    1    2    0    0  0.12171717892E+03 -0.18469292901E+02 -0.23223330735E+03  0.26284690500E+03  0.00000000000E+00 0. -1.
<mgrwt>
<rscale>  0 0.17724359E+03</rscale>
<asrwt>0</asrwt>
<pdfrwt beam="2">  1        1 0.10529190E+00 0.18315359E+03</pdfrwt>
<pdfrwt beam="1">  1       -1 0.66758160E-02 0.18315359E+03</pdfrwt>
<totfact> 0.32654403E+03</totfact>
</mgrwt>
</event>
<event>
 7    1  0.6008063E-006  0.1183786E+03  0.7546771E-02  0.1255107E+00
          1   -1    0    0  501    0  0.00000000000E+00  0.00000000000E+00  0.36620341910E+03  0.36620341910E+03  0.00000000000E+00 0. -1.
         -1   -1    0    0    0  501 -0.00000000000E+00 -0.00000000000E+00 -0.46488059749E+02  0.46488059749E+02  0.00000000000E+00 0.  1.
         23    2    1    2    0    0 -0.85898429201E+01 -0.30828792688E+02  0.28472168871E+03  0.30835035368E+03  0.11397061347E+03 0.  0.
          5    1    3    3  502    0  0.26622564963E+02  0.18823741678E+01  0.91851054692E+01  0.28613990638E+02  0.47000000000E+01 0. -1.
         -5    1    3    3    0  502 -0.35212407883E+02 -0.32711166856E+02  0.27553658324E+03  0.27973636304E+03  0.47000000000E+01 0.  1.
        -11    1    1    2    0    0  0.30139942394E+02 -0.97172599076E+01 -0.16201076139E+02  0.35571282458E+02  0.00000000000E+00 0.  1.
         11    1    1    2    0    0 -0.21550099474E+02  0.40546052596E+02  0.51194746787E+02  0.68769842715E+02  0.00000000000E+00 0. -1.
<mgrwt>
<rscale>  0 0.11300333E+03</rscale>
<asrwt>0</asrwt>
<pdfrwt beam="1">  1        1 0.56338986E-01 0.11837863E+03</pdfrwt>
<pdfrwt beam="2">  1       -1 0.71520094E-02 0.11837863E+03</pdfrwt>
<totfact> 0.65745421E+03</totfact>
</mgrwt>
</event>
<event>
 7    1  0.6008063E-006  0.1429823E+03  0.7546771E-02  0.1220037E+00
          1   -1    0    0  501    0  0.00000000000E+00  0.00000000000E+00  0.11322176418E+04  0.11322176418E+04  0.00000000000E+00 0. -1.
         -1   -1    0    0    0  501 -0.00000000000E+00 -0.00000000000E+00 -0.14632248038E+02  0.14632248038E+02  0.00000000000E+00 0.  1.
         23    2    1    2    0    0  0.30809791273E+02 -0.62197546873E+02  0.65228746511E+03  0.66777457093E+03  0.12500464937E+03 0.  0.
          5    1    3    3  502    0  0.59754826566E+02 -0.61476762980E+02  0.61170236393E+03  0.61769887787E+03  0.47000000000E+01 0.  1.
         -5    1    3    3    0  502 -0.28945035292E+02 -0.72078389365E+00  0.40585101175E+02  0.50075693054E+02  0.47000000000E+01 0.  1.
        -11    1    1    2    0    0 -0.84464108282E+01 -0.22624437983E+02  0.14431995834E+03  0.14632654382E+03  0.00000000000E+00 0.  1.
         11    1    1    2    0    0 -0.22363380445E+02  0.84821984856E+02  0.32097797031E+03  0.33274877509E+03  0.00000000000E+00 0. -1.
<mgrwt>
<rscale>  0 0.13512962E+03</rscale>
<asrwt>0</asrwt>
<pdfrwt beam="1">  1        1 0.17418726E+00 0.14298231E+03</pdfrwt>
<pdfrwt beam="2">  1       -1 0.22511160E-02 0.14298231E+03</pdfrwt>
<totfact> 0.71847464E+03</totfact>
</mgrwt>
</event>
<event>
 7    1  0.6008063E-006  0.1354286E+03  0.7546771E-02  0.1231797E+00
          2   -1    0    0  501    0  0.00000000000E+00  0.00000000000E+00  0.33860044204E+03  0.33860044204E+03  0.00000000000E+00 0. -1.
         -2   -1    0    0    0  501 -0.00000000000E+00 -0.00000000000E+00 -0.42924681881E+02  0.42924681881E+02  0.00000000000E+00 0.  1.
         23    2    1    2    0    0  0.42964616323E+01  0.51919811957E+02  0.17934835888E+03  0.22473706676E+03  0.12500715534E+03 0.  0.
          5    1    3    3  502    0 -0.43737857113E+02  0.70664854686E+02  0.10190101926E+03  0.13157670599E+03  0.47000000000E+01 0. -1.
         -5    1    3    3    0  502  0.48034318745E+02 -0.18745042729E+02  0.77447339621E+02  0.93160360769E+02  0.47000000000E+01 0. -1.
        -11    1    1    2    0    0  0.22173645579E+02 -0.14987141547E+01 -0.49831976022E+01  0.22776061133E+02  0.00000000000E+00 0.  1.
         11    1    1    2    0    0 -0.26470107212E+02 -0.50421097803E+02  0.12131059888E+03  0.13401199603E+03  0.00000000000E+00 0. -1.
<mgrwt>
<rscale>  0 0.12711748E+03</rscale>
<asrwt>0</asrwt>
<pdfrwt beam="1">  1        2 0.52092374E-01 0.13542864E+03</pdfrwt>
<pdfrwt beam="2">  1       -2 0.66037974E-02 0.13542864E+03</pdfrwt>
<totfact> 0.11550999E+04</totfact>
</mgrwt>
</event>
<event>
 7    1  0.6008063E-006  0.1259447E+03  0.7546771E-02  0.1248680E+00
          2   -1    0    0  501    0  0.00000000000E+00  0.00000000000E+00  0.60386932241E+03  0.60386932241E+03  0.00000000000E+00 0.  1.
         -2   -1    0    0    0  501 -0.00000000000E+00 -0.00000000000E+00 -0.20544468355E+02  0.20544468355E+02  0.00000000000E+00 0. -1.
         23    2    1    2    0    0  0.71940052197E+01  0.13564061168E+02  0.39290108713E+03  0.41259342139E+03  0.12500531845E+03 0.  0.
          5    1    3    3  502    0 -0.21085369941E+02  0.27296923425E+02  0.23900008383E+02  0.42225765294E+02  0.47000000000E+01 0.  1.
         -5    1    3    3    0  502  0.28279375160E+02 -0.13732862256E+02  0.36900107874E+03  0.37036765609E+03  0.47000000000E+01 0.  1.
        -11    1    1    2    0    0  0.30016728387E+01 -0.42828668256E+02  0.16843823298E+03  0.17382388556E+03  0.00000000000E+00 0.  1.
         11    1    1    2    0    0 -0.10195678058E+02  0.29264607087E+02  0.21985533950E+02  0.37996483812E+02  0.00000000000E+00 0. -1.
<mgrwt>
<rscale>  0 0.11667807E+03</rscale>
<asrwt>0</asrwt>
<pdfrwt beam="1">  1        2 0.92902959E-01 0.12594470E+03</pdfrwt>
<pdfrwt beam="2">  1       -2 0.31606879E-02 0.12594470E+03</pdfrwt>
<totfact> 0.18422076E+04</totfact>
</mgrwt>
</event>
<event>
 7    1  0.6008063E-006  0.1358301E+03  0.7546771E-02  0.1231191E+00
          2   -1    0    0  501    0  0.00000000000E+00  0.00000000000E+00  0.62091557660E+02  0.62091557660E+02  0.00000000000E+00 0. -1.
         -2   -1    0    0    0  501 -0.00000000000E+00 -0.00000000000E+00 -0.35878920992E+03  0.35878920992E+03  0.00000000000E+00 0.  1.
         23    2    1    2    0    0  0.38433989041E+02 -0.36730772796E+02 -0.37312748666E+02  0.14086180933E+03  0.12499394757E+03 0.  0.
          5    1    3    3  502    0  0.52421763634E+02 -0.76484191480E+02 -0.19504738109E+02  0.94870425621E+02  0.47000000000E+01 0. -1.
         -5    1    3    3    0  502 -0.13987774593E+02  0.39753418684E+02 -0.17808010557E+02  0.45991383705E+02  0.47000000000E+01 0. -1.
        -11    1    1    2    0    0  0.12874481211E+02 -0.18554345657E+02 -0.11419067751E+03  0.11640243486E+03  0.00000000000E+00 0.  1.
         11    1    1    2    0    0 -0.51308470252E+02  0.55285118453E+02 -0.14519422608E+03  0.16361652340E+03  0.00000000000E+00 0. -1.
<mgrwt>
<rscale>  0 0.12751441E+03</rscale>
<asrwt>0</asrwt>
<pdfrwt beam="1">  1        2 0.95525476E-02 0.13583007E+03</pdfrwt>
<pdfrwt beam="2">  1       -2 0.55198339E-01 0.13583007E+03</pdfrwt>
<totfact> 0.20591205E+03</totfact>
</mgrwt>
</event>
<event>
 7    1  0.6008063E-006  0.2223159E+03  0.7546771E-02  0.1135509E+00
          1   -1    0    0  501    0  0.00000000000E+00  0.00000000000E+00  0.23473599219E+03  0.23473599219E+03  0.00000000000E+00 0. -1.
         -1   -1    0    0    0  501 -0.00000000000E+00 -0.00000000000E+00 -0.24057431297E+03  0.24057431297E+03  0.00000000000E+00 0.  1.
         23    2    1    2    0    0 -0.55337458124E+02  0.17531638308E+03  0.10103374891E+03  0.24419698615E+03  0.12500512461E+03 0.  0.
          5    1    3    3  502    0 -0.67840830952E+02  0.13327513877E+03  0.18693826433E+02  0.15078524498E+03  0.47000000000E+01 0. -1.
         -5    1    3    3    0  502  0.12503372828E+02  0.42041244319E+02  0.82339922473E+02  0.93411741172E+02  0.47000000000E+01 0. -1.
        -11    1    1    2    0    0  0.31307451031E+02 -0.17007581756E+03 -0.11194076650E+03  0.20600163935E+03  0.00000000000E+00 0.  1.
         11    1    1    2    0    0  0.24030007093E+02 -0.52405655195E+01  0.50686968164E+01  0.25111679659E+02  0.00000000000E+00 0. -1.
<mgrwt>
<rscale>  0 0.21783283E+03</rscale>
<asrwt>0</asrwt>
<pdfrwt beam="1">  1        1 0.36113229E-01 0.22231588E+03</pdfrwt>
<pdfrwt beam="2">  1       -1 0.37011433E-01 0.22231588E+03</pdfrwt>
<totfact> 0.84848437E+02</totfact>
</mgrwt>
</event>
<event>
 7    1  0.6008063E-006  0.1397001E+03  0.7546771E-02  0.1214798E+00
         -1   -1    0    0    0  501 -0.00000000000E+00  0.00000000000E+00  0.27466540838E+02  0.27466540838E+02  0.00000000000E+00 0.  1.
          1   -1    0    0  501    0  0.00000000000E+00 -0.00000000000E+00 -0.77293450469E+03  0.77293450469E+03  0.00000000000E+00 0. -1.
         23    2    1    2    0    0 -0.19930581493E+02 -0.51301325774E+02 -0.49621376878E+03  0.51466730242E+03  0.12500109499E+03 0.  0.
          5    1    3    3  502    0  0.20533460569E+02 -0.75744962538E+02 -0.20415441997E+03  0.21876937525E+03  0.47000000000E+01 0. -1.
         -5    1    3    3    0  502 -0.40464042061E+02  0.24443636765E+02 -0.29205934881E+03  0.29589792717E+03  0.47000000000E+01 0. -1.
        -11    1    1    2    0    0  0.47319497685E+02  0.17184415353E+02 -0.23407069017E+03  0.23942332173E+03  0.00000000000E+00 0. -1.
         11    1    1    2    0    0 -0.27388916192E+02  0.34116910421E+02 -0.15183504901E+02  0.46310421375E+02  0.00000000000E+00 0.  1.
<mgrwt>
<rscale>  0 0.13891367E+03</rscale>
<asrwt>0</asrwt>
<pdfrwt beam="2">  1        1 0.11891299E+00 0.13970010E+03</pdfrwt>
<pdfrwt beam="1">  1       -1 0.42256221E-02 0.13970010E+03</pdfrwt>
<totfact> 0.53471111E+03</totfact>
</mgrwt>
</event>
<event>
 7    1  0.6008063E-006  0.1373630E+03  0.7546771E-02  0.1228292E+00
         -1   -1    0    0    0  501 -0.00000000000E+00  0.00000000000E+00  0.72177810189E+02  0.72177810189E+02  0.00000000000E+00 0.  1.
          1   -1    0    0  501    0  0.00000000000E+00 -0.00000000000E+00 -0.25539108639E+03  0.25539108639E+03  0.00000000000E+00 0. -1.
         23    2    1    2    0    0 -0.56575025945E+02  0.67907394600E+01 -0.16985150958E+03  0.21844481596E+03  0.12498701776E+03 0.  0.
          5    1    3    3  502    0  0.22410657495E+02  0.20562635270E+02 -0.23776153126E+00  0.30776713099E+02  0.47000000000E+01 0.  1.
         -5    1    3    3    0  502 -0.78985683440E+02 -0.13771895810E+02 -0.16961374805E+03  0.18766810286E+03  0.47000000000E+01 0.  1.
        -11    1    1    2    0    0  0.26671397486E+02 -0.43108709311E+02 -0.30376326841E+02  0.59096916118E+02  0.00000000000E+00 0. -1.
         11    1    1    2    0    0  0.29903628460E+02  0.36317969851E+02  0.17014560219E+02  0.50027164507E+02  0.00000000000E+00 0.  1.
<mgrwt>
<rscale>  0 0.12943820E+03</rscale>
<asrwt>0</asrwt>
<pdfrwt beam="2">  1        1 0.39290937E-01 0.13736303E+03</pdfrwt>
<pdfrwt beam="1">  1       -1 0.11104278E-01 0.13736303E+03</pdfrwt>
<totfact> 0.53243454E+03</totfact>
</mgrwt>
</event>
<event>
 7    1  0.6008063E-006  0.1552028E+03  0.7546771E-02  0.1196256E+00
         -2   -1    0    0    0  501 -0.00000000000E+00  0.00000000000E+00  0.33488656976E+02  0.33488656976E+02  0.00000000000E+00 0.  1.
          2   -1    0    0  501    0  0.00000000000E+00 -0.00000000000E+00 -0.69028061516E+03  0.69028061516E+03  0.00000000000E+00 0. -1.
         23    2    1    2    0    0 -0.91640074312E+02 -0.80627131413E+01 -0.35513927282E+03  0.38757169281E+03  0.12500001362E+03 0.  0.
          5    1    3    3  502    0  0.29522660844E+01  0.40234629574E+02 -0.49851923980E+02  0.64302765232E+02  0.47000000000E+01 0.  1.
         -5    1    3    3    0  502 -0.94592340396E+02 -0.48297342716E+02 -0.30528734884E+03  0.32326892757E+03  0.47000000000E+01 0.  1.
        -11    1    1    2    0    0  0.11755848019E+03  0.68720239801E+00 -0.27090029011E+03  0.29530905115E+03  0.00000000000E+00 0. -1.
         11    1    1    2    0    0 -0.25918405883E+02  0.73755107433E+01 -0.30752395258E+02  0.40888528175E+02  0.00000000000E+00 0.  1.
<mgrwt>
<rscale>  0 0.15348379E+03</rscale>
<asrwt>0</asrwt>
<pdfrwt beam="2">  1        2 0.10619701E+00 0.15520282E+03</pdfrwt>
<pdfrwt beam="1">  1       -2 0.51521013E-02 0.15520282E+03</pdfrwt>
<totfact> 0.77323401E+03</totfact>
</mgrwt>
</event>
<event>
 7    1  0.6008063E-006  0.1258103E+03  0.7546771E-02  0.1249363E+00
         -2   -1    0    0    0  501 -0.00000000000E+00  0.00000000000E+00  0.12391665670E+02  0.12391665670E+02  0.00000000000E+00 0. -1.
          2   -1    0    0  501    0  0.00000000000E+00 -0.00000000000E+00 -0.10115642720E+04  0.10115642720E+04  0.00000000000E+00 0.  1.
         23    2    1    2    0    0 -0.24577296739E+00  0.14245072434E+02 -0.69253420021E+03  0.70386920611E+03  0.12500103344E+03 0.  0.
          5    1    3    3  502    0  0.21600646973E+02  0.57330395540E+02 -0.54732749694E+03  0.55076568621E+03  0.47000000000E+01 0.  1.
         -5    1    3    3    0  502 -0.21846419940E+02 -0.43085323106E+02 -0.14520670327E+03  0.15310351990E+03  0.47000000000E+01 0.  1.
        -11    1    1    2    0    0 -0.61969926412E-01 -0.49170637884E+02 -0.23852598364E+03  0.24354137296E+03  0.00000000000E+00 0.  1.
         11    1    1    2    0    0  0.30774289380E+00  0.34925565450E+02 -0.68112422517E+02  0.76545358637E+02  0.00000000000E+00 0. -1.
<mgrwt>
<rscale>  0 0.11628010E+03</rscale>
<asrwt>0</asrwt>
<pdfrwt beam="2">  1        2 0.15562524E+00 0.12581034E+03</pdfrwt>
<pdfrwt beam="1">  1       -2 0.19064106E-02 0.12581034E+03</pdfrwt>
<totfact> 0.20319718E+04</totfact>
</mgrwt>
</event>
<event>
 7    1  0.6008063E-006  0.1361585E+03  0.7546771E-02  0.1228883E+00
          2   -1    0    0  501    0  0.00000000000E+00  0.00000000000E+00  0.17892287184E+03  0.17892287184E+03  0.00000000000E+00 0. -1.
         -2   -1    0    0    0  501 -0.00000000000E+00 -0.00000000000E+00 -0.90570544880E+02  0.90570544880E+02  0.00000000000E+00 0.  1.
         23    2    1    2    0    0 -0.31023039707E+02 -0.44107060589E+02  0.83108301300E+02  0.15951844014E+03  0.12502512233E+03 0.  0.
          5    1    3    3  502    0 -0.23239398034E+02  0.37502924697E+02  0.24826467956E+01  0.44438637658E+02  0.47000000000E+01 0. -1.
         -5    1    3    3    0  502 -0.77836416732E+01 -0.81609985285E+02  0.80625654504E+02  0.11507980249E+03  0.47000000000E+01 0. -1.
        -11    1    1    2    0    0 -0.20212077881E+02 -0.19011991978E+01  0.30491607047E+02  0.36631690528E+02  0.00000000000E+00 0. -1.
         11    1    1    2    0    0  0.51235117588E+02  0.46008259787E+02 -0.25247581385E+02  0.73343286050E+02  0.00000000000E+00 0.  1.
<mgrwt>
<rscale>  0 0.12904272E+03</rscale>
<asrwt>0</asrwt>
<pdfrwt beam="1">  1        2 0.27526596E-01 0.13615852E+03</pdfrwt>
<pdfrwt beam="2">  1       -2 0.13933930E-01 0.13615852E+03</pdfrwt>
<totfact> 0.70873305E+03</totfact>
</mgrwt>
</event>
<event>
 7    1  0.6008063E-006  0.1286373E+03  0.7546771E-02  0.1243408E+00
         -1   -1    0    0    0  501 -0.00000000000E+00  0.00000000000E+00  0.44338465691E+02  0.44338465691E+02  0.00000000000E+00 0.  1.
          1   -1    0    0  501    0  0.00000000000E+00 -0.00000000000E+00 -0.31674306224E+03  0.31674306224E+03  0.00000000000E+00 0. -1.
         23    2    1    2    0    0 -0.17875972054E+02  0.24544988374E+02 -0.20882116982E+03  0.24526281508E+03  0.12500224264E+03 0.  0.
          5    1    3    3  502    0 -0.69947669339E+02  0.29550613029E+02 -0.12067497952E+03  0.14265502395E+03  0.47000000000E+01 0.  1.
         -5    1    3    3    0  502  0.52071697286E+02 -0.50056246554E+01 -0.88146190304E+02  0.10260779113E+03  0.47000000000E+01 0.  1.
        -11    1    1    2    0    0 -0.16343260458E+02  0.18789696340E+02 -0.54419849491E+02  0.59847095749E+02  0.00000000000E+00 0. -1.
         11    1    1    2    0    0  0.34219232512E+02 -0.43334684714E+02 -0.91635772369E+01  0.55971617100E+02  0.00000000000E+00 0.  1.
<mgrwt>
<rscale>  0 0.11981171E+03</rscale>
<asrwt>0</asrwt>
<pdfrwt beam="2">  1        1 0.48729703E-01 0.12863735E+03</pdfrwt>
<pdfrwt beam="1">  1       -1 0.68213022E-02 0.12863735E+03</pdfrwt>
<totfact> 0.84987310E+03</totfact>
</mgrwt>
</event>
<event>
 7    1  0.6008063E-006  0.1409107E+03  0.7546771E-02  0.1222968E+00
         -2   -1    0    0    0  501 -0.00000000000E+00  0.00000000000E+00  0.42840512957E+02  0.42840512957E+02  0.00000000000E+00 0.  1.
          2   -1    0    0  501    0  0.00000000000E+00 -0.00000000000E+00 -0.38714921405E+03  0.38714921405E+03  0.00000000000E+00 0. -1.
         23    2    1    2    0    0 -0.60475311197E+02  0.23893161258E+02 -0.23121268547E+03  0.27076767647E+03  0.12501072866E+03 0.  0.
          5    1    3    3  502    0 -0.89857778411E+02  0.20305568741E+02 -0.22036697561E+03  0.23889418244E+03  0.47000000000E+01 0. -1.
         -5    1    3    3    0  502  0.29382467213E+02  0.35875925170E+01 -0.10845709858E+02  0.31873494034E+02  0.47000000000E+01 0. -1.
        -11    1    1    2    0    0  0.52784042214E+02 -0.32908438284E+02 -0.12672124824E+03  0.14116442604E+03  0.00000000000E+00 0. -1.
         11    1    1    2    0    0  0.76912689832E+01  0.90152770255E+01  0.13625232621E+02  0.18057624494E+02  0.00000000000E+00 0.  1.
<mgrwt>
<rscale>  0 0.13307174E+03</rscale>
<asrwt>0</asrwt>
<pdfrwt beam="2">  1        2 0.59561420E-01 0.14091071E+03</pdfrwt>
<pdfrwt beam="1">  1       -2 0.65908479E-02 0.14091071E+03</pdfrwt>
<totfact> 0.10075090E+04</totfact>
</mgrwt>
</event>
<event>
 7    1  0.6008063E-006  0.1353237E+03  0.7546771E-02  0.1232628E+00
         -2   -1    0    0    0  501 -0.00000000000E+00  0.00000000000E+00  0.36000541776E+02  0.36000541776E+02  0.00000000000E+00 0.  1.
          2   -1    0    0  501    0  0.00000000000E+00 -0.00000000000E+00 -0.40130753101E+03  0.40130753101E+03  0.00000000000E+00 0. -1.
         23    2    1    2    0    0  0.20460432193E+02 -0.47591796116E+02 -0.23071749800E+03  0.26747535347E+03  0.12501556899E+03 0.  0.
          5    1    3    3  502    0  0.70527682595E+02 -0.47264871901E+02 -0.14604031606E+03  0.16899108273E+03  0.47000000000E+01 0.  1.
         -5    1    3    3    0  502 -0.50067250402E+02 -0.32692421489E+00 -0.84677181939E+02  0.98484270741E+02  0.47000000000E+01 0.  1.
        -11    1    1    2    0    0 -0.44605383143E+02  0.41474079997E+02 -0.42083711118E+02  0.74032278490E+02  0.00000000000E+00 0.  1.
         11    1    1    2    0    0  0.24144950950E+02  0.61177161197E+01 -0.92505780125E+02  0.95800440831E+02  0.00000000000E+00 0. -1.
<mgrwt>
<rscale>  0 0.12657542E+03</rscale>
<asrwt>0</asrwt>
<pdfrwt beam="2">  1        2 0.61739620E-01 0.13532369E+03</pdfrwt>
<pdfrwt beam="1">  1       -2 0.55385449E-02 0.13532369E+03</pdfrwt>
<totfact> 0.12587546E+04</totfact>
</mgrwt>
</event>
<event>
 7    1  0.6008063E-006  0.1402496E+03  0.7546771E-02  0.1224165E+00
          2   -1    0    0  501    0  0.00000000000E+00  0.00000000000E+00  0.30939808066E+02  0.30939808066E+02  0.00000000000E+00 0.  1.
         -2   -1    0    0    0  501 -0.00000000000E+00 -0.00000000000E+00 -0.54344945706E+03  0.54344945706E+03  0.00000000000E+00 0. -1.
         23    2    1    2    0    0 -0.34142104241E+02  0.53627471425E+02 -0.21306837890E+03  0.25508443841E+03  0.12501338991E+03 0.  0.
          5    1    3    3  502    0 -0.47689535179E+01  0.91649628252E+02 -0.14373694112E+03  0.17060127643E+03  0.47000000000E+01 0.  1.
         -5    1    3    3    0  502 -0.29373150723E+02 -0.38022156828E+02 -0.69331437783E+02  0.84483161980E+02  0.47000000000E+01 0.  1.
        -11    1    1    2    0    0 -0.34672375097E+01  0.24033743477E+02 -0.56612685232E+02  0.61600638720E+02  0.00000000000E+00 0. -1.
         11    1    1    2    0    0  0.37609341750E+02 -0.77661214902E+02 -0.24282858486E+03  0.25770418800E+03  0.00000000000E+00 0.  1.
<mgrwt>
<rscale>  0 0.13224288E+03</rscale>
<asrwt>0</asrwt>
<pdfrwt beam="1">  1        2 0.47599709E-02 0.14024955E+03</pdfrwt>
<pdfrwt beam="2">  1       -2 0.83607601E-01 0.14024955E+03</pdfrwt>
<totfact> 0.20854412E+03</totfact>
</mgrwt>
</event>
<event>
 7    1  0.6008063E-006  0.1517095E+03  0.7546771E-02  0.1206717E+00
          2   -1    0    0  501    0  0.00000000000E+00  0.00000000000E+00  0.32518922267E+03  0.32518922267E+03  0.00000000000E+00 0. -1.
         -2   -1    0    0    0  501 -0.00000000000E+00 -0.00000000000E+00 -0.82249126099E+02  0.82249126099E+02  0.00000000000E+00 0.  1.
         23    2    1    2    0    0 -0.84259668727E+02 -0.17049797615E+02  0.23598377969E+03  0.28054251838E+03  0.12500149187E+03 0.  0.
          5    1    3    3  502    0  0.32696945074E+02 -0.31525579618E+01  0.63196219249E+02  0.71378434882E+02  0.47000000000E+01 0. -1.
         -5    1    3    3    0  502 -0.11695661380E+03 -0.13897239653E+02  0.17278756044E+03  0.20916408350E+03  0.47000000000E+01 0. -1.
        -11    1    1    2    0    0  0.13550972316E+02 -0.35290093395E+02  0.91571737759E+01  0.38895672948E+02  0.00000000000E+00 0. -1.
         11    1    1    2    0    0  0.70708696410E+02  0.52339891010E+02 -0.22008568949E+01  0.88000157443E+02  0.00000000000E+00 0.  1.
<mgrwt>
<rscale>  0 0.14503003E+03</rscale>
<asrwt>0</asrwt>
<pdfrwt beam="1">  1        2 0.50029111E-01 0.15170946E+03</pdfrwt>
<pdfrwt beam="2">  1       -2 0.12653712E-01 0.15170946E+03</pdfrwt>
<totfact> 0.43936401E+03</totfact>
</mgrwt>
</event>
<event>
 7    1  0.6008063E-006  0.1371992E+03  0.7546771E-02  0.1227296E+00
         -1   -1    0    0    0  501 -0.00000000000E+00  0.00000000000E+00  0.10216039743E+03  0.10216039743E+03  0.00000000000E+00 0.  1.
          1   -1    0    0  501    0  0.00000000000E+00 -0.00000000000E+00 -0.15115199640E+03  0.15115199640E+03  0.00000000000E+00 0. -1.
         23    2    1    2    0    0  0.55366273489E+02  0.11520874496E+02 -0.20187508274E+02  0.13867648165E+03  0.12500190512E+03 0.  0.
          5    1    3    3  502    0  0.23308397047E+02 -0.44392119391E+02  0.28409899388E+02  0.57820014011E+02  0.47000000000E+01 0. -1.
         -5    1    3    3    0  502  0.32057876442E+02  0.55912993888E+02 -0.48597407662E+02  0.80856467638E+02  0.47000000000E+01 0. -1.
        -11    1    1    2    0    0 -0.15608686935E+02  0.26675470637E+02  0.23356158374E+02  0.38739153005E+02  0.00000000000E+00 0.  1.
         11    1    1    2    0    0 -0.39757586554E+02 -0.38196345134E+02 -0.52160249068E+02  0.75896759174E+02  0.00000000000E+00 0. -1.
<mgrwt>
<rscale>  0 0.13010788E+03</rscale>
<asrwt>0</asrwt>
<pdfrwt beam="2">  1        1 0.23254153E-01 0.13719924E+03</pdfrwt>
<pdfrwt beam="1">  1       -1 0.15716984E-01 0.13719924E+03</pdfrwt>
<totfact> 0.59645252E+03</totfact>
</mgrwt>
</event>
<event>
 7    1  0.6008063E-006  0.1444754E+03  0.7546771E-02  0.1217507E+00
          2   -1    0    0  501    0  0.00000000000E+00  0.00000000000E+00  0.25287661520E+03  0.25287661520E+03  0.00000000000E+00 0. -1.
         -2   -1    0    0    0  501 -0.00000000000E+00 -0.00000000000E+00 -0.67401449421E+02  0.67401449421E+02  0.00000000000E+00 0.  1.
         23    2    1    2    0    0  0.28184443207E+02 -0.66746401210E+02  0.10058183532E+03  0.17603931947E+03  0.12499476585E+03 0.  0.
          5    1    3    3  502    0  0.42451298351E+02 -0.98349169484E+02  0.88475517434E+02  0.13901323338E+03  0.47000000000E+01 0. -1.
         -5    1    3    3    0  502 -0.14266855143E+02  0.31602768274E+02  0.12106317886E+02  0.37026086088E+02  0.47000000000E+01 0. -1.
        -11    1    1    2    0    0  0.93000047160E+01  0.65026741888E+02  0.84090816094E+02  0.10670629128E+03  0.00000000000E+00 0. -1.
         11    1    1    2    0    0 -0.37484447923E+02  0.17196593219E+01  0.80251436933E+00  0.37532453872E+02  0.00000000000E+00 0.  1.
<mgrwt>
<rscale>  0 0.13693975E+03</rscale>
<asrwt>0</asrwt>
<pdfrwt beam="1">  1        2 0.38904094E-01 0.14447538E+03</pdfrwt>
<pdfrwt beam="2">  1       -2 0.10369454E-01 0.14447538E+03</pdfrwt>
<totfact> 0.78608784E+03</totfact>
</mgrwt>
</event>
<event>
 7    1  0.6008063E-006  0.1281413E+03  0.7546771E-02  0.1246018E+00
          1   -1    0    0  501    0  0.00000000000E+00  0.00000000000E+00  0.39930266555E+02  0.39930266555E+02  0.00000000000E+00 0. -1.
         -1   -1    0    0    0  501 -0.00000000000E+00 -0.00000000000E+00 -0.32600817632E+03  0.32600817632E+03  0.00000000000E+00 0.  1.
         23    2    1    2    0    0  0.27227312005E+02  0.73068737605E+01 -0.11958336625E+03  0.17527230458E+03  0.12500192937E+03 0.  0.
          5    1    3    3  502    0  0.29986258960E+00 -0.47012382927E+02 -0.76156568308E+01  0.47857520777E+02  0.47000000000E+01 0.  1.
         -5    1    3    3    0  502  0.26927449415E+02  0.54319256687E+02 -0.11196770942E+03  0.12741478381E+03  0.47000000000E+01 0.  1.
        -11    1    1    2    0    0 -0.33594972446E+02 -0.44167712673E+02 -0.10115577538E+03  0.11537720706E+03  0.00000000000E+00 0.  1.
         11    1    1    2    0    0  0.63676604414E+01  0.36860838913E+02 -0.65338768127E+02  0.75288931226E+02  0.00000000000E+00 0. -1.
<mgrwt>
<rscale>  0 0.11824643E+03</rscale>
<asrwt>0</asrwt>
<pdfrwt beam="1">  1        1 0.61431177E-02 0.12814133E+03</pdfrwt>
<pdfrwt beam="2">  1       -1 0.50155106E-01 0.12814133E+03</pdfrwt>
<totfact> 0.48573260E+03</totfact>
</mgrwt>
</event>
<event>
 7    1  0.6008063E-006  0.2104788E+03  0.7546771E-02  0.1144999E+00
          1   -1    0    0  501    0  0.00000000000E+00  0.00000000000E+00  0.97586870748E+02  0.97586870748E+02  0.00000000000E+00 0. -1.
         -1   -1    0    0    0  501 -0.00000000000E+00 -0.00000000000E+00 -0.46765618952E+03  0.46765618952E+03  0.00000000000E+00 0.  1.
         23    2    1    2    0    0  0.96137466234E+02  0.13940711197E+03 -0.97944911853E+02  0.23215195110E+03  0.12499826943E+03 0.  0.
          5    1    3    3  502    0  0.26896348408E+02 -0.17188176174E+02 -0.39871405991E+02  0.51290018265E+02  0.47000000000E+01 0. -1.
         -5    1    3    3    0  502  0.69241117826E+02  0.15659528815E+03 -0.58073505862E+02  0.18086193284E+03  0.47000000000E+01 0. -1.
        -11    1    1    2    0    0 -0.76269529675E+02 -0.80027766219E+02 -0.96871331008E+02  0.14698822842E+03  0.00000000000E+00 0. -1.
         11    1    1    2    0    0 -0.19867936559E+02 -0.59379345752E+02 -0.17525307591E+03  0.18610288075E+03  0.00000000000E+00 0.  1.
<mgrwt>
<rscale>  0 0.20572241E+03</rscale>
<asrwt>0</asrwt>
<pdfrwt beam="1">  1        1 0.15013365E-01 0.21047879E+03</pdfrwt>
<pdfrwt beam="2">  1       -1 0.71947106E-01 0.21047879E+03</pdfrwt>
<totfact> 0.75388448E+02</totfact>
</mgrwt>
</event>
<event>
 7    1  0.6008063E-006  0.1265666E+03  0.7546771E-02  0.1247906E+00
          2   -1    0    0  501    0  0.00000000000E+00  0.00000000000E+00  0.19450237585E+03  0.19450237585E+03  0.00000000000E+00 0. -1.
         -2   -1    0    0    0  501 -0.00000000000E+00 -0.00000000000E+00 -0.63487142564E+02  0.63487142564E+02  0.00000000000E+00 0.  1.
         23    2    1    2    0    0  0.16406415365E+02  0.11173381206E+02  0.95637686902E+02  0.15863692991E+03  0.12500037385E+03 0.  0.
          5    1    3    3  502    0 -0.29560774786E+02 -0.23430020677E+02 -0.90622818541E+01  0.39077106179E+02  0.47000000000E+01 0.  1.
         -5    1    3    3    0  502  0.45967190152E+02  0.34603401884E+02  0.10469996876E+03  0.11955982373E+03  0.47000000000E+01 0.  1.
        -11    1    1    2    0    0  0.63035671111E+00 -0.21626999802E+02  0.62226275373E+02  0.65880450946E+02  0.00000000000E+00 0. -1.
         11    1    1    2    0    0 -0.17036772076E+02  0.10453618596E+02 -0.26848728989E+02  0.33472137560E+02  0.00000000000E+00 0.  1.
<mgrwt>
<rscale>  0 0.11713152E+03</rscale>
<asrwt>0</asrwt>
<pdfrwt beam="1">  1        2 0.29923442E-01 0.12656662E+03</pdfrwt>
<pdfrwt beam="2">  1       -2 0.97672528E-02 0.12656662E+03</pdfrwt>
<totfact> 0.11331857E+04</totfact>
</mgrwt>
</event>
<event>
 7    1  0.6008063E-006  0.1851614E+03  0.7546771E-02  0.1167894E+00
          1   -1    0    0  501    0  0.00000000000E+00  0.00000000000E+00  0.15202643358E+04  0.15202643358E+04  0.00000000000E+00 0. -1.
         -1   -1    0    0    0  501 -0.00000000000E+00 -0.00000000000E+00 -0.20349592621E+02  0.20349592621E+02  0.00000000000E+00 0.  1.
         23    2    1    2    0    0 -0.11056011733E+03 -0.80220561402E+02  0.86592440521E+03  0.88549975329E+03  0.12500343806E+03 0.  0.
          5    1    3    3  502    0 -0.26658907050E+02 -0.67330614295E+02  0.64013737688E+03  0.64423758057E+03  0.47000000000E+01 0. -1.
         -5    1    3    3    0  502 -0.83901210276E+02 -0.12889947107E+02  0.22578702833E+03  0.24126217271E+03  0.47000000000E+01 0. -1.
        -11    1    1    2    0    0  0.10119596286E+03  0.60443967656E+02  0.61483711855E+03  0.62603416718E+03  0.00000000000E+00 0. -1.
         11    1    1    2    0    0  0.93641544708E+01  0.19776593747E+02  0.19153219455E+02  0.29080007990E+02  0.00000000000E+00 0.  1.
<mgrwt>
<rscale>  0 0.17990591E+03</rscale>
<asrwt>0</asrwt>
<pdfrwt beam="1">  1        1 0.23388673E+00 0.18516138E+03</pdfrwt>
<pdfrwt beam="2">  1       -1 0.31307078E-02 0.18516138E+03</pdfrwt>
<totfact> 0.24528802E+03</totfact>
</mgrwt>
</event>
<event>
 7    1  0.6008063E-006  0.2135972E+03  0.7546771E-02  0.1142345E+00
         -1   -1    0    0    0  501 -0.00000000000E+00  0.00000000000E+00  0.59094531995E+02  0.59094531995E+02  0.00000000000E+00 0.  1.
          1   -1    0    0  501    0  0.00000000000E+00 -0.00000000000E+00 -0.81759306215E+03  0.81759306215E+03  0.00000000000E+00 0. -1.
         23    2    1    2    0    0  0.51237906502E+02  0.16545009122E+03 -0.55290308720E+03  0.59272724478E+03  0.12499882850E+03 0.  0.
          5    1    3    3  502    0  0.18487888054E+02  0.17714454402E+03 -0.47369542730E+03  0.50609429885E+03  0.47000000000E+01 0. -1.
         -5    1    3    3    0  502  0.32750018448E+02 -0.11694452802E+02 -0.79207659899E+02  0.86632945934E+02  0.47000000000E+01 0. -1.
        -11    1    1    2    0    0  0.35339779916E+01 -0.11783752112E+03 -0.93705360447E+02  0.15059503631E+03  0.00000000000E+00 0.  1.
         11    1    1    2    0    0 -0.54771884493E+02 -0.47612570097E+02 -0.11189008251E+03  0.13336531305E+03  0.00000000000E+00 0. -1.
<mgrwt>
<rscale>  0 0.20901966E+03</rscale>
<asrwt>0</asrwt>
<pdfrwt beam="2">  1        1 0.12578354E+00 0.21359720E+03</pdfrwt>
<pdfrwt beam="1">  1       -1 0.90914671E-02 0.21359720E+03</pdfrwt>
<totfact> 0.15716228E+03</totfact>
</mgrwt>
</event>
<event>
 7    1  0.6008063E-006  0.1406557E+03  0.7546771E-02  0.1223670E+00
         -2   -1    0    0    0  501 -0.00000000000E+00  0.00000000000E+00  0.14136389305E+02  0.14136389305E+02  0.00000000000E+00 0.  1.
          2   -1    0    0  501    0  0.00000000000E+00 -0.00000000000E+00 -0.17461082798E+04  0.17461082798E+04  0.00000000000E+00 0. -1.
         23    2    1    2    0    0 -0.22158133831E+02 -0.60549209208E+02 -0.14558673479E+04  0.14626461485E+04  0.12500732596E+03 0.  0.
          5    1    3    3  502    0 -0.18209799665E+02 -0.16448655530E+02 -0.13075699482E+04  0.13078086307E+04  0.47000000000E+01 0. -1.
         -5    1    3    3    0  502 -0.39483341664E+01 -0.44100553678E+02 -0.14829739967E+03  0.15483751782E+03  0.47000000000E+01 0. -1.
        -11    1    1    2    0    0  0.27481031245E+02  0.78398930719E+02 -0.26008515945E+03  0.27303093155E+03  0.00000000000E+00 0. -1.
         11    1    1    2    0    0 -0.53228974140E+01 -0.17849721511E+02 -0.16019383228E+02  0.24567589095E+02  0.00000000000E+00 0.  1.
<mgrwt>
<rscale>  0 0.13258471E+03</rscale>
<asrwt>0</asrwt>
<pdfrwt beam="2">  1        2 0.26863183E+00 0.14065568E+03</pdfrwt>
<pdfrwt beam="1">  1       -2 0.21748308E-02 0.14065568E+03</pdfrwt>
<totfact> 0.68035752E+03</totfact>
</mgrwt>
</event>
<event>
 7    1  0.6008063E-006  0.1137987E+03  0.7546771E-02  0.1260825E+00
         -2   -1    0    0    0  501 -0.00000000000E+00  0.00000000000E+00  0.98526302960E+02  0.98526302960E+02  0.00000000000E+00 0.  1.
          2   -1    0    0  501    0  0.00000000000E+00 -0.00000000000E+00 -0.11556757182E+03  0.11556757182E+03  0.00000000000E+00 0. -1.
         23    2    1    2    0    0 -0.27712712767E+01  0.13203626900E+02 -0.18140908640E+02  0.11523555932E+03  0.11299613205E+03 0.  0.
          5    1    3    3  502    0  0.13621428816E+02 -0.47069814899E+02  0.24821112588E+01  0.49288555202E+02  0.47000000000E+01 0. -1.
         -5    1    3    3    0  502 -0.16392700092E+02  0.60273441799E+02 -0.20623019899E+02  0.65947004120E+02  0.47000000000E+01 0.  1.
        -11    1    1    2    0    0  0.21286450468E+02  0.38466757687E+02  0.26788439521E+00  0.43964487743E+02  0.00000000000E+00 0.  1.
         11    1    1    2    0    0 -0.18515179192E+02 -0.51670384586E+02  0.83175538842E+00  0.54893827711E+02  0.00000000000E+00 0. -1.
<mgrwt>
<rscale>  0 0.10986251E+03</rscale>
<asrwt>0</asrwt>
<pdfrwt beam="2">  1        2 0.17779626E-01 0.11379869E+03</pdfrwt>
<pdfrwt beam="1">  1       -2 0.15157893E-01 0.11379869E+03</pdfrwt>
<totfact> 0.99248769E+03</totfact>
</mgrwt>
</event>
<event>
 7    1  0.6008063E-006  0.1296880E+03  0.7546771E-02  0.1242052E+00
         -2   -1    0    0    0  501 -0.00000000000E+00  0.00000000000E+00  0.10278152182E+02  0.10278152182E+02  0.00000000000E+00 0.  1.
          2   -1    0    0  501    0  0.00000000000E+00 -0.00000000000E+00 -0.26917975524E+04  0.26917975524E+04  0.00000000000E+00 0. -1.
         23    2    1    2    0    0  0.18304613417E+02  0.29326128163E+02 -0.24139854746E+04  0.24174666198E+04  0.12499562309E+03 0.  0.
          5    1    3    3  502    0 -0.21957869829E+02  0.59009556403E+02 -0.72801514447E+03  0.73074784733E+03  0.47000000000E+01 0.  1.
         -5    1    3    3    0  502  0.40262483246E+02 -0.29683428240E+02 -0.16859703301E+04  0.16867187725E+04  0.47000000000E+01 0.  1.
        -11    1    1    2    0    0  0.23932120932E+01 -0.52053479294E+02 -0.23127871723E+03  0.23707622659E+03  0.00000000000E+00 0. -1.
         11    1    1    2    0    0 -0.20697825510E+02  0.22727351131E+02 -0.36255208453E+02  0.47532858216E+02  0.00000000000E+00 0.  1.
<mgrwt>
<rscale>  0 0.12063601E+03</rscale>
<asrwt>0</asrwt>
<pdfrwt beam="2">  1        2 0.41412232E+00 0.12968804E+03</pdfrwt>
<pdfrwt beam="1">  1       -2 0.15812556E-02 0.12968804E+03</pdfrwt>
<totfact> 0.34608331E+03</totfact>
</mgrwt>
</event>
<event>
 7    1  0.6008063E-006  0.1284910E+03  0.7546771E-02  0.1245026E+00
          2   -1    0    0  501    0  0.00000000000E+00  0.00000000000E+00  0.97618551881E+03  0.97618551881E+03  0.00000000000E+00 0.  1.
         -2   -1    0    0    0  501 -0.00000000000E+00 -0.00000000000E+00 -0.13091695403E+02  0.13091695403E+02  0.00000000000E+00 0. -1.
         23    2    1    2    0    0 -0.23973076075E+02  0.17620929513E+02  0.64056095905E+03  0.65332095228E+03  0.12499887557E+03 0.  0.
          5    1    3    3  502    0 -0.41410415040E+02 -0.27436026016E+02  0.11293069803E+03  0.12346250668E+03  0.47000000000E+01 0. -1.
         -5    1    3    3    0  502  0.17437338965E+02  0.45056955528E+02  0.52763026102E+03  0.52985844560E+03  0.47000000000E+01 0. -1.
        -11    1    1    2    0    0 -0.18449676600E+02 -0.36627358861E+02  0.91170288547E+02  0.99969872949E+02  0.00000000000E+00 0. -1.
         11    1    1    2    0    0  0.42422752674E+02  0.19006429348E+02  0.23136257581E+03  0.23598638899E+03  0.00000000000E+00 0.  1.
<mgrwt>
<rscale>  0 0.11883812E+03</rscale>
<asrwt>0</asrwt>
<pdfrwt beam="1">  1        2 0.15018233E+00 0.12849095E+03</pdfrwt>
<pdfrwt beam="2">  1       -2 0.20141078E-02 0.12849095E+03</pdfrwt>
<totfact> 0.19732009E+04</totfact>
</mgrwt>
</event>
<event>
 7    1  0.6008063E-006  0.1925895E+03  0.7546771E-02  0.1159366E+00
         -1   -1    0    0    0  501 -0.00000000000E+00  0.00000000000E+00  0.16438517449E+03  0.16438517449E+03  0.00000000000E+00 0.  1.
          1   -1    0    0  501    0  0.00000000000E+00 -0.00000000000E+00 -0.21940137816E+03  0.21940137816E+03  0.00000000000E+00 0. -1.
         23    2    1    2    0    0 -0.77139515794E+02  0.12455937227E+03 -0.69084713245E+02  0.20460551137E+03  0.12500070224E+03 0.  0.
          5    1    3    3  502    0 -0.75815125320E+02  0.34240705882E+02  0.10686518592E+02  0.84003873995E+02  0.47000000000E+01 0.  1.
         -5    1    3    3    0  502 -0.13243904745E+01  0.90318666390E+02 -0.79771231837E+02  0.12060163737E+03  0.47000000000E+01 0.  1.
        -11    1    1    2    0    0  0.80005106975E+02 -0.51531978430E+02 -0.22010305453E+02  0.97677098079E+02  0.00000000000E+00 0. -1.
         11    1    1    2    0    0 -0.28655911808E+01 -0.73027393842E+02  0.36078815019E+02  0.81503943201E+02  0.00000000000E+00 0.  1.
<mgrwt>
<rscale>  0 0.18899999E+03</rscale>
<asrwt>0</asrwt>
<pdfrwt beam="2">  1        1 0.33754058E-01 0.19258951E+03</pdfrwt>
<pdfrwt beam="1">  1       -1 0.25290027E-01 0.19258951E+03</pdfrwt>
<totfact> 0.17619224E+03</totfact>
</mgrwt>
</event>
<event>
 7    1  0.6008063E-006  0.1911262E+03  0.7546771E-02  0.1162193E+00
         -1   -1    0    0    0  501 -0.00000000000E+00  0.00000000000E+00  0.11290080234E+04  0.11290080234E+04  0.00000000000E+00 0.  1.
          1   -1    0    0  501    0  0.00000000000E+00 -0.00000000000E+00 -0.31810393766E+02  0.31810393766E+02  0.00000000000E+00 0. -1.
         23    2    1    2    0    0 -0.39237292065E+02  0.13915462046E+03  0.74668600098E+03  0.77075884489E+03  0.12500255770E+03 0.  0.
          5    1    3    3  502    0  0.23690757672E+02  0.12386230617E+03  0.49172853377E+03  0.50766343557E+03  0.47000000000E+01 0.  1.
         -5    1    3    3    0  502 -0.62928049738E+02  0.15292314288E+02  0.25495746721E+03  0.26309540932E+03  0.47000000000E+01 0.  1.
        -11    1    1    2    0    0 -0.11369293701E+02 -0.87577508971E+02  0.25785400712E+03  0.27255782855E+03  0.00000000000E+00 0. -1.
         11    1    1    2    0    0  0.50606585767E+02 -0.51577111489E+02  0.92657621581E+02  0.11750174377E+03  0.00000000000E+00 0.  1.
<mgrwt>
<rscale>  0 0.18592015E+03</rscale>
<asrwt>0</asrwt>
<pdfrwt beam="2">  1        1 0.48939076E-02 0.19112617E+03</pdfrwt>
<pdfrwt beam="1">  1       -1 0.17369351E+00 0.19112617E+03</pdfrwt>
<totfact> 0.43413893E+02</totfact>
</mgrwt>
</event>
<event>
 7    1  0.6008063E-006  0.1995286E+03  0.7546771E-02  0.1154285E+00
          2   -1    0    0  501    0  0.00000000000E+00  0.00000000000E+00  0.74024769170E+02  0.74024769170E+02  0.00000000000E+00 0.  1.
         -2   -1    0    0    0  501 -0.00000000000E+00 -0.00000000000E+00 -0.48920513511E+03  0.48920513511E+03  0.00000000000E+00 0. -1.
         23    2    1    2    0    0 -0.15258608821E+03  0.30076730236E+02 -0.20994280759E+03  0.28963363470E+03  0.12499814348E+03 0.  0.
          5    1    3    3  502    0 -0.11016865115E+03  0.16298988561E+02 -0.21726831432E+03  0.24419336423E+03  0.47000000000E+01 0. -1.
         -5    1    3    3    0  502 -0.42417437059E+02  0.13777741675E+02  0.73255067244E+01  0.45440270477E+02  0.47000000000E+01 0. -1.
        -11    1    1    2    0    0  0.10772659966E+02 -0.36315360756E+02 -0.31674694069E+02  0.49377544227E+02  0.00000000000E+00 0.  1.
         11    1    1    2    0    0  0.14181342824E+03  0.62386305197E+01 -0.17356286427E+03  0.22421872535E+03  0.00000000000E+00 0. -1.
<mgrwt>
<rscale>  0 0.19470459E+03</rscale>
<asrwt>0</asrwt>
<pdfrwt beam="1">  1        2 0.11388426E-01 0.19952859E+03</pdfrwt>
<pdfrwt beam="2">  1       -2 0.75262331E-01 0.19952859E+03</pdfrwt>
<totfact> 0.88055695E+02</totfact>
</mgrwt>
</event>
<event>
 7    1  0.6008063E-006  0.1650276E+03  0.7546771E-02  0.1185315E+00
         -2   -1    0    0    0  501 -0.00000000000E+00  0.00000000000E+00  0.12855597823E+03  0.12855597823E+03  0.00000000000E+00 0. -1.
          2   -1    0    0  501    0  0.00000000000E+00 -0.00000000000E+00 -0.21392990246E+03  0.21392990246E+03  0.00000000000E+00 0.  1.
         23    2    1    2    0    0 -0.10432276109E+03  0.26940123890E+02 -0.84250388102E+02  0.18528955865E+03  0.12500033558E+03 0.  0.
          5    1    3    3  502    0  0.96991942750E+01  0.47722438173E+02 -0.21961174226E+02  0.53627312521E+02  0.47000000000E+01 0.  1.
         -5    1    3    3    0  502 -0.11402195536E+03 -0.20782314283E+02 -0.62289213876E+02  0.13166224613E+03  0.47000000000E+01 0.  1.
        -11    1    1    2    0    0 -0.17104833424E+02 -0.26048104789E+02  0.15202826445E+02  0.34672828288E+02  0.00000000000E+00 0.  1.
         11    1    1    2    0    0  0.12142759451E+03 -0.89201910116E+00 -0.16326362571E+02  0.12252349375E+03  0.00000000000E+00 0. -1.
<mgrwt>
<rscale>  0 0.16303287E+03</rscale>
<asrwt>0</asrwt>
<pdfrwt beam="2">  1        2 0.32912292E-01 0.16502755E+03</pdfrwt>
<pdfrwt beam="1">  1       -2 0.19777843E-01 0.16502755E+03</pdfrwt>
<totfact> 0.33033393E+03</totfact>
</mgrwt>
</event>
<event>
 7    1  0.6008063E-006  0.1184169E+03  0.7546771E-02  0.1255712E+00
         -2   -1    0    0    0  501 -0.00000000000E+00  0.00000000000E+00  0.18718947862E+02  0.18718947862E+02  0.00000000000E+00 0.  1.
          2   -1    0    0  501    0  0.00000000000E+00 -0.00000000000E+00 -0.17457574639E+04  0.17457574639E+04  0.00000000000E+00 0. -1.
         23    2    1    2    0    0 -0.27727618811E+02 -0.15394053593E+02 -0.16011947789E+04  0.16055675917E+04  0.11409107657E+03 0.  0.
          5    1    3    3  502    0 -0.62008481543E+01  0.33947020079E+02 -0.12266974462E+04  0.12271917394E+04  0.47000000000E+01 0. -1.
         -5    1    3    3    0  502 -0.21526770657E+02 -0.49341073672E+02 -0.37449733272E+03  0.37837585232E+03  0.47000000000E+01 0.  1.
        -11    1    1    2    0    0  0.54060970939E+02  0.17029364232E+02 -0.40721291102E+02  0.69791198399E+02  0.00000000000E+00 0.  1.
         11    1    1    2    0    0 -0.26333352128E+02 -0.16353106387E+01 -0.85122446082E+02  0.89117621726E+02  0.00000000000E+00 0. -1.
<mgrwt>
<rscale>  0 0.11266526E+03</rscale>
<asrwt>0</asrwt>
<pdfrwt beam="2">  1        2 0.26857802E+00 0.11841694E+03</pdfrwt>
<pdfrwt beam="1">  1       -2 0.28798387E-02 0.11841694E+03</pdfrwt>
<totfact> 0.45007312E+03</totfact>
</mgrwt>
</event>
<event>
 7    1  0.6008063E-006  0.2038206E+03  0.7546771E-02  0.1150768E+00
         -2   -1    0    0    0  501 -0.00000000000E+00  0.00000000000E+00  0.30066039631E+02  0.30066039631E+02  0.00000000000E+00 0.  1.
          2   -1    0    0  501    0  0.00000000000E+00 -0.00000000000E+00 -0.12555224727E+04  0.12555224727E+04  0.00000000000E+00 0. -1.
         23    2    1    2    0    0 -0.62223557669E+02  0.14847104805E+03 -0.61614749165E+03  0.64898426347E+03  0.12500967776E+03 0.  0.
          5    1    3    3  502    0  0.37024524501E+02  0.38936619563E+02 -0.20770830684E+03  0.21459661341E+03  0.47000000000E+01 0.  1.
         -5    1    3    3    0  502 -0.99248082170E+02  0.10953442848E+03 -0.40843918481E+03  0.43438765006E+03  0.47000000000E+01 0.  1.
        -11    1    1    2    0    0 -0.74192989930E+01 -0.89488958453E+01 -0.52729768453E+01  0.12764521895E+02  0.00000000000E+00 0.  1.
         11    1    1    2    0    0  0.69642856662E+02 -0.13952215220E+03 -0.60403596456E+03  0.62383972695E+03  0.00000000000E+00 0. -1.
<mgrwt>
<rscale>  0 0.19878474E+03</rscale>
<asrwt>0</asrwt>
<pdfrwt beam="2">  1        2 0.19315730E+00 0.20382061E+03</pdfrwt>
<pdfrwt beam="1">  1       -2 0.46255447E-02 0.20382061E+03</pdfrwt>
<totfact> 0.40733837E+03</totfact>
</mgrwt>
</event>
<event>
 7    1  0.6008063E-006  0.1281236E+03  0.7546771E-02  0.1241284E+00
          1   -1    0    0  501    0  0.00000000000E+00  0.00000000000E+00  0.53596534171E+02  0.53596534171E+02  0.00000000000E+00 0. -1.
         -1   -1    0    0    0  501 -0.00000000000E+00 -0.00000000000E+00 -0.26808612129E+03  0.26808612129E+03  0.00000000000E+00 0.  1.
         23    2    1    2    0    0 -0.24514560690E+01 -0.37441885172E+02 -0.74164693921E+02  0.14804071993E+03  0.12250611630E+03 0.  0.
          5    1    3    3  502    0  0.10431138893E+02 -0.45164875797E+02  0.21341328194E+02  0.51246628703E+02  0.47000000000E+01 0. -1.
         -5    1    3    3    0  502 -0.12882594962E+02  0.77229906243E+01 -0.95506022115E+02  0.96794091231E+02  0.47000000000E+01 0.  1.
        -11    1    1    2    0    0  0.26480811434E+02  0.83338067886E+01  0.58185688922E+00  0.27767323732E+02  0.00000000000E+00 0. -1.
         11    1    1    2    0    0 -0.24029355365E+02  0.29108078384E+02 -0.14090675009E+03  0.14587461180E+03  0.00000000000E+00 0.  1.
<mgrwt>
<rscale>  0 0.12110598E+03</rscale>
<asrwt>0</asrwt>
<pdfrwt beam="1">  1        1 0.82456206E-02 0.12812358E+03</pdfrwt>
<pdfrwt beam="2">  1       -1 0.41244019E-01 0.12812358E+03</pdfrwt>
<totfact> 0.46394946E+03</totfact>
</mgrwt>
</event>
<event>
 7    1  0.6008063E-006  0.1271575E+03  0.7546771E-02  0.1251550E+00
          1   -1    0    0  501    0  0.00000000000E+00  0.00000000000E+00  0.16242944012E+03  0.16242944012E+03  0.00000000000E+00 0. -1.
         -1   -1    0    0    0  501 -0.00000000000E+00 -0.00000000000E+00 -0.10058614364E+03  0.10058614364E+03  0.00000000000E+00 0.  1.
         23    2    1    2    0    0  0.23297171033E+02 -0.29505951777E-01  0.10742377503E+03  0.16645992886E+03  0.12500512560E+03 0.  0.
          5    1    3    3  502    0  0.37956416363E+02 -0.56200740737E+02  0.67839165572E+02  0.96038821255E+02  0.47000000000E+01 0.  1.
         -5    1    3    3    0  502 -0.14659245330E+02  0.56171234785E+02  0.39584609457E+02  0.70421107609E+02  0.47000000000E+01 0.  1.
        -11    1    1    2    0    0 -0.35082941001E+02  0.14228674115E+02 -0.61477389911E+02  0.72199289378E+02  0.00000000000E+00 0.  1.
         11    1    1    2    0    0  0.11785769968E+02 -0.14199168163E+02  0.15896911366E+02  0.24356365518E+02  0.00000000000E+00 0. -1.
<mgrwt>
<rscale>  0 0.11501765E+03</rscale>
<asrwt>0</asrwt>
<pdfrwt beam="1">  1        1 0.24989145E-01 0.12715754E+03</pdfrwt>
<pdfrwt beam="2">  1       -1 0.15474791E-01 0.12715754E+03</pdfrwt>
<totfact> 0.55554831E+03</totfact>
</mgrwt>
</event>
<event>
 7    1  0.6008063E-006  0.1340696E+03  0.7546771E-02  0.1234751E+00
          2   -1    0    0  501    0  0.00000000000E+00  0.00000000000E+00  0.88064274820E+03  0.88064274820E+03  0.00000000000E+00 0. -1.
         -2   -1    0    0    0  501 -0.00000000000E+00 -0.00000000000E+00 -0.16523940746E+02  0.16523940746E+02  0.00000000000E+00 0.  1.
         23    2    1    2    0    0  0.38933047127E+02 -0.28925045493E+02  0.58027919106E+03  0.59556576818E+03  0.12498881641E+03 0.  0.
          5    1    3    3  502    0 -0.38149526891E+01 -0.22404275426E+02  0.12959240723E+02  0.26580770144E+02  0.47000000000E+01 0. -1.
         -5    1    3    3    0  502  0.42747999816E+02 -0.65207700675E+01  0.56731995034E+03  0.56898499803E+03  0.47000000000E+01 0. -1.
        -11    1    1    2    0    0  0.57184160431E+01  0.44181879476E+02  0.72793836971E+02  0.85344486975E+02  0.00000000000E+00 0.  1.
         11    1    1    2    0    0 -0.44651463170E+02 -0.15256833983E+02  0.21104577942E+03  0.21625643379E+03  0.00000000000E+00 0. -1.
<mgrwt>
<rscale>  0 0.12520375E+03</rscale>
<asrwt>0</asrwt>
<pdfrwt beam="1">  1        2 0.13548346E+00 0.13406955E+03</pdfrwt>
<pdfrwt beam="2">  1       -2 0.25421454E-02 0.13406955E+03</pdfrwt>
<totfact> 0.16163330E+04</totfact>
</mgrwt>
</event>
<event>
 7    1  0.6008063E-006  0.1375501E+03  0.7546771E-02  0.1227637E+00
         -2   -1    0    0    0  501 -0.00000000000E+00  0.00000000000E+00  0.40157627953E+02  0.40157627953E+02  0.00000000000E+00 0.  1.
          2   -1    0    0  501    0  0.00000000000E+00 -0.00000000000E+00 -0.41975058365E+03  0.41975058365E+03  0.00000000000E+00 0. -1.
         23    2    1    2    0    0  0.39230751638E+02  0.41901911493E+02 -0.28023367652E+03  0.31217134115E+03  0.12500084286E+03 0.  0.
          5    1    3    3  502    0 -0.31796855933E+02  0.39303622342E+02 -0.50351561046E+02  0.71506534500E+02  0.47000000000E+01 0. -1.
         -5    1    3    3    0  502  0.71027607571E+02  0.25982891512E+01 -0.22988211547E+03  0.24066480665E+03  0.47000000000E+01 0. -1.
        -11    1    1    2    0    0 -0.88539560263E+01  0.10258167871E+02  0.13890590043E+02  0.19405438339E+02  0.00000000000E+00 0.  1.
         11    1    1    2    0    0 -0.30376795612E+02 -0.52160079364E+02 -0.11324986922E+03  0.12833143212E+03  0.00000000000E+00 0. -1.
<mgrwt>
<rscale>  0 0.12987767E+03</rscale>
<asrwt>0</asrwt>
<pdfrwt beam="2">  1        2 0.64577011E-01 0.13755011E+03</pdfrwt>
<pdfrwt beam="1">  1       -2 0.61780968E-02 0.13755011E+03</pdfrwt>
<totfact> 0.10178713E+04</totfact>
</mgrwt>
</event>
<event>
 7    1  0.6008063E-006  0.1637219E+03  0.7546771E-02  0.1191728E+00
         -2   -1    0    0    0  501 -0.00000000000E+00  0.00000000000E+00  0.51754846361E+02  0.51754846361E+02  0.00000000000E+00 0.  1.
          2   -1    0    0  501    0  0.00000000000E+00 -0.00000000000E+00 -0.70964405083E+03  0.70964405083E+03  0.00000000000E+00 0. -1.
         23    2    1    2    0    0 -0.10450434300E+03  0.15826449399E+02 -0.57748228643E+03  0.60024215834E+03  0.12503288888E+03 0.  0.
          5    1    3    3  502    0 -0.12682004589E+03  0.23421849201E+02 -0.54354498995E+03  0.55865477100E+03  0.47000000000E+01 0.  1.
         -5    1    3    3    0  502  0.22315702887E+02 -0.75953998017E+01 -0.33937296475E+02  0.41587387337E+02  0.47000000000E+01 0.  1.
        -11    1    1    2    0    0  0.36976785997E+02  0.19776252288E+02  0.97201186747E+01  0.43044901722E+02  0.00000000000E+00 0.  1.
         11    1    1    2    0    0  0.67527557008E+02 -0.35602701687E+02 -0.90127036715E+02  0.11811183713E+03  0.00000000000E+00 0. -1.
<mgrwt>
<rscale>  0 0.15734455E+03</rscale>
<asrwt>0</asrwt>
<pdfrwt beam="2">  1        2 0.10917601E+00 0.16372189E+03</pdfrwt>
<pdfrwt beam="1">  1       -2 0.79622838E-02 0.16372189E+03</pdfrwt>
<totfact> 0.38546810E+03</totfact>
</mgrwt>
</event>
<event>
 7    1  0.6008063E-006  0.1850634E+03  0.7546771E-02  0.1167889E+00
         -2   -1    0    0    0  501 -0.00000000000E+00  0.00000000000E+00  0.15432432583E+03  0.15432432583E+03  0.00000000000E+00 0. -1.
          2   -1    0    0  501    0  0.00000000000E+00 -0.00000000000E+00 -0.26718879137E+03  0.26718879137E+03  0.00000000000E+00 0.  1.
         23    2    1    2    0    0  0.48367857303E+02 -0.12760327350E+03 -0.16525543239E+03  0.24810845096E+03  0.12500560177E+03 0.  0.
          5    1    3    3  502    0  0.69169449298E+02 -0.12791382989E+03 -0.17242476866E+03  0.22560751637E+03  0.47000000000E+01 0.  1.
         -5    1    3    3    0  502 -0.20801591995E+02  0.31055639225E+00  0.71693362731E+01  0.22500934590E+02  0.47000000000E+01 0.  1.
        -11    1    1    2    0    0 -0.51911566453E+02  0.51429824093E+02  0.62914002098E+02  0.96426185229E+02  0.00000000000E+00 0. -1.
         11    1    1    2    0    0  0.35437091505E+01  0.76173449404E+02 -0.10523035246E+02  0.76978481016E+02  0.00000000000E+00 0.  1.
<mgrwt>
<rscale>  0 0.17991157E+03</rscale>
<asrwt>0</asrwt>
<pdfrwt beam="2">  1        2 0.41105968E-01 0.18506336E+03</pdfrwt>
<pdfrwt beam="1">  1       -2 0.23742204E-01 0.18506336E+03</pdfrwt>
<totfact> 0.19073738E+03</totfact>
</mgrwt>
</event>
<event>
 7    1  0.6008063E-006  0.1606292E+03  0.7546771E-02  0.1195837E+00
          2   -1    0    0  501    0  0.00000000000E+00  0.00000000000E+00  0.32938229821E+03  0.32938229821E+03  0.00000000000E+00 0.  1.
         -2   -1    0    0    0  501 -0.00000000000E+00 -0.00000000000E+00 -0.69233925919E+02  0.69233925919E+02  0.00000000000E+00 0. -1.
         23    2    1    2    0    0  0.50030571190E+02 -0.87594881005E+02  0.18105963210E+03  0.24204199309E+03  0.12500325920E+03 0.  0.
          5    1    3    3  502    0 -0.11991154801E+02 -0.92796112393E+02  0.79673178611E+02  0.12298297304E+03  0.47000000000E+01 0.  1.
         -5    1    3    3    0  502  0.62021725992E+02  0.52012313876E+01  0.10138645349E+03  0.11905902005E+03  0.47000000000E+01 0.  1.
        -11    1    1    2    0    0 -0.11056617402E+01  0.52289199424E+02  0.80761517197E+02  0.96217490740E+02  0.00000000000E+00 0.  1.
         11    1    1    2    0    0 -0.48924909450E+02  0.35305681581E+02 -0.16727770087E+01  0.60356740299E+02  0.00000000000E+00 0. -1.
<mgrwt>
<rscale>  0 0.15383576E+03</rscale>
<asrwt>0</asrwt>
<pdfrwt beam="1">  1        2 0.50674199E-01 0.16062919E+03</pdfrwt>
<pdfrwt beam="2">  1       -2 0.10651373E-01 0.16062919E+03</pdfrwt>
<totfact> 0.57245984E+03</totfact>
</mgrwt>
</event>
<event>
 7    1  0.6008063E-006  0.1329121E+03  0.7546771E-02  0.1236474E+00
          1   -1    0    0  501    0  0.00000000000E+00  0.00000000000E+00  0.94294389462E+02  0.94294389462E+02  0.00000000000E+00 0. -1.
         -1   -1    0    0    0  501 -0.00000000000E+00 -0.00000000000E+00 -0.17315355506E+03  0.17315355506E+03  0.00000000000E+00 0.  1.
         23    2    1    2    0    0  0.31698257984E+02 -0.32122484998E+02  0.94667515962E+01  0.13324884137E+03  0.12501600193E+03 0.  0.
          5    1    3    3  502    0  0.66953857299E+02 -0.43725515051E+02  0.35552517531E+02  0.87640237200E+02  0.47000000000E+01 0. -1.
         -5    1    3    3    0  502 -0.35255599315E+02  0.11603030053E+02 -0.26085765934E+02  0.45608604165E+02  0.47000000000E+01 0. -1.
        -11    1    1    2    0    0 -0.54063899243E+02  0.16400793138E+01 -0.78157167990E+02  0.95048082410E+02  0.00000000000E+00 0.  1.
         11    1    1    2    0    0  0.22365641259E+02  0.30482405684E+02 -0.10168749205E+02  0.39151020748E+02  0.00000000000E+00 0. -1.
<mgrwt>
<rscale>  0 0.12410540E+03</rscale>
<asrwt>0</asrwt>
<pdfrwt beam="1">  1        1 0.14506829E-01 0.13291213E+03</pdfrwt>
<pdfrwt beam="2">  1       -1 0.26639008E-01 0.13291213E+03</pdfrwt>
<totfact> 0.46514965E+03</totfact>
</mgrwt>
</event>
<event>
 7    1  0.6008063E-006  0.1392918E+03  0.7546771E-02  0.1221258E+00
          2   -1    0    0  501    0  0.00000000000E+00  0.00000000000E+00  0.13554782341E+03  0.13554782341E+03  0.00000000000E+00 0. -1.
         -2   -1    0    0    0  501 -0.00000000000E+00 -0.00000000000E+00 -0.18581616037E+03  0.18581616037E+03  0.00000000000E+00 0.  1.
         23    2    1    2    0    0  0.57575122972E+02 -0.59847619373E+02  0.65961740605E+02  0.15412056250E+03  0.11182828011E+03 0.  0.
          5    1    3    3  502    0  0.49751811806E+02 -0.60112288712E+02  0.95378037075E+02  0.12331986859E+03  0.47000000000E+01 0. -1.
         -5    1    3    3    0  502  0.78233111661E+01  0.26466933951E+00 -0.29416296470E+02  0.30800693912E+02  0.47000000000E+01 0.  1.
        -11    1    1    2    0    0  0.19665207701E+02 -0.32697917604E+01 -0.25805276743E+02  0.32608652837E+02  0.00000000000E+00 0. -1.
         11    1    1    2    0    0 -0.77240330672E+02  0.63117411133E+02 -0.90424800822E+02  0.13463476845E+03  0.00000000000E+00 0.  1.
<mgrwt>
<rscale>  0 0.13426679E+03</rscale>
<asrwt>0</asrwt>
<pdfrwt beam="1">  1        2 0.20853511E-01 0.13929177E+03</pdfrwt>
<pdfrwt beam="2">  1       -2 0.28587101E-01 0.13929177E+03</pdfrwt>
<totfact> 0.28546708E+03</totfact>
</mgrwt>
</event>
<event>
 7    1  0.6008063E-006  0.1746480E+03  0.7546771E-02  0.1179997E+00
          1   -1    0    0  501    0  0.00000000000E+00  0.00000000000E+00  0.82805196766E+03  0.82805196766E+03  0.00000000000E+00 0. -1.
         -1   -1    0    0    0  501 -0.00000000000E+00 -0.00000000000E+00 -0.33454287334E+02  0.33454287334E+02  0.00000000000E+00 0.  1.
         23    2    1    2    0    0  0.87270996692E+02 -0.85202528908E+02  0.52506245559E+03  0.55334662966E+03  0.12500484986E+03 0.  0.
          5    1    3    3  502    0 -0.71628238053E+01 -0.75360179171E+02  0.17765368343E+03  0.19316672562E+03  0.47000000000E+01 0.  1.
         -5    1    3    3    0  502  0.94433820497E+02 -0.98423497376E+01  0.34740877216E+03  0.36017990404E+03  0.47000000000E+01 0.  1.
        -11    1    1    2    0    0  0.17134066625E+02  0.89747369380E+01  0.25570254566E+02  0.32061816243E+02  0.00000000000E+00 0. -1.
         11    1    1    2    0    0 -0.10440506332E+03  0.76227791970E+02  0.24396497017E+03  0.27609780909E+03  0.00000000000E+00 0.  1.
<mgrwt>
<rscale>  0 0.16795490E+03</rscale>
<asrwt>0</asrwt>
<pdfrwt beam="1">  1        1 0.12739260E+00 0.17464796E+03</pdfrwt>
<pdfrwt beam="2">  1       -1 0.51468140E-02 0.17464796E+03</pdfrwt>
<totfact> 0.36278326E+03</totfact>
</mgrwt>
</event>
<event>
 7    1  0.6008063E-006  0.1561947E+03  0.7546771E-02  0.1204664E+00
          1   -1    0    0  501    0  0.00000000000E+00  0.00000000000E+00  0.34130635118E+03  0.34130635118E+03  0.00000000000E+00 0. -1.
         -1   -1    0    0    0  501 -0.00000000000E+00 -0.00000000000E+00 -0.65297445789E+02  0.65297445789E+02  0.00000000000E+00 0.  1.
         23    2    1    2    0    0 -0.39152555458E+02  0.85078964282E+02  0.22743051125E+03  0.27590110627E+03  0.12500172090E+03 0.  0.
          5    1    3    3  502    0 -0.82752833641E+02  0.59508423045E+02  0.17725321813E+03  0.20452402604E+03  0.47000000000E+01 0. -1.
         -5    1    3    3    0  502  0.43600278183E+02  0.25570541238E+02  0.50177293123E+02  0.71377080228E+02  0.47000000000E+01 0. -1.
        -11    1    1    2    0    0  0.21975138334E+02 -0.91556341950E+02  0.19252787856E+02  0.96104840130E+02  0.00000000000E+00 0.  1.
         11    1    1    2    0    0  0.17177417124E+02  0.64773776679E+01  0.29325606278E+02  0.34597850570E+02  0.00000000000E+00 0. -1.
<mgrwt>
<rscale>  0 0.14663933E+03</rscale>
<asrwt>0</asrwt>
<pdfrwt beam="1">  1        1 0.52508668E-01 0.15619470E+03</pdfrwt>
<pdfrwt beam="2">  1       -1 0.10045761E-01 0.15619470E+03</pdfrwt>
<totfact> 0.43625645E+03</totfact>
</mgrwt>
</event>
<event>
 7    1  0.6008063E-006  0.2047303E+03  0.7546771E-02  0.1149822E+00
         -2   -1    0    0    0  501 -0.00000000000E+00  0.00000000000E+00  0.42326553447E+02  0.42326553447E+02  0.00000000000E+00 0.  1.
          2   -1    0    0  501    0  0.00000000000E+00 -0.00000000000E+00 -0.91271160493E+03  0.91271160493E+03  0.00000000000E+00 0. -1.
         23    2    1    2    0    0 -0.13778124291E+03  0.85470637372E+02 -0.50703129181E+03  0.54680454777E+03  0.12500232733E+03 0.  0.
          5    1    3    3  502    0 -0.34265513844E+02 -0.18581920092E+02 -0.35485006094E+02  0.52921534849E+02  0.47000000000E+01 0. -1.
         -5    1    3    3    0  502 -0.10351572906E+03  0.10405255746E+03 -0.47154628572E+03  0.49388301292E+03  0.47000000000E+01 0. -1.
        -11    1    1    2    0    0  0.65835478103E+02 -0.82137797065E+02 -0.27362322792E+03  0.29317332543E+03  0.00000000000E+00 0. -1.
         11    1    1    2    0    0  0.71945764802E+02 -0.33328403067E+01 -0.89730531752E+02  0.11506028518E+03  0.00000000000E+00 0.  1.
<mgrwt>
<rscale>  0 0.19990152E+03</rscale>
<asrwt>0</asrwt>
<pdfrwt beam="2">  1        2 0.14041715E+00 0.20473027E+03</pdfrwt>
<pdfrwt beam="1">  1       -2 0.65117784E-02 0.20473027E+03</pdfrwt>
<totfact> 0.38516679E+03</totfact>
</mgrwt>
</event>
<event>
 7    1  0.6008063E-006  0.1497563E+03  0.7546771E-02  0.1215404E+00
          1   -1    0    0  501    0  0.00000000000E+00  0.00000000000E+00  0.39151229529E+02  0.39151229529E+02  0.00000000000E+00 0. -1.
         -1   -1    0    0    0  501 -0.00000000000E+00 -0.00000000000E+00 -0.43444578182E+03  0.43444578182E+03  0.00000000000E+00 0.  1.
         23    2    1    2    0    0  0.78992563897E+02 -0.23702435066E+02 -0.25403039358E+03  0.29488705969E+03  0.12500122612E+03 0.  0.
          5    1    3    3  502    0  0.68855862950E+01 -0.27949797160E+02 -0.20591330666E+03  0.20796870514E+03  0.47000000000E+01 0. -1.
         -5    1    3    3    0  502  0.72106977602E+02  0.42473620938E+01 -0.48117086921E+02  0.86918354548E+02  0.47000000000E+01 0. -1.
        -11    1    1    2    0    0 -0.71030082798E+02  0.39376408393E+02 -0.13899641260E+03  0.16098377843E+03  0.00000000000E+00 0.  1.
         11    1    1    2    0    0 -0.79624810994E+01 -0.15673973327E+02 -0.22677461144E+01  0.17726173235E+02  0.00000000000E+00 0. -1.
<mgrwt>
<rscale>  0 0.13846929E+03</rscale>
<asrwt>0</asrwt>
<pdfrwt beam="1">  1        1 0.60232663E-02 0.14975626E+03</pdfrwt>
<pdfrwt beam="2">  1       -1 0.66837810E-01 0.14975626E+03</pdfrwt>
<totfact> 0.29302717E+03</totfact>
</mgrwt>
</event>
<event>
 7    1  0.6008063E-006  0.1443676E+03  0.7546771E-02  0.1217291E+00
         -1   -1    0    0    0  501 -0.00000000000E+00  0.00000000000E+00  0.36032894021E+02  0.36032894021E+02  0.00000000000E+00 0.  1.
          1   -1    0    0  501    0  0.00000000000E+00 -0.00000000000E+00 -0.61118566024E+03  0.61118566024E+03  0.00000000000E+00 0. -1.
         23    2    1    2    0    0  0.11694081077E+02 -0.71272489329E+02 -0.46249678795E+03  0.48450520127E+03  0.12500196771E+03 0.  0.
          5    1    3    3  502    0  0.18756740200E+02 -0.41600421080E+02 -0.39946551469E+02  0.60829493760E+02  0.47000000000E+01 0.  1.
         -5    1    3    3    0  502 -0.70626591231E+01 -0.29672068250E+02 -0.42255023648E+03  0.42367570751E+03  0.47000000000E+01 0.  1.
        -11    1    1    2    0    0 -0.45768975772E+02  0.12653465177E+02 -0.61904827329E+02  0.78019978024E+02  0.00000000000E+00 0. -1.
         11    1    1    2    0    0  0.34074894695E+02  0.58619024152E+02 -0.50751150943E+02  0.84693374966E+02  0.00000000000E+00 0.  1.
<mgrwt>
<rscale>  0 0.13709617E+03</rscale>
<asrwt>0</asrwt>
<pdfrwt beam="2">  1        1 0.94028569E-01 0.14436763E+03</pdfrwt>
<pdfrwt beam="1">  1       -1 0.55435218E-02 0.14436763E+03</pdfrwt>
<totfact> 0.50075591E+03</totfact>
</mgrwt>
</event>
<event>
 6    1  0.6008063E-006  0.1925715E+03  0.7546771E-02  0.1166592E+00
         -1   -1    0    0    0  501 -0.00000000000E+00  0.00000000000E+00  0.43338652415E+02  0.43338652415E+02  0.00000000000E+00 0.  1.
          1   -1    0    0  501    0  0.00000000000E+00 -0.00000000000E+00 -0.68480982262E+03  0.68480982262E+03  0.00000000000E+00 0. -1.
          5    1    1    2  502    0 -0.29938834847E+02 -0.11980554267E+02 -0.14227252801E+03  0.14595694482E+03  0.47000000000E+01 0. -1.
         -5    1    1    2    0  502  0.62042296406E+02  0.12951032386E+03 -0.19186804720E+03  0.23970316657E+03  0.47000000000E+01 0.  1.
        -11    1    1    2    0    0  0.91832071312E+01 -0.98208180858E+02 -0.25312080918E+03  0.27166030649E+03  0.00000000000E+00 0. -1.
         11    1    1    2    0    0 -0.41286668690E+02 -0.19321588736E+02 -0.54209785806E+02  0.70828057152E+02  0.00000000000E+00 0.  1.
<mgrwt>
<rscale>  0 0.18125742E+03</rscale>
<asrwt>0</asrwt>
<pdfrwt beam="2">  1        1 0.10535536E+00 0.19257154E+03</pdfrwt>
<pdfrwt beam="1">  1       -1 0.66674851E-02 0.19257154E+03</pdfrwt>
<totfact> 0.32738520E+03</totfact>
</mgrwt>
</event>
<event>
 7    1  0.6008063E-006  0.1691478E+03  0.7546771E-02  0.1184820E+00
         -1   -1    0    0    0  501 -0.00000000000E+00  0.00000000000E+00  0.21917911151E+02  0.21917911151E+02  0.00000000000E+00 0.  1.
          1   -1    0    0  501    0  0.00000000000E+00 -0.00000000000E+00 -0.11695348356E+04  0.11695348356E+04  0.00000000000E+00 0. -1.
         23    2    1    2    0    0  0.72194834269E+02 -0.88161799646E+02 -0.52483936780E+03  0.55142300491E+03  0.12500548524E+03 0.  0.
          5    1    3    3  502    0  0.25253272893E+01 -0.75299600322E+02 -0.13065289606E+03  0.15089293004E+03  0.47000000000E+01 0. -1.
         -5    1    3    3    0  502  0.69669506980E+02 -0.12862199324E+02 -0.39418647174E+03  0.40053007487E+03  0.47000000000E+01 0. -1.
        -11    1    1    2    0    0  0.22469679704E+02  0.22890730235E+02 -0.11449455121E+03  0.11890279346E+03  0.00000000000E+00 0.  1.
         11    1    1    2    0    0 -0.94664513973E+02  0.65271069411E+02 -0.50828300548E+03  0.52112694842E+03  0.00000000000E+00 0. -1.
<mgrwt>
<rscale>  0 0.16348291E+03</rscale>
<asrwt>0</asrwt>
<pdfrwt beam="2">  1        1 0.17992845E+00 0.16914777E+03</pdfrwt>
<pdfrwt beam="1">  1       -1 0.33719861E-02 0.16914777E+03</pdfrwt>
<totfact> 0.37761693E+03</totfact>
</mgrwt>
</event>
<event>
 7    1  0.6008063E-006  0.1320665E+03  0.7546771E-02  0.1237819E+00
         -1   -1    0    0    0  501 -0.00000000000E+00  0.00000000000E+00  0.11017123217E+03  0.11017123217E+03  0.00000000000E+00 0.  1.
          1   -1    0    0  501    0  0.00000000000E+00 -0.00000000000E+00 -0.12309860783E+03  0.12309860783E+03  0.00000000000E+00 0. -1.
         23    2    1    2    0    0 -0.42302256623E+02 -0.52374731926E+01 -0.15936376668E+02  0.13302453252E+03  0.12499858443E+03 0.  0.
          5    1    3    3  502    0 -0.46965901106E+02 -0.19987637137E+02  0.46085802571E+02  0.68929621380E+02  0.47000000000E+01 0.  1.
         -5    1    3    3    0  502  0.46636444831E+01  0.14750163945E+02 -0.62022179239E+02  0.64094911138E+02  0.47000000000E+01 0.  1.
        -11    1    1    2    0    0  0.35026188385E+02  0.28801837553E+02  0.36807769912E+02  0.58405407670E+02  0.00000000000E+00 0.  1.
         11    1    1    2    0    0  0.72760682379E+01 -0.23564364360E+02 -0.33798768906E+02  0.41839899812E+02  0.00000000000E+00 0. -1.
<mgrwt>
<rscale>  0 0.12325699E+03</rscale>
<asrwt>0</asrwt>
<pdfrwt beam="2">  1        1 0.18938247E-01 0.13206649E+03</pdfrwt>
<pdfrwt beam="1">  1       -1 0.16949420E-01 0.13206649E+03</pdfrwt>
<totfact> 0.68507014E+03</totfact>
</mgrwt>
</event>
<event>
 7    1  0.6008063E-006  0.1264537E+03  0.7546771E-02  0.1242693E+00
          1   -1    0    0  501    0  0.00000000000E+00  0.00000000000E+00  0.12165054093E+04  0.12165054093E+04  0.00000000000E+00 0. -1.
         -1   -1    0    0    0  501 -0.00000000000E+00 -0.00000000000E+00 -0.14633553913E+02  0.14633553913E+02  0.00000000000E+00 0.  1.
         23    2    1    2    0    0 -0.18306534968E+02 -0.59493628169E+01  0.95723649925E+03  0.96555282268E+03  0.12498005340E+03 0.  0.
          5    1    3    3  502    0 -0.67284105546E+02  0.12181302575E+02  0.67633370349E+03  0.67979769304E+03  0.47000000000E+01 0. -1.
         -5    1    3    3    0  502  0.48977570578E+02 -0.18130665392E+02  0.28090279576E+03  0.28575512964E+03  0.47000000000E+01 0. -1.
        -11    1    1    2    0    0  0.57106373676E+02  0.84970992356E+00  0.94352517695E+02  0.11029169287E+03  0.00000000000E+00 0.  1.
         11    1    1    2    0    0 -0.38799838708E+02  0.50996528933E+01  0.15028283840E+03  0.15529444762E+03  0.00000000000E+00 0. -1.
<mgrwt>
<rscale>  0 0.12024542E+03</rscale>
<asrwt>0</asrwt>
<pdfrwt beam="1">  1        1 0.18715460E+00 0.12645370E+03</pdfrwt>
<pdfrwt beam="2">  1       -1 0.22513169E-02 0.12645370E+03</pdfrwt>
<totfact> 0.62514276E+03</totfact>
</mgrwt>
</event>
<event>
 6    1  0.6008063E-006  0.1842937E+03  0.7546771E-02  0.1176599E+00
          3   -1    0    0  501    0  0.00000000000E+00  0.00000000000E+00  0.77654708379E+03  0.77654708379E+03  0.00000000000E+00 0. -1.
         -3   -1    0    0    0  501 -0.00000000000E+00 -0.00000000000E+00 -0.35557635150E+02  0.35557635150E+02  0.00000000000E+00 0.  1.
          5    1    1    2  502    0  0.14685621925E+02  0.60708479193E+02  0.45343364336E+03  0.45773938641E+03  0.47000000000E+01 0. -1.
         -5    1    1    2    0  502 -0.63074572961E+02  0.22802460795E+02  0.69412224627E+02  0.96635919306E+02  0.47000000000E+01 0.  1.
        -11    1    1    2    0    0  0.63561686148E+02 -0.93881157698E+02  0.20760246181E+03  0.23654289646E+03  0.00000000000E+00 0.  1.
         11    1    1    2    0    0 -0.15172735112E+02  0.10370217710E+02  0.10541118842E+02  0.21186516763E+02  0.00000000000E+00 0. -1.
<mgrwt>
<rscale>  0 0.17120316E+03</rscale>
<asrwt>0</asrwt>
<pdfrwt beam="1">  1        3 0.11946877E+00 0.18429373E+03</pdfrwt>
<pdfrwt beam="2">  1       -3 0.54704060E-02 0.18429373E+03</pdfrwt>
<totfact> 0.28646966E+02</totfact>
</mgrwt>
</event>
<event>
 6    1  0.6008063E-006  0.1986200E+03  0.7546771E-02  0.1162058E+00
         -1   -1    0    0    0  501 -0.00000000000E+00  0.00000000000E+00  0.47765329895E+02  0.47765329895E+02  0.00000000000E+00 0.  1.
          1   -1    0    0  501    0  0.00000000000E+00 -0.00000000000E+00 -0.78464302373E+03  0.78464302373E+03  0.00000000000E+00 0. -1.
          5    1    1    2  502    0 -0.25234921189E+02 -0.14908727494E+03 -0.39148898405E+03  0.41970171720E+03  0.47000000000E+01 0. -1.
         -5    1    1    2    0  502  0.32596091782E+02  0.27523213373E+02 -0.18951070428E+03  0.19431013744E+03  0.47000000000E+01 0.  1.
        -11    1    1    2    0    0 -0.37251490732E+02  0.11678051734E+03 -0.12836699897E+03  0.17749211029E+03  0.00000000000E+00 0.  1.
         11    1    1    2    0    0  0.29890320139E+02  0.47835442245E+01 -0.27511006534E+02  0.40904388687E+02  0.00000000000E+00 0. -1.
<mgrwt>
<rscale>  0 0.18606605E+03</rscale>
<asrwt>0</asrwt>
<pdfrwt beam="2">  1        1 0.12071431E+00 0.19862004E+03</pdfrwt>
<pdfrwt beam="1">  1       -1 0.73485124E-02 0.19862004E+03</pdfrwt>
<totfact> 0.23138650E+03</totfact>
</mgrwt>
</event>
<event>
 7    1  0.6008063E-006  0.1449737E+03  0.7546771E-02  0.1216887E+00
          1   -1    0    0  501    0  0.00000000000E+00  0.00000000000E+00  0.20409788691E+03  0.20409788691E+03  0.00000000000E+00 0. -1.
         -1   -1    0    0    0  501 -0.00000000000E+00 -0.00000000000E+00 -0.87111478836E+02  0.87111478836E+02  0.00000000000E+00 0.  1.
         23    2    1    2    0    0 -0.49573413710E+02 -0.54168050648E+02  0.91805999608E+02  0.17159755512E+03  0.12500271318E+03 0.  0.
          5    1    3    3  502    0 -0.47886666668E+02 -0.73049480798E+02  0.10642887598E+02  0.88117651726E+02  0.47000000000E+01 0.  1.
         -5    1    3    3    0  502 -0.16867470425E+01  0.18881430150E+02  0.81163112009E+02  0.83479903397E+02  0.47000000000E+01 0.  1.
        -11    1    1    2    0    0  0.10642666582E+02 -0.25843367814E+02  0.56933829807E+01  0.28522984095E+02  0.00000000000E+00 0.  1.
         11    1    1    2    0    0  0.38930747128E+02  0.80011418461E+02  0.19487025487E+02  0.91088826530E+02  0.00000000000E+00 0. -1.
<mgrwt>
<rscale>  0 0.13738827E+03</rscale>
<asrwt>0</asrwt>
<pdfrwt beam="1">  1        1 0.31399675E-01 0.14497372E+03</pdfrwt>
<pdfrwt beam="2">  1       -1 0.13401766E-01 0.14497372E+03</pdfrwt>
<totfact> 0.52737828E+03</totfact>
</mgrwt>
</event>
<event>
 7    1  0.6008063E-006  0.2294927E+03  0.7546771E-02  0.1129935E+00
         -2   -1    0    0    0  501 -0.00000000000E+00  0.00000000000E+00  0.61084800825E+02  0.61084800825E+02  0.00000000000E+00 0.  1.
          2   -1    0    0  501    0  0.00000000000E+00 -0.00000000000E+00 -0.80577112184E+03  0.80577112184E+03  0.00000000000E+00 0. -1.
         23    2    1    2    0    0 -0.10251949194E+03 -0.16286253465E+03 -0.41080909991E+03  0.47056455401E+03  0.12502972247E+03 0.  0.
          5    1    3    3  502    0 -0.68720254054E+02 -0.17298185087E+03 -0.38129402859E+03  0.42432584211E+03  0.47000000000E+01 0. -1.
         -5    1    3    3    0  502 -0.33799237891E+02  0.10119316222E+02 -0.29515071321E+02  0.46238711897E+02  0.47000000000E+01 0. -1.
        -11    1    1    2    0    0  0.41814156072E+02  0.11991914067E+03 -0.14198766045E+03  0.19049808310E+03  0.00000000000E+00 0.  1.
         11    1    1    2    0    0  0.60705335873E+02  0.42943393979E+02 -0.19188956066E+03  0.20579328556E+03  0.00000000000E+00 0. -1.
<mgrwt>
<rscale>  0 0.22537974E+03</rscale>
<asrwt>0</asrwt>
<pdfrwt beam="2">  1        2 0.12396478E+00 0.22949266E+03</pdfrwt>
<pdfrwt beam="1">  1       -2 0.93976622E-02 0.22949266E+03</pdfrwt>
<totfact> 0.25638592E+03</totfact>
</mgrwt>
</event>
<event>
 7    1  0.6008063E-006  0.1295350E+03  0.7546771E-02  0.1242094E+00
         -2   -1    0    0    0  501 -0.00000000000E+00  0.00000000000E+00  0.45063429121E+02  0.45063429121E+02  0.00000000000E+00 0.  1.
          2   -1    0    0  501    0  0.00000000000E+00 -0.00000000000E+00 -0.28564364784E+03  0.28564364784E+03  0.00000000000E+00 0. -1.
         23    2    1    2    0    0 -0.29667725455E+02  0.16435781229E+02 -0.13934697808E+03  0.19025481099E+03  0.12501601484E+03 0.  0.
          5    1    3    3  502    0 -0.62144211551E+02  0.33017513148E+02 -0.33258750972E+02  0.77976238175E+02  0.47000000000E+01 0. -1.
         -5    1    3    3    0  502  0.32476486096E+02 -0.16581731919E+02 -0.10608822711E+03  0.11227857282E+03  0.47000000000E+01 0. -1.
        -11    1    1    2    0    0  0.36889641041E+02 -0.43764045487E+02 -0.95907085383E+02  0.11168843414E+03  0.00000000000E+00 0. -1.
         11    1    1    2    0    0 -0.72219155860E+01  0.27328264257E+02 -0.53261552589E+01  0.28763831836E+02  0.00000000000E+00 0.  1.
<mgrwt>
<rscale>  0 0.12061012E+03</rscale>
<asrwt>0</asrwt>
<pdfrwt beam="2">  1        2 0.43945177E-01 0.12953499E+03</pdfrwt>
<pdfrwt beam="1">  1       -2 0.69328351E-02 0.12953499E+03</pdfrwt>
<totfact> 0.12795598E+04</totfact>
</mgrwt>
</event>
<event>
 7    1  0.6008063E-006  0.1450433E+03  0.7546771E-02  0.1216967E+00
         -2   -1    0    0    0  501 -0.00000000000E+00  0.00000000000E+00  0.19820916910E+02  0.19820916910E+02  0.00000000000E+00 0. -1.
          2   -1    0    0  501    0  0.00000000000E+00 -0.00000000000E+00 -0.86328354607E+03  0.86328354607E+03  0.00000000000E+00 0.  1.
         23    2    1    2    0    0  0.57906462471E+02 -0.45319939833E+02 -0.46377581764E+03  0.48592754255E+03  0.12502204698E+03 0.  0.
          5    1    3    3  502    0  0.86008227612E+02 -0.21044492794E+02 -0.41541621196E+03  0.42477406354E+03  0.47000000000E+01 0. -1.
         -5    1    3    3    0  502 -0.28101765141E+02 -0.24275447040E+02 -0.48359605684E+02  0.61153479009E+02  0.47000000000E+01 0. -1.
        -11    1    1    2    0    0 -0.67970791347E+02  0.83675439344E+01 -0.31179810785E+03  0.31923048777E+03  0.00000000000E+00 0.  1.
         11    1    1    2    0    0  0.10064328877E+02  0.36952395899E+02 -0.67888703671E+02  0.77946432661E+02  0.00000000000E+00 0. -1.
<mgrwt>
<rscale>  0 0.13733002E+03</rscale>
<asrwt>0</asrwt>
<pdfrwt beam="2">  1        2 0.13281283E+00 0.14504333E+03</pdfrwt>
<pdfrwt beam="1">  1       -2 0.30493723E-02 0.14504333E+03</pdfrwt>
<totfact> 0.12765875E+04</totfact>
</mgrwt>
</event>
<event>
 7    1  0.6008063E-006  0.2556359E+03  0.7546771E-02  0.1112072E+00
          2   -1    0    0  501    0  0.00000000000E+00  0.00000000000E+00  0.59181141391E+02  0.59181141391E+02  0.00000000000E+00 0. -1.
         -2   -1    0    0    0  501 -0.00000000000E+00 -0.00000000000E+00 -0.10591759066E+04  0.10591759066E+04  0.00000000000E+00 0.  1.
         23    2    1    2    0    0  0.22009113716E+03  0.35871510993E+02 -0.44507704048E+03  0.51326728757E+03  0.12499144997E+03 0.  0.
          5    1    3    3  502    0  0.90431145143E+02 -0.11105703559E+02 -0.74343791361E+02  0.11768694905E+03  0.47000000000E+01 0.  1.
         -5    1    3    3    0  502  0.12965999202E+03  0.46977214552E+02 -0.37073324912E+03  0.39558033852E+03  0.47000000000E+01 0.  1.
        -11    1    1    2    0    0 -0.11854305785E+03 -0.30984184793E+02 -0.18843625623E+03  0.22476810035E+03  0.00000000000E+00 0. -1.
         11    1    1    2    0    0 -0.10154807931E+03 -0.48873262000E+01 -0.36648146851E+03  0.38032166009E+03  0.00000000000E+00 0.  1.
<mgrwt>
<rscale>  0 0.25196009E+03</rscale>
<asrwt>0</asrwt>
<pdfrwt beam="1">  1        2 0.91047908E-02 0.25563595E+03</pdfrwt>
<pdfrwt beam="2">  1       -2 0.16295014E+00 0.25563595E+03</pdfrwt>
<totfact> 0.18400928E+02</totfact>
</mgrwt>
</event>
<event>
 6    1  0.6008063E-006  0.1776428E+03  0.7546771E-02  0.1187353E+00
         -1   -1    0    0    0  501 -0.00000000000E+00  0.00000000000E+00  0.31486814931E+03  0.31486814931E+03  0.00000000000E+00 0.  1.
          1   -1    0    0  501    0  0.00000000000E+00 -0.00000000000E+00 -0.83285432107E+02  0.83285432107E+02  0.00000000000E+00 0. -1.
          5    1    1    2  502    0 -0.46663822442E+02  0.20369730759E+02 -0.13390807867E+02  0.52856806481E+02  0.47000000000E+01 0. -1.
         -5    1    1    2    0  502  0.11023280466E+03  0.26282702240E+02  0.71376702994E+02  0.13401035553E+03  0.47000000000E+01 0.  1.
        -11    1    1    2    0    0 -0.55346337630E+01 -0.58827530614E+02  0.10608694165E+03  0.12143207862E+03  0.00000000000E+00 0. -1.
         11    1    1    2    0    0 -0.58034348454E+02  0.12175097614E+02  0.67509880420E+02  0.89854340778E+02  0.00000000000E+00 0.  1.
<mgrwt>
<rscale>  0 0.16119611E+03</rscale>
<asrwt>0</asrwt>
<pdfrwt beam="2">  1        1 0.12813144E-01 0.17764282E+03</pdfrwt>
<pdfrwt beam="1">  1       -1 0.48441253E-01 0.17764282E+03</pdfrwt>
<totfact> 0.19694468E+03</totfact>
</mgrwt>
</event>
<event>
 7    1  0.6008063E-006  0.1297251E+03  0.7546771E-02  0.1235696E+00
         -1   -1    0    0    0  501 -0.00000000000E+00  0.00000000000E+00  0.36246781105E+03  0.36246781105E+03  0.00000000000E+00 0.  1.
          1   -1    0    0  501    0  0.00000000000E+00 -0.00000000000E+00 -0.40631448754E+02  0.40631448754E+02  0.00000000000E+00 0. -1.
         23    2    1    2    0    0 -0.92927642607E+01  0.62541609336E+02  0.14436011891E+03  0.19408361657E+03  0.11327311209E+03 0.  0.
          5    1    3    3  502    0 -0.59994252294E+02  0.47391791353E+02  0.84790427964E+02  0.11426635056E+03  0.47000000000E+01 0. -1.
         -5    1    3    3    0  502  0.50701488033E+02  0.15149817983E+02  0.59569690943E+02  0.79817266006E+02  0.47000000000E+01 0.  1.
        -11    1    1    2    0    0 -0.26026633073E+02 -0.48720661872E+02  0.15586530335E+03  0.16536348240E+03  0.00000000000E+00 0.  1.
         11    1    1    2    0    0  0.35319397334E+02 -0.13820947464E+02  0.21610940042E+02  0.43652160844E+02  0.00000000000E+00 0. -1.
<mgrwt>
<rscale>  0 0.12459978E+03</rscale>
<asrwt>0</asrwt>
<pdfrwt beam="2">  1        1 0.62509924E-02 0.12972512E+03</pdfrwt>
<pdfrwt beam="1">  1       -1 0.55764276E-01 0.12972512E+03</pdfrwt>
<totfact> 0.39049943E+03</totfact>
</mgrwt>
</event>
<event>
 7    1  0.7106989E-006  0.2696818E+03  0.7546771E-02  0.1103483E+00
         -3   -1    0    0    0  501 -0.00000000000E+00  0.00000000000E+00  0.15957356332E+04  0.15957356332E+04  0.00000000000E+00 0.  1.
          3   -1    0    0  501    0  0.00000000000E+00 -0.00000000000E+00 -0.43682260428E+02  0.43682260428E+02  0.00000000000E+00 0. -1.
         23    2    1    2    0    0  0.10409902292E+02  0.23873456250E+03  0.87397942826E+03  0.91464109958E+03  0.12500297044E+03 0.  0.
          5    1    3    3  502    0  0.19301702696E+02  0.57815692579E+02  0.44185708714E+03  0.44606612233E+03  0.47000000000E+01 0. -1.
         -5    1    3    3    0  502 -0.88918004042E+01  0.18091886992E+03  0.43212234112E+03  0.46857497725E+03  0.47000000000E+01 0. -1.
        -11    1    1    2    0    0 -0.96719677960E+01 -0.75040488272E+02  0.10942618399E+03  0.13303650470E+03  0.00000000000E+00 0. -1.
         11    1    1    2    0    0 -0.73793449630E+00 -0.16369407423E+03  0.56864776051E+03  0.59174028933E+03  0.00000000000E+00 0.  1.
<mgrwt>
<rscale>  0 0.26618473E+03</rscale>
<asrwt>0</asrwt>
<pdfrwt beam="2">  1        3 0.67203490E-02 0.26968185E+03</pdfrwt>
<pdfrwt beam="1">  1       -3 0.24549774E+00 0.26968185E+03</pdfrwt>
<totfact> 0.30672601E+01</totfact>
</mgrwt>
</event>
<event>
 7    1  0.6008063E-006  0.1653244E+03  0.7546771E-02  0.1188565E+00
          3   -1    0    0  501    0  0.00000000000E+00  0.00000000000E+00  0.11148567622E+03  0.11148567622E+03  0.00000000000E+00 0. -1.
         -3   -1    0    0    0  501 -0.00000000000E+00 -0.00000000000E+00 -0.21718577778E+03  0.21718577778E+03  0.00000000000E+00 0.  1.
         23    2    1    2    0    0 -0.42130854049E+02 -0.10438804644E+03 -0.47602674883E+02  0.17204122032E+03  0.12107969991E+03 0.  0.
          5    1    3    3  502    0 -0.84402553949E+02 -0.62161469278E+02 -0.36446977526E+02  0.11107795257E+03  0.47000000000E+01 0. -1.
         -5    1    3    3    0  502  0.42271699899E+02 -0.42226577162E+02 -0.11155697357E+02  0.60963267750E+02  0.47000000000E+01 0.  1.
        -11    1    1    2    0    0  0.46447114264E+02  0.20079869335E+02  0.55519401988E+01  0.50905398692E+02  0.00000000000E+00 0. -1.
         11    1    1    2    0    0 -0.43162602149E+01  0.84308177105E+02 -0.63649366882E+02  0.10572483499E+03  0.00000000000E+00 0.  1.
<mgrwt>
<rscale>  0 0.16011661E+03</rscale>
<asrwt>0</asrwt>
<pdfrwt beam="1">  1        3 0.17151643E-01 0.16532443E+03</pdfrwt>
<pdfrwt beam="2">  1       -3 0.33413196E-01 0.16532443E+03</pdfrwt>
<totfact> 0.61417199E+02</totfact>
</mgrwt>
</event>
<event>
 6    1  0.6008063E-006  0.2853467E+03  0.7546771E-02  0.1092804E+00
          2   -1    0    0  501    0  0.00000000000E+00  0.00000000000E+00  0.22206638772E+03  0.22206638772E+03  0.00000000000E+00 0. -1.
         -2   -1    0    0    0  501 -0.00000000000E+00 -0.00000000000E+00 -0.91664845845E+02  0.91664845845E+02  0.00000000000E+00 0.  1.
          5    1    1    2  502    0 -0.50896246651E+01  0.72569687800E+01  0.10199883071E+03  0.10249106957E+03  0.47000000000E+01 0. -1.
         -5    1    1    2    0  502  0.15065286355E+00  0.78165265748E+02 -0.13947998935E+02  0.79539098185E+02  0.47000000000E+01 0.  1.
        -11    1    1    2    0    0  0.35192129210E+02 -0.12136774031E+01  0.12876510043E+02  0.37493512533E+02  0.00000000000E+00 0.  1.
         11    1    1    2    0    0 -0.30253157409E+02 -0.84208557125E+02  0.29474200063E+02  0.94207553283E+02  0.00000000000E+00 0. -1.
<mgrwt>
<rscale>  0 0.28534667E+03</rscale>
<asrwt>0</asrwt>
<pdfrwt beam="1">  1        2 0.34164060E-01 0.28534667E+03</pdfrwt>
<pdfrwt beam="2">  1       -2 0.14102284E-01 0.28534667E+03</pdfrwt>
<totfact> 0.57302925E+03</totfact>
</mgrwt>
</event>
<event>
 7    1  0.6008063E-006  0.1468970E+03  0.7546771E-02  0.1214045E+00
          3   -1    0    0  501    0  0.00000000000E+00  0.00000000000E+00  0.42226775415E+03  0.42226775415E+03  0.00000000000E+00 0. -1.
         -3   -1    0    0    0  501 -0.00000000000E+00 -0.00000000000E+00 -0.45916196344E+02  0.45916196344E+02  0.00000000000E+00 0.  1.
         23    2    1    2    0    0  0.73370047738E+02  0.23892111018E+02  0.27422668607E+03  0.31109322676E+03  0.12499889402E+03 0.  0.
          5    1    3    3  502    0  0.11314703245E+02  0.17029882497E+02 -0.76623287819E+01  0.22334741766E+02  0.47000000000E+01 0. -1.
         -5    1    3    3    0  502  0.62055344493E+02  0.68622285214E+01  0.28188901485E+03  0.28875848499E+03  0.47000000000E+01 0. -1.
        -11    1    1    2    0    0 -0.19742903867E+02  0.25814774020E+02  0.70094847925E+02  0.77262361577E+02  0.00000000000E+00 0. -1.
         11    1    1    2    0    0 -0.53627143870E+02 -0.49706885038E+02  0.32030023813E+02  0.79828362161E+02  0.00000000000E+00 0.  1.
<mgrwt>
<rscale>  0 0.13946939E+03</rscale>
<asrwt>0</asrwt>
<pdfrwt beam="1">  1        3 0.64964267E-01 0.14689697E+03</pdfrwt>
<pdfrwt beam="2">  1       -3 0.70640305E-02 0.14689697E+03</pdfrwt>
<totfact> 0.71370375E+02</totfact>
</mgrwt>
</event>
<event>
 7    1  0.6008063E-006  0.1442568E+03  0.7546771E-02  0.1215764E+00
          1   -1    0    0  501    0  0.00000000000E+00  0.00000000000E+00  0.23108913025E+03  0.23108913025E+03  0.00000000000E+00 0. -1.
         -1   -1    0    0    0  501 -0.00000000000E+00 -0.00000000000E+00 -0.76902438551E+02  0.76902438551E+02  0.00000000000E+00 0.  1.
         23    2    1    2    0    0  0.66242084616E+02  0.44750233341E+02  0.95736691422E+02  0.17313442166E+03  0.12008087575E+03 0.  0.
          5    1    3    3  502    0  0.86487559553E+02  0.60168368871E+02  0.10177330180E+03  0.14656133709E+03  0.47000000000E+01 0. -1.
         -5    1    3    3    0  502 -0.20245474936E+02 -0.15418135529E+02 -0.60366103813E+01  0.26573084569E+02  0.47000000000E+01 0.  1.
        -11    1    1    2    0    0 -0.60154666327E+02 -0.88136593870E+01 -0.57125376878E+01  0.61064699783E+02  0.00000000000E+00 0.  1.
         11    1    1    2    0    0 -0.60874182888E+01 -0.35936573954E+02  0.64162537965E+02  0.73792447358E+02  0.00000000000E+00 0. -1.
<mgrwt>
<rscale>  0 0.13820536E+03</rscale>
<asrwt>0</asrwt>
<pdfrwt beam="1">  1        1 0.35552174E-01 0.14425676E+03</pdfrwt>
<pdfrwt beam="2">  1       -1 0.11831144E-01 0.14425676E+03</pdfrwt>
<totfact> 0.54817265E+03</totfact>
</mgrwt>
</event>
<event>
 7    1  0.6008063E-006  0.1289895E+03  0.7546771E-02  0.1252600E+00
         -3   -1    0    0    0  501 -0.00000000000E+00  0.00000000000E+00  0.81545129055E+02  0.81545129055E+02  0.00000000000E+00 0.  1.
          3   -1    0    0  501    0  0.00000000000E+00 -0.00000000000E+00 -0.13767344729E+03  0.13767344729E+03  0.00000000000E+00 0. -1.
         23    2    1    2    0    0  0.14566442032E+02  0.28360648777E+02 -0.52544143285E+02  0.13928096599E+03  0.12498717079E+03 0.  0.
          5    1    3    3  502    0  0.87522395335E+01 -0.25063218717E+02  0.30214008059E+02  0.40493739174E+02  0.47000000000E+01 0.  1.
         -5    1    3    3    0  502  0.58142024985E+01  0.53423867494E+02 -0.82758151344E+02  0.98787226819E+02  0.47000000000E+01 0.  1.
        -11    1    1    2    0    0 -0.54607994987E+01 -0.52097861341E+02  0.60886287530E+01  0.52735935448E+02  0.00000000000E+00 0.  1.
         11    1    1    2    0    0 -0.91056425334E+01  0.23737212564E+02 -0.96728037042E+01  0.27201674907E+02  0.00000000000E+00 0. -1.
<mgrwt>
<rscale>  0 0.11441801E+03</rscale>
<asrwt>0</asrwt>
<pdfrwt beam="2">  1        3 0.21180530E-01 0.12898954E+03</pdfrwt>
<pdfrwt beam="1">  1       -3 0.12545405E-01 0.12898954E+03</pdfrwt>
<totfact> 0.23165007E+03</totfact>
</mgrwt>
</event>
<event>
 7    1  0.6008063E-006  0.1507575E+03  0.7546771E-02  0.1208207E+00
          1   -1    0    0  501    0  0.00000000000E+00  0.00000000000E+00  0.91681625700E+03  0.91681625700E+03  0.00000000000E+00 0. -1.
         -1   -1    0    0    0  501 -0.00000000000E+00 -0.00000000000E+00 -0.25332216345E+02  0.25332216345E+02  0.00000000000E+00 0.  1.
         23    2    1    2    0    0  0.64983935843E+02  0.53668600056E+02  0.67951909040E+03  0.69604167711E+03  0.12499836604E+03 0.  0.
          5    1    3    3  502    0  0.17789752744E+02 -0.35595138860E+02  0.32280922126E+03  0.32528660062E+03  0.47000000000E+01 0.  1.
         -5    1    3    3    0  502  0.47194183098E+02  0.89263738916E+02  0.35670986914E+03  0.37075507649E+03  0.47000000000E+01 0.  1.
        -11    1    1    2    0    0  0.16520508692E+02 -0.30851892235E+02  0.98636452187E+02  0.10466095816E+03  0.00000000000E+00 0.  1.
         11    1    1    2    0    0 -0.81504444535E+02 -0.22816707821E+02  0.11332849807E+03  0.14144583808E+03  0.00000000000E+00 0. -1.
<mgrwt>
<rscale>  0 0.14387547E+03</rscale>
<asrwt>0</asrwt>
<pdfrwt beam="1">  1        1 0.14104863E+00 0.15075749E+03</pdfrwt>
<pdfrwt beam="2">  1       -1 0.38972648E-02 0.15075749E+03</pdfrwt>
<totfact> 0.46396595E+03</totfact>
</mgrwt>
</event>
<event>
 7    1  0.6008063E-006  0.1263759E+03  0.7546771E-02  0.1247707E+00
          4   -1    0    0  501    0  0.00000000000E+00  0.00000000000E+00  0.23549297148E+03  0.23549297148E+03  0.00000000000E+00 0. -1.
         -4   -1    0    0    0  501 -0.00000000000E+00 -0.00000000000E+00 -0.69024197010E+02  0.69024197010E+02  0.00000000000E+00 0.  1.
         23    2    1    2    0    0  0.13927323810E+02  0.12314631360E+02  0.16878658098E+03  0.21085490018E+03  0.12500103407E+03 0.  0.
          5    1    3    3  502    0 -0.20630821648E+02 -0.26897782810E+02  0.13077037895E+00  0.34223217599E+02  0.47000000000E+01 0. -1.
         -5    1    3    3    0  502  0.34558145458E+02  0.39212414170E+02  0.16865581060E+03  0.17663168259E+03  0.47000000000E+01 0. -1.
        -11    1    1    2    0    0 -0.21879579632E+02  0.12670580771E+02  0.37955472764E+02  0.45605674370E+02  0.00000000000E+00 0. -1.
         11    1    1    2    0    0  0.79522558227E+01 -0.24985212131E+02 -0.40273279271E+02  0.48056593941E+02  0.00000000000E+00 0.  1.
<mgrwt>
<rscale>  0 0.11724821E+03</rscale>
<asrwt>0</asrwt>
<pdfrwt beam="1">  1        4 0.36229687E-01 0.12637594E+03</pdfrwt>
<pdfrwt beam="2">  1       -4 0.10619107E-01 0.12637594E+03</pdfrwt>
<totfact> 0.82467448E+02</totfact>
</mgrwt>
</event>
<event>
 7    1  0.6008063E-006  0.1579819E+03  0.7546771E-02  0.1198986E+00
          1   -1    0    0  501    0  0.00000000000E+00  0.00000000000E+00  0.10285908777E+04  0.10285908777E+04  0.00000000000E+00 0. -1.
         -1   -1    0    0    0  501 -0.00000000000E+00 -0.00000000000E+00 -0.25691022701E+02  0.25691022701E+02  0.00000000000E+00 0.  1.
         23    2    1    2    0    0  0.35469631081E+02 -0.89834186152E+02  0.77210855729E+03  0.78810525803E+03  0.12501998943E+03 0.  0.
          5    1    3    3  502    0 -0.32426177049E+02 -0.76635915510E+02  0.31826390568E+03  0.32899623731E+03  0.47000000000E+01 0.  1.
         -5    1    3    3    0  502  0.67895808130E+02 -0.13198270643E+02  0.45384465161E+03  0.45910902072E+03  0.47000000000E+01 0.  1.
        -11    1    1    2    0    0 -0.15378912489E+00  0.42515100841E+02  0.19469970354E+02  0.46761492664E+02  0.00000000000E+00 0.  1.
         11    1    1    2    0    0 -0.35315841956E+02  0.47319085311E+02  0.21132132738E+03  0.21941514974E+03  0.00000000000E+00 0. -1.
<mgrwt>
<rscale>  0 0.15121659E+03</rscale>
<asrwt>0</asrwt>
<pdfrwt beam="1">  1        1 0.15824472E+00 0.15798188E+03</pdfrwt>
<pdfrwt beam="2">  1       -1 0.39524658E-02 0.15798188E+03</pdfrwt>
<totfact> 0.37575227E+03</totfact>
</mgrwt>
</event>
<event>
 7    1  0.6008063E-006  0.1505098E+03  0.7546771E-02  0.1208704E+00
          2   -1    0    0  501    0  0.00000000000E+00  0.00000000000E+00  0.41989679821E+03  0.41989679821E+03  0.00000000000E+00 0. -1.
         -2   -1    0    0    0  501 -0.00000000000E+00 -0.00000000000E+00 -0.52569238995E+02  0.52569238995E+02  0.00000000000E+00 0.  1.
         23    2    1    2    0    0 -0.27157210785E+02 -0.79290063118E+02  0.28803617508E+03  0.32498927093E+03  0.12501503854E+03 0.  0.
          5    1    3    3  502    0 -0.64409967437E+02 -0.81359616123E+02  0.15385401648E+03  0.18563722533E+03  0.47000000000E+01 0. -1.
         -5    1    3    3    0  502  0.37252756652E+02  0.20695530050E+01  0.13418215859E+03  0.13935204560E+03  0.47000000000E+01 0. -1.
        -11    1    1    2    0    0  0.55838682376E+02  0.73378350248E+02  0.45696980176E+02  0.10291042091E+03  0.00000000000E+00 0. -1.
         11    1    1    2    0    0 -0.28681471591E+02  0.59117128697E+01  0.33594403966E+02  0.44566345368E+02  0.00000000000E+00 0.  1.
<mgrwt>
<rscale>  0 0.14349364E+03</rscale>
<asrwt>0</asrwt>
<pdfrwt beam="1">  1        2 0.64599505E-01 0.15050976E+03</pdfrwt>
<pdfrwt beam="2">  1       -2 0.80875755E-02 0.15050976E+03</pdfrwt>
<totfact> 0.67709085E+03</totfact>
</mgrwt>
</event>
<event>
 7    1  0.6008063E-006  0.2678041E+03  0.7546771E-02  0.1104622E+00
         -2   -1    0    0    0  501 -0.00000000000E+00  0.00000000000E+00  0.75509731404E+02  0.75509731404E+02  0.00000000000E+00 0.  1.
          2   -1    0    0  501    0  0.00000000000E+00 -0.00000000000E+00 -0.90514202747E+03  0.90514202747E+03  0.00000000000E+00 0. -1.
         23    2    1    2    0    0  0.23648066305E+03 -0.13134191574E+02 -0.45951222117E+03  0.53185570696E+03  0.12499360240E+03 0.  0.
          5    1    3    3  502    0  0.15973438490E+03  0.50400072092E+02 -0.30351466326E+03  0.34669652695E+03  0.47000000000E+01 0.  1.
         -5    1    3    3    0  502  0.76746278153E+02 -0.63534263666E+02 -0.15599755791E+03  0.18515918002E+03  0.47000000000E+01 0.  1.
        -11    1    1    2    0    0 -0.90742777163E+02  0.65508792764E+01 -0.22645035763E+03  0.24404288578E+03  0.00000000000E+00 0. -1.
         11    1    1    2    0    0 -0.14573788589E+03  0.65833122980E+01 -0.14366971727E+03  0.20475316614E+03  0.00000000000E+00 0.  1.
<mgrwt>
<rscale>  0 0.26423969E+03</rscale>
<asrwt>0</asrwt>
<pdfrwt beam="2">  1        2 0.13925262E+00 0.26780405E+03</pdfrwt>
<pdfrwt beam="1">  1       -2 0.11616882E-01 0.26780405E+03</pdfrwt>
<totfact> 0.15710078E+03</totfact>
</mgrwt>
</event>
<event>
 7    1  0.6008063E-006  0.1285485E+03  0.7546771E-02  0.1239270E+00
         -1   -1    0    0    0  501 -0.00000000000E+00  0.00000000000E+00  0.21783646677E+03  0.21783646677E+03  0.00000000000E+00 0.  1.
          1   -1    0    0  501    0  0.00000000000E+00 -0.00000000000E+00 -0.91060821227E+02  0.91060821227E+02  0.00000000000E+00 0. -1.
         23    2    1    2    0    0 -0.21078023156E+02  0.21845769274E+02 -0.17961322833E+02  0.12979729310E+03  0.12491279952E+03 0.  0.
          5    1    3    3  502    0 -0.17432192971E+02 -0.34661959127E+02  0.34746607737E+02  0.52294832551E+02  0.47000000000E+01 0.  1.
         -5    1    3    3    0  502 -0.36458301844E+01  0.56507728401E+02 -0.52707930570E+02  0.77502460553E+02  0.47000000000E+01 0.  1.
        -11    1    1    2    0    0 -0.37014023945E+02  0.10721020252E+02  0.60268747079E+02  0.71535306796E+02  0.00000000000E+00 0. -1.
         11    1    1    2    0    0  0.58092047101E+02 -0.32566789526E+02  0.84468221295E+02  0.10756468810E+03  0.00000000000E+00 0.  1.
<mgrwt>
<rscale>  0 0.12234961E+03</rscale>
<asrwt>0</asrwt>
<pdfrwt beam="2">  1        1 0.14009357E-01 0.12854854E+03</pdfrwt>
<pdfrwt beam="1">  1       -1 0.33513302E-01 0.12854854E+03</pdfrwt>
<totfact> 0.33045262E+03</totfact>
</mgrwt>
</event>
<event>
 7    1  0.6008063E-006  0.1448727E+03  0.7546771E-02  0.1216969E+00
          2   -1    0    0  501    0  0.00000000000E+00  0.00000000000E+00  0.92377127278E+03  0.92377127278E+03  0.00000000000E+00 0. -1.
         -2   -1    0    0    0  501 -0.00000000000E+00 -0.00000000000E+00 -0.19600337109E+02  0.19600337109E+02  0.00000000000E+00 0.  1.
         23    2    1    2    0    0 -0.67359941167E+02 -0.28761841905E+02  0.60601439723E+03  0.62309033041E+03  0.12499401979E+03 0.  0.
          5    1    3    3  502    0  0.26210446528E+02  0.14262083164E+01  0.36903951031E+02  0.45530354479E+02  0.47000000000E+01 0. -1.
         -5    1    3    3    0  502 -0.93570387695E+02 -0.30188050221E+02  0.56911044620E+03  0.57755997593E+03  0.47000000000E+01 0. -1.
        -11    1    1    2    0    0  0.86267852066E+02  0.19559983024E+02  0.27557909485E+03  0.28942800963E+03  0.00000000000E+00 0. -1.
         11    1    1    2    0    0 -0.18907910900E+02  0.92018588805E+01  0.22577443593E+02  0.30853269853E+02  0.00000000000E+00 0.  1.
<mgrwt>
<rscale>  0 0.13732885E+03</rscale>
<asrwt>0</asrwt>
<pdfrwt beam="1">  1        2 0.14211862E+00 0.14487274E+03</pdfrwt>
<pdfrwt beam="2">  1       -2 0.30154372E-02 0.14487274E+03</pdfrwt>
<totfact> 0.11878678E+04</totfact>
</mgrwt>
</event>
<event>
 7    1  0.6008063E-006  0.1600935E+03  0.7546771E-02  0.1195737E+00
          2   -1    0    0  501    0  0.00000000000E+00  0.00000000000E+00  0.40787401392E+03  0.40787401392E+03  0.00000000000E+00 0. -1.
         -2   -1    0    0    0  501 -0.00000000000E+00 -0.00000000000E+00 -0.94167871032E+02  0.94167871032E+02  0.00000000000E+00 0.  1.
         23    2    1    2    0    0  0.99790197543E+02  0.69052311079E+01  0.32752158082E+03  0.36455496588E+03  0.12499668597E+03 0.  0.
          5    1    3    3  502    0  0.97907826501E+02  0.33093256340E+02  0.13443503321E+03  0.16963482620E+03  0.47000000000E+01 0.  1.
         -5    1    3    3    0  502  0.18823710421E+01 -0.26188025232E+02  0.19308654761E+03  0.19492013968E+03  0.47000000000E+01 0.  1.
        -11    1    1    2    0    0 -0.95594072320E+02 -0.35157885136E+02 -0.27948191987E+02  0.10561915066E+03  0.00000000000E+00 0.  1.
         11    1    1    2    0    0 -0.41961252238E+01  0.28252654028E+02  0.14132754055E+02  0.31867768414E+02  0.00000000000E+00 0. -1.
<mgrwt>
<rscale>  0 0.15391989E+03</rscale>
<asrwt>0</asrwt>
<pdfrwt beam="1">  1        2 0.62749848E-01 0.16009353E+03</pdfrwt>
<pdfrwt beam="2">  1       -2 0.14487365E-01 0.16009353E+03</pdfrwt>
<totfact> 0.27756964E+03</totfact>
</mgrwt>
</event>
<event>
 7    1  0.6008063E-006  0.1578527E+03  0.7546771E-02  0.1198846E+00
          2   -1    0    0  501    0  0.00000000000E+00  0.00000000000E+00  0.17189851210E+03  0.17189851210E+03  0.00000000000E+00 0. -1.
         -2   -1    0    0    0  501 -0.00000000000E+00 -0.00000000000E+00 -0.12423603154E+03  0.12423603154E+03  0.00000000000E+00 0.  1.
         23    2    1    2    0    0  0.59513776369E+02  0.75829583235E+02  0.38489538909E+02  0.16247747223E+03  0.12500187641E+03 0.  0.
          5    1    3    3  502    0  0.52410360074E+02  0.15683612513E+02  0.73975086931E+02  0.92126136525E+02  0.47000000000E+01 0.  1.
         -5    1    3    3    0  502  0.71034162952E+01  0.60145970722E+02 -0.35485548022E+02  0.70351335706E+02  0.47000000000E+01 0.  1.
        -11    1    1    2    0    0 -0.24082330174E+02 -0.17100184541E+01 -0.33334050674E+02  0.41158738125E+02  0.00000000000E+00 0.  1.
         11    1    1    2    0    0 -0.35431446195E+02 -0.74119564781E+02  0.42506992326E+02  0.92498333279E+02  0.00000000000E+00 0. -1.
<mgrwt>
<rscale>  0 0.15133199E+03</rscale>
<asrwt>0</asrwt>
<pdfrwt beam="1">  1        2 0.26445925E-01 0.15785273E+03</pdfrwt>
<pdfrwt beam="2">  1       -2 0.19113236E-01 0.15785273E+03</pdfrwt>
<totfact> 0.44331657E+03</totfact>
</mgrwt>
</event>
<event>
 7    1  0.6008063E-006  0.1368105E+03  0.7546771E-02  0.1229107E+00
          1   -1    0    0  501    0  0.00000000000E+00  0.00000000000E+00  0.77767338105E+02  0.77767338105E+02  0.00000000000E+00 0. -1.
         -1   -1    0    0    0  501 -0.00000000000E+00 -0.00000000000E+00 -0.19401229406E+03  0.19401229406E+03  0.00000000000E+00 0.  1.
         23    2    1    2    0    0 -0.44980275512E+02  0.32738377444E+02 -0.52396802142E+02  0.14650097802E+03  0.12498834002E+03 0.  0.
          5    1    3    3  502    0  0.25995636565E+02  0.28924436943E+02  0.20809764034E+02  0.44356876040E+02  0.47000000000E+01 0. -1.
         -5    1    3    3    0  502 -0.70975912077E+02  0.38139405004E+01 -0.73206566176E+02  0.10214410198E+03  0.47000000000E+01 0. -1.
        -11    1    1    2    0    0  0.13937799056E+02 -0.47351282061E+02 -0.74486869662E+02  0.89357148049E+02  0.00000000000E+00 0.  1.
         11    1    1    2    0    0  0.31042476456E+02  0.14612904617E+02  0.10638715846E+02  0.35921506103E+02  0.00000000000E+00 0. -1.
<mgrwt>
<rscale>  0 0.12889370E+03</rscale>
<asrwt>0</asrwt>
<pdfrwt beam="1">  1        1 0.11964206E-01 0.13681050E+03</pdfrwt>
<pdfrwt beam="2">  1       -1 0.29848045E-01 0.13681050E+03</pdfrwt>
<totfact> 0.49570611E+03</totfact>
</mgrwt>
</event>
<event>
 7    1  0.6008063E-006  0.1278769E+03  0.7546771E-02  0.1243643E+00
         -2   -1    0    0    0  501 -0.00000000000E+00  0.00000000000E+00  0.74443726356E+02  0.74443726356E+02  0.00000000000E+00 0.  1.
          2   -1    0    0  501    0  0.00000000000E+00 -0.00000000000E+00 -0.22002159478E+03  0.22002159478E+03  0.00000000000E+00 0. -1.
         23    2    1    2    0    0  0.16636272402E+02 -0.21232460468E+02 -0.14897446247E+03  0.19633107228E+03  0.12499966614E+03 0.  0.
          5    1    3    3  502    0  0.49266568117E+02 -0.58778544618E+02 -0.77604204057E+02  0.10920904051E+03  0.47000000000E+01 0.  1.
         -5    1    3    3    0  502 -0.32630295714E+02  0.37546084150E+02 -0.71370258415E+02  0.87122031769E+02  0.47000000000E+01 0.  1.
        -11    1    1    2    0    0 -0.30778700049E+02 -0.14739991542E+02 -0.31215638040E+02  0.46249451733E+02  0.00000000000E+00 0. -1.
         11    1    1    2    0    0  0.14142427647E+02  0.35972452010E+02  0.34612232084E+02  0.51884797130E+02  0.00000000000E+00 0.  1.
<mgrwt>
<rscale>  0 0.11966968E+03</rscale>
<asrwt>0</asrwt>
<pdfrwt beam="2">  1        2 0.33849476E-01 0.12787689E+03</pdfrwt>
<pdfrwt beam="1">  1       -2 0.11452881E-01 0.12787689E+03</pdfrwt>
<totfact> 0.77278998E+03</totfact>
</mgrwt>
</event>
<event>
 7    1  0.6008063E-006  0.2205210E+03  0.7546771E-02  0.1135930E+00
          1   -1    0    0  501    0  0.00000000000E+00  0.00000000000E+00  0.57069413260E+02  0.57069413260E+02  0.00000000000E+00 0. -1.
         -1   -1    0    0    0  501 -0.00000000000E+00 -0.00000000000E+00 -0.80425374796E+03  0.80425374796E+03  0.00000000000E+00 0.  1.
         23    2    1    2    0    0 -0.60770987232E+02  0.17120743948E+03 -0.39536274596E+03  0.45270431493E+03  0.12499758251E+03 0.  0.
          5    1    3    3  502    0 -0.32619181218E+01 -0.14139775643E+02 -0.38854157405E+01  0.15740388196E+02  0.47000000000E+01 0. -1.
         -5    1    3    3    0  502 -0.57509069110E+02  0.18534721513E+03 -0.39147733022E+03  0.43696392673E+03  0.47000000000E+01 0. -1.
        -11    1    1    2    0    0  0.87475207077E+02 -0.10988750597E+03 -0.22494499381E+03  0.26519318630E+03  0.00000000000E+00 0.  1.
         11    1    1    2    0    0 -0.26704219846E+02 -0.61319933514E+02 -0.12687659493E+03  0.14342565999E+03  0.00000000000E+00 0. -1.
<mgrwt>
<rscale>  0 0.21727586E+03</rscale>
<asrwt>0</asrwt>
<pdfrwt beam="1">  1        1 0.87799097E-02 0.22052096E+03</pdfrwt>
<pdfrwt beam="2">  1       -1 0.12373135E+00 0.22052096E+03</pdfrwt>
<totfact> 0.47060503E+02</totfact>
</mgrwt>
</event>
<event>
 7    1  0.6008063E-006  0.1334464E+03  0.7546771E-02  0.1240252E+00
          2   -1    0    0  501    0  0.00000000000E+00  0.00000000000E+00  0.75445532231E+02  0.75445532231E+02  0.00000000000E+00 0. -1.
         -2   -1    0    0    0  501 -0.00000000000E+00 -0.00000000000E+00 -0.18784174464E+03  0.18784174464E+03  0.00000000000E+00 0.  1.
         23    2    1    2    0    0  0.46709149673E+02 -0.83505552423E+00 -0.24387774750E+02  0.13565661133E+03  0.12500204262E+03 0.  0.
          5    1    3    3  502    0 -0.19207245714E+02 -0.45049397488E+02  0.79219634210E+01  0.49831857344E+02  0.47000000000E+01 0.  1.
         -5    1    3    3    0  502  0.65916395387E+02  0.44214341964E+02 -0.32309738171E+02  0.85824753987E+02  0.47000000000E+01 0.  1.
        -11    1    1    2    0    0  0.66034463907E+01 -0.15607421248E+02 -0.65185418644E+02  0.67352326657E+02  0.00000000000E+00 0.  1.
         11    1    1    2    0    0 -0.53312596064E+02  0.16442476772E+02 -0.22823019014E+02  0.60278338882E+02  0.00000000000E+00 0. -1.
<mgrwt>
<rscale>  0 0.12174147E+03</rscale>
<asrwt>0</asrwt>
<pdfrwt beam="1">  1        2 0.11607005E-01 0.13344644E+03</pdfrwt>
<pdfrwt beam="2">  1       -2 0.28898730E-01 0.13344644E+03</pdfrwt>
<totfact> 0.55294422E+03</totfact>
</mgrwt>
</event>
<event>
 7    1  0.6008063E-006  0.1385523E+03  0.7546771E-02  0.1222592E+00
         -4   -1    0    0    0  501 -0.00000000000E+00  0.00000000000E+00  0.49678597463E+02  0.49678597463E+02  0.00000000000E+00 0.  1.
          4   -1    0    0  501    0  0.00000000000E+00 -0.00000000000E+00 -0.40623832410E+03  0.40623832410E+03  0.00000000000E+00 0. -1.
         23    2    1    2    0    0 -0.35517945218E+02  0.61377506495E+02 -0.28580973531E+03  0.31762232861E+03  0.11902947575E+03 0.  0.
          5    1    3    3  502    0 -0.23830261560E+02 -0.22817127674E+02 -0.20822808588E+02  0.39296081723E+02  0.47000000000E+01 0. -1.
         -5    1    3    3    0  502 -0.11687683658E+02  0.84194634169E+02 -0.26498692673E+03  0.27832624689E+03  0.47000000000E+01 0.  1.
        -11    1    1    2    0    0  0.65676940560E+02 -0.22078170694E+02 -0.41069190992E+02  0.80545543584E+02  0.00000000000E+00 0.  1.
         11    1    1    2    0    0 -0.30158995343E+02 -0.39299335801E+02 -0.29680800332E+02  0.57749049367E+02  0.00000000000E+00 0. -1.
<mgrwt>
<rscale>  0 0.13333341E+03</rscale>
<asrwt>0</asrwt>
<pdfrwt beam="2">  1        4 0.62498203E-01 0.13855230E+03</pdfrwt>
<pdfrwt beam="1">  1       -4 0.76428613E-02 0.13855230E+03</pdfrwt>
<totfact> 0.48326404E+02</totfact>
</mgrwt>
</event>
<event>
 7    1  0.6008063E-006  0.1452678E+03  0.7546771E-02  0.1216820E+00
         -2   -1    0    0    0  501 -0.00000000000E+00  0.00000000000E+00  0.29089464735E+03  0.29089464735E+03  0.00000000000E+00 0.  1.
          2   -1    0    0  501    0  0.00000000000E+00 -0.00000000000E+00 -0.64876250553E+02  0.64876250553E+02  0.00000000000E+00 0. -1.
         23    2    1    2    0    0 -0.68490258550E+02 -0.27949903350E+02  0.70357272703E+02  0.16140904093E+03  0.12502247821E+03 0.  0.
          5    1    3    3  502    0  0.31566130374E+02 -0.13450304695E+02  0.45517068513E+02  0.57194622205E+02  0.47000000000E+01 0. -1.
         -5    1    3    3    0  502 -0.10005638892E+03 -0.14499598654E+02  0.24840204190E+02  0.10421441872E+03  0.47000000000E+01 0. -1.
        -11    1    1    2    0    0 -0.25586571896E+01 -0.26504347712E+02  0.30573791549E+02  0.40543604969E+02  0.00000000000E+00 0.  1.
         11    1    1    2    0    0  0.71048915740E+02  0.54454251061E+02  0.12508733254E+03  0.15381825200E+03  0.00000000000E+00 0. -1.
<mgrwt>
<rscale>  0 0.13743710E+03</rscale>
<asrwt>0</asrwt>
<pdfrwt beam="2">  1        2 0.99809618E-02 0.14526780E+03</pdfrwt>
<pdfrwt beam="1">  1       -2 0.44753022E-01 0.14526780E+03</pdfrwt>
<totfact> 0.29643000E+03</totfact>
</mgrwt>
</event>
<event>
 7    1  0.6008063E-006  0.2610200E+03  0.7546771E-02  0.1108728E+00
          1   -1    0    0  501    0  0.00000000000E+00  0.00000000000E+00  0.15638869061E+03  0.15638869061E+03  0.00000000000E+00 0. -1.
         -1   -1    0    0    0  501 -0.00000000000E+00 -0.00000000000E+00 -0.59030313751E+03  0.59030313751E+03  0.00000000000E+00 0.  1.
         23    2    1    2    0    0 -0.12411474460E+03 -0.19262010328E+03 -0.16183841341E+02  0.26152121581E+03  0.12499782232E+03 0.  0.
          5    1    3    3  502    0 -0.13424003323E+03 -0.11558815046E+03 -0.36823464132E+02  0.18099465340E+03  0.47000000000E+01 0.  1.
         -5    1    3    3    0  502  0.10125288629E+02 -0.77031952817E+02  0.20639622791E+02  0.80526562410E+02  0.47000000000E+01 0.  1.
        -11    1    1    2    0    0  0.39846639238E+02  0.14294941647E+03 -0.26736472398E+03  0.30578781198E+03  0.00000000000E+00 0.  1.
         11    1    1    2    0    0  0.84268105365E+02  0.49670686809E+02 -0.15036588158E+03  0.17938280033E+03  0.00000000000E+00 0. -1.
<mgrwt>
<rscale>  0 0.25738015E+03</rscale>
<asrwt>0</asrwt>
<pdfrwt beam="1">  1        1 0.24059799E-01 0.26101998E+03</pdfrwt>
<pdfrwt beam="2">  1       -1 0.90815867E-01 0.26101998E+03</pdfrwt>
<totfact> 0.25188333E+02</totfact>
</mgrwt>
</event>
<event>
 7    1  0.2284265E-005  0.2860556E+03  0.7546771E-02  0.1094218E+00
          1   -1    0    0  501    0  0.00000000000E+00  0.00000000000E+00  0.15271271318E+04  0.15271271318E+04  0.00000000000E+00 0. -1.
         -1   -1    0    0    0  501 -0.00000000000E+00 -0.00000000000E+00 -0.52685255942E+02  0.52685255942E+02  0.00000000000E+00 0.  1.
         23    2    1    2    0    0  0.20814196342E+03 -0.15126123492E+03  0.88893216055E+03  0.93382448238E+03  0.12499895877E+03 0.  0.
          5    1    3    3  502    0  0.15724517777E+02 -0.65392077017E+02  0.13372255560E+03  0.14975712361E+03  0.47000000000E+01 0. -1.
         -5    1    3    3    0  502  0.19241744565E+03 -0.85869157898E+02  0.75520960496E+03  0.78406735877E+03  0.47000000000E+01 0. -1.
        -11    1    1    2    0    0 -0.97534463085E+02  0.83229987645E+02  0.18606025070E+03  0.22596154368E+03  0.00000000000E+00 0.  1.
         11    1    1    2    0    0 -0.11060750034E+03  0.68031247270E+02  0.39944946459E+03  0.42002636167E+03  0.00000000000E+00 0. -1.
<mgrwt>
<rscale>  0 0.28271043E+03</rscale>
<asrwt>0</asrwt>
<pdfrwt beam="1">  1        1 0.23494260E+00 0.28605555E+03</pdfrwt>
<pdfrwt beam="2">  1       -1 0.81054251E-02 0.28605555E+03</pdfrwt>
<totfact> 0.57927926E+02</totfact>
</mgrwt>
</event>
<event>
 7    1  0.6008063E-006  0.1833090E+03  0.7546771E-02  0.1169076E+00
          1   -1    0    0  501    0  0.00000000000E+00  0.00000000000E+00  0.14905201718E+04  0.14905201718E+04  0.00000000000E+00 0. -1.
         -1   -1    0    0    0  501 -0.00000000000E+00 -0.00000000000E+00 -0.21616403558E+02  0.21616403558E+02  0.00000000000E+00 0.  1.
         23    2    1    2    0    0 -0.73232117330E+02  0.11247907479E+03  0.94822010830E+03  0.96577614365E+03  0.12485071320E+03 0.  0.
          5    1    3    3  502    0 -0.81748741120E+02  0.33068735983E+02  0.68492531472E+03  0.69059479778E+03  0.47000000000E+01 0.  1.
         -5    1    3    3    0  502  0.85166237894E+01  0.79410338802E+02  0.26329479358E+03  0.27518134587E+03  0.47000000000E+01 0.  1.
        -11    1    1    2    0    0  0.26857361145E+01 -0.74871981692E+02  0.15654353464E+03  0.17354799065E+03  0.00000000000E+00 0.  1.
         11    1    1    2    0    0  0.70546381216E+02 -0.37607093093E+02  0.36414012534E+03  0.37281244109E+03  0.00000000000E+00 0. -1.
<mgrwt>
<rscale>  0 0.17869120E+03</rscale>
<asrwt>0</asrwt>
<pdfrwt beam="1">  1        1 0.22931071E+00 0.18330899E+03</pdfrwt>
<pdfrwt beam="2">  1       -1 0.33256017E-02 0.18330899E+03</pdfrwt>
<totfact> 0.23472898E+03</totfact>
</mgrwt>
</event>
<event>
 7    1  0.6008063E-006  0.1376845E+03  0.7546771E-02  0.1222297E+00
          2   -1    0    0  501    0  0.00000000000E+00  0.00000000000E+00  0.40743416311E+02  0.40743416311E+02  0.00000000000E+00 0. -1.
         -2   -1    0    0    0  501 -0.00000000000E+00 -0.00000000000E+00 -0.48090070599E+03  0.48090070599E+03  0.00000000000E+00 0.  1.
         23    2    1    2    0    0 -0.72810040105E+02  0.36803775293E+02 -0.13397054505E+03  0.19210709846E+03  0.11091082239E+03 0.  0.
          5    1    3    3  502    0 -0.71511224088E+02  0.60591756350E+02 -0.53441794499E+02  0.10799690508E+03  0.47000000000E+01 0. -1.
         -5    1    3    3    0  502 -0.12988160171E+01 -0.23787981056E+02 -0.80528750547E+02  0.84110193380E+02  0.47000000000E+01 0.  1.
        -11    1    1    2    0    0 -0.79884100070E+01 -0.39588363102E+02 -0.11796962187E+03  0.12469115796E+03  0.00000000000E+00 0.  1.
         11    1    1    2    0    0  0.80798450112E+02  0.27845878090E+01 -0.18821712276E+03  0.20484586588E+03  0.00000000000E+00 0. -1.
<mgrwt>
<rscale>  0 0.13353925E+03</rscale>
<asrwt>0</asrwt>
<pdfrwt beam="1">  1        2 0.62682178E-02 0.13768453E+03</pdfrwt>
<pdfrwt beam="2">  1       -2 0.73984725E-01 0.13768453E+03</pdfrwt>
<totfact> 0.19028042E+03</totfact>
</mgrwt>
</event>
<event>
 7    1  0.6008063E-006  0.1503927E+03  0.7546771E-02  0.1209394E+00
          2   -1    0    0  501    0  0.00000000000E+00  0.00000000000E+00  0.22549632364E+03  0.22549632364E+03  0.00000000000E+00 0. -1.
         -2   -1    0    0    0  501 -0.00000000000E+00 -0.00000000000E+00 -0.10173147594E+03  0.10173147594E+03  0.00000000000E+00 0.  1.
         23    2    1    2    0    0  0.81598916030E+02  0.18401895499E+02  0.13734153910E+03  0.20366801649E+03  0.12498379785E+03 0.  0.
          5    1    3    3  502    0 -0.31571099788E+02 -0.97073828406E+01  0.36284571136E+02  0.49291254051E+02  0.47000000000E+01 0. -1.
         -5    1    3    3    0  502  0.11317001582E+03  0.28109278340E+02  0.10105696796E+03  0.15437676244E+03  0.47000000000E+01 0. -1.
        -11    1    1    2    0    0 -0.58579816690E+02  0.10621094339E+02 -0.45283575775E+02  0.74799764728E+02  0.00000000000E+00 0.  1.
         11    1    1    2    0    0 -0.23019099340E+02 -0.29022989838E+02  0.31706884382E+02  0.48760018363E+02  0.00000000000E+00 0. -1.
<mgrwt>
<rscale>  0 0.14296506E+03</rscale>
<asrwt>0</asrwt>
<pdfrwt beam="1">  1        2 0.34691742E-01 0.15039269E+03</pdfrwt>
<pdfrwt beam="2">  1       -2 0.15650996E-01 0.15039269E+03</pdfrwt>
<totfact> 0.45918503E+03</totfact>
</mgrwt>
</event>
<event>
 7    1  0.6008063E-006  0.1408727E+03  0.7546771E-02  0.1222823E+00
          1   -1    0    0  501    0  0.00000000000E+00  0.00000000000E+00  0.16659986436E+03  0.16659986436E+03  0.00000000000E+00 0. -1.
         -1   -1    0    0    0  501 -0.00000000000E+00 -0.00000000000E+00 -0.11106042912E+03  0.11106042912E+03  0.00000000000E+00 0.  1.
         23    2    1    2    0    0 -0.63249686691E+02 -0.14704195406E+02  0.80736244281E+02  0.16236830967E+03  0.12501356173E+03 0.  0.
          5    1    3    3  502    0 -0.97663786240E+02  0.91269406235E+01  0.62937521046E+02  0.11663934903E+03  0.47000000000E+01 0. -1.
         -5    1    3    3    0  502  0.34414099549E+02 -0.23831136030E+02  0.17798723235E+02  0.45728960638E+02  0.47000000000E+01 0. -1.
        -11    1    1    2    0    0  0.28698759007E+02 -0.48922820899E+01 -0.57265665708E+02  0.64241027869E+02  0.00000000000E+00 0.  1.
         11    1    1    2    0    0  0.34550927684E+02  0.19596477496E+02  0.32068856664E+02  0.51050955934E+02  0.00000000000E+00 0. -1.
<mgrwt>
<rscale>  0 0.13317206E+03</rscale>
<asrwt>0</asrwt>
<pdfrwt beam="1">  1        1 0.25630748E-01 0.14087273E+03</pdfrwt>
<pdfrwt beam="2">  1       -1 0.17086220E-01 0.14087273E+03</pdfrwt>
<totfact> 0.46329560E+03</totfact>
</mgrwt>
</event>
<event>
 7    1  0.6008063E-006  0.1289684E+03  0.7546771E-02  0.1242949E+00
          3   -1    0    0  501    0  0.00000000000E+00  0.00000000000E+00  0.29761638080E+03  0.29761638080E+03  0.00000000000E+00 0. -1.
         -3   -1    0    0    0  501 -0.00000000000E+00 -0.00000000000E+00 -0.49230023112E+02  0.49230023112E+02  0.00000000000E+00 0.  1.
         23    2    1    2    0    0  0.31790812968E+02 -0.83191640808E+00  0.20128055513E+03  0.23905379583E+03  0.12498602944E+03 0.  0.
          5    1    3    3  502    0 -0.55001311788E+01  0.16148140224E+02  0.19677041629E+03  0.19756442140E+03  0.47000000000E+01 0. -1.
         -5    1    3    3    0  502  0.37290944146E+02 -0.16980056632E+02  0.45101388392E+01  0.41489374434E+02  0.47000000000E+01 0. -1.
        -11    1    1    2    0    0 -0.59733888818E+01  0.45052378392E+02  0.26409045685E+02  0.52562685125E+02  0.00000000000E+00 0. -1.
         11    1    1    2    0    0 -0.25817424086E+02 -0.44220461984E+02  0.20696756874E+02  0.55229922955E+02  0.00000000000E+00 0.  1.
<mgrwt>
<rscale>  0 0.12008955E+03</rscale>
<asrwt>0</asrwt>
<pdfrwt beam="1">  1        3 0.45787134E-01 0.12896843E+03</pdfrwt>
<pdfrwt beam="2">  1       -3 0.75738499E-02 0.12896843E+03</pdfrwt>
<totfact> 0.12689898E+03</totfact>
</mgrwt>
</event>
<event>
 7    1  0.6008063E-006  0.1593536E+03  0.7546771E-02  0.1197196E+00
         -2   -1    0    0    0  501 -0.00000000000E+00  0.00000000000E+00  0.55936317976E+02  0.55936317976E+02  0.00000000000E+00 0.  1.
          2   -1    0    0  501    0  0.00000000000E+00 -0.00000000000E+00 -0.38805648129E+03  0.38805648129E+03  0.00000000000E+00 0. -1.
         23    2    1    2    0    0  0.87901313722E+02  0.45191651261E+02 -0.19788698438E+03  0.25407246396E+03  0.12499852823E+03 0.  0.
          5    1    3    3  502    0  0.92975436157E+02  0.38059486803E+02 -0.21325018202E+03  0.23577677239E+03  0.47000000000E+01 0. -1.
         -5    1    3    3    0  502 -0.50741224343E+01  0.71321644583E+01  0.15363197643E+02  0.18295691574E+02  0.47000000000E+01 0. -1.
        -11    1    1    2    0    0 -0.42745108420E+02 -0.16948665679E+02 -0.51524783492E+00  0.45985509049E+02  0.00000000000E+00 0.  1.
         11    1    1    2    0    0 -0.45156205302E+02 -0.28242985582E+02 -0.13371793110E+03  0.14393482626E+03  0.00000000000E+00 0. -1.
<mgrwt>
<rscale>  0 0.15269843E+03</rscale>
<asrwt>0</asrwt>
<pdfrwt beam="2">  1        2 0.59700996E-01 0.15935356E+03</pdfrwt>
<pdfrwt beam="1">  1       -2 0.86055875E-02 0.15935356E+03</pdfrwt>
<totfact> 0.67148531E+03</totfact>
</mgrwt>
</event>
<event>
 7    1  0.6008063E-006  0.1285796E+03  0.7546771E-02  0.1243283E+00
          1   -1    0    0  501    0  0.00000000000E+00  0.00000000000E+00  0.65568468525E+02  0.65568468525E+02  0.00000000000E+00 0. -1.
         -1   -1    0    0    0  501 -0.00000000000E+00 -0.00000000000E+00 -0.26485251194E+03  0.26485251194E+03  0.00000000000E+00 0.  1.
         23    2    1    2    0    0 -0.20958040716E+02 -0.21587291394E+02 -0.25165382446E+02  0.13101909425E+03  0.12500982347E+03 0.  0.
          5    1    3    3  502    0  0.11341867879E+02 -0.63194500610E+02  0.13162455128E+02  0.65707861778E+02  0.47000000000E+01 0.  1.
         -5    1    3    3    0  502 -0.32299908595E+02  0.41607209216E+02 -0.38327837574E+02  0.65311232473E+02  0.47000000000E+01 0.  1.
        -11    1    1    2    0    0  0.21989624092E+02  0.34479682468E+02 -0.18043290938E+03  0.18500926155E+03  0.00000000000E+00 0.  1.
         11    1    1    2    0    0 -0.10315833758E+01 -0.12892391074E+02  0.63142484098E+01  0.14392624668E+02  0.00000000000E+00 0. -1.
<mgrwt>
<rscale>  0 0.11988707E+03</rscale>
<asrwt>0</asrwt>
<pdfrwt beam="1">  1        1 0.10087457E-01 0.12857957E+03</pdfrwt>
<pdfrwt beam="2">  1       -1 0.40746540E-01 0.12857957E+03</pdfrwt>
<totfact> 0.36255836E+03</totfact>
</mgrwt>
</event>
<event>
 6    1  0.6008063E-006  0.4591766E+03  0.7546771E-02  0.1064793E+00
         -1   -1    0    0    0  501 -0.00000000000E+00  0.00000000000E+00  0.21618889952E+03  0.21618889952E+03  0.00000000000E+00 0.  1.
          1   -1    0    0  501    0  0.00000000000E+00 -0.00000000000E+00 -0.46184527660E+03  0.46184527660E+03  0.00000000000E+00 0. -1.
          5    1    1    2  502    0 -0.58908574121E+02  0.16329281676E+03 -0.32764943225E+03  0.37082476261E+03  0.47000000000E+01 0. -1.
         -5    1    1    2    0  502  0.12772566661E+03 -0.73756699295E+02  0.61545002054E+02  0.15988675329E+03  0.47000000000E+01 0.  1.
        -11    1    1    2    0    0 -0.72565834334E+02 -0.10613324326E+03  0.21128614899E+02  0.13029383717E+03  0.00000000000E+00 0.  1.
         11    1    1    2    0    0  0.37487418477E+01  0.16597125793E+02 -0.68056177556E+00  0.17028823046E+02  0.00000000000E+00 0. -1.
<mgrwt>
<rscale>  0 0.34474356E+03</rscale>
<asrwt>0</asrwt>
<pdfrwt beam="2">  1        1 0.71053119E-01 0.45917659E+03</pdfrwt>
<pdfrwt beam="1">  1       -1 0.33259831E-01 0.45917659E+03</pdfrwt>
<totfact> 0.42779246E+02</totfact>
</mgrwt>
</event>
<event>
 7    1  0.6008063E-006  0.1681886E+03  0.7546771E-02  0.1186332E+00
          1   -1    0    0  501    0  0.00000000000E+00  0.00000000000E+00  0.77747924804E+03  0.77747924804E+03  0.00000000000E+00 0. -1.
         -1   -1    0    0    0  501 -0.00000000000E+00 -0.00000000000E+00 -0.32717084362E+02  0.32717084362E+02  0.00000000000E+00 0.  1.
         23    2    1    2    0    0  0.11141655674E+03  0.16164791937E+02  0.47429688265E+03  0.50323449128E+03  0.12494987277E+03 0.  0.
          5    1    3    3  502    0  0.99795593926E+02  0.36586803682E+02  0.46582145655E+03  0.47781740671E+03  0.47000000000E+01 0.  1.
         -5    1    3    3    0  502  0.11620962816E+02 -0.20422011745E+02  0.84754261008E+01  0.25417084571E+02  0.47000000000E+01 0.  1.
        -11    1    1    2    0    0 -0.14536271682E+02  0.20780940343E+02  0.12956029556E+03  0.13201901704E+03  0.00000000000E+00 0.  1.
         11    1    1    2    0    0 -0.96880285060E+02 -0.36945732280E+02  0.14090498547E+03  0.17494282408E+03  0.00000000000E+00 0. -1.
<mgrwt>
<rscale>  0 0.16211237E+03</rscale>
<asrwt>0</asrwt>
<pdfrwt beam="1">  1        1 0.11961218E+00 0.16818865E+03</pdfrwt>
<pdfrwt beam="2">  1       -1 0.50333982E-02 0.16818865E+03</pdfrwt>
<totfact> 0.41227272E+03</totfact>
</mgrwt>
</event>
<event>
 7    1  0.6008063E-006  0.1775224E+03  0.7546771E-02  0.1175923E+00
         -2   -1    0    0    0  501 -0.00000000000E+00  0.00000000000E+00  0.21651794600E+02  0.21651794600E+02  0.00000000000E+00 0.  1.
          2   -1    0    0  501    0  0.00000000000E+00 -0.00000000000E+00 -0.15116836486E+04  0.15116836486E+04  0.00000000000E+00 0. -1.
         23    2    1    2    0    0 -0.10974676980E+03  0.62008226644E+02 -0.10830869472E+04  0.10975388491E+04  0.12499926544E+03 0.  0.
          5    1    3    3  502    0 -0.17826169631E+02 -0.33590760594E+02 -0.13953295917E+03  0.14469847343E+03  0.47000000000E+01 0.  1.
         -5    1    3    3    0  502 -0.91920600169E+02  0.95598987238E+02 -0.94355398807E+03  0.95284037566E+03  0.47000000000E+01 0.  1.
        -11    1    1    2    0    0 -0.21372063269E+01  0.17353399787E+02 -0.30751574091E+02  0.35374672353E+02  0.00000000000E+00 0. -1.
         11    1    1    2    0    0  0.11188397613E+03 -0.79361626431E+02 -0.37619333263E+03  0.40042192171E+03  0.00000000000E+00 0.  1.
<mgrwt>
<rscale>  0 0.17185929E+03</rscale>
<asrwt>0</asrwt>
<pdfrwt beam="2">  1        2 0.23256676E+00 0.17752236E+03</pdfrwt>
<pdfrwt beam="1">  1       -2 0.33310446E-02 0.17752236E+03</pdfrwt>
<totfact> 0.48340023E+03</totfact>
</mgrwt>
</event>
<event>
 7    1  0.6008063E-006  0.2990155E+03  0.7546771E-02  0.1087284E+00
          4   -1    0    0  501    0  0.00000000000E+00  0.00000000000E+00  0.13269011374E+03  0.13269011374E+03  0.00000000000E+00 0. -1.
         -4   -1    0    0    0  501 -0.00000000000E+00 -0.00000000000E+00 -0.64700864355E+03  0.64700864355E+03  0.00000000000E+00 0.  1.
         23    2    1    2    0    0 -0.24138867165E+03 -0.12456861635E+03 -0.26806637985E+03  0.40158421598E+03  0.12499787013E+03 0.  0.
          5    1    3    3  502    0 -0.10545713629E+03 -0.14033167171E+02 -0.17041598385E+03  0.20095232004E+03  0.47000000000E+01 0.  1.
         -5    1    3    3    0  502 -0.13593153536E+03 -0.11053544918E+03 -0.97650395999E+02  0.20063189594E+03  0.47000000000E+01 0.  1.
        -11    1    1    2    0    0  0.13444128251E+03  0.44523740626E+02 -0.72960618067E+02  0.15931124791E+03  0.00000000000E+00 0. -1.
         11    1    1    2    0    0  0.10694738914E+03  0.80044875726E+02 -0.17329153190E+03  0.21880329339E+03  0.00000000000E+00 0.  1.
<mgrwt>
<rscale>  0 0.29594800E+03</rscale>
<asrwt>0</asrwt>
<pdfrwt beam="1">  1        4 0.20413864E-01 0.29901555E+03</pdfrwt>
<pdfrwt beam="2">  1       -4 0.99539792E-01 0.29901555E+03</pdfrwt>
<totfact> 0.34749322E+01</totfact>
</mgrwt>
</event>
<event>
 7    1  0.6008063E-006  0.1301815E+03  0.7546771E-02  0.1241258E+00
         -2   -1    0    0    0  501 -0.00000000000E+00  0.00000000000E+00  0.28924091439E+02  0.28924091439E+02  0.00000000000E+00 0.  1.
          2   -1    0    0  501    0  0.00000000000E+00 -0.00000000000E+00 -0.45727611913E+03  0.45727611913E+03  0.00000000000E+00 0. -1.
         23    2    1    2    0    0 -0.33099092662E+02 -0.15154361978E+02 -0.27803388235E+03  0.30700174443E+03  0.12498810634E+03 0.  0.
          5    1    3    3  502    0 -0.31754326230E+02 -0.54882693759E+02 -0.25043849705E+03  0.25838339365E+03  0.47000000000E+01 0.  1.
         -5    1    3    3    0  502 -0.13447664325E+01  0.39728331781E+02 -0.27595385301E+02  0.48618350782E+02  0.47000000000E+01 0.  1.
        -11    1    1    2    0    0  0.64494503958E+02  0.62340891060E+01 -0.95716072752E+02  0.11558534289E+03  0.00000000000E+00 0. -1.
         11    1    1    2    0    0 -0.31395411296E+02  0.89202728720E+01 -0.54602072592E+02  0.63613123252E+02  0.00000000000E+00 0.  1.
<mgrwt>
<rscale>  0 0.12112170E+03</rscale>
<asrwt>0</asrwt>
<pdfrwt beam="2">  1        2 0.70350170E-01 0.13018153E+03</pdfrwt>
<pdfrwt beam="1">  1       -2 0.44498603E-02 0.13018153E+03</pdfrwt>
<totfact> 0.15143987E+04</totfact>
</mgrwt>
</event>
<event>
 7    1  0.6008063E-006  0.1408450E+03  0.7546771E-02  0.1222441E+00
          2   -1    0    0  501    0  0.00000000000E+00  0.00000000000E+00  0.70383636852E+02  0.70383636852E+02  0.00000000000E+00 0. -1.
         -2   -1    0    0    0  501 -0.00000000000E+00 -0.00000000000E+00 -0.23644580692E+03  0.23644580692E+03  0.00000000000E+00 0.  1.
         23    2    1    2    0    0 -0.29747312878E+00 -0.64908933641E+02 -0.66013914070E+02  0.15554791062E+03  0.12499622991E+03 0.  0.
          5    1    3    3  502    0  0.37076002517E+02  0.91412814625E+01 -0.61249813890E+02  0.72331339618E+02  0.47000000000E+01 0. -1.
         -5    1    3    3    0  502 -0.37373475645E+02 -0.74050215103E+02 -0.47641001802E+01  0.83216571001E+02  0.47000000000E+01 0. -1.
        -11    1    1    2    0    0  0.39311616383E+02  0.47627614322E+02 -0.28590060930E+02  0.68052806060E+02  0.00000000000E+00 0. -1.
         11    1    1    2    0    0 -0.39014143254E+02  0.17281319318E+02 -0.71458195072E+02  0.83228727097E+02  0.00000000000E+00 0.  1.
<mgrwt>
<rscale>  0 0.13343833E+03</rscale>
<asrwt>0</asrwt>
<pdfrwt beam="1">  1        2 0.10828252E-01 0.14084501E+03</pdfrwt>
<pdfrwt beam="2">  1       -2 0.36376278E-01 0.14084501E+03</pdfrwt>
<totfact> 0.39685004E+03</totfact>
</mgrwt>
</event>
<event>
 7    1  0.6008063E-006  0.1720238E+03  0.7546771E-02  0.1182196E+00
         -1   -1    0    0    0  501 -0.00000000000E+00  0.00000000000E+00  0.13156343311E+03  0.13156343311E+03  0.00000000000E+00 0.  1.
          1   -1    0    0  501    0  0.00000000000E+00 -0.00000000000E+00 -0.19741121490E+03  0.19741121490E+03  0.00000000000E+00 0. -1.
         23    2    1    2    0    0  0.79724964480E+02  0.87242048878E+02 -0.19470179991E+02  0.17312217170E+03  0.12499981349E+03 0.  0.
          5    1    3    3  502    0  0.53475970829E+02 -0.14507539731E+02 -0.36570156532E+02  0.66555349251E+02  0.47000000000E+01 0. -1.
         -5    1    3    3    0  502  0.26248993651E+02  0.10174958861E+03  0.17099976541E+02  0.10656682245E+03  0.47000000000E+01 0. -1.
        -11    1    1    2    0    0 -0.55098775792E+02 -0.12830839556E+01 -0.36013522853E+02  0.65836883481E+02  0.00000000000E+00 0.  1.
         11    1    1    2    0    0 -0.24626188688E+02 -0.85958964923E+02 -0.10364078952E+02  0.90015592829E+02  0.00000000000E+00 0. -1.
<mgrwt>
<rscale>  0 0.16589622E+03</rscale>
<asrwt>0</asrwt>
<pdfrwt beam="2">  1        1 0.30370956E-01 0.17202383E+03</pdfrwt>
<pdfrwt beam="1">  1       -1 0.20240528E-01 0.17202383E+03</pdfrwt>
<totfact> 0.28845723E+03</totfact>
</mgrwt>
</event>
<event>
 7    1  0.6008063E-006  0.1275044E+03  0.7546771E-02  0.1246019E+00
          1   -1    0    0  501    0  0.00000000000E+00  0.00000000000E+00  0.26494771919E+02  0.26494771919E+02  0.00000000000E+00 0.  1.
         -1   -1    0    0    0  501 -0.00000000000E+00 -0.00000000000E+00 -0.48442869432E+03  0.48442869432E+03  0.00000000000E+00 0. -1.
         23    2    1    2    0    0  0.23076375105E+02 -0.98999943288E+01 -0.21024895841E+03  0.24589023096E+03  0.12500740855E+03 0.  0.
          5    1    3    3  502    0  0.63886231424E+01  0.54406309674E+02 -0.59112603307E+02  0.80729492180E+02  0.47000000000E+01 0.  1.
         -5    1    3    3    0  502  0.16687751962E+02 -0.64306304003E+02 -0.15113635510E+03  0.16516073878E+03  0.47000000000E+01 0.  1.
        -11    1    1    2    0    0 -0.11668519533E+02  0.50098273167E+02 -0.15633094499E+03  0.16457629138E+03  0.00000000000E+00 0. -1.
         11    1    1    2    0    0 -0.11407855572E+02 -0.40198278839E+02 -0.91354019005E+02  0.10045694391E+03  0.00000000000E+00 0.  1.
<mgrwt>
<rscale>  0 0.11824583E+03</rscale>
<asrwt>0</asrwt>
<pdfrwt beam="1">  1        1 0.40761189E-02 0.12750444E+03</pdfrwt>
<pdfrwt beam="2">  1       -1 0.74527489E-01 0.12750444E+03</pdfrwt>
<totfact> 0.39915956E+03</totfact>
</mgrwt>
</event>
<event>
 7    1  0.6008063E-006  0.1259863E+03  0.7546771E-02  0.1249275E+00
          3   -1    0    0  501    0  0.00000000000E+00  0.00000000000E+00  0.11204284085E+03  0.11204284085E+03  0.00000000000E+00 0. -1.
         -3   -1    0    0    0  501 -0.00000000000E+00 -0.00000000000E+00 -0.11061746745E+03  0.11061746745E+03  0.00000000000E+00 0.  1.
         23    2    1    2    0    0 -0.32879371659E+01 -0.41847835632E+01  0.24197247197E+02  0.12828892334E+03  0.12587381831E+03 0.  0.
          5    1    3    3  502    0 -0.41229419864E+02  0.23340167986E+02  0.54429180081E+02  0.72313582045E+02  0.47000000000E+01 0. -1.
         -5    1    3    3    0  502  0.37941482698E+02 -0.27524951549E+02 -0.30231932884E+02  0.55975341294E+02  0.47000000000E+01 0.  1.
        -11    1    1    2    0    0 -0.91791049892E+01  0.44593580877E+02  0.16114445907E+01  0.45556999215E+02  0.00000000000E+00 0.  1.
         11    1    1    2    0    0  0.12467042155E+02 -0.40408797314E+02 -0.24383318382E+02  0.48814385746E+02  0.00000000000E+00 0. -1.
<mgrwt>
<rscale>  0 0.11633110E+03</rscale>
<asrwt>0</asrwt>
<pdfrwt beam="1">  1        3 0.17237360E-01 0.12598627E+03</pdfrwt>
<pdfrwt beam="2">  1       -3 0.17018072E-01 0.12598627E+03</pdfrwt>
<totfact> 0.19672837E+03</totfact>
</mgrwt>
</event>
<event>
 7    1  0.6008063E-006  0.1476576E+03  0.7546771E-02  0.1213465E+00
          1   -1    0    0  501    0  0.00000000000E+00  0.00000000000E+00  0.10450434072E+03  0.10450434072E+03  0.00000000000E+00 0. -1.
         -1   -1    0    0    0  501 -0.00000000000E+00 -0.00000000000E+00 -0.18371744945E+03  0.18371744945E+03  0.00000000000E+00 0.  1.
         23    2    1    2    0    0  0.58761446372E+01  0.78383095385E+02 -0.45012165953E+01  0.14772615500E+03  0.12499726878E+03 0.  0.
          5    1    3    3  502    0  0.41134439906E+02  0.76249763390E+02  0.35861829129E+02  0.93884127263E+02  0.47000000000E+01 0.  1.
         -5    1    3    3    0  502 -0.35258295269E+02  0.21333319946E+01 -0.40363045725E+02  0.53842027737E+02  0.47000000000E+01 0.  1.
        -11    1    1    2    0    0 -0.15378645683E+02 -0.61721393141E+02 -0.25618560003E+00  0.63608951771E+02  0.00000000000E+00 0. -1.
         11    1    1    2    0    0  0.95025010456E+01 -0.16661702244E+02 -0.74455706533E+02  0.76886683393E+02  0.00000000000E+00 0.  1.
<mgrwt>
<rscale>  0 0.13989873E+03</rscale>
<asrwt>0</asrwt>
<pdfrwt beam="1">  1        1 0.16077591E-01 0.14765756E+03</pdfrwt>
<pdfrwt beam="2">  1       -1 0.28264223E-01 0.14765756E+03</pdfrwt>
<totfact> 0.37127171E+03</totfact>
</mgrwt>
</event>
<event>
 6    1  0.6008063E-006  0.1782777E+03  0.7546771E-02  0.1185994E+00
          2   -1    0    0  501    0  0.00000000000E+00  0.00000000000E+00  0.20008932757E+03  0.20008932757E+03  0.00000000000E+00 0. -1.
         -2   -1    0    0    0  501 -0.00000000000E+00 -0.00000000000E+00 -0.35383490314E+03  0.35383490314E+03  0.00000000000E+00 0.  1.
          5    1    1    2  502    0 -0.29250984408E+02 -0.96806595422E+01  0.16954342699E+03  0.17238445085E+03  0.47000000000E+01 0. -1.
         -5    1    1    2    0  502 -0.52182560218E+02  0.60183240210E+01 -0.23824175882E+02  0.57869864103E+02  0.47000000000E+01 0.  1.
        -11    1    1    2    0    0 -0.18373895395E+02 -0.96078889742E+01 -0.34912677151E+02  0.40605499485E+02  0.00000000000E+00 0. -1.
         11    1    1    2    0    0  0.99807440020E+02  0.13270224495E+02 -0.26455214952E+03  0.28306441627E+03  0.00000000000E+00 0.  1.
<mgrwt>
<rscale>  0 0.16241791E+03</rscale>
<asrwt>0</asrwt>
<pdfrwt beam="1">  1        2 0.30782974E-01 0.17827773E+03</pdfrwt>
<pdfrwt beam="2">  1       -2 0.54436138E-01 0.17827773E+03</pdfrwt>
<totfact> 0.55091496E+02</totfact>
</mgrwt>
</event>
<event>
 7    1  0.6008063E-006  0.1301402E+03  0.7546771E-02  0.1241464E+00
         -1   -1    0    0    0  501 -0.00000000000E+00  0.00000000000E+00  0.11492279713E+03  0.11492279713E+03  0.00000000000E+00 0.  1.
          1   -1    0    0  501    0  0.00000000000E+00 -0.00000000000E+00 -0.14674004566E+03  0.14674004566E+03  0.00000000000E+00 0. -1.
         23    2    1    2    0    0  0.36030286920E+02 -0.38382714930E+01 -0.80389932373E+02  0.15296738362E+03  0.12499426115E+03 0.  0.
          5    1    3    3  502    0 -0.13596736636E+02  0.23467098521E+02  0.22414208272E+02  0.35497361769E+02  0.47000000000E+01 0. -1.
         -5    1    3    3    0  502  0.49627023557E+02 -0.27305370014E+02 -0.10280414064E+03  0.11747002185E+03  0.47000000000E+01 0. -1.
        -11    1    1    2    0    0  0.19688683413E+02 -0.44649403500E+00  0.49000904934E+02  0.52810342697E+02  0.00000000000E+00 0.  1.
         11    1    1    2    0    0 -0.55718970334E+02  0.42847655280E+01 -0.42822108653E+00  0.55885116480E+02  0.00000000000E+00 0. -1.
<mgrwt>
<rscale>  0 0.12099534E+03</rscale>
<asrwt>0</asrwt>
<pdfrwt beam="2">  1        1 0.22575392E-01 0.13014023E+03</pdfrwt>
<pdfrwt beam="1">  1       -1 0.17680430E-01 0.13014023E+03</pdfrwt>
<totfact> 0.51235527E+03</totfact>
</mgrwt>
</event>
<event>
 7    1  0.6008063E-006  0.2100715E+03  0.7546771E-02  0.1145432E+00
          1   -1    0    0  501    0  0.00000000000E+00  0.00000000000E+00  0.61829136683E+03  0.61829136683E+03  0.00000000000E+00 0. -1.
         -1   -1    0    0    0  501 -0.00000000000E+00 -0.00000000000E+00 -0.84611477919E+02  0.84611477919E+02  0.00000000000E+00 0.  1.
         23    2    1    2    0    0 -0.10216680780E+03 -0.13441213424E+03  0.44506458133E+03  0.49215092521E+03  0.12500149271E+03 0.  0.
          5    1    3    3  502    0 -0.80408682868E+02 -0.46754557015E+02  0.10539616369E+03  0.14064844899E+03  0.47000000000E+01 0.  1.
         -5    1    3    3    0  502 -0.21758124932E+02 -0.87657577222E+02  0.33966841764E+03  0.35150247622E+03  0.47000000000E+01 0.  1.
        -11    1    1    2    0    0  0.22432781000E+02  0.71896690179E+02 -0.12437805524E+01  0.75325365662E+02  0.00000000000E+00 0. -1.
         11    1    1    2    0    0  0.79734026800E+02  0.62515444058E+02  0.89859088130E+02  0.13542655388E+03  0.00000000000E+00 0.  1.
<mgrwt>
<rscale>  0 0.20519023E+03</rscale>
<asrwt>0</asrwt>
<pdfrwt beam="1">  1        1 0.95121746E-01 0.21007154E+03</pdfrwt>
<pdfrwt beam="2">  1       -1 0.13017151E-01 0.21007154E+03</pdfrwt>
<totfact> 0.13558659E+03</totfact>
</mgrwt>
</event>
<event>
 7    1  0.6008063E-006  0.1708714E+03  0.7546771E-02  0.1183596E+00
          3   -1    0    0  501    0  0.00000000000E+00  0.00000000000E+00  0.12128741516E+03  0.12128741516E+03  0.00000000000E+00 0. -1.
         -3   -1    0    0    0  501 -0.00000000000E+00 -0.00000000000E+00 -0.32615412566E+03  0.32615412566E+03  0.00000000000E+00 0.  1.
         23    2    1    2    0    0  0.11750286656E+02  0.11589454096E+03  0.26834700606E+02  0.17296572752E+03  0.12500971113E+03 0.  0.
          5    1    3    3  502    0  0.48887487441E+02  0.11441961720E+03  0.43593694109E+02  0.13192549183E+03  0.47000000000E+01 0.  1.
         -5    1    3    3    0  502 -0.37137200785E+02  0.14749237654E+01 -0.16758993503E+02  0.41040235690E+02  0.47000000000E+01 0.  1.
        -11    1    1    2    0    0  0.52376468245E+01 -0.12231058086E+02  0.60015288784E+01  0.14596234961E+02  0.00000000000E+00 0. -1.
         11    1    1    2    0    0 -0.16987933481E+02 -0.10366348288E+03 -0.23770293998E+03  0.25987957834E+03  0.00000000000E+00 0.  1.
<mgrwt>
<rscale>  0 0.16460305E+03</rscale>
<asrwt>0</asrwt>
<pdfrwt beam="1">  1        3 0.18659603E-01 0.17087142E+03</pdfrwt>
<pdfrwt beam="2">  1       -3 0.50177557E-01 0.17087142E+03</pdfrwt>
<totfact> 0.24150398E+02</totfact>
</mgrwt>
</event>
<event>
 7    1  0.6008063E-006  0.1208927E+03  0.7546771E-02  0.1248697E+00
          1   -1    0    0  501    0  0.00000000000E+00  0.00000000000E+00  0.18310879994E+03  0.18310879994E+03  0.00000000000E+00 0. -1.
         -1   -1    0    0    0  501 -0.00000000000E+00 -0.00000000000E+00 -0.22068756488E+03  0.22068756488E+03  0.00000000000E+00 0.  1.
         23    2    1    2    0    0  0.44429335353E+02  0.15123336191E+02  0.14772152616E+03  0.19088399501E+03  0.11141081242E+03 0.  0.
          5    1    3    3  502    0  0.69566291881E+02  0.30789449397E+02  0.14079861460E+03  0.16010558714E+03  0.47000000000E+01 0. -1.
         -5    1    3    3    0  502 -0.25136956528E+02 -0.15666113206E+02  0.69229115551E+01  0.30778407868E+02  0.47000000000E+01 0.  1.
        -11    1    1    2    0    0 -0.52627449513E+02  0.19915417893E+02 -0.58770020557E+02  0.81364535446E+02  0.00000000000E+00 0. -1.
         11    1    1    2    0    0  0.81981141597E+01 -0.35038754084E+02 -0.12653027054E+03  0.13154783437E+03  0.00000000000E+00 0.  1.
<mgrwt>
<rscale>  0 0.11666804E+03</rscale>
<asrwt>0</asrwt>
<pdfrwt beam="1">  1        1 0.28170585E-01 0.12089272E+03</pdfrwt>
<pdfrwt beam="2">  1       -1 0.33951933E-01 0.12089272E+03</pdfrwt>
<totfact> 0.13283706E+03</totfact>
</mgrwt>
</event>
<event>
 7    1  0.6008063E-006  0.1455737E+03  0.7546771E-02  0.1215769E+00
          2   -1    0    0  501    0  0.00000000000E+00  0.00000000000E+00  0.17950283924E+04  0.17950283924E+04  0.00000000000E+00 0. -1.
         -2   -1    0    0    0  501 -0.00000000000E+00 -0.00000000000E+00 -0.11007147800E+02  0.11007147800E+02  0.00000000000E+00 0.  1.
         23    2    1    2    0    0 -0.39510630428E+02  0.63300673808E+02  0.12837865343E+04  0.12920137692E+04  0.12499459474E+03 0.  0.
          5    1    3    3  502    0 -0.77276570472E+02  0.91984838010E+01  0.78453089123E+03  0.78839526238E+03  0.47000000000E+01 0.  1.
         -5    1    3    3    0  502  0.37765940044E+02  0.54102190007E+02  0.49925564311E+03  0.50361850678E+03  0.47000000000E+01 0.  1.
        -11    1    1    2    0    0 -0.23497889519E+02 -0.44721212670E+02  0.26575499111E+03  0.27051405319E+03  0.00000000000E+00 0. -1.
         11    1    1    2    0    0  0.63008519946E+02 -0.18579461139E+02  0.23447971920E+03  0.24350771790E+03  0.00000000000E+00 0.  1.
<mgrwt>
<rscale>  0 0.13820212E+03</rscale>
<asrwt>0</asrwt>
<pdfrwt beam="1">  1        2 0.27615798E+00 0.14557374E+03</pdfrwt>
<pdfrwt beam="2">  1       -2 0.16934088E-02 0.14557374E+03</pdfrwt>
<totfact> 0.92454290E+03</totfact>
</mgrwt>
</event>
<event>
 7    1  0.6008063E-006  0.1379266E+03  0.7546771E-02  0.1225684E+00
          1   -1    0    0  501    0  0.00000000000E+00  0.00000000000E+00  0.24710305500E+03  0.24710305500E+03  0.00000000000E+00 0. -1.
         -1   -1    0    0    0  501 -0.00000000000E+00 -0.00000000000E+00 -0.87890030274E+02  0.87890030274E+02  0.00000000000E+00 0.  1.
         23    2    1    2    0    0 -0.26285390044E+02 -0.52024923300E+02  0.17296791934E+03  0.22122761736E+03  0.12500497266E+03 0.  0.
          5    1    3    3  502    0  0.27983457894E+02 -0.73892159197E+02  0.10293941272E+03  0.12985275429E+03  0.47000000000E+01 0.  1.
         -5    1    3    3    0  502 -0.54268847938E+02  0.21867235897E+02  0.70028506620E+02  0.91374863073E+02  0.47000000000E+01 0.  1.
        -11    1    1    2    0    0  0.16222532305E+02 -0.23563325651E+02  0.14959824869E+02  0.32283079628E+02  0.00000000000E+00 0.  1.
         11    1    1    2    0    0  0.10062857739E+02  0.75588248951E+02 -0.28714719480E+02  0.81482388282E+02  0.00000000000E+00 0. -1.
<mgrwt>
<rscale>  0 0.13120165E+03</rscale>
<asrwt>0</asrwt>
<pdfrwt beam="1">  1        1 0.38015854E-01 0.13792664E+03</pdfrwt>
<pdfrwt beam="2">  1       -1 0.13521543E-01 0.13792664E+03</pdfrwt>
<totfact> 0.40915425E+03</totfact>
</mgrwt>
</event>
<event>
 7    1  0.6008063E-006  0.1307853E+03  0.7546771E-02  0.1239861E+00
          1   -1    0    0  501    0  0.00000000000E+00  0.00000000000E+00  0.59891982057E+03  0.59891982057E+03  0.00000000000E+00 0. -1.
         -1   -1    0    0    0  501 -0.00000000000E+00 -0.00000000000E+00 -0.24072352631E+02  0.24072352631E+02  0.00000000000E+00 0.  1.
         23    2    1    2    0    0 -0.38416553249E+02  0.22534168881E+01  0.41366258503E+03  0.43384504241E+03  0.12499550839E+03 0.  0.
          5    1    3    3  502    0 -0.33857125945E+02 -0.50500415280E+02  0.32334173080E+03  0.32904188456E+03  0.47000000000E+01 0.  1.
         -5    1    3    3    0  502 -0.45594273037E+01  0.52753832168E+02  0.90320854235E+02  0.10480315785E+03  0.47000000000E+01 0.  1.
        -11    1    1    2    0    0 -0.21578843701E+02 -0.10806957310E+01  0.54954274021E+01  0.22293813515E+02  0.00000000000E+00 0.  1.
         11    1    1    2    0    0  0.59995396949E+02 -0.11727211571E+01  0.15568945551E+03  0.16685331728E+03  0.00000000000E+00 0. -1.
<mgrwt>
<rscale>  0 0.12198337E+03</rscale>
<asrwt>0</asrwt>
<pdfrwt beam="1">  1        1 0.92141500E-01 0.13078527E+03</pdfrwt>
<pdfrwt beam="2">  1       -1 0.37034393E-02 0.13078527E+03</pdfrwt>
<totfact> 0.92808784E+03</totfact>
</mgrwt>
</event>
<event>
 7    1  0.6008063E-006  0.1956648E+03  0.7546771E-02  0.1157915E+00
         -2   -1    0    0    0  501 -0.00000000000E+00  0.00000000000E+00  0.37867500592E+03  0.37867500592E+03  0.00000000000E+00 0.  1.
          2   -1    0    0  501    0  0.00000000000E+00 -0.00000000000E+00 -0.96698183181E+02  0.96698183181E+02  0.00000000000E+00 0. -1.
         23    2    1    2    0    0 -0.11597072044E+03  0.95959795878E+02  0.91847670257E+02  0.21614971481E+03  0.12500885671E+03 0.  0.
          5    1    3    3  502    0  0.91042922928E+01 -0.55180370831E+01 -0.17787589722E+02  0.21256180737E+02  0.47000000000E+01 0.  1.
         -5    1    3    3    0  502 -0.12507501274E+03  0.10147783296E+03  0.10963525998E+03  0.19489353408E+03  0.47000000000E+01 0.  1.
        -11    1    1    2    0    0  0.74456773393E+02 -0.10463855884E+03  0.16776319280E+03  0.21127595216E+03  0.00000000000E+00 0. -1.
         11    1    1    2    0    0  0.41513947051E+02  0.86787629587E+01  0.22365959676E+02  0.47947522130E+02  0.00000000000E+00 0.  1.
<mgrwt>
<rscale>  0 0.19060671E+03</rscale>
<asrwt>0</asrwt>
<pdfrwt beam="2">  1        2 0.14876644E-01 0.19566478E+03</pdfrwt>
<pdfrwt beam="1">  1       -2 0.58257693E-01 0.19566478E+03</pdfrwt>
<totfact> 0.10961574E+03</totfact>
</mgrwt>
</event>
<event>
 7    1  0.6008063E-006  0.1451210E+03  0.7546771E-02  0.1216990E+00
         -3   -1    0    0    0  501 -0.00000000000E+00  0.00000000000E+00  0.17913712310E+03  0.17913712310E+03  0.00000000000E+00 0.  1.
          3   -1    0    0  501    0  0.00000000000E+00 -0.00000000000E+00 -0.10186764387E+03  0.10186764387E+03  0.00000000000E+00 0. -1.
         23    2    1    2    0    0  0.39765952182E+02  0.62078381970E+02  0.73971144706E+01  0.14530944493E+03  0.12500024408E+03 0.  0.
          5    1    3    3  502    0  0.16839017946E+02  0.58938560998E+02  0.61080905658E+02  0.86661834356E+02  0.47000000000E+01 0.  1.
         -5    1    3    3    0  502  0.22926934237E+02  0.31398209719E+01 -0.53683791188E+02  0.58647610570E+02  0.47000000000E+01 0.  1.
        -11    1    1    2    0    0 -0.48929390652E+02 -0.56579754872E+02  0.87478768617E+02  0.11509947389E+03  0.00000000000E+00 0.  1.
         11    1    1    2    0    0  0.91634384700E+01 -0.54986270975E+01 -0.17606403856E+02  0.20595848157E+02  0.00000000000E+00 0. -1.
<mgrwt>
<rscale>  0 0.13731384E+03</rscale>
<asrwt>0</asrwt>
<pdfrwt beam="2">  1        3 0.15671945E-01 0.14512104E+03</pdfrwt>
<pdfrwt beam="1">  1       -3 0.27559557E-01 0.14512104E+03</pdfrwt>
<totfact> 0.10074563E+03</totfact>
</mgrwt>
</event>
<event>
 6    1  0.6008063E-006  0.1888612E+03  0.7546771E-02  0.1177810E+00
         -2   -1    0    0    0  501 -0.00000000000E+00  0.00000000000E+00  0.17371277907E+03  0.17371277907E+03  0.00000000000E+00 0.  1.
          2   -1    0    0  501    0  0.00000000000E+00 -0.00000000000E+00 -0.34245073567E+03  0.34245073567E+03  0.00000000000E+00 0. -1.
          5    1    1    2  502    0 -0.83301147696E+02 -0.91346972723E+02 -0.21493125514E+03  0.24799371981E+03  0.47000000000E+01 0. -1.
         -5    1    1    2    0  502  0.34411041292E+01  0.62594495887E+02 -0.72840429529E+02  0.96217099764E+02  0.47000000000E+01 0.  1.
        -11    1    1    2    0    0  0.35522147869E+02  0.59904649733E+02  0.72424263643E+02  0.10047718155E+03  0.00000000000E+00 0.  1.
         11    1    1    2    0    0  0.44337895697E+02 -0.31152172896E+02  0.46609464428E+02  0.71475513606E+02  0.00000000000E+00 0. -1.
<mgrwt>
<rscale>  0 0.17003665E+03</rscale>
<asrwt>0</asrwt>
<pdfrwt beam="2">  1        2 0.52684727E-01 0.18886118E+03</pdfrwt>
<pdfrwt beam="1">  1       -2 0.26725044E-01 0.18886118E+03</pdfrwt>
<totfact> 0.11877987E+03</totfact>
</mgrwt>
</event>
<event>
 6    1  0.6008063E-006  0.8462619E+03  0.7546771E-02  0.9495368E-01
          2   -1    0    0  501    0  0.00000000000E+00  0.00000000000E+00  0.14706342498E+03  0.14706342498E+03  0.00000000000E+00 0. -1.
         -2   -1    0    0    0  501 -0.00000000000E+00 -0.00000000000E+00 -0.12174324928E+04  0.12174324928E+04  0.00000000000E+00 0.  1.
          5    1    1    2  502    0  0.63415792140E+02 -0.32072812807E+02 -0.23091602304E+03  0.24164959696E+03  0.47000000000E+01 0. -1.
         -5    1    1    2    0  502  0.10225114454E+03  0.14257857012E+03 -0.62553527426E+02  0.18633029547E+03  0.47000000000E+01 0.  1.
        -11    1    1    2    0    0 -0.26795963682E+03 -0.48905319655E+02 -0.77016933032E+03  0.81691792404E+03  0.00000000000E+00 0.  1.
         11    1    1    2    0    0  0.10229270014E+03 -0.61600437656E+02 -0.67301870408E+01  0.11959810132E+03  0.00000000000E+00 0. -1.
<mgrwt>
<rscale>  0 0.84626188E+03</rscale>
<asrwt>0</asrwt>
<pdfrwt beam="1">  1        2 0.22625143E-01 0.84626188E+03</pdfrwt>
<pdfrwt beam="2">  1       -2 0.18729730E+00 0.84626188E+03</pdfrwt>
<totfact> 0.40122631E+01</totfact>
</mgrwt>
</event>
<event>
 6    1  0.6008063E-006  0.2634135E+03  0.7546771E-02  0.1109916E+00
          1   -1    0    0  501    0  0.00000000000E+00  0.00000000000E+00  0.11350928438E+04  0.11350928438E+04  0.00000000000E+00 0. -1.
         -1   -1    0    0    0  501 -0.00000000000E+00 -0.00000000000E+00 -0.56432446285E+02  0.56432446285E+02  0.00000000000E+00 0.  1.
          5    1    1    2  502    0 -0.18417901821E+03 -0.49423352530E+01  0.51531817693E+03  0.54728534687E+03  0.47000000000E+01 0. -1.
         -5    1    1    2    0  502 -0.19067433808E+02  0.75321426714E+02  0.17257512174E+03  0.18931758238E+03  0.47000000000E+01 0.  1.
        -11    1    1    2    0    0  0.13361052722E+03 -0.75426225475E+02  0.32316779204E+03  0.35774056282E+03  0.00000000000E+00 0.  1.
         11    1    1    2    0    0  0.69635924794E+02  0.50471340140E+01  0.67599306786E+02  0.97181797996E+02  0.00000000000E+00 0. -1.
<mgrwt>
<rscale>  0 0.25543709E+03</rscale>
<asrwt>0</asrwt>
<pdfrwt beam="1">  1        1 0.17462965E+00 0.26341352E+03</pdfrwt>
<pdfrwt beam="2">  1       -1 0.86819157E-02 0.26341352E+03</pdfrwt>
<totfact> 0.96785927E+02</totfact>
</mgrwt>
</event>
<event>
 7    1  0.6008063E-006  0.1474536E+03  0.7546771E-02  0.1214516E+00
         -4   -1    0    0    0  501 -0.00000000000E+00  0.00000000000E+00  0.63758486311E+02  0.63758486311E+02  0.00000000000E+00 0.  1.
          4   -1    0    0  501    0  0.00000000000E+00 -0.00000000000E+00 -0.27411596010E+03  0.27411596010E+03  0.00000000000E+00 0. -1.
         23    2    1    2    0    0 -0.68703390751E+02 -0.37369746166E+02 -0.12207359009E+03  0.19142763319E+03  0.12500369404E+03 0.  0.
          5    1    3    3  502    0 -0.38372269741E+02 -0.68032152568E+02 -0.12551284235E+03  0.14790662075E+03  0.47000000000E+01 0.  1.
         -5    1    3    3    0  502 -0.30331121010E+02  0.30662406401E+02  0.34392522575E+01  0.43521012444E+02  0.47000000000E+01 0.  1.
        -11    1    1    2    0    0  0.21398483152E+02 -0.19906634376E+02  0.22785611803E+01  0.29314859959E+02  0.00000000000E+00 0.  1.
         11    1    1    2    0    0  0.47304907599E+02  0.57276380542E+02 -0.90562444877E+02  0.11713195325E+03  0.00000000000E+00 0. -1.
<mgrwt>
<rscale>  0 0.13912131E+03</rscale>
<asrwt>0</asrwt>
<pdfrwt beam="2">  1        4 0.42171686E-01 0.14745364E+03</pdfrwt>
<pdfrwt beam="1">  1       -4 0.98089979E-02 0.14745364E+03</pdfrwt>
<totfact> 0.72228049E+02</totfact>
</mgrwt>
</event>
<event>
 7    1  0.6008063E-006  0.1530925E+03  0.7546771E-02  0.1206361E+00
          2   -1    0    0  501    0  0.00000000000E+00  0.00000000000E+00  0.14593236179E+04  0.14593236179E+04  0.00000000000E+00 0. -1.
         -2   -1    0    0    0  501 -0.00000000000E+00 -0.00000000000E+00 -0.15030944840E+02  0.15030944840E+02  0.00000000000E+00 0.  1.
         23    2    1    2    0    0  0.43149385416E+02  0.74481395042E+02  0.10456714105E+04  0.10568188147E+04  0.12660158208E+03 0.  0.
          5    1    3    3  502    0  0.79402817456E+02  0.80995375321E+02  0.86096432453E+03  0.86841621148E+03  0.47000000000E+01 0. -1.
         -5    1    3    3    0  502 -0.36253432040E+02 -0.65139802790E+01  0.18470708601E+03  0.18840260321E+03  0.47000000000E+01 0.  1.
        -11    1    1    2    0    0  0.16043095392E+02 -0.59377331760E+02  0.16605231116E+03  0.17707743639E+03  0.00000000000E+00 0.  1.
         11    1    1    2    0    0 -0.59192480808E+02 -0.15104063282E+02  0.23256895137E+03  0.24045831168E+03  0.00000000000E+00 0. -1.
<mgrwt>
<rscale>  0 0.14530696E+03</rscale>
<asrwt>0</asrwt>
<pdfrwt beam="1">  1        2 0.22451121E+00 0.15309248E+03</pdfrwt>
<pdfrwt beam="2">  1       -2 0.23124542E-02 0.15309248E+03</pdfrwt>
<totfact> 0.87812774E+03</totfact>
</mgrwt>
</event>
<event>
 7    1  0.6008063E-006  0.1679625E+03  0.7546771E-02  0.1186594E+00
          1   -1    0    0  501    0  0.00000000000E+00  0.00000000000E+00  0.52555933002E+02  0.52555933002E+02  0.00000000000E+00 0. -1.
         -1   -1    0    0    0  501 -0.00000000000E+00 -0.00000000000E+00 -0.53841635581E+03  0.53841635581E+03  0.00000000000E+00 0.  1.
         23    2    1    2    0    0 -0.16527078414E+02  0.11096395081E+03 -0.15003289514E+03  0.22521386577E+03  0.12500109204E+03 0.  0.
          5    1    3    3  502    0 -0.57638835571E+02  0.18698168934E+02 -0.28540579832E+02  0.67145450960E+02  0.47000000000E+01 0.  1.
         -5    1    3    3    0  502  0.41111757157E+02  0.92265781877E+02 -0.12149231531E+03  0.15806841481E+03  0.47000000000E+01 0.  1.
        -11    1    1    2    0    0  0.32129318228E+02 -0.73118616738E+02 -0.30281497689E+03  0.31317013815E+03  0.00000000000E+00 0.  1.
         11    1    1    2    0    0 -0.15602239814E+02 -0.37845334073E+02 -0.33012550772E+02  0.52588284882E+02  0.00000000000E+00 0. -1.
<mgrwt>
<rscale>  0 0.16187672E+03</rscale>
<asrwt>0</asrwt>
<pdfrwt beam="1">  1        1 0.80855280E-02 0.16796254E+03</pdfrwt>
<pdfrwt beam="2">  1       -1 0.82833287E-01 0.16796254E+03</pdfrwt>
<totfact> 0.12822595E+03</totfact>
</mgrwt>
</event>
<event>
 7    1  0.6008063E-006  0.1517314E+03  0.7546771E-02  0.1208097E+00
          3   -1    0    0  501    0  0.00000000000E+00  0.00000000000E+00  0.55648293320E+02  0.55648293320E+02  0.00000000000E+00 0. -1.
         -3   -1    0    0    0  501 -0.00000000000E+00 -0.00000000000E+00 -0.34582440206E+03  0.34582440206E+03  0.00000000000E+00 0.  1.
         23    2    1    2    0    0 -0.58593725736E+00 -0.86010458290E+02 -0.13188505427E+03  0.20103753575E+03  0.12499712390E+03 0.  0.
          5    1    3    3  502    0 -0.19640051734E+02 -0.10275226946E+03 -0.13923114985E+03  0.17421585348E+03  0.47000000000E+01 0. -1.
         -5    1    3    3    0  502  0.19054114477E+02  0.16741811174E+02  0.73460955837E+01  0.26821682278E+02  0.47000000000E+01 0. -1.
        -11    1    1    2    0    0  0.43881488437E+02  0.50598490221E+02 -0.89007870827E+02  0.11139207023E+03  0.00000000000E+00 0. -1.
         11    1    1    2    0    0 -0.43295551179E+02  0.35411968070E+02 -0.69283183646E+02  0.89043089404E+02  0.00000000000E+00 0.  1.
<mgrwt>
<rscale>  0 0.14396076E+03</rscale>
<asrwt>0</asrwt>
<pdfrwt beam="1">  1        3 0.85612759E-02 0.15173142E+03</pdfrwt>
<pdfrwt beam="2">  1       -3 0.53203754E-01 0.15173142E+03</pdfrwt>
<totfact> 0.79013666E+02</totfact>
</mgrwt>
</event>
<event>
 7    1  0.6008063E-006  0.1580791E+03  0.7546771E-02  0.1198719E+00
          1   -1    0    0  501    0  0.00000000000E+00  0.00000000000E+00  0.73535175575E+02  0.73535175575E+02  0.00000000000E+00 0. -1.
         -1   -1    0    0    0  501 -0.00000000000E+00 -0.00000000000E+00 -0.31779515075E+03  0.31779515075E+03  0.00000000000E+00 0.  1.
         23    2    1    2    0    0 -0.73316918787E+02 -0.63163118007E+02 -0.19101184686E+03  0.24794055314E+03  0.12499616873E+03 0.  0.
          5    1    3    3  502    0 -0.99219374508E+01  0.25837742126E+02 -0.27977612258E+00  0.28074936075E+02  0.47000000000E+01 0. -1.
         -5    1    3    3    0  502 -0.63394981336E+02 -0.89000860133E+02 -0.19073207073E+03  0.21986561707E+03  0.47000000000E+01 0. -1.
        -11    1    1    2    0    0 -0.73755188562E+01  0.39949090261E+02  0.53839076399E+01  0.40979440608E+02  0.00000000000E+00 0. -1.
         11    1    1    2    0    0  0.80692437643E+02  0.23214027746E+02 -0.58632035956E+02  0.10241033257E+03  0.00000000000E+00 0.  1.
<mgrwt>
<rscale>  0 0.15143626E+03</rscale>
<asrwt>0</asrwt>
<pdfrwt beam="1">  1        1 0.11313104E-01 0.15807907E+03</pdfrwt>
<pdfrwt beam="2">  1       -1 0.48891562E-01 0.15807907E+03</pdfrwt>
<totfact> 0.22720669E+03</totfact>
</mgrwt>
</event>
<event>
 7    1  0.6008063E-006  0.1683447E+03  0.7546771E-02  0.1186421E+00
          1   -1    0    0  501    0  0.00000000000E+00  0.00000000000E+00  0.58778208919E+03  0.58778208919E+03  0.00000000000E+00 0. -1.
         -1   -1    0    0    0  501 -0.00000000000E+00 -0.00000000000E+00 -0.45004625422E+02  0.45004625422E+02  0.00000000000E+00 0.  1.
         23    2    1    2    0    0  0.60057224199E+02 -0.95437277089E+02  0.37703207018E+03  0.41290813683E+03  0.12499921390E+03 0.  0.
          5    1    3    3  502    0  0.39856103504E+02 -0.12543972883E+03  0.30265316782E+03  0.33006766662E+03  0.47000000000E+01 0. -1.
         -5    1    3    3    0  502  0.20201120695E+02  0.30002451741E+02  0.74378902360E+02  0.82840470207E+02  0.47000000000E+01 0. -1.
        -11    1    1    2    0    0 -0.64010041108E+02  0.23807287951E+02  0.10802212836E+03  0.12780004905E+03  0.00000000000E+00 0. -1.
         11    1    1    2    0    0  0.39528169087E+01  0.71629989137E+02  0.57723265227E+02  0.92078528734E+02  0.00000000000E+00 0.  1.
<mgrwt>
<rscale>  0 0.16203286E+03</rscale>
<asrwt>0</asrwt>
<pdfrwt beam="1">  1        1 0.90428008E-01 0.16834473E+03</pdfrwt>
<pdfrwt beam="2">  1       -1 0.69237890E-02 0.16834473E+03</pdfrwt>
<totfact> 0.38121129E+03</totfact>
</mgrwt>
</event>
<event>
 7    1  0.1004689E-005  0.2177174E+03  0.7546771E-02  0.1139182E+00
          1   -1    0    0  501    0  0.00000000000E+00  0.00000000000E+00  0.37773277156E+03  0.37773277156E+03  0.00000000000E+00 0. -1.
         -1   -1    0    0    0  501 -0.00000000000E+00 -0.00000000000E+00 -0.12431384948E+03  0.12431384948E+03  0.00000000000E+00 0.  1.
         23    2    1    2    0    0  0.12987174411E+03 -0.12210533690E+03  0.19948972854E+03  0.29529140833E+03  0.12499792327E+03 0.  0.
          5    1    3    3  502    0  0.13270697270E+03 -0.45175908731E+02  0.13638149936E+03  0.19563743686E+03  0.47000000000E+01 0.  1.
         -5    1    3    3    0  502 -0.28352285938E+01 -0.76929428166E+02  0.63108229186E+02  0.99653971472E+02  0.47000000000E+01 0.  1.
        -11    1    1    2    0    0 -0.26863432528E+02  0.84111703454E+02  0.36696319697E+02  0.95619258230E+02  0.00000000000E+00 0. -1.
         11    1    1    2    0    0 -0.10300831158E+03  0.37993633443E+02  0.17232873841E+02  0.11113595448E+03  0.00000000000E+00 0.  1.
<mgrwt>
<rscale>  0 0.21303889E+03</rscale>
<asrwt>0</asrwt>
<pdfrwt beam="1">  1        1 0.58112733E-01 0.21771739E+03</pdfrwt>
<pdfrwt beam="2">  1       -1 0.19125208E-01 0.21771739E+03</pdfrwt>
<totfact> 0.14106720E+03</totfact>
</mgrwt>
</event>
<event>
 7    1  0.6008063E-006  0.1604543E+03  0.7546771E-02  0.1195717E+00
          2   -1    0    0  501    0  0.00000000000E+00  0.00000000000E+00  0.73089635826E+03  0.73089635826E+03  0.00000000000E+00 0. -1.
         -2   -1    0    0    0  501 -0.00000000000E+00 -0.00000000000E+00 -0.48450504065E+02  0.48450504065E+02  0.00000000000E+00 0.  1.
         23    2    1    2    0    0 -0.56661531201E+02  0.83126475540E+02  0.59838174923E+03  0.61952103198E+03  0.12500020482E+03 0.  0.
          5    1    3    3  502    0 -0.65501044897E+02 -0.24777334839E+01  0.36200702526E+03  0.36792350072E+03  0.47000000000E+01 0. -1.
         -5    1    3    3    0  502  0.88395136958E+01  0.85604209024E+02  0.23637472397E+03  0.25159753126E+03  0.47000000000E+01 0. -1.
        -11    1    1    2    0    0  0.62540779376E+01 -0.56929039497E+02  0.85605001719E+02  0.10299633658E+03  0.00000000000E+00 0. -1.
         11    1    1    2    0    0  0.50407453264E+02 -0.26197436044E+02 -0.15408967460E+01  0.56829493774E+02  0.00000000000E+00 0.  1.
<mgrwt>
<rscale>  0 0.15393736E+03</rscale>
<asrwt>0</asrwt>
<pdfrwt beam="1">  1        2 0.11244559E+00 0.16045433E+03</pdfrwt>
<pdfrwt beam="2">  1       -2 0.74539242E-02 0.16045433E+03</pdfrwt>
<totfact> 0.41166104E+03</totfact>
</mgrwt>
</event>
<event>
 7    1  0.6008063E-006  0.1449859E+03  0.7546771E-02  0.1217072E+00
          1   -1    0    0  501    0  0.00000000000E+00  0.00000000000E+00  0.28304406306E+03  0.28304406306E+03  0.00000000000E+00 0.  1.
         -1   -1    0    0    0  501 -0.00000000000E+00 -0.00000000000E+00 -0.62954616066E+02  0.62954616066E+02  0.00000000000E+00 0. -1.
         23    2    1    2    0    0 -0.73966993163E+02  0.34333108871E+01  0.86697871144E+02  0.16893028193E+03  0.12465157676E+03 0.  0.
          5    1    3    3  502    0 -0.59406001459E+02 -0.34035633556E+02  0.10425411323E+03  0.12481389140E+03  0.47000000000E+01 0. -1.
         -5    1    3    3    0  502 -0.14560991704E+02  0.37468944443E+02 -0.17556242085E+02  0.44116390528E+02  0.47000000000E+01 0. -1.
        -11    1    1    2    0    0  0.67193614505E+02  0.30311216069E+02  0.56667592970E+02  0.92978318671E+02  0.00000000000E+00 0.  1.
         11    1    1    2    0    0  0.67733786579E+01 -0.33744526956E+02  0.76723982881E+02  0.84090078529E+02  0.00000000000E+00 0. -1.
<mgrwt>
<rscale>  0 0.13725446E+03</rscale>
<asrwt>0</asrwt>
<pdfrwt beam="1">  1        1 0.43545240E-01 0.14498593E+03</pdfrwt>
<pdfrwt beam="2">  1       -1 0.96853258E-02 0.14498593E+03</pdfrwt>
<totfact> 0.57987287E+03</totfact>
</mgrwt>
</event>
<event>
 7    1  0.6008063E-006  0.1345410E+03  0.7546771E-02  0.1230683E+00
         -1   -1    0    0    0  501 -0.00000000000E+00  0.00000000000E+00  0.17242787514E+02  0.17242787514E+02  0.00000000000E+00 0.  1.
          1   -1    0    0  501    0  0.00000000000E+00 -0.00000000000E+00 -0.12580884029E+04  0.12580884029E+04  0.00000000000E+00 0. -1.
         23    2    1    2    0    0  0.66456609579E+01 -0.49296409143E+02 -0.10189971427E+04  0.10278406762E+04  0.12500791209E+03 0.  0.
          5    1    3    3  502    0 -0.17067812410E+02  0.36826899496E+02 -0.21207293574E+03  0.21597349564E+03  0.47000000000E+01 0. -1.
         -5    1    3    3    0  502  0.23713473368E+02 -0.86123308640E+02 -0.80692420697E+03  0.81186718058E+03  0.47000000000E+01 0. -1.
        -11    1    1    2    0    0 -0.45279268781E+02  0.12745293661E+02 -0.55004938297E+02  0.72375395881E+02  0.00000000000E+00 0. -1.
         11    1    1    2    0    0  0.38633607823E+02  0.36551115482E+02 -0.16684353441E+03  0.17511511834E+03  0.00000000000E+00 0.  1.
<mgrwt>
<rscale>  0 0.12784857E+03</rscale>
<asrwt>0</asrwt>
<pdfrwt beam="2">  1        1 0.19355202E+00 0.13454099E+03</pdfrwt>
<pdfrwt beam="1">  1       -1 0.26527371E-02 0.13454099E+03</pdfrwt>
<totfact> 0.46315121E+03</totfact>
</mgrwt>
</event>
<event>
 7    1  0.6008063E-006  0.1124312E+03  0.7546771E-02  0.1266291E+00
         -1   -1    0    0    0  501 -0.00000000000E+00  0.00000000000E+00  0.30502021627E+03  0.30502021627E+03  0.00000000000E+00 0.  1.
          1   -1    0    0  501    0  0.00000000000E+00 -0.00000000000E+00 -0.36795007843E+02  0.36795007843E+02  0.00000000000E+00 0. -1.
         23    2    1    2    0    0 -0.64651107393E+01 -0.71930243743E+01  0.10216748158E+03  0.15191767544E+03  0.11201450157E+03 0.  0.
          5    1    3    3  502    0 -0.50014820075E+02  0.14324582199E+02  0.19186422518E+02  0.55649660298E+02  0.47000000000E+01 0. -1.
         -5    1    3    3    0  502  0.43549709335E+02 -0.21517606573E+02  0.82981059062E+02  0.96268015139E+02  0.47000000000E+01 0.  1.
        -11    1    1    2    0    0 -0.28888221543E+01 -0.41957654650E+02  0.73461930770E+02  0.84648953624E+02  0.00000000000E+00 0.  1.
         11    1    1    2    0    0  0.93539328936E+01  0.49150679025E+02  0.92595796074E+02  0.10524859505E+03  0.00000000000E+00 0. -1.
<mgrwt>
<rscale>  0 0.10696768E+03</rscale>
<asrwt>0</asrwt>
<pdfrwt beam="2">  1        1 0.56607706E-02 0.11243125E+03</pdfrwt>
<pdfrwt beam="1">  1       -1 0.46926186E-01 0.11243125E+03</pdfrwt>
<totfact> 0.60614307E+03</totfact>
</mgrwt>
</event>
<event>
 7    1  0.6008063E-006  0.1286981E+03  0.7546771E-02  0.1245478E+00
          2   -1    0    0  501    0  0.00000000000E+00  0.00000000000E+00  0.52898225365E+03  0.52898225365E+03  0.00000000000E+00 0. -1.
         -2   -1    0    0    0  501 -0.00000000000E+00 -0.00000000000E+00 -0.28690789182E+02  0.28690789182E+02  0.00000000000E+00 0.  1.
         23    2    1    2    0    0  0.52560891929E+02 -0.17616442101E+01  0.40398780722E+03  0.42399215791E+03  0.11746255078E+03 0.  0.
          5    1    3    3  502    0 -0.34433879676E+01 -0.23109501537E+02  0.31900616252E+03  0.31989518238E+03  0.47000000000E+01 0. -1.
         -5    1    3    3    0  502  0.56004279896E+02  0.21347857326E+02  0.84981644698E+02  0.10409697553E+03  0.47000000000E+01 0.  1.
        -11    1    1    2    0    0  0.19733300652E+02  0.29542571516E+01  0.26576583081E+02  0.33233199639E+02  0.00000000000E+00 0. -1.
         11    1    1    2    0    0 -0.72294192581E+02 -0.11926129415E+01  0.69727074161E+02  0.10044768528E+03  0.00000000000E+00 0.  1.
<mgrwt>
<rscale>  0 0.11856795E+03</rscale>
<asrwt>0</asrwt>
<pdfrwt beam="1">  1        2 0.81381878E-01 0.12869810E+03</pdfrwt>
<pdfrwt beam="2">  1       -2 0.44139680E-02 0.12869810E+03</pdfrwt>
<totfact> 0.13058702E+04</totfact>
</mgrwt>
</event>
<event>
 7    1  0.6008063E-006  0.1321096E+03  0.7546771E-02  0.1237473E+00
          2   -1    0    0  501    0  0.00000000000E+00  0.00000000000E+00  0.15720842789E+03  0.15720842789E+03  0.00000000000E+00 0.  1.
         -2   -1    0    0    0  501 -0.00000000000E+00 -0.00000000000E+00 -0.86376464234E+02  0.86376464234E+02  0.00000000000E+00 0. -1.
         23    2    1    2    0    0  0.20890586712E+02 -0.37302486242E+02  0.35990822358E+02  0.13692438905E+03  0.12500022772E+03 0.  0.
          5    1    3    3  502    0  0.28126138484E+02 -0.20246039314E+02  0.80889671996E+02  0.88126107423E+02  0.47000000000E+01 0. -1.
         -5    1    3    3    0  502 -0.72355517720E+01 -0.17056446927E+02 -0.44898849638E+02  0.48798281630E+02  0.47000000000E+01 0. -1.
        -11    1    1    2    0    0 -0.18616753993E+02 -0.76547155256E+01  0.54081714410E+02  0.57706239113E+02  0.00000000000E+00 0.  1.
         11    1    1    2    0    0 -0.22738327189E+01  0.44957201767E+02 -0.19240573113E+02  0.48954263958E+02  0.00000000000E+00 0. -1.
<mgrwt>
<rscale>  0 0.12347419E+03</rscale>
<asrwt>0</asrwt>
<pdfrwt beam="1">  1        2 0.24185912E-01 0.13210961E+03</pdfrwt>
<pdfrwt beam="2">  1       -2 0.13288687E-01 0.13210961E+03</pdfrwt>
<totfact> 0.88021395E+03</totfact>
</mgrwt>
</event>
<event>
 7    1  0.6008063E-006  0.1260886E+03  0.7546771E-02  0.1247567E+00
          1   -1    0    0  501    0  0.00000000000E+00  0.00000000000E+00  0.52596530157E+03  0.52596530157E+03  0.00000000000E+00 0. -1.
         -1   -1    0    0    0  501 -0.00000000000E+00 -0.00000000000E+00 -0.23900774571E+02  0.23900774571E+02  0.00000000000E+00 0.  1.
         23    2    1    2    0    0 -0.98466289999E+00  0.16369277752E+02  0.33444371737E+03  0.35742264189E+03  0.12501768689E+03 0.  0.
          5    1    3    3  502    0 -0.32961740644E+02 -0.41173321734E+02  0.20986163177E+03  0.21643870554E+03  0.47000000000E+01 0.  1.
         -5    1    3    3    0  502  0.31977077744E+02  0.57542599486E+02  0.12458208560E+03  0.14098393635E+03  0.47000000000E+01 0.  1.
        -11    1    1    2    0    0 -0.21576957345E+02 -0.41670690783E+02  0.44245413949E+02  0.64495489874E+02  0.00000000000E+00 0.  1.
         11    1    1    2    0    0  0.22561620245E+02  0.25301413031E+02  0.12337539568E+03  0.12794794437E+03  0.00000000000E+00 0. -1.
<mgrwt>
<rscale>  0 0.11733037E+03</rscale>
<asrwt>0</asrwt>
<pdfrwt beam="1">  1        1 0.80917730E-01 0.12608864E+03</pdfrwt>
<pdfrwt beam="2">  1       -1 0.36770426E-02 0.12608864E+03</pdfrwt>
<totfact> 0.11125940E+04</totfact>
</mgrwt>
</event>
<event>
 7    1  0.6008063E-006  0.1283221E+03  0.7546771E-02  0.1244878E+00
         -1   -1    0    0    0  501 -0.00000000000E+00  0.00000000000E+00  0.12891432282E+02  0.12891432282E+02  0.00000000000E+00 0. -1.
          1   -1    0    0  501    0  0.00000000000E+00 -0.00000000000E+00 -0.12920873307E+04  0.12920873307E+04  0.00000000000E+00 0.  1.
         23    2    1    2    0    0  0.28011564627E+02 -0.76289954813E+01 -0.10374590778E+04  0.10453649642E+04  0.12499488307E+03 0.  0.
          5    1    3    3  502    0  0.37060482684E+02 -0.62025446504E+02 -0.63623733312E+03  0.64034418046E+03  0.47000000000E+01 0.  1.
         -5    1    3    3    0  502 -0.90489180572E+01  0.54396451022E+02 -0.40122174472E+03  0.40502078371E+03  0.47000000000E+01 0.  1.
        -11    1    1    2    0    0 -0.42839654447E+02  0.38003300783E+02 -0.18405547442E+03  0.19275866914E+03  0.00000000000E+00 0.  1.
         11    1    1    2    0    0  0.14828089820E+02 -0.30374305301E+02 -0.57681346207E+02  0.66855129725E+02  0.00000000000E+00 0. -1.
<mgrwt>
<rscale>  0 0.11892705E+03</rscale>
<asrwt>0</asrwt>
<pdfrwt beam="2">  1        1 0.19878258E+00 0.12832213E+03</pdfrwt>
<pdfrwt beam="1">  1       -1 0.19832981E-02 0.12832213E+03</pdfrwt>
<totfact> 0.66791974E+03</totfact>
</mgrwt>
</event>
<event>
 7    1  0.6008063E-006  0.1446428E+03  0.7546771E-02  0.1217299E+00
          2   -1    0    0  501    0  0.00000000000E+00  0.00000000000E+00  0.38716111682E+03  0.38716111682E+03  0.00000000000E+00 0. -1.
         -2   -1    0    0    0  501 -0.00000000000E+00 -0.00000000000E+00 -0.51801165794E+02  0.51801165794E+02  0.00000000000E+00 0.  1.
         23    2    1    2    0    0 -0.22882420478E+02  0.69083316192E+02  0.26710232104E+03  0.30375184732E+03  0.12500170040E+03 0.  0.
          5    1    3    3  502    0 -0.48691468522E+02  0.91732642603E+02  0.23294539891E+03  0.25509093614E+03  0.47000000000E+01 0. -1.
         -5    1    3    3    0  502  0.25809048044E+02 -0.22649326410E+02  0.34156922128E+02  0.48660911182E+02  0.47000000000E+01 0. -1.
        -11    1    1    2    0    0  0.54354736834E+02 -0.30645055322E+02  0.56458605924E+02  0.84149456414E+02  0.00000000000E+00 0. -1.
         11    1    1    2    0    0 -0.31472316356E+02 -0.38438260870E+02  0.11799024065E+02  0.51060978882E+02  0.00000000000E+00 0.  1.
<mgrwt>
<rscale>  0 0.13708998E+03</rscale>
<asrwt>0</asrwt>
<pdfrwt beam="1">  1        2 0.59563247E-01 0.14464278E+03</pdfrwt>
<pdfrwt beam="2">  1       -2 0.79694104E-02 0.14464278E+03</pdfrwt>
<totfact> 0.75386945E+03</totfact>
</mgrwt>
</event>
<event>
 7    1  0.6008063E-006  0.1952433E+03  0.7546771E-02  0.1158271E+00
         -2   -1    0    0    0  501 -0.00000000000E+00  0.00000000000E+00  0.43331355205E+02  0.43331355205E+02  0.00000000000E+00 0.  1.
          2   -1    0    0  501    0  0.00000000000E+00 -0.00000000000E+00 -0.81370235185E+03  0.81370235185E+03  0.00000000000E+00 0. -1.
         23    2    1    2    0    0  0.16903956184E+02 -0.14903351136E+03 -0.47029624161E+03  0.50921362628E+03  0.12499292411E+03 0.  0.
          5    1    3    3  502    0  0.28471275178E+02 -0.12242001060E+03 -0.19301395708E+03  0.23037740804E+03  0.47000000000E+01 0. -1.
         -5    1    3    3    0  502 -0.11567318994E+02 -0.26613500755E+02 -0.27728228453E+03  0.27883621824E+03  0.47000000000E+01 0. -1.
        -11    1    1    2    0    0 -0.37073621662E+02  0.56178108277E+02 -0.19432298229E+03  0.20564983521E+03  0.00000000000E+00 0. -1.
         11    1    1    2    0    0  0.20169665478E+02  0.92855403081E+02 -0.10575177275E+03  0.14217024557E+03  0.00000000000E+00 0.  1.
<mgrwt>
<rscale>  0 0.19021142E+03</rscale>
<asrwt>0</asrwt>
<pdfrwt beam="2">  1        2 0.12518498E+00 0.19524334E+03</pdfrwt>
<pdfrwt beam="1">  1       -2 0.66663624E-02 0.19524334E+03</pdfrwt>
<totfact> 0.43090505E+03</totfact>
</mgrwt>
</event>
<event>
 7    1  0.6008063E-006  0.1402237E+03  0.7546771E-02  0.1224370E+00
          3   -1    0    0  501    0  0.00000000000E+00  0.00000000000E+00  0.40154615816E+02  0.40154615816E+02  0.00000000000E+00 0. -1.
         -3   -1    0    0    0  501 -0.00000000000E+00 -0.00000000000E+00 -0.39459792192E+03  0.39459792192E+03  0.00000000000E+00 0.  1.
         23    2    1    2    0    0 -0.76286757044E+01 -0.63078721287E+02 -0.17813079375E+03  0.22670084664E+03  0.12500228964E+03 0.  0.
          5    1    3    3  502    0 -0.29713789062E+02 -0.93900604139E+02 -0.10405522616E+03  0.14335205897E+03  0.47000000000E+01 0.  1.
         -5    1    3    3    0  502  0.22085113358E+02  0.30821882852E+02 -0.74075567583E+02  0.83348787677E+02  0.47000000000E+01 0.  1.
        -11    1    1    2    0    0  0.10728755172E+02  0.84061526688E+02 -0.11276678387E+03  0.14105954062E+03  0.00000000000E+00 0.  1.
         11    1    1    2    0    0 -0.31000794677E+01 -0.20982805401E+02 -0.63545728492E+02  0.66992150472E+02  0.00000000000E+00 0. -1.
<mgrwt>
<rscale>  0 0.13210172E+03</rscale>
<asrwt>0</asrwt>
<pdfrwt beam="1">  1        3 0.61776332E-02 0.14022373E+03</pdfrwt>
<pdfrwt beam="2">  1       -3 0.60707372E-01 0.14022373E+03</pdfrwt>
<totfact> 0.10114227E+03</totfact>
</mgrwt>
</event>
<event>
 7    1  0.6008063E-006  0.1457181E+03  0.7546771E-02  0.1215289E+00
         -1   -1    0    0    0  501 -0.00000000000E+00  0.00000000000E+00  0.31952755716E+02  0.31952755716E+02  0.00000000000E+00 0.  1.
          1   -1    0    0  501    0  0.00000000000E+00 -0.00000000000E+00 -0.82964042247E+03  0.82964042247E+03  0.00000000000E+00 0. -1.
         23    2    1    2    0    0 -0.73347831292E+02 -0.14980674055E+02 -0.67520101160E+03  0.69074609308E+03  0.12501773507E+03 0.  0.
          5    1    3    3  502    0 -0.15421345862E+02  0.53503764107E+02 -0.26424194193E+03  0.27008584664E+03  0.47000000000E+01 0.  1.
         -5    1    3    3    0  502 -0.57926485431E+02 -0.68484438163E+02 -0.41095906967E+03  0.42066024643E+03  0.47000000000E+01 0.  1.
        -11    1    1    2    0    0  0.22661110288E+01  0.41296496123E+02 -0.58556721787E+02  0.71689786704E+02  0.00000000000E+00 0. -1.
         11    1    1    2    0    0  0.71081720263E+02 -0.26315822067E+02 -0.63929933363E+02  0.99157298402E+02  0.00000000000E+00 0.  1.
<mgrwt>
<rscale>  0 0.13855321E+03</rscale>
<asrwt>0</asrwt>
<pdfrwt beam="2">  1        1 0.12763699E+00 0.14571808E+03</pdfrwt>
<pdfrwt beam="1">  1       -1 0.49158087E-02 0.14571808E+03</pdfrwt>
<totfact> 0.38494441E+03</totfact>
</mgrwt>
</event>
<event>
 7    1  0.6008063E-006  0.1646447E+03  0.7546771E-02  0.1190424E+00
          2   -1    0    0  501    0  0.00000000000E+00  0.00000000000E+00  0.57921208982E+02  0.57921208982E+02  0.00000000000E+00 0. -1.
         -2   -1    0    0    0  501 -0.00000000000E+00 -0.00000000000E+00 -0.40437610738E+03  0.40437610738E+03  0.00000000000E+00 0.  1.
         23    2    1    2    0    0  0.94999110202E+02 -0.49584639381E+02 -0.18034931171E+03  0.24420021680E+03  0.12499761698E+03 0.  0.
          5    1    3    3  502    0  0.12338282017E+02 -0.61708089821E+01 -0.14266025430E+03  0.14340275535E+03  0.47000000000E+01 0.  1.
         -5    1    3    3    0  502  0.82660828185E+02 -0.43413830399E+02 -0.37689057409E+02  0.10079746145E+03  0.47000000000E+01 0.  1.
        -11    1    1    2    0    0 -0.88936141859E+02  0.73276491023E+02 -0.12306785477E+03  0.16859649564E+03  0.00000000000E+00 0.  1.
         11    1    1    2    0    0 -0.60629683427E+01 -0.23691851642E+02 -0.43037731919E+02  0.49500603916E+02  0.00000000000E+00 0. -1.
<mgrwt>
<rscale>  0 0.15847924E+03</rscale>
<asrwt>0</asrwt>
<pdfrwt beam="1">  1        2 0.89109549E-02 0.16464468E+03</pdfrwt>
<pdfrwt beam="2">  1       -2 0.62211711E-01 0.16464468E+03</pdfrwt>
<totfact> 0.17740855E+03</totfact>
</mgrwt>
</event>
<event>
 7    1  0.6008063E-006  0.1344106E+03  0.7546771E-02  0.1232726E+00
          3   -1    0    0  501    0  0.00000000000E+00  0.00000000000E+00  0.10887440313E+03  0.10887440313E+03  0.00000000000E+00 0. -1.
         -3   -1    0    0    0  501 -0.00000000000E+00 -0.00000000000E+00 -0.13261474808E+03  0.13261474808E+03  0.00000000000E+00 0.  1.
         23    2    1    2    0    0  0.39073512800E+02 -0.30222924164E+02 -0.62361140118E+01  0.13455515117E+03  0.12500414009E+03 0.  0.
          5    1    3    3  502    0 -0.11422916346E+02  0.92367790823E+01  0.48031993001E+02  0.50447630840E+02  0.47000000000E+01 0. -1.
         -5    1    3    3    0  502  0.50496429147E+02 -0.39459703247E+02 -0.54268107013E+02  0.84107520328E+02  0.47000000000E+01 0. -1.
        -11    1    1    2    0    0 -0.12865156701E+02  0.46970582585E+01 -0.53730277385E+02  0.55448330192E+02  0.00000000000E+00 0.  1.
         11    1    1    2    0    0 -0.26208356100E+02  0.25525865906E+02  0.36226046444E+02  0.51485669857E+02  0.00000000000E+00 0. -1.
<mgrwt>
<rscale>  0 0.12651137E+03</rscale>
<asrwt>0</asrwt>
<pdfrwt beam="1">  1        3 0.16749908E-01 0.13441056E+03</pdfrwt>
<pdfrwt beam="2">  1       -3 0.20402269E-01 0.13441056E+03</pdfrwt>
<totfact> 0.15233075E+03</totfact>
</mgrwt>
</event>
<event>
 7    1  0.6008063E-006  0.1757643E+03  0.7546771E-02  0.1177953E+00
         -1   -1    0    0    0  501 -0.00000000000E+00  0.00000000000E+00  0.10450877684E+03  0.10450877684E+03  0.00000000000E+00 0.  1.
          1   -1    0    0  501    0  0.00000000000E+00 -0.00000000000E+00 -0.29083473309E+03  0.29083473309E+03  0.00000000000E+00 0. -1.
         23    2    1    2    0    0 -0.11968654705E+03  0.30714391370E+02 -0.16378131709E+03  0.24024451391E+03  0.12499945302E+03 0.  0.
          5    1    3    3  502    0 -0.12538388729E+03 -0.31809911604E+01 -0.78151735671E+02  0.14785473170E+03  0.47000000000E+01 0.  1.
         -5    1    3    3    0  502  0.56973402457E+01  0.33895382531E+02 -0.85629581423E+02  0.92389782213E+02  0.47000000000E+01 0.  1.
        -11    1    1    2    0    0  0.11652342077E+03 -0.71500547826E+01 -0.42317526048E+02  0.12417569763E+03  0.00000000000E+00 0. -1.
         11    1    1    2    0    0  0.31631262768E+01 -0.23564336588E+02  0.19772886892E+02  0.30923298380E+02  0.00000000000E+00 0.  1.
<mgrwt>
<rscale>  0 0.16989909E+03</rscale>
<asrwt>0</asrwt>
<pdfrwt beam="2">  1        1 0.44743804E-01 0.17576435E+03</pdfrwt>
<pdfrwt beam="1">  1       -1 0.16078274E-01 0.17576435E+03</pdfrwt>
<totfact> 0.25739045E+03</totfact>
</mgrwt>
</event>
<event>
 7    1  0.6008063E-006  0.1450337E+03  0.7546771E-02  0.1216756E+00
          2   -1    0    0  501    0  0.00000000000E+00  0.00000000000E+00  0.12698841583E+04  0.12698841583E+04  0.00000000000E+00 0. -1.
         -2   -1    0    0    0  501 -0.00000000000E+00 -0.00000000000E+00 -0.13587972215E+02  0.13587972215E+02  0.00000000000E+00 0.  1.
         23    2    1    2    0    0  0.68776177668E+02 -0.26110078913E+02  0.73697427753E+03  0.75110974918E+03  0.12499148267E+03 0.  0.
          5    1    3    3  502    0  0.49336614370E+02  0.52476837058E+01  0.68704607231E+03  0.68885124315E+03  0.47000000000E+01 0. -1.
         -5    1    3    3    0  502  0.19439563298E+02 -0.31357762619E+02  0.49928205212E+02  0.62258506033E+02  0.47000000000E+01 0. -1.
        -11    1    1    2    0    0 -0.68618443507E+02 -0.18806995510E+02  0.28277179746E+03  0.29158546484E+03  0.00000000000E+00 0.  1.
         11    1    1    2    0    0 -0.15773416081E+00  0.44917074423E+02  0.23655011110E+03  0.24077691650E+03  0.00000000000E+00 0. -1.
<mgrwt>
<rscale>  0 0.13748300E+03</rscale>
<asrwt>0</asrwt>
<pdfrwt beam="1">  1        2 0.19536670E+00 0.14503368E+03</pdfrwt>
<pdfrwt beam="2">  1       -2 0.20904583E-02 0.14503368E+03</pdfrwt>
<totfact> 0.12815026E+04</totfact>
</mgrwt>
</event>
<event>
 7    1  0.6008063E-006  0.1387095E+03  0.7546771E-02  0.1226238E+00
         -1   -1    0    0    0  501 -0.00000000000E+00  0.00000000000E+00  0.79109038446E+03  0.79109038446E+03  0.00000000000E+00 0.  1.
          1   -1    0    0  501    0  0.00000000000E+00 -0.00000000000E+00 -0.19579808439E+02  0.19579808439E+02  0.00000000000E+00 0. -1.
         23    2    1    2    0    0 -0.50533480061E+02  0.32563029194E+02  0.45464534496E+03  0.47533432259E+03  0.12500538011E+03 0.  0.
          5    1    3    3  502    0  0.16213926991E+02  0.62940695085E+02  0.20678560392E+03  0.21681051292E+03  0.47000000000E+01 0.  1.
         -5    1    3    3    0  502 -0.66747407053E+02 -0.30377665891E+02  0.24785974105E+03  0.25852380967E+03  0.47000000000E+01 0.  1.
        -11    1    1    2    0    0 -0.15456037203E+02 -0.37757741513E+02  0.86319183071E+02  0.95475324017E+02  0.00000000000E+00 0.  1.
         11    1    1    2    0    0  0.65989517265E+02  0.51947123186E+01  0.23054604798E+03  0.23986054629E+03  0.00000000000E+00 0. -1.
<mgrwt>
<rscale>  0 0.13082406E+03</rscale>
<asrwt>0</asrwt>
<pdfrwt beam="2">  1        1 0.30122788E-02 0.13870951E+03</pdfrwt>
<pdfrwt beam="1">  1       -1 0.12170619E+00 0.13870951E+03</pdfrwt>
<totfact> 0.21022894E+03</totfact>
</mgrwt>
</event>
<event>
 7    1  0.6008063E-006  0.1867300E+03  0.7546771E-02  0.1166477E+00
         -2   -1    0    0    0  501 -0.00000000000E+00  0.00000000000E+00  0.34902904820E+02  0.34902904820E+02  0.00000000000E+00 0.  1.
          2   -1    0    0  501    0  0.00000000000E+00 -0.00000000000E+00 -0.10265168213E+04  0.10265168213E+04  0.00000000000E+00 0. -1.
         23    2    1    2    0    0  0.87557205787E+02 -0.10760940102E+03 -0.71247023100E+03  0.73653372905E+03  0.12498822542E+03 0.  0.
          5    1    3    3  502    0  0.45427829238E+02 -0.97729651208E+02 -0.65811972316E+03  0.66690211607E+03  0.47000000000E+01 0. -1.
         -5    1    3    3    0  502  0.42129376549E+02 -0.98797498089E+01 -0.54350507838E+02  0.69631612986E+02  0.47000000000E+01 0. -1.
        -11    1    1    2    0    0  0.38611339800E+01  0.52732947866E+02 -0.13954113502E+03  0.14922265414E+03  0.00000000000E+00 0.  1.
         11    1    1    2    0    0 -0.91418339767E+02  0.54876453152E+02 -0.13960255048E+03  0.17566334295E+03  0.00000000000E+00 0. -1.
<mgrwt>
<rscale>  0 0.18137719E+03</rscale>
<asrwt>0</asrwt>
<pdfrwt beam="2">  1        2 0.15792565E+00 0.18673003E+03</pdfrwt>
<pdfrwt beam="1">  1       -2 0.53696782E-02 0.18673003E+03</pdfrwt>
<totfact> 0.43896891E+03</totfact>
</mgrwt>
</event>
<event>
 7    1  0.6008063E-006  0.1313717E+03  0.7546771E-02  0.1238776E+00
         -2   -1    0    0    0  501 -0.00000000000E+00  0.00000000000E+00  0.11765546026E+02  0.11765546026E+02  0.00000000000E+00 0.  1.
          2   -1    0    0  501    0  0.00000000000E+00 -0.00000000000E+00 -0.23307693930E+04  0.23307693930E+04  0.00000000000E+00 0. -1.
         23    2    1    2    0    0  0.37299714598E+02 -0.13342494351E+02 -0.20714106816E+04  0.20755723853E+04  0.12525663253E+03 0.  0.
          5    1    3    3  502    0  0.61659487079E+02 -0.25120907222E+02 -0.19479888237E+04  0.19491319862E+04  0.47000000000E+01 0. -1.
         -5    1    3    3    0  502 -0.24359772480E+02  0.11778412870E+02 -0.12342185793E+03  0.12644039916E+03  0.47000000000E+01 0.  1.
        -11    1    1    2    0    0 -0.66150445338E+02 -0.14278202314E+01 -0.18498498300E+03  0.19646211855E+03  0.00000000000E+00 0.  1.
         11    1    1    2    0    0  0.28850730739E+02  0.14770314583E+02 -0.62608182362E+02  0.70500435146E+02  0.00000000000E+00 0. -1.
<mgrwt>
<rscale>  0 0.12265770E+03</rscale>
<asrwt>0</asrwt>
<pdfrwt beam="2">  1        2 0.35857986E+00 0.13137167E+03</pdfrwt>
<pdfrwt beam="1">  1       -2 0.18100842E-02 0.13137167E+03</pdfrwt>
<totfact> 0.44389617E+03</totfact>
</mgrwt>
</event>
<event>
 7    1  0.6008063E-006  0.1250671E+03  0.7546771E-02  0.1251837E+00
         -2   -1    0    0    0  501 -0.00000000000E+00  0.00000000000E+00  0.13844172894E+02  0.13844172894E+02  0.00000000000E+00 0.  1.
          2   -1    0    0  501    0  0.00000000000E+00 -0.00000000000E+00 -0.12902365345E+04  0.12902365345E+04  0.00000000000E+00 0. -1.
         23    2    1    2    0    0 -0.25852224122E+01 -0.36485643371E+01 -0.10943031556E+04  0.11014268855E+04  0.12498716856E+03 0.  0.
          5    1    3    3  502    0 -0.10727075541E+02 -0.52086039628E+02 -0.87563863772E+03  0.87726457784E+03  0.47000000000E+01 0. -1.
         -5    1    3    3    0  502  0.81418531286E+01  0.48437475290E+02 -0.21866451792E+03  0.22416230768E+03  0.47000000000E+01 0. -1.
        -11    1    1    2    0    0 -0.84957294526E+01  0.40702976069E+02 -0.13739496250E+03  0.14354889550E+03  0.00000000000E+00 0. -1.
         11    1    1    2    0    0  0.11080951865E+02 -0.37054411732E+02 -0.44694243488E+02  0.59104926394E+02  0.00000000000E+00 0.  1.
<mgrwt>
<rscale>  0 0.11485339E+03</rscale>
<asrwt>0</asrwt>
<pdfrwt beam="2">  1        2 0.19849785E+00 0.12506713E+03</pdfrwt>
<pdfrwt beam="1">  1       -2 0.21298736E-02 0.12506713E+03</pdfrwt>
<totfact> 0.12062977E+04</totfact>
</mgrwt>
</event>
<event>
 7    1  0.6008063E-006  0.1286955E+03  0.7546771E-02  0.1244036E+00
         -2   -1    0    0    0  501 -0.00000000000E+00  0.00000000000E+00  0.85771649291E+02  0.85771649291E+02  0.00000000000E+00 0.  1.
          2   -1    0    0  501    0  0.00000000000E+00 -0.00000000000E+00 -0.20213797951E+03  0.20213797951E+03  0.00000000000E+00 0. -1.
         23    2    1    2    0    0 -0.19655009113E+02 -0.23495308108E+02 -0.13939089737E+03  0.18971653500E+03  0.12499676995E+03 0.  0.
          5    1    3    3  502    0 -0.38355105112E+02  0.43286713104E+02 -0.76190373205E+02  0.95770123675E+02  0.47000000000E+01 0.  1.
         -5    1    3    3    0  502  0.18700095999E+02 -0.66782021212E+02 -0.63200524162E+02  0.93946411330E+02  0.47000000000E+01 0.  1.
        -11    1    1    2    0    0  0.54301409823E+02  0.26063596533E+02  0.19317522596E+02  0.63254413698E+02  0.00000000000E+00 0.  1.
         11    1    1    2    0    0 -0.34646400710E+02 -0.25682884253E+01  0.37070445545E+01  0.34938680097E+02  0.00000000000E+00 0. -1.
<mgrwt>
<rscale>  0 0.11943259E+03</rscale>
<asrwt>0</asrwt>
<pdfrwt beam="2">  1        2 0.31098151E-01 0.12869554E+03</pdfrwt>
<pdfrwt beam="1">  1       -2 0.13195638E-01 0.12869554E+03</pdfrwt>
<totfact> 0.67531526E+03</totfact>
</mgrwt>
</event>
<event>
 7    1  0.6008063E-006  0.1337286E+03  0.7546771E-02  0.1234507E+00
          2   -1    0    0  501    0  0.00000000000E+00  0.00000000000E+00  0.11011705870E+03  0.11011705870E+03  0.00000000000E+00 0.  1.
         -2   -1    0    0    0  501 -0.00000000000E+00 -0.00000000000E+00 -0.12951107195E+03  0.12951107195E+03  0.00000000000E+00 0. -1.
         23    2    1    2    0    0 -0.21752591837E+02  0.42235279488E+02  0.38134115856E+01  0.13378295815E+03  0.12500537468E+03 0.  0.
          5    1    3    3  502    0 -0.29344444965E+02  0.54259222317E+02 -0.48979666946E+02  0.78906637432E+02  0.47000000000E+01 0.  1.
         -5    1    3    3    0  502  0.75918531276E+01 -0.12023942829E+02  0.52793078531E+02  0.54876320721E+02  0.47000000000E+01 0.  1.
        -11    1    1    2    0    0  0.29052591414E+02 -0.56649855399E+02  0.14083449196E+02  0.65204315240E+02  0.00000000000E+00 0.  1.
         11    1    1    2    0    0 -0.72999995770E+01  0.14414575911E+02 -0.37290874030E+02  0.40640857255E+02  0.00000000000E+00 0. -1.
<mgrwt>
<rscale>  0 0.12536069E+03</rscale>
<asrwt>0</asrwt>
<pdfrwt beam="1">  1        2 0.16941086E-01 0.13372860E+03</pdfrwt>
<pdfrwt beam="2">  1       -2 0.19924780E-01 0.13372860E+03</pdfrwt>
<totfact> 0.67515952E+03</totfact>
</mgrwt>
</event>
<event>
 7    1  0.6008063E-006  0.3095509E+03  0.7546771E-02  0.1082053E+00
          1   -1    0    0  501    0  0.00000000000E+00  0.00000000000E+00  0.11136995983E+04  0.11136995983E+04  0.00000000000E+00 0. -1.
         -1   -1    0    0    0  501 -0.00000000000E+00 -0.00000000000E+00 -0.82740936735E+02  0.82740936735E+02  0.00000000000E+00 0.  1.
         23    2    1    2    0    0 -0.88521222830E+02 -0.26899336295E+03  0.51131070002E+03  0.59771261417E+03  0.12501320323E+03 0.  0.
          5    1    3    3  502    0  0.25053390408E+02 -0.21363815159E+02  0.30827262194E+02  0.45348594944E+02  0.47000000000E+01 0. -1.
         -5    1    3    3    0  502 -0.11357461324E+03 -0.24762954779E+03  0.48048343782E+03  0.55236401922E+03  0.47000000000E+01 0. -1.
        -11    1    1    2    0    0  0.58935309464E+01  0.14622433013E+03  0.21555362719E+03  0.26053724230E+03  0.00000000000E+00 0.  1.
         11    1    1    2    0    0  0.82627691884E+02  0.12276903282E+03  0.30409433438E+03  0.33819067860E+03  0.00000000000E+00 0. -1.
<mgrwt>
<rscale>  0 0.30646494E+03</rscale>
<asrwt>0</asrwt>
<pdfrwt beam="1">  1        1 0.17133839E+00 0.30955086E+03</pdfrwt>
<pdfrwt beam="2">  1       -1 0.12729376E-01 0.30955086E+03</pdfrwt>
<totfact> 0.55059194E+02</totfact>
</mgrwt>
</event>
<event>
 7    1  0.6008063E-006  0.1347562E+03  0.7546771E-02  0.1232571E+00
          1   -1    0    0  501    0  0.00000000000E+00  0.00000000000E+00  0.63467299618E+02  0.63467299618E+02  0.00000000000E+00 0. -1.
         -1   -1    0    0    0  501 -0.00000000000E+00 -0.00000000000E+00 -0.22646988459E+03  0.22646988459E+03  0.00000000000E+00 0.  1.
         23    2    1    2    0    0  0.37579771699E+02  0.33497057510E+02 -0.92716967085E+02  0.16357161635E+03  0.12499978235E+03 0.  0.
          5    1    3    3  502    0  0.70178467924E+02  0.59943484242E+02 -0.60642128828E+02  0.11053414157E+03  0.47000000000E+01 0.  1.
         -5    1    3    3    0  502 -0.32598696225E+02 -0.26446426732E+02 -0.32074838258E+02  0.53037474787E+02  0.47000000000E+01 0.  1.
        -11    1    1    2    0    0 -0.46970306545E+02  0.19330848069E+02 -0.40741354354E+02  0.65113357606E+02  0.00000000000E+00 0. -1.
         11    1    1    2    0    0  0.93905348465E+01 -0.52827905579E+02 -0.29544263531E+02  0.61252210247E+02  0.00000000000E+00 0.  1.
<mgrwt>
<rscale>  0 0.12661193E+03</rscale>
<asrwt>0</asrwt>
<pdfrwt beam="1">  1        1 0.97641999E-02 0.13475622E+03</pdfrwt>
<pdfrwt beam="2">  1       -1 0.34841521E-01 0.13475622E+03</pdfrwt>
<totfact> 0.49811875E+03</totfact>
</mgrwt>
</event>
<event>
 7    1  0.6008063E-006  0.3566747E+03  0.7546771E-02  0.1060998E+00
         -3   -1    0    0    0  501 -0.00000000000E+00  0.00000000000E+00  0.14125622303E+03  0.14125622303E+03  0.00000000000E+00 0.  1.
          3   -1    0    0  501    0  0.00000000000E+00 -0.00000000000E+00 -0.91010290578E+03  0.91010290578E+03  0.00000000000E+00 0. -1.
         23    2    1    2    0    0 -0.17047082165E+03 -0.28728693878E+03 -0.49503216428E+03  0.61014236401E+03  0.12499109749E+03 0.  0.
          5    1    3    3  502    0 -0.37164786953E+02 -0.54939402887E+02 -0.20402742925E+03  0.21458993748E+03  0.47000000000E+01 0.  1.
         -5    1    3    3    0  502 -0.13330603470E+03 -0.23234753589E+03 -0.29100473503E+03  0.39555242653E+03  0.47000000000E+01 0.  1.
        -11    1    1    2    0    0  0.12363000781E+03  0.13073652314E+03 -0.17052402151E+03  0.24790090606E+03  0.00000000000E+00 0. -1.
         11    1    1    2    0    0  0.46840813846E+02  0.15655041565E+03 -0.10329049696E+03  0.19331585874E+03  0.00000000000E+00 0.  1.
<mgrwt>
<rscale>  0 0.35396885E+03</rscale>
<asrwt>0</asrwt>
<pdfrwt beam="2">  1        3 0.14001583E+00 0.35667473E+03</pdfrwt>
<pdfrwt beam="1">  1       -3 0.21731726E-01 0.35667473E+03</pdfrwt>
<totfact> 0.19783674E+01</totfact>
</mgrwt>
</event>
<event>
 7    1  0.6008063E-006  0.3839653E+03  0.7546771E-02  0.1050393E+00
          2   -1    0    0  501    0  0.00000000000E+00  0.00000000000E+00  0.20040993617E+04  0.20040993617E+04  0.00000000000E+00 0. -1.
         -2   -1    0    0    0  501 -0.00000000000E+00 -0.00000000000E+00 -0.78843659558E+02  0.78843659558E+02  0.00000000000E+00 0.  1.
         23    2    1    2    0    0  0.30429948547E+03 -0.19801128815E+03  0.12879752697E+04  0.13439901870E+04  0.12499072091E+03 0.  0.
          5    1    3    3  502    0  0.98707303552E+02 -0.32182656894E+02  0.21261609750E+03  0.23665703052E+03  0.47000000000E+01 0. -1.
         -5    1    3    3    0  502  0.20559218191E+03 -0.16582863125E+03  0.10753591722E+04  0.11073331565E+04  0.47000000000E+01 0. -1.
        -11    1    1    2    0    0 -0.17485704542E+03  0.16428240151E+03  0.42486910897E+03  0.48793181238E+03  0.00000000000E+00 0. -1.
         11    1    1    2    0    0 -0.12944244004E+03  0.33728886632E+02  0.21241132342E+03  0.25102102182E+03  0.00000000000E+00 0.  1.
<mgrwt>
<rscale>  0 0.38146601E+03</rscale>
<asrwt>0</asrwt>
<pdfrwt beam="1">  1        2 0.30832294E+00 0.38396527E+03</pdfrwt>
<pdfrwt beam="2">  1       -2 0.12129795E-01 0.38396527E+03</pdfrwt>
<totfact> 0.35333518E+02</totfact>
</mgrwt>
</event>
<event>
 7    1  0.6008063E-006  0.1494578E+03  0.7546771E-02  0.1210159E+00
         -2   -1    0    0    0  501 -0.00000000000E+00  0.00000000000E+00  0.16454859203E+02  0.16454859203E+02  0.00000000000E+00 0.  1.
          2   -1    0    0  501    0  0.00000000000E+00 -0.00000000000E+00 -0.13024660484E+04  0.13024660484E+04  0.00000000000E+00 0. -1.
         23    2    1    2    0    0  0.79342571764E+02 -0.20369370574E+02 -0.93679770204E+03  0.94864511985E+03  0.12500989530E+03 0.  0.
          5    1    3    3  502    0  0.29916576002E+02  0.52684591179E+02 -0.34983593868E+03  0.35507455789E+03  0.47000000000E+01 0. -1.
         -5    1    3    3    0  502  0.49425995762E+02 -0.73053961753E+02 -0.58696176336E+03  0.59357056196E+03  0.47000000000E+01 0. -1.
        -11    1    1    2    0    0 -0.93355731718E+02 -0.41137145575E+01 -0.29004383139E+03  0.30472551489E+03  0.00000000000E+00 0. -1.
         11    1    1    2    0    0  0.14013159954E+02  0.24483085132E+02 -0.59169655756E+02  0.65550272858E+02  0.00000000000E+00 0.  1.
<mgrwt>
<rscale>  0 0.14238203E+03</rscale>
<asrwt>0</asrwt>
<pdfrwt beam="2">  1        2 0.20037933E+00 0.14945778E+03</pdfrwt>
<pdfrwt beam="1">  1       -2 0.25315176E-02 0.14945778E+03</pdfrwt>
<totfact> 0.93161504E+03</totfact>
</mgrwt>
</event>
<event>
 7    1  0.6008063E-006  0.2152697E+03  0.7546771E-02  0.1141084E+00
         -2   -1    0    0    0  501 -0.00000000000E+00  0.00000000000E+00  0.14252828885E+03  0.14252828885E+03  0.00000000000E+00 0.  1.
          2   -1    0    0  501    0  0.00000000000E+00 -0.00000000000E+00 -0.29873626603E+03  0.29873626603E+03  0.00000000000E+00 0. -1.
         23    2    1    2    0    0 -0.96132264803E+02  0.14659340355E+03 -0.74766909243E+02  0.22788404870E+03  0.12494002815E+03 0.  0.
          5    1    3    3  502    0 -0.11674737198E+03  0.76466821057E+02 -0.32695454556E+02  0.14341619969E+03  0.47000000000E+01 0.  1.
         -5    1    3    3    0  502  0.20615107175E+02  0.70126582489E+02 -0.42071454687E+02  0.84467849002E+02  0.47000000000E+01 0.  1.
        -11    1    1    2    0    0  0.10014545926E+02  0.45167475821E+01  0.11729063704E+02  0.16070565460E+02  0.00000000000E+00 0.  1.
         11    1    1    2    0    0  0.86117718877E+02 -0.15111015113E+03 -0.93170131644E+02  0.19730994073E+03  0.00000000000E+00 0. -1.
<mgrwt>
<rscale>  0 0.21060997E+03</rscale>
<asrwt>0</asrwt>
<pdfrwt beam="2">  1        2 0.45959425E-01 0.21526971E+03</pdfrwt>
<pdfrwt beam="1">  1       -2 0.21927429E-01 0.21526971E+03</pdfrwt>
<totfact> 0.19514009E+03</totfact>
</mgrwt>
</event>
<event>
 7    1  0.6008063E-006  0.1299597E+03  0.7546771E-02  0.1241993E+00
         -2   -1    0    0    0  501 -0.00000000000E+00  0.00000000000E+00  0.68637849619E+02  0.68637849619E+02  0.00000000000E+00 0.  1.
          2   -1    0    0  501    0  0.00000000000E+00 -0.00000000000E+00 -0.18924605067E+03  0.18924605067E+03  0.00000000000E+00 0. -1.
         23    2    1    2    0    0 -0.13208297853E+02  0.33011749639E+02 -0.55066905825E+02  0.14114491568E+03  0.12500115343E+03 0.  0.
          5    1    3    3  502    0 -0.55502948338E+02  0.62558465166E+01  0.12008971217E+02  0.57323802033E+02  0.47000000000E+01 0.  1.
         -5    1    3    3    0  502  0.42294650485E+02  0.26755903123E+02 -0.67075877042E+02  0.83821113644E+02  0.47000000000E+01 0.  1.
        -11    1    1    2    0    0  0.24443911872E+02  0.14529846681E+02 -0.61457456275E+02  0.67717355264E+02  0.00000000000E+00 0. -1.
         11    1    1    2    0    0 -0.11235614019E+02 -0.47541596321E+02 -0.40838389492E+01  0.49021629345E+02  0.00000000000E+00 0.  1.
<mgrwt>
<rscale>  0 0.12067166E+03</rscale>
<asrwt>0</asrwt>
<pdfrwt beam="2">  1        2 0.29114776E-01 0.12995970E+03</pdfrwt>
<pdfrwt beam="1">  1       -2 0.10559669E-01 0.12995970E+03</pdfrwt>
<totfact> 0.10349244E+04</totfact>
</mgrwt>
</event>
<event>
 7    1  0.6008063E-006  0.1294108E+03  0.7546771E-02  0.1256959E+00
          1   -1    0    0  501    0  0.00000000000E+00  0.00000000000E+00  0.20729528722E+02  0.20729528722E+02  0.00000000000E+00 0. -1.
         -1   -1    0    0    0  501 -0.00000000000E+00 -0.00000000000E+00 -0.49189881089E+03  0.49189881089E+03  0.00000000000E+00 0.  1.
         23    2    1    2    0    0 -0.24071820723E+02 -0.23302326493E+02 -0.29902658288E+03  0.32582826314E+03  0.12499883528E+03 0.  0.
          5    1    3    3  502    0 -0.28397472924E+02  0.41068332907E+02 -0.59978959131E+02  0.78183054268E+02  0.47000000000E+01 0.  1.
         -5    1    3    3    0  502  0.43256522010E+01 -0.64370659401E+02 -0.23904762375E+03  0.24764520887E+03  0.47000000000E+01 0.  1.
        -11    1    1    2    0    0 -0.15373476900E+02  0.28287897684E+02 -0.88883839959E+02  0.94535104343E+02  0.00000000000E+00 0. -1.
         11    1    1    2    0    0  0.39445297623E+02 -0.49855711901E+01 -0.83258859332E+02  0.92264972129E+02  0.00000000000E+00 0.  1.
<mgrwt>
<rscale>  0 0.11197295E+03</rscale>
<asrwt>0</asrwt>
<pdfrwt beam="1">  1        1 0.31891583E-02 0.12941082E+03</pdfrwt>
<pdfrwt beam="2">  1       -1 0.75676739E-01 0.12941082E+03</pdfrwt>
<totfact> 0.54332874E+03</totfact>
</mgrwt>
</event>
<event>
 7    1  0.6008063E-006  0.1673869E+03  0.7546771E-02  0.1186981E+00
          1   -1    0    0  501    0  0.00000000000E+00  0.00000000000E+00  0.12523255438E+04  0.12523255438E+04  0.00000000000E+00 0. -1.
         -1   -1    0    0    0  501 -0.00000000000E+00 -0.00000000000E+00 -0.24479798443E+02  0.24479798443E+02  0.00000000000E+00 0.  1.
         23    2    1    2    0    0  0.91411742174E+02 -0.63537050777E+02  0.93604282384E+03  0.95089144894E+03  0.12500126467E+03 0.  0.
          5    1    3    3  502    0 -0.16421017603E+02  0.15829000036E+02  0.55091930278E+02  0.59811519317E+02  0.47000000000E+01 0. -1.
         -5    1    3    3    0  502  0.10783275978E+03 -0.79366050813E+02  0.88095089356E+03  0.89107992962E+03  0.47000000000E+01 0. -1.
        -11    1    1    2    0    0 -0.68797995374E+02  0.25796447470E+02  0.26361166754E+03  0.27365988404E+03  0.00000000000E+00 0.  1.
         11    1    1    2    0    0 -0.22613746800E+02  0.37740603307E+02  0.28191253951E+02  0.52254009240E+02  0.00000000000E+00 0. -1.
<mgrwt>
<rscale>  0 0.16152940E+03</rscale>
<asrwt>0</asrwt>
<pdfrwt beam="1">  1        1 0.19266542E+00 0.16738692E+03</pdfrwt>
<pdfrwt beam="2">  1       -1 0.37661238E-02 0.16738692E+03</pdfrwt>
<totfact> 0.28144571E+03</totfact>
</mgrwt>
</event>
<event>
 7    1  0.6008063E-006  0.1278028E+03  0.7546771E-02  0.1237238E+00
         -4   -1    0    0    0  501 -0.00000000000E+00  0.00000000000E+00  0.92254440095E+02  0.92254440095E+02  0.00000000000E+00 0.  1.
          4   -1    0    0  501    0  0.00000000000E+00 -0.00000000000E+00 -0.15984902177E+03  0.15984902177E+03  0.00000000000E+00 0. -1.
         23    2    1    2    0    0 -0.25808097268E+02  0.65217957346E+01 -0.56285783508E+02  0.13964829840E+03  0.12499986447E+03 0.  0.
          5    1    3    3  502    0 -0.25304166840E+02  0.46429810630E+02 -0.77706740668E+02  0.94108744120E+02  0.47000000000E+01 0. -1.
         -5    1    3    3    0  502 -0.50393042740E+00 -0.39908014896E+02  0.21420957160E+02  0.45539554285E+02  0.47000000000E+01 0. -1.
        -11    1    1    2    0    0  0.36903538480E+01  0.41774438177E+02 -0.34682198217E+02  0.54420375501E+02  0.00000000000E+00 0. -1.
         11    1    1    2    0    0  0.22117743420E+02 -0.48296233911E+02  0.23373400048E+02  0.58034787962E+02  0.00000000000E+00 0.  1.
<mgrwt>
<rscale>  0 0.12362274E+03</rscale>
<asrwt>0</asrwt>
<pdfrwt beam="2">  1        4 0.24592157E-01 0.12780281E+03</pdfrwt>
<pdfrwt beam="1">  1       -4 0.14192991E-01 0.12780281E+03</pdfrwt>
<totfact> 0.10450592E+03</totfact>
</mgrwt>
</event>
<event>
 7    1  0.6008063E-006  0.1641345E+03  0.7546771E-02  0.1191361E+00
         -1   -1    0    0    0  501 -0.00000000000E+00  0.00000000000E+00  0.10089297681E+03  0.10089297681E+03  0.00000000000E+00 0.  1.
          1   -1    0    0  501    0  0.00000000000E+00 -0.00000000000E+00 -0.26735695427E+03  0.26735695427E+03  0.00000000000E+00 0. -1.
         23    2    1    2    0    0 -0.56925148503E+02 -0.89888646873E+02 -0.15867619592E+03  0.22829428371E+03  0.12497881202E+03 0.  0.
          5    1    3    3  502    0 -0.31710744620E+02  0.24521867034E+02 -0.71798177148E+02  0.82364807588E+02  0.47000000000E+01 0.  1.
         -5    1    3    3    0  502 -0.25214403883E+02 -0.11441051391E+03 -0.86878018768E+02  0.14592947612E+03  0.47000000000E+01 0.  1.
        -11    1    1    2    0    0  0.20848939205E+02  0.99238830008E+02  0.19949719821E+01  0.10142486658E+03  0.00000000000E+00 0.  1.
         11    1    1    2    0    0  0.36076209297E+02 -0.93501831345E+01 -0.97827535332E+01  0.38530780794E+02  0.00000000000E+00 0. -1.
<mgrwt>
<rscale>  0 0.15766280E+03</rscale>
<asrwt>0</asrwt>
<pdfrwt beam="2">  1        1 0.41131838E-01 0.16413453E+03</pdfrwt>
<pdfrwt beam="1">  1       -1 0.15521997E-01 0.16413453E+03</pdfrwt>
<totfact> 0.30140179E+03</totfact>
</mgrwt>
</event>
<event>
 7    1  0.6008063E-006  0.1528007E+03  0.7546771E-02  0.1208416E+00
          2   -1    0    0  501    0  0.00000000000E+00  0.00000000000E+00  0.39598561619E+02  0.39598561619E+02  0.00000000000E+00 0. -1.
         -2   -1    0    0    0  501 -0.00000000000E+00 -0.00000000000E+00 -0.47209468362E+03  0.47209468362E+03  0.00000000000E+00 0.  1.
         23    2    1    2    0    0  0.68007627058E+02 -0.55663778685E+02 -0.21986695126E+03  0.26774902202E+03  0.12499827575E+03 0.  0.
          5    1    3    3  502    0  0.47113309370E+02 -0.68600082714E+02 -0.52470463872E+02  0.98493019281E+02  0.47000000000E+01 0. -1.
         -5    1    3    3    0  502  0.20894317688E+02  0.12936304029E+02 -0.16739648739E+03  0.16925600274E+03  0.47000000000E+01 0. -1.
        -11    1    1    2    0    0 -0.45345665208E+02  0.72071339311E+02 -0.18910229626E+03  0.20738897212E+03  0.00000000000E+00 0.  1.
         11    1    1    2    0    0 -0.22661961850E+02 -0.16407560626E+02 -0.23526874481E+02  0.36555251106E+02  0.00000000000E+00 0. -1.
<mgrwt>
<rscale>  0 0.14371498E+03</rscale>
<asrwt>0</asrwt>
<pdfrwt beam="1">  1        2 0.60920862E-02 0.15280073E+03</pdfrwt>
<pdfrwt beam="2">  1       -2 0.72629954E-01 0.15280073E+03</pdfrwt>
<totfact> 0.20660170E+03</totfact>
</mgrwt>
</event>
<event>
 7    1  0.6008063E-006  0.1507789E+03  0.7546771E-02  0.1208098E+00
         -2   -1    0    0    0  501 -0.00000000000E+00  0.00000000000E+00  0.30739852943E+02  0.30739852943E+02  0.00000000000E+00 0.  1.
          2   -1    0    0  501    0  0.00000000000E+00 -0.00000000000E+00 -0.65552544803E+03  0.65552544803E+03  0.00000000000E+00 0. -1.
         23    2    1    2    0    0  0.24772205565E+02 -0.80583617849E+02 -0.41937206075E+03  0.44565366903E+03  0.12500754277E+03 0.  0.
          5    1    3    3  502    0 -0.30701628508E+02 -0.34031690836E+01 -0.25154788719E+02  0.40112653220E+02  0.47000000000E+01 0. -1.
         -5    1    3    3    0  502  0.55473834074E+02 -0.77180448766E+02 -0.39421727203E+03  0.40554101581E+03  0.47000000000E+01 0. -1.
        -11    1    1    2    0    0 -0.52561397579E+02  0.19040071721E+02 -0.72723655429E+02  0.91727612558E+02  0.00000000000E+00 0.  1.
         11    1    1    2    0    0  0.27789192014E+02  0.61543546128E+02 -0.13268987891E+03  0.14888401938E+03  0.00000000000E+00 0. -1.
<mgrwt>
<rscale>  0 0.14395945E+03</rscale>
<asrwt>0</asrwt>
<pdfrwt beam="2">  1        2 0.10085007E+00 0.15077887E+03</pdfrwt>
<pdfrwt beam="1">  1       -2 0.47292080E-02 0.15077887E+03</pdfrwt>
<totfact> 0.93328906E+03</totfact>
</mgrwt>
</event>
<event>
 7    1  0.6008063E-006  0.1540210E+03  0.7546771E-02  0.1203826E+00
         -4   -1    0    0    0  501 -0.00000000000E+00  0.00000000000E+00  0.12910103129E+03  0.12910103129E+03  0.00000000000E+00 0.  1.
          4   -1    0    0  501    0  0.00000000000E+00 -0.00000000000E+00 -0.15567158271E+03  0.15567158271E+03  0.00000000000E+00 0. -1.
         23    2    1    2    0    0  0.38714059168E+02  0.81231381310E+02 -0.48579111985E+01  0.15409762509E+03  0.12500065228E+03 0.  0.
          5    1    3    3  502    0  0.46546944885E+01  0.10928427811E+03 -0.66589116267E+01  0.10968660232E+03  0.47000000000E+01 0.  1.
         -5    1    3    3    0  502  0.34059364679E+02 -0.28052896804E+02  0.18010004282E+01  0.44411022776E+02  0.47000000000E+01 0.  1.
        -11    1    1    2    0    0 -0.36694243791E+02 -0.91138565831E+02  0.86932617939E+01  0.98632035921E+02  0.00000000000E+00 0.  1.
         11    1    1    2    0    0 -0.20198153767E+01  0.99071845211E+01 -0.30405902007E+02  0.32042952988E+02  0.00000000000E+00 0. -1.
<mgrwt>
<rscale>  0 0.14730358E+03</rscale>
<asrwt>0</asrwt>
<pdfrwt beam="2">  1        4 0.23949474E-01 0.15402103E+03</pdfrwt>
<pdfrwt beam="1">  1       -4 0.19861697E-01 0.15402103E+03</pdfrwt>
<totfact> 0.62918760E+02</totfact>
</mgrwt>
</event>
<event>
 7    1  0.6008063E-006  0.1481250E+03  0.7546771E-02  0.1215067E+00
          2   -1    0    0  501    0  0.00000000000E+00  0.00000000000E+00  0.10881536881E+04  0.10881536881E+04  0.00000000000E+00 0. -1.
         -2   -1    0    0    0  501 -0.00000000000E+00 -0.00000000000E+00 -0.18898909015E+02  0.18898909015E+02  0.00000000000E+00 0.  1.
         23    2    1    2    0    0  0.46780329149E+02 -0.64244615104E+02  0.81625065390E+03  0.82958191086E+03  0.12500098827E+03 0.  0.
          5    1    3    3  502    0  0.47803643700E+02  0.21121799036E+02  0.47046137568E+03  0.47337861670E+03  0.47000000000E+01 0. -1.
         -5    1    3    3    0  502 -0.10233145510E+01 -0.85366414140E+02  0.34578927822E+03  0.35620329416E+03  0.47000000000E+01 0. -1.
        -11    1    1    2    0    0 -0.56029648948E+02  0.11936411125E+02  0.16517577433E+03  0.17482801805E+03  0.00000000000E+00 0.  1.
         11    1    1    2    0    0  0.92493197990E+01  0.52308203980E+02  0.87828350825E+02  0.10264266817E+03  0.00000000000E+00 0. -1.
<mgrwt>
<rscale>  0 0.13871582E+03</rscale>
<asrwt>0</asrwt>
<pdfrwt beam="1">  1        2 0.16740821E+00 0.14812500E+03</pdfrwt>
<pdfrwt beam="2">  1       -2 0.29075253E-02 0.14812500E+03</pdfrwt>
<totfact> 0.10004796E+04</totfact>
</mgrwt>
</event>
<event>
 7    1  0.6008063E-006  0.1527824E+03  0.7546771E-02  0.1205119E+00
         -1   -1    0    0    0  501 -0.00000000000E+00  0.00000000000E+00  0.59595203724E+02  0.59595203724E+02  0.00000000000E+00 0.  1.
          1   -1    0    0  501    0  0.00000000000E+00 -0.00000000000E+00 -0.33711236534E+03  0.33711236534E+03  0.00000000000E+00 0. -1.
         23    2    1    2    0    0  0.65649828846E+02  0.58347593194E+02 -0.17577371597E+03  0.23289238171E+03  0.12501248167E+03 0.  0.
          5    1    3    3  502    0  0.33107644337E+02  0.97727283703E+01  0.11468564491E+02  0.36677517703E+02  0.47000000000E+01 0. -1.
         -5    1    3    3    0  502  0.32542184509E+02  0.48574864823E+02 -0.18724228046E+03  0.19621486400E+03  0.47000000000E+01 0. -1.
        -11    1    1    2    0    0 -0.46258341414E+02 -0.82582780241E+02 -0.61050540057E+02  0.11263622057E+03  0.00000000000E+00 0.  1.
         11    1    1    2    0    0 -0.19391487432E+02  0.24235187047E+02 -0.40692905595E+02  0.51178966791E+02  0.00000000000E+00 0. -1.
<mgrwt>
<rscale>  0 0.14628062E+03</rscale>
<asrwt>0</asrwt>
<pdfrwt beam="2">  1        1 0.51863441E-01 0.15278240E+03</pdfrwt>
<pdfrwt beam="1">  1       -1 0.91684928E-02 0.15278240E+03</pdfrwt>
<totfact> 0.50883588E+03</totfact>
</mgrwt>
</event>
<event>
 7    1  0.6008063E-006  0.1275822E+03  0.7546771E-02  0.1245498E+00
          1   -1    0    0  501    0  0.00000000000E+00  0.00000000000E+00  0.53714541311E+02  0.53714541311E+02  0.00000000000E+00 0. -1.
         -1   -1    0    0    0  501 -0.00000000000E+00 -0.00000000000E+00 -0.23098313169E+03  0.23098313169E+03  0.00000000000E+00 0.  1.
         23    2    1    2    0    0 -0.13322217759E+02 -0.21731322764E+02 -0.98274628867E+02  0.16104384111E+03  0.12500993643E+03 0.  0.
          5    1    3    3  502    0 -0.45196739484E+02  0.27924251647E+02 -0.92413315197E+01  0.54129486404E+02  0.47000000000E+01 0.  1.
         -5    1    3    3    0  502  0.31874521726E+02 -0.49655574412E+02 -0.89033297347E+02  0.10691435470E+03  0.47000000000E+01 0.  1.
        -11    1    1    2    0    0 -0.32158763015E+02 -0.35230416391E+01 -0.43094693137E+01  0.32636932865E+02  0.00000000000E+00 0. -1.
         11    1    1    2    0    0  0.45480980774E+02  0.25254364403E+02 -0.74684492197E+02  0.91016899026E+02  0.00000000000E+00 0.  1.
<mgrwt>
<rscale>  0 0.11855639E+03</rscale>
<asrwt>0</asrwt>
<pdfrwt beam="1">  1        1 0.82637758E-02 0.12758219E+03</pdfrwt>
<pdfrwt beam="2">  1       -1 0.35535865E-01 0.12758219E+03</pdfrwt>
<totfact> 0.59906572E+03</totfact>
</mgrwt>
</event>
<event>
 7    1  0.6008063E-006  0.3130020E+03  0.7546771E-02  0.1080346E+00
         -1   -1    0    0    0  501 -0.00000000000E+00  0.00000000000E+00  0.79800836484E+02  0.79800836484E+02  0.00000000000E+00 0.  1.
          1   -1    0    0  501    0  0.00000000000E+00 -0.00000000000E+00 -0.16115158347E+04  0.16115158347E+04  0.00000000000E+00 0. -1.
         23    2    1    2    0    0 -0.22264336595E+03  0.18103037935E+03 -0.12133682752E+04  0.12530893155E+04  0.12501277835E+03 0.  0.
          5    1    3    3  502    0 -0.11845791615E+03  0.10316713220E+03 -0.90241145721E+03  0.91599359341E+03  0.47000000000E+01 0.  1.
         -5    1    3    3    0  502 -0.10418544980E+03  0.77863247149E+02 -0.31095681797E+03  0.33709572209E+03  0.47000000000E+01 0.  1.
        -11    1    1    2    0    0  0.17728603047E+03 -0.10759893138E+03 -0.26597995895E+03  0.33727319075E+03  0.00000000000E+00 0.  1.
         11    1    1    2    0    0  0.45357335483E+02 -0.73431447972E+02 -0.52366764042E+02  0.10095416489E+03  0.00000000000E+00 0. -1.
<mgrwt>
<rscale>  0 0.30999908E+03</rscale>
<asrwt>0</asrwt>
<pdfrwt beam="2">  1        1 0.24792549E+00 0.31300202E+03</pdfrwt>
<pdfrwt beam="1">  1       -1 0.12277053E-01 0.31300202E+03</pdfrwt>
<totfact> 0.26607160E+02</totfact>
</mgrwt>
</event>
<event>
 7    1  0.6008063E-006  0.1460381E+03  0.7546771E-02  0.1215063E+00
         -1   -1    0    0    0  501 -0.00000000000E+00  0.00000000000E+00  0.33051450963E+02  0.33051450963E+02  0.00000000000E+00 0.  1.
          1   -1    0    0  501    0  0.00000000000E+00 -0.00000000000E+00 -0.53369081268E+03  0.53369081268E+03  0.00000000000E+00 0. -1.
         23    2    1    2    0    0  0.71712565058E+02  0.23656712362E+02 -0.29624107347E+03  0.33028152985E+03  0.12499913330E+03 0.  0.
          5    1    3    3  502    0  0.96999611331E+02 -0.94198202239E+01 -0.24731883227E+03  0.26586905124E+03  0.47000000000E+01 0. -1.
         -5    1    3    3    0  502 -0.25287046273E+02  0.33076532586E+02 -0.48922241196E+02  0.64412478611E+02  0.47000000000E+01 0. -1.
        -11    1    1    2    0    0 -0.45179302115E+01 -0.28798722495E+02 -0.10171197356E+02  0.30874445200E+02  0.00000000000E+00 0.  1.
         11    1    1    2    0    0 -0.67194634846E+02  0.51420101327E+01 -0.19422709090E+03  0.20558628860E+03  0.00000000000E+00 0. -1.
<mgrwt>
<rscale>  0 0.13871921E+03</rscale>
<asrwt>0</asrwt>
<pdfrwt beam="2">  1        1 0.82106276E-01 0.14603806E+03</pdfrwt>
<pdfrwt beam="1">  1       -1 0.50848388E-02 0.14603806E+03</pdfrwt>
<totfact> 0.68380766E+03</totfact>
</mgrwt>
</event>
<event>
 6    1  0.6008063E-006  0.2649520E+03  0.7546771E-02  0.1134018E+00
         -4   -1    0    0    0  501 -0.00000000000E+00  0.00000000000E+00  0.27835198647E+03  0.27835198647E+03  0.00000000000E+00 0.  1.
          4   -1    0    0  501    0  0.00000000000E+00 -0.00000000000E+00 -0.21618800243E+03  0.21618800243E+03  0.00000000000E+00 0. -1.
          5    1    1    2  502    0 -0.47632589400E+02  0.20799255400E+02 -0.18775277415E+03  0.19487089777E+03  0.47000000000E+01 0. -1.
         -5    1    1    2    0  502 -0.19615755863E+02  0.31066470050E+02  0.82334535309E+02  0.90282717859E+02  0.47000000000E+01 0.  1.
        -11    1    1    2    0    0 -0.20780744250E+02 -0.20941890511E+01  0.50677009471E+02  0.54812263667E+02  0.00000000000E+00 0. -1.
         11    1    1    2    0    0  0.88029089513E+02 -0.49771536399E+02  0.11690521341E+03  0.15457410960E+03  0.00000000000E+00 0.  1.
<mgrwt>
<rscale>  0 0.21981940E+03</rscale>
<asrwt>0</asrwt>
<pdfrwt beam="2">  1        4 0.33259693E-01 0.26495203E+03</pdfrwt>
<pdfrwt beam="1">  1       -4 0.42823383E-01 0.26495203E+03</pdfrwt>
<totfact> 0.85216755E+01</totfact>
</mgrwt>
</event>
<event>
 7    1  0.6008063E-006  0.1463655E+03  0.7546771E-02  0.1214593E+00
         -1   -1    0    0    0  501 -0.00000000000E+00  0.00000000000E+00  0.49085019964E+03  0.49085019964E+03  0.00000000000E+00 0.  1.
          1   -1    0    0  501    0  0.00000000000E+00 -0.00000000000E+00 -0.39546952860E+02  0.39546952860E+02  0.00000000000E+00 0. -1.
         23    2    1    2    0    0  0.35003524109E+02  0.67604154628E+02  0.16685661571E+03  0.22195493101E+03  0.12500917074E+03 0.  0.
          5    1    3    3  502    0  0.41257498472E+02 -0.12637577493E+02  0.84611804034E+01  0.44221839840E+02  0.47000000000E+01 0. -1.
         -5    1    3    3    0  502 -0.62539743626E+01  0.80241732121E+02  0.15839543531E+03  0.17773309117E+03  0.47000000000E+01 0. -1.
        -11    1    1    2    0    0  0.11512639492E+02  0.17427694726E+02  0.34104021876E+02  0.39991870669E+02  0.00000000000E+00 0.  1.
         11    1    1    2    0    0 -0.46516163601E+02 -0.85031849354E+02  0.25034260919E+03  0.26845035083E+03  0.00000000000E+00 0. -1.
<mgrwt>
<rscale>  0 0.13906478E+03</rscale>
<asrwt>0</asrwt>
<pdfrwt beam="2">  1        1 0.60841470E-02 0.14636551E+03</pdfrwt>
<pdfrwt beam="1">  1       -1 0.75515411E-01 0.14636551E+03</pdfrwt>
<totfact> 0.22658582E+03</totfact>
</mgrwt>
</event>
<event>
 7    1  0.6008063E-006  0.1641910E+03  0.7546771E-02  0.1191278E+00
          2   -1    0    0  501    0  0.00000000000E+00  0.00000000000E+00  0.11026750079E+04  0.11026750079E+04  0.00000000000E+00 0. -1.
         -2   -1    0    0    0  501 -0.00000000000E+00 -0.00000000000E+00 -0.22771165486E+02  0.22771165486E+02  0.00000000000E+00 0.  1.
         23    2    1    2    0    0  0.30167629426E+02 -0.10210139521E+03  0.73804411834E+03  0.75608717555E+03  0.12499566252E+03 0.  0.
          5    1    3    3  502    0  0.71782463283E+02 -0.70117345878E+02  0.59953359948E+03  0.60789126588E+03  0.47000000000E+01 0. -1.
         -5    1    3    3    0  502 -0.41614833858E+02 -0.31984049329E+02  0.13851051886E+03  0.14819590967E+03  0.47000000000E+01 0. -1.
        -11    1    1    2    0    0  0.24657818949E+02  0.81281639005E+00  0.61384538039E+02  0.66156860688E+02  0.00000000000E+00 0.  1.
         11    1    1    2    0    0 -0.54825448375E+02  0.10128857882E+03  0.28047518603E+03  0.30320213714E+03  0.00000000000E+00 0. -1.
<mgrwt>
<rscale>  0 0.15773484E+03</rscale>
<asrwt>0</asrwt>
<pdfrwt beam="1">  1        2 0.16964227E+00 0.16419104E+03</pdfrwt>
<pdfrwt beam="2">  1       -2 0.35032571E-02 0.16419104E+03</pdfrwt>
<totfact> 0.74856948E+03</totfact>
</mgrwt>
</event>
<event>
 7    1  0.6008063E-006  0.1291423E+03  0.7546771E-02  0.1244355E+00
         -2   -1    0    0    0  501 -0.00000000000E+00  0.00000000000E+00  0.15879634238E+02  0.15879634238E+02  0.00000000000E+00 0.  1.
          2   -1    0    0  501    0  0.00000000000E+00 -0.00000000000E+00 -0.82237530425E+03  0.82237530425E+03  0.00000000000E+00 0. -1.
         23    2    1    2    0    0  0.29733692412E+02  0.13024200721E+02 -0.55466482493E+03  0.56950047738E+03  0.12499601372E+03 0.  0.
          5    1    3    3  502    0 -0.45059660332E+02  0.19772796407E+02 -0.15106919500E+03  0.15895070980E+03  0.47000000000E+01 0.  1.
         -5    1    3    3    0  502  0.74793352744E+02 -0.67485956860E+01 -0.40359562993E+03  0.41054976758E+03  0.47000000000E+01 0.  1.
        -11    1    1    2    0    0 -0.51580323339E+02  0.17572088691E+00 -0.22824580823E+03  0.23400151625E+03  0.00000000000E+00 0. -1.
         11    1    1    2    0    0  0.21846630927E+02 -0.13199921608E+02 -0.23585036850E+02  0.34752944861E+02  0.00000000000E+00 0.  1.
<mgrwt>
<rscale>  0 0.11924068E+03</rscale>
<asrwt>0</asrwt>
<pdfrwt beam="2">  1        2 0.12651927E+00 0.12914227E+03</pdfrwt>
<pdfrwt beam="1">  1       -2 0.24430208E-02 0.12914227E+03</pdfrwt>
<totfact> 0.18637847E+04</totfact>
</mgrwt>
</event>
<event>
 7    1  0.6008063E-006  0.1447401E+03  0.7546771E-02  0.1218715E+00
         -2   -1    0    0    0  501 -0.00000000000E+00  0.00000000000E+00  0.85323450207E+01  0.85323450207E+01  0.00000000000E+00 0.  1.
          2   -1    0    0  501    0  0.00000000000E+00 -0.00000000000E+00 -0.24349695980E+04  0.24349695980E+04  0.00000000000E+00 0. -1.
         23    2    1    2    0    0 -0.34952962096E+02  0.64059038498E+02 -0.18759225478E+04  0.18814981026E+04  0.12499773924E+03 0.  0.
          5    1    3    3  502    0 -0.37937640711E+02  0.96707217601E+02 -0.11101590440E+04  0.11150187189E+04  0.47000000000E+01 0. -1.
         -5    1    3    3    0  502  0.29846786152E+01 -0.32648179104E+02 -0.76576350378E+03  0.76647938369E+03  0.47000000000E+01 0. -1.
        -11    1    1    2    0    0 -0.11292152328E+01 -0.75195981660E+02 -0.37696237056E+03  0.38439086826E+03  0.00000000000E+00 0.  1.
         11    1    1    2    0    0  0.36082177329E+02  0.11136943162E+02 -0.17355233470E+03  0.17761297223E+03  0.00000000000E+00 0. -1.
<mgrwt>
<rscale>  0 0.13607115E+03</rscale>
<asrwt>0</asrwt>
<pdfrwt beam="2">  1        2 0.37461073E+00 0.14474013E+03</pdfrwt>
<pdfrwt beam="1">  1       -2 0.13126684E-02 0.14474013E+03</pdfrwt>
<totfact> 0.62244335E+03</totfact>
</mgrwt>
</event>
<event>
 7    1  0.6008063E-006  0.2034715E+03  0.7546771E-02  0.1150847E+00
          4   -1    0    0  501    0  0.00000000000E+00  0.00000000000E+00  0.16371579251E+03  0.16371579251E+03  0.00000000000E+00 0. -1.
         -4   -1    0    0    0  501 -0.00000000000E+00 -0.00000000000E+00 -0.27937206247E+03  0.27937206247E+03  0.00000000000E+00 0.  1.
         23    2    1    2    0    0  0.16024829630E+03 -0.97896075181E+01  0.32512552080E+02  0.20605274348E+03  0.12500125668E+03 0.  0.
          5    1    3    3  502    0  0.85731487771E+01  0.41924172232E+02  0.95934624723E+01  0.44105097432E+02  0.47000000000E+01 0.  1.
         -5    1    3    3    0  502  0.15167514752E+03 -0.51713779750E+02  0.22919089607E+02  0.16194764605E+03  0.47000000000E+01 0.  1.
        -11    1    1    2    0    0 -0.13828569678E+03  0.40559726842E+02 -0.13362740596E+03  0.19653068208E+03  0.00000000000E+00 0.  1.
         11    1    1    2    0    0 -0.21962599515E+02 -0.30770119324E+02 -0.14541416077E+02  0.40504429414E+02  0.00000000000E+00 0. -1.
<mgrwt>
<rscale>  0 0.19869238E+03</rscale>
<asrwt>0</asrwt>
<pdfrwt beam="1">  1        4 0.25187045E-01 0.20347154E+03</pdfrwt>
<pdfrwt beam="2">  1       -4 0.42980317E-01 0.20347154E+03</pdfrwt>
<totfact> 0.13874886E+02</totfact>
</mgrwt>
</event>
<event>
 7    1  0.6008063E-006  0.1297543E+03  0.7546771E-02  0.1241365E+00
          1   -1    0    0  501    0  0.00000000000E+00  0.00000000000E+00  0.52302413459E+02  0.52302413459E+02  0.00000000000E+00 0. -1.
         -1   -1    0    0    0  501 -0.00000000000E+00 -0.00000000000E+00 -0.28593003275E+03  0.28593003275E+03  0.00000000000E+00 0.  1.
         23    2    1    2    0    0  0.32914815409E+02  0.11302980924E+02 -0.70227251337E+02  0.14753997839E+03  0.12500014377E+03 0.  0.
          5    1    3    3  502    0  0.53303408957E+02  0.13196288404E+01 -0.97816243614E+02  0.11150382209E+03  0.47000000000E+01 0. -1.
         -5    1    3    3    0  502 -0.20388593549E+02  0.99833520841E+01  0.27588992277E+02  0.36036156296E+02  0.47000000000E+01 0. -1.
        -11    1    1    2    0    0 -0.26440333316E+02 -0.45091540031E+02 -0.13903086517E+03  0.14853255427E+03  0.00000000000E+00 0. -1.
         11    1    1    2    0    0 -0.64744820931E+01  0.33788559107E+02 -0.24369502793E+02  0.42159913559E+02  0.00000000000E+00 0.  1.
<mgrwt>
<rscale>  0 0.12105579E+03</rscale>
<asrwt>0</asrwt>
<pdfrwt beam="1">  1        1 0.80465250E-02 0.12975430E+03</pdfrwt>
<pdfrwt beam="2">  1       -1 0.43989237E-01 0.12975430E+03</pdfrwt>
<totfact> 0.42806647E+03</totfact>
</mgrwt>
</event>
<event>
 6    1  0.6008063E-006  0.1795638E+03  0.7546771E-02  0.1197371E+00
          1   -1    0    0  501    0  0.00000000000E+00  0.00000000000E+00  0.28415246541E+03  0.28415246541E+03  0.00000000000E+00 0. -1.
         -1   -1    0    0    0  501 -0.00000000000E+00 -0.00000000000E+00 -0.11649240575E+03  0.11649240575E+03  0.00000000000E+00 0.  1.
          5    1    1    2  502    0 -0.45026322985E+01 -0.19621525543E+02  0.25531987987E+03  0.25615543918E+03  0.47000000000E+01 0. -1.
         -5    1    1    2    0  502 -0.16541666169E+02  0.67331029213E+01 -0.27992534010E+02  0.33535553594E+02  0.47000000000E+01 0.  1.
        -11    1    1    2    0    0  0.24191111542E+02  0.50382533569E+02 -0.37018843538E+02  0.67037335444E+02  0.00000000000E+00 0.  1.
         11    1    1    2    0    0 -0.31468130743E+01 -0.37494110947E+02 -0.22648442666E+02  0.43916542936E+02  0.00000000000E+00 0. -1.
<mgrwt>
<rscale>  0 0.15255226E+03</rscale>
<asrwt>0</asrwt>
<pdfrwt beam="1">  1        1 0.43715764E-01 0.17956377E+03</pdfrwt>
<pdfrwt beam="2">  1       -1 0.17921909E-01 0.17956377E+03</pdfrwt>
<totfact> 0.22304674E+03</totfact>
</mgrwt>
</event>
<event>
 7    1  0.6008063E-006  0.1328351E+03  0.7546771E-02  0.1234845E+00
         -1   -1    0    0    0  501 -0.00000000000E+00  0.00000000000E+00  0.48317217270E+02  0.48317217270E+02  0.00000000000E+00 0.  1.
          1   -1    0    0  501    0  0.00000000000E+00 -0.00000000000E+00 -0.44061982915E+03  0.44061982915E+03  0.00000000000E+00 0. -1.
         23    2    1    2    0    0  0.22842637783E+02  0.38716305038E+02 -0.35298818547E+03  0.37715489096E+03  0.12499765726E+03 0.  0.
          5    1    3    3  502    0 -0.34324575492E+02  0.18952874131E+02 -0.27755994677E+03  0.28035513545E+03  0.47000000000E+01 0.  1.
         -5    1    3    3    0  502  0.57167213275E+02  0.19763430907E+02 -0.75428238699E+02  0.96799755516E+02  0.47000000000E+01 0.  1.
        -11    1    1    2    0    0 -0.51991318116E+02 -0.16460759332E+02  0.44112325163E+01  0.54713003295E+02  0.00000000000E+00 0.  1.
         11    1    1    2    0    0  0.29148680333E+02 -0.22255545707E+02 -0.43725658926E+02  0.57069152161E+02  0.00000000000E+00 0. -1.
<mgrwt>
<rscale>  0 0.12514383E+03</rscale>
<asrwt>0</asrwt>
<pdfrwt beam="2">  1        1 0.67787668E-01 0.13283506E+03</pdfrwt>
<pdfrwt beam="1">  1       -1 0.74334178E-02 0.13283506E+03</pdfrwt>
<totfact> 0.49505497E+03</totfact>
</mgrwt>
</event>
<event>
 7    1  0.6008063E-006  0.2008821E+03  0.7546771E-02  0.1151737E+00
          2   -1    0    0  501    0  0.00000000000E+00  0.00000000000E+00  0.78481983469E+03  0.78481983469E+03  0.00000000000E+00 0. -1.
         -2   -1    0    0    0  501 -0.00000000000E+00 -0.00000000000E+00 -0.57016484449E+02  0.57016484449E+02  0.00000000000E+00 0.  1.
         23    2    1    2    0    0  0.12639781972E+03  0.10298632057E+03  0.53897065136E+03  0.57518952284E+03  0.11735004516E+03 0.  0.
          5    1    3    3  502    0  0.62662303855E+02  0.10726047497E+03  0.44062356121E+03  0.45782375049E+03  0.47000000000E+01 0. -1.
         -5    1    3    3    0  502  0.63735515870E+02 -0.42741544002E+01  0.98347090153E+02  0.11736577236E+03  0.47000000000E+01 0.  1.
        -11    1    1    2    0    0 -0.11328895735E+03 -0.10245585799E+03  0.19841539934E+03  0.25040020245E+03  0.00000000000E+00 0.  1.
         11    1    1    2    0    0 -0.13108862379E+02 -0.53046257759E+00 -0.95827004616E+01  0.16246593845E+02  0.00000000000E+00 0. -1.
<mgrwt>
<rscale>  0 0.19765001E+03</rscale>
<asrwt>0</asrwt>
<pdfrwt beam="1">  1        2 0.12074150E+00 0.20088212E+03</pdfrwt>
<pdfrwt beam="2">  1       -2 0.87717674E-02 0.20088212E+03</pdfrwt>
<totfact> 0.29466960E+03</totfact>
</mgrwt>
</event>
<event>
 7    1  0.6008063E-006  0.1998410E+03  0.7546771E-02  0.1154155E+00
         -2   -1    0    0    0  501 -0.00000000000E+00  0.00000000000E+00  0.30702954093E+02  0.30702954093E+02  0.00000000000E+00 0.  1.
          2   -1    0    0  501    0  0.00000000000E+00 -0.00000000000E+00 -0.11859870733E+04  0.11859870733E+04  0.00000000000E+00 0. -1.
         23    2    1    2    0    0 -0.14201765861E+03 -0.64368101558E+02 -0.65429630764E+03  0.68413454993E+03  0.12499662538E+03 0.  0.
          5    1    3    3  502    0 -0.35097509749E+02  0.16109225592E+02 -0.41517693933E+02  0.56895968656E+02  0.47000000000E+01 0.  1.
         -5    1    3    3    0  502 -0.10692014886E+03 -0.80477327150E+02 -0.61277861371E+03  0.62723858127E+03  0.47000000000E+01 0.  1.
        -11    1    1    2    0    0  0.10308195916E+03  0.86834701447E+02 -0.35149994281E+03  0.37645499794E+03  0.00000000000E+00 0.  1.
         11    1    1    2    0    0  0.38935699451E+02 -0.22466599888E+02 -0.14948786873E+03  0.15610047950E+03  0.00000000000E+00 0. -1.
<mgrwt>
<rscale>  0 0.19485423E+03</rscale>
<asrwt>0</asrwt>
<pdfrwt beam="2">  1        2 0.18245955E+00 0.19984100E+03</pdfrwt>
<pdfrwt beam="1">  1       -2 0.47235314E-02 0.19984100E+03</pdfrwt>
<totfact> 0.43147395E+03</totfact>
</mgrwt>
</event>
<event>
 7    1  0.6008063E-006  0.1666587E+03  0.7546771E-02  0.1189909E+00
         -2   -1    0    0    0  501 -0.00000000000E+00  0.00000000000E+00  0.49304697624E+02  0.49304697624E+02  0.00000000000E+00 0.  1.
          2   -1    0    0  501    0  0.00000000000E+00 -0.00000000000E+00 -0.48333079584E+03  0.48333079584E+03  0.00000000000E+00 0. -1.
         23    2    1    2    0    0  0.89037528030E+02  0.64977700498E+02 -0.28084964266E+03  0.32657562148E+03  0.12500132720E+03 0.  0.
          5    1    3    3  502    0  0.63319252820E+02 -0.25048634974E+02 -0.15742835751E+03  0.17158828526E+03  0.47000000000E+01 0. -1.
         -5    1    3    3    0  502  0.25718275209E+02  0.90026335472E+02 -0.12342128516E+03  0.15498733622E+03  0.47000000000E+01 0. -1.
        -11    1    1    2    0    0 -0.61283489604E+02 -0.80979214982E+02 -0.92128913274E+02  0.13711686993E+03  0.00000000000E+00 0.  1.
         11    1    1    2    0    0 -0.27754038426E+02  0.16001514484E+02 -0.61047542279E+02  0.68943002060E+02  0.00000000000E+00 0. -1.
<mgrwt>
<rscale>  0 0.15893093E+03</rscale>
<asrwt>0</asrwt>
<pdfrwt beam="2">  1        2 0.74358581E-01 0.16665868E+03</pdfrwt>
<pdfrwt beam="1">  1       -2 0.75853384E-02 0.16665868E+03</pdfrwt>
<totfact> 0.64527645E+03</totfact>
</mgrwt>
</event>
<event>
 7    1  0.6008063E-006  0.1374368E+03  0.7546771E-02  0.1222536E+00
         -2   -1    0    0    0  501 -0.00000000000E+00  0.00000000000E+00  0.12306241492E+03  0.12306241492E+03  0.00000000000E+00 0. -1.
          2   -1    0    0  501    0  0.00000000000E+00 -0.00000000000E+00 -0.14988458101E+03  0.14988458101E+03  0.00000000000E+00 0.  1.
         23    2    1    2    0    0  0.48325128933E+02  0.30469442429E+02 -0.54684078969E+02  0.14791626756E+03  0.12500067483E+03 0.  0.
          5    1    3    3  502    0 -0.55182397779E+01  0.66610262890E+02 -0.48275137875E+02  0.82583031123E+02  0.47000000000E+01 0. -1.
         -5    1    3    3    0  502  0.53843368711E+02 -0.36140820462E+02 -0.64089410932E+01  0.65333236440E+02  0.47000000000E+01 0. -1.
        -11    1    1    2    0    0 -0.37497019524E+02 -0.68995947155E+02  0.44199430644E+01  0.78651148076E+02  0.00000000000E+00 0.  1.
         11    1    1    2    0    0 -0.10828109409E+02  0.38526504727E+02  0.23441969812E+02  0.46379580297E+02  0.00000000000E+00 0. -1.
<mgrwt>
<rscale>  0 0.13337255E+03</rscale>
<asrwt>0</asrwt>
<pdfrwt beam="2">  1        2 0.23059166E-01 0.13743680E+03</pdfrwt>
<pdfrwt beam="1">  1       -2 0.18932679E-01 0.13743680E+03</pdfrwt>
<totfact> 0.51992966E+03</totfact>
</mgrwt>
</event>
<event>
 6    1  0.6008063E-006  0.1387415E+03  0.7546771E-02  0.1231033E+00
         -1   -1    0    0    0  501 -0.00000000000E+00  0.00000000000E+00  0.54636692647E+02  0.54636692647E+02  0.00000000000E+00 0.  1.
          1   -1    0    0  501    0  0.00000000000E+00 -0.00000000000E+00 -0.31697173483E+03  0.31697173483E+03  0.00000000000E+00 0. -1.
          5    1    1    2  502    0  0.39188809707E+02 -0.55626237019E+02 -0.12163735176E+03  0.13945528457E+03  0.47000000000E+01 0. -1.
         -5    1    1    2    0  502 -0.11093969132E+02  0.69131572814E+02 -0.10564828759E+03  0.12683020611E+03  0.47000000000E+01 0.  1.
        -11    1    1    2    0    0 -0.46048566136E+02  0.15486043955E+02  0.92124612138E+01  0.49448533267E+02  0.00000000000E+00 0.  1.
         11    1    1    2    0    0  0.17953725561E+02 -0.28991379750E+02 -0.44261864050E+02  0.55874403536E+02  0.00000000000E+00 0. -1.
<mgrwt>
<rscale>  0 0.12761859E+03</rscale>
<asrwt>0</asrwt>
<pdfrwt beam="2">  1        1 0.48764882E-01 0.13874149E+03</pdfrwt>
<pdfrwt beam="1">  1       -1 0.84056451E-02 0.13874149E+03</pdfrwt>
<totfact> 0.62335532E+03</totfact>
</mgrwt>
</event>
<event>
 7    1  0.6008063E-006  0.1282501E+03  0.7546771E-02  0.1249255E+00
          1   -1    0    0  501    0  0.00000000000E+00  0.00000000000E+00  0.44532649715E+02  0.44532649715E+02  0.00000000000E+00 0. -1.
         -1   -1    0    0    0  501 -0.00000000000E+00 -0.00000000000E+00 -0.26340135256E+03  0.26340135256E+03  0.00000000000E+00 0.  1.
         23    2    1    2    0    0  0.24343905928E+02 -0.15147912574E+02 -0.11241300001E+03  0.17054254217E+03  0.12500396437E+03 0.  0.
          5    1    3    3  502    0  0.39217938568E+02  0.29327205004E+02 -0.59707024907E+00  0.49199371457E+02  0.47000000000E+01 0.  1.
         -5    1    3    3    0  502 -0.14874032639E+02 -0.44475117578E+02 -0.11181592976E+03  0.12134317072E+03  0.47000000000E+01 0.  1.
        -11    1    1    2    0    0 -0.42685018659E+02  0.31672362508E+02 -0.40069446488E+02  0.66563577929E+02  0.00000000000E+00 0. -1.
         11    1    1    2    0    0  0.18341112731E+02 -0.16524449934E+02 -0.66386256348E+02  0.70827882178E+02  0.00000000000E+00 0.  1.
<mgrwt>
<rscale>  0 0.11634306E+03</rscale>
<asrwt>0</asrwt>
<pdfrwt beam="1">  1        1 0.68511768E-02 0.12825005E+03</pdfrwt>
<pdfrwt beam="2">  1       -1 0.40523286E-01 0.12825005E+03</pdfrwt>
<totfact> 0.61373508E+03</totfact>
</mgrwt>
</event>
<event>
 7    1  0.6008063E-006  0.4033745E+03  0.7546771E-02  0.1043401E+00
         -2   -1    0    0    0  501 -0.00000000000E+00  0.00000000000E+00  0.28973591861E+03  0.28973591861E+03  0.00000000000E+00 0. -1.
          2   -1    0    0  501    0  0.00000000000E+00 -0.00000000000E+00 -0.55224350337E+03  0.55224350337E+03  0.00000000000E+00 0.  1.
         23    2    1    2    0    0 -0.53086686041E+02  0.37982945900E+03 -0.10080435015E+03  0.41577943853E+03  0.12498964093E+03 0.  0.
          5    1    3    3  502    0 -0.59217531545E+02  0.37082312201E+03 -0.69004436443E+02  0.38183793173E+03  0.47000000000E+01 0.  1.
         -5    1    3    3    0  502  0.61308455035E+01  0.90063369897E+01 -0.31799913704E+02  0.33941506804E+02  0.47000000000E+01 0.  1.
        -11    1    1    2    0    0  0.72647698126E+02 -0.18865295296E+03 -0.82440902553E+02  0.21832115591E+03  0.00000000000E+00 0. -1.
         11    1    1    2    0    0 -0.19561012085E+02 -0.19117650603E+03 -0.79262332066E+02  0.20787882754E+03  0.00000000000E+00 0.  1.
<mgrwt>
<rscale>  0 0.40109490E+03</rscale>
<asrwt>0</asrwt>
<pdfrwt beam="2">  1        2 0.84960539E-01 0.40337455E+03</pdfrwt>
<pdfrwt beam="1">  1       -2 0.44574757E-01 0.40337455E+03</pdfrwt>
<totfact> 0.26794835E+02</totfact>
</mgrwt>
</event>
<event>
 7    1  0.6008063E-006  0.1513729E+03  0.7546771E-02  0.1207346E+00
          2   -1    0    0  501    0  0.00000000000E+00  0.00000000000E+00  0.10746303425E+04  0.10746303425E+04  0.00000000000E+00 0. -1.
         -2   -1    0    0    0  501 -0.00000000000E+00 -0.00000000000E+00 -0.23505046893E+02  0.23505046893E+02  0.00000000000E+00 0.  1.
         23    2    1    2    0    0  0.65756482713E+02  0.54458678035E+02  0.83016467829E+03  0.84385255674E+03  0.12499632717E+03 0.  0.
          5    1    3    3  502    0  0.18169707995E+02 -0.18451844582E+02  0.54548016355E+03  0.54611473858E+03  0.47000000000E+01 0. -1.
         -5    1    3    3    0  502  0.47586774717E+02  0.72910522617E+02  0.28468451473E+03  0.29773781816E+03  0.47000000000E+01 0. -1.
        -11    1    1    2    0    0 -0.45858200775E+02 -0.72090561518E+02  0.10528400885E+03  0.13559036160E+03  0.00000000000E+00 0.  1.
         11    1    1    2    0    0 -0.19898281938E+02  0.17631883483E+02  0.11567660850E+03  0.11869247109E+03  0.00000000000E+00 0. -1.
<mgrwt>
<rscale>  0 0.14454141E+03</rscale>
<asrwt>0</asrwt>
<pdfrwt beam="1">  1        2 0.16532771E+00 0.15137287E+03</pdfrwt>
<pdfrwt beam="2">  1       -2 0.36161619E-02 0.15137287E+03</pdfrwt>
<totfact> 0.73878961E+03</totfact>
</mgrwt>
</event>
<event>
 7    1  0.6008063E-006  0.1710965E+03  0.7546771E-02  0.1183235E+00
         -2   -1    0    0    0  501 -0.00000000000E+00  0.00000000000E+00  0.44133336907E+02  0.44133336907E+02  0.00000000000E+00 0.  1.
          2   -1    0    0  501    0  0.00000000000E+00 -0.00000000000E+00 -0.10149570649E+04  0.10149570649E+04  0.00000000000E+00 0. -1.
         23    2    1    2    0    0  0.82743258116E+02 -0.82476248580E+02 -0.85334370520E+03  0.87032722481E+03  0.12500088280E+03 0.  0.
          5    1    3    3  502    0  0.24077723835E+02  0.23494582570E+01 -0.23391271753E+02  0.33977909491E+02  0.47000000000E+01 0.  1.
         -5    1    3    3    0  502  0.58665534281E+02 -0.84825706837E+02 -0.82995243345E+03  0.83634931532E+03  0.47000000000E+01 0.  1.
        -11    1    1    2    0    0 -0.98659900996E+01  0.63624275765E+02 -0.85363721224E+02  0.10692217323E+03  0.00000000000E+00 0.  1.
         11    1    1    2    0    0 -0.72877268016E+02  0.18851972815E+02 -0.32116301587E+02  0.81841003783E+02  0.00000000000E+00 0. -1.
<mgrwt>
<rscale>  0 0.16493485E+03</rscale>
<asrwt>0</asrwt>
<pdfrwt beam="2">  1        2 0.15614724E+00 0.17109646E+03</pdfrwt>
<pdfrwt beam="1">  1       -2 0.67897441E-02 0.17109646E+03</pdfrwt>
<totfact> 0.31102148E+03</totfact>
</mgrwt>
</event>
<event>
 7    1  0.6627628E-006  0.2134669E+03  0.7546771E-02  0.1142807E+00
         -1   -1    0    0    0  501 -0.00000000000E+00  0.00000000000E+00  0.48484974517E+02  0.48484974517E+02  0.00000000000E+00 0.  1.
          1   -1    0    0  501    0  0.00000000000E+00 -0.00000000000E+00 -0.96600455388E+03  0.96600455388E+03  0.00000000000E+00 0. -1.
         23    2    1    2    0    0 -0.16696495104E+03  0.45448453342E+02 -0.64886587911E+03  0.68307763400E+03  0.12500107281E+03 0.  0.
          5    1    3    3  502    0 -0.18008960088E+03  0.17337898108E+02 -0.57539851463E+03  0.60319019197E+03  0.47000000000E+01 0.  1.
         -5    1    3    3    0  502  0.13124649840E+02  0.28110555233E+02 -0.73467364481E+02  0.79887442022E+02  0.47000000000E+01 0.  1.
        -11    1    1    2    0    0  0.13576929308E+02  0.21952340638E+02 -0.26941209631E+02  0.37310414703E+02  0.00000000000E+00 0.  1.
         11    1    1    2    0    0  0.15338802173E+03 -0.67400793980E+02 -0.24171249062E+03  0.29410147970E+03  0.00000000000E+00 0. -1.
<mgrwt>
<rscale>  0 0.20844025E+03</rscale>
<asrwt>0</asrwt>
<pdfrwt beam="2">  1        1 0.14861606E+00 0.21346692E+03</pdfrwt>
<pdfrwt beam="1">  1       -1 0.74592279E-02 0.21346692E+03</pdfrwt>
<totfact> 0.16253067E+03</totfact>
</mgrwt>
</event>
<event>
 7    1  0.6008063E-006  0.2106992E+03  0.7546771E-02  0.1147301E+00
          1   -1    0    0  501    0  0.00000000000E+00  0.00000000000E+00  0.35642769339E+03  0.35642769339E+03  0.00000000000E+00 0. -1.
         -1   -1    0    0    0  501 -0.00000000000E+00 -0.00000000000E+00 -0.13538880343E+03  0.13538880343E+03  0.00000000000E+00 0.  1.
         23    2    1    2    0    0  0.16054278878E+03 -0.54737125820E+02  0.22797684958E+03  0.31043131660E+03  0.12499607358E+03 0.  0.
          5    1    3    3  502    0  0.68382237538E+02  0.15715878234E+02  0.16267992013E+03  0.17722856896E+03  0.47000000000E+01 0. -1.
         -5    1    3    3    0  502  0.92160551238E+02 -0.70453004053E+02  0.65296929444E+02  0.13320274764E+03  0.47000000000E+01 0. -1.
        -11    1    1    2    0    0 -0.18381169054E+02 -0.77334693044E+01 -0.16394114034E+02  0.25815516617E+02  0.00000000000E+00 0.  1.
         11    1    1    2    0    0 -0.14216161972E+03  0.62470595124E+02  0.94561544131E+01  0.15556966360E+03  0.00000000000E+00 0. -1.
<mgrwt>
<rscale>  0 0.20291687E+03</rscale>
<asrwt>0</asrwt>
<pdfrwt beam="1">  1        1 0.54835029E-01 0.21069921E+03</pdfrwt>
<pdfrwt beam="2">  1       -1 0.20829047E-01 0.21069921E+03</pdfrwt>
<totfact> 0.13214654E+03</totfact>
</mgrwt>
</event>
<event>
 7    1  0.6008063E-006  0.2437944E+03  0.7546771E-02  0.1119972E+00
          2   -1    0    0  501    0  0.00000000000E+00  0.00000000000E+00  0.21506783464E+04  0.21506783464E+04  0.00000000000E+00 0. -1.
         -2   -1    0    0    0  501 -0.00000000000E+00 -0.00000000000E+00 -0.42345838664E+02  0.42345838664E+02  0.00000000000E+00 0.  1.
         23    2    1    2    0    0  0.27618667553E+02  0.20747829625E+03  0.17595755066E+04  0.17763844358E+04  0.12500266489E+03 0.  0.
          5    1    3    3  502    0  0.68576568061E+02  0.18350409114E+03  0.13899370615E+04  0.14036821656E+04  0.47000000000E+01 0. -1.
         -5    1    3    3    0  502 -0.40957900508E+02  0.23974205115E+02  0.36963844511E+03  0.37270227022E+03  0.47000000000E+01 0. -1.
        -11    1    1    2    0    0 -0.46485416408E+02 -0.19727465041E+03  0.28768211539E+03  0.35190791572E+03  0.00000000000E+00 0.  1.
         11    1    1    2    0    0  0.18866748855E+02 -0.10203645848E+02  0.61074885785E+02  0.64731833549E+02  0.00000000000E+00 0. -1.
<mgrwt>
<rscale>  0 0.23973063E+03</rscale>
<asrwt>0</asrwt>
<pdfrwt beam="1">  1        2 0.33087351E+00 0.24379438E+03</pdfrwt>
<pdfrwt beam="2">  1       -2 0.65147461E-02 0.24379438E+03</pdfrwt>
<totfact> 0.80966225E+02</totfact>
</mgrwt>
</event>
<event>
 7    1  0.6008063E-006  0.1486680E+03  0.7546771E-02  0.1212666E+00
          2   -1    0    0  501    0  0.00000000000E+00  0.00000000000E+00  0.10064857743E+04  0.10064857743E+04  0.00000000000E+00 0. -1.
         -2   -1    0    0    0  501 -0.00000000000E+00 -0.00000000000E+00 -0.18713883356E+02  0.18713883356E+02  0.00000000000E+00 0.  1.
         23    2    1    2    0    0  0.80194201495E+02  0.66511473109E+01  0.66289731341E+03  0.67936369635E+03  0.12500734408E+03 0.  0.
          5    1    3    3  502    0  0.10606781609E+03 -0.23413681988E+02  0.48310967086E+03  0.49519251428E+03  0.47000000000E+01 0. -1.
         -5    1    3    3    0  502 -0.25873614592E+02  0.30064829299E+02  0.17978764255E+03  0.18417118207E+03  0.47000000000E+01 0. -1.
        -11    1    1    2    0    0 -0.10189385821E+01 -0.27935476962E+02  0.36154539762E+02  0.45700983079E+02  0.00000000000E+00 0.  1.
         11    1    1    2    0    0 -0.79175262912E+02  0.21284329652E+02  0.28872003778E+03  0.30013497823E+03  0.00000000000E+00 0. -1.
<mgrwt>
<rscale>  0 0.14049394E+03</rscale>
<asrwt>0</asrwt>
<pdfrwt beam="1">  1        2 0.15484392E+00 0.14866803E+03</pdfrwt>
<pdfrwt beam="2">  1       -2 0.28790598E-02 0.14866803E+03</pdfrwt>
<totfact> 0.11337839E+04</totfact>
</mgrwt>
</event>
<event>
 7    1  0.6008063E-006  0.1453794E+03  0.7546771E-02  0.1216302E+00
          2   -1    0    0  501    0  0.00000000000E+00  0.00000000000E+00  0.40700280109E+03  0.40700280109E+03  0.00000000000E+00 0. -1.
         -2   -1    0    0    0  501 -0.00000000000E+00 -0.00000000000E+00 -0.48197673787E+02  0.48197673787E+02  0.00000000000E+00 0.  1.
         23    2    1    2    0    0 -0.50222340346E+01 -0.74064605705E+02  0.27465863032E+03  0.31076122867E+03  0.12499755751E+03 0.  0.
          5    1    3    3  502    0  0.27200090914E+02 -0.30196441329E+02  0.24539947122E+03  0.24878637521E+03  0.47000000000E+01 0.  1.
         -5    1    3    3    0  502 -0.32222324949E+02 -0.43868164376E+02  0.29259159104E+02  0.61974853467E+02  0.47000000000E+01 0.  1.
        -11    1    1    2    0    0  0.25800705085E+02 -0.10616138891E+02  0.89500783292E+01  0.29299875255E+02  0.00000000000E+00 0.  1.
         11    1    1    2    0    0 -0.20778471051E+02  0.84680744596E+02  0.75196418656E+02  0.11513937095E+03  0.00000000000E+00 0. -1.
<mgrwt>
<rscale>  0 0.13781342E+03</rscale>
<asrwt>0</asrwt>
<pdfrwt beam="1">  1        2 0.62615813E-01 0.14537943E+03</pdfrwt>
<pdfrwt beam="2">  1       -2 0.74150270E-02 0.14537943E+03</pdfrwt>
<totfact> 0.79891348E+03</totfact>
</mgrwt>
</event>
<event>
 7    1  0.6008063E-006  0.1667709E+03  0.7546771E-02  0.1188300E+00
         -1   -1    0    0    0  501 -0.00000000000E+00  0.00000000000E+00  0.51906270188E+02  0.51906270188E+02  0.00000000000E+00 0.  1.
          1   -1    0    0  501    0  0.00000000000E+00 -0.00000000000E+00 -0.48044776864E+03  0.48044776864E+03  0.00000000000E+00 0. -1.
         23    2    1    2    0    0 -0.98293944102E+02 -0.50252751295E+02 -0.28404966888E+03  0.32938843947E+03  0.12500196481E+03 0.  0.
          5    1    3    3  502    0 -0.10523449228E+03 -0.82278759725E+02 -0.22825016421E+03  0.26450769390E+03  0.47000000000E+01 0. -1.
         -5    1    3    3    0  502  0.69405481823E+01  0.32026008431E+02 -0.55799504670E+02  0.64880745576E+02  0.47000000000E+01 0. -1.
        -11    1    1    2    0    0  0.49860749217E+02 -0.22634291246E+02 -0.61739008628E+02  0.82523394495E+02  0.00000000000E+00 0. -1.
         11    1    1    2    0    0  0.48433194885E+02  0.72887042541E+02 -0.82752820941E+02  0.12044220486E+03  0.00000000000E+00 0.  1.
<mgrwt>
<rscale>  0 0.16035150E+03</rscale>
<asrwt>0</asrwt>
<pdfrwt beam="2">  1        1 0.73915046E-01 0.16677089E+03</pdfrwt>
<pdfrwt beam="1">  1       -1 0.79855795E-02 0.16677089E+03</pdfrwt>
<totfact> 0.40177093E+03</totfact>
</mgrwt>
</event>
<event>
 7    1  0.6008063E-006  0.1386392E+03  0.7546771E-02  0.1227050E+00
         -2   -1    0    0    0  501 -0.00000000000E+00  0.00000000000E+00  0.98704145606E+02  0.98704145606E+02  0.00000000000E+00 0.  1.
          2   -1    0    0  501    0  0.00000000000E+00 -0.00000000000E+00 -0.15810594917E+03  0.15810594917E+03  0.00000000000E+00 0. -1.
         23    2    1    2    0    0  0.42532288657E+02  0.42258370837E+02 -0.53368893491E+02  0.14855665250E+03  0.12500429883E+03 0.  0.
          5    1    3    3  502    0 -0.29832177389E+02 -0.25398476624E+02 -0.15486317600E+02  0.42390534974E+02  0.47000000000E+01 0. -1.
         -5    1    3    3    0  502  0.72364466046E+02  0.67656847461E+02 -0.37882575891E+02  0.10616611753E+03  0.47000000000E+01 0. -1.
        -11    1    1    2    0    0 -0.41295464941E+02 -0.61272034859E+00 -0.37701165070E+02  0.55920199378E+02  0.00000000000E+00 0. -1.
         11    1    1    2    0    0 -0.12368237163E+01 -0.41645650488E+02  0.31668254998E+02  0.52333242897E+02  0.00000000000E+00 0.  1.
<mgrwt>
<rscale>  0 0.13027354E+03</rscale>
<asrwt>0</asrwt>
<pdfrwt beam="2">  1        2 0.24323992E-01 0.13863924E+03</pdfrwt>
<pdfrwt beam="1">  1       -2 0.15185253E-01 0.13863924E+03</pdfrwt>
<totfact> 0.70672929E+03</totfact>
</mgrwt>
</event>
<event>
 7    1  0.6008063E-006  0.2005314E+03  0.7546771E-02  0.1153392E+00
         -2   -1    0    0    0  501 -0.00000000000E+00  0.00000000000E+00  0.35435039590E+02  0.35435039590E+02  0.00000000000E+00 0.  1.
          2   -1    0    0  501    0  0.00000000000E+00 -0.00000000000E+00 -0.13249933051E+04  0.13249933051E+04  0.00000000000E+00 0. -1.
         23    2    1    2    0    0 -0.15206681825E+03 -0.38241139166E+02 -0.98844725607E+03  0.10085835709E+04  0.12500455822E+03 0.  0.
          5    1    3    3  502    0 -0.88136285086E+02 -0.58645744479E+02 -0.82582597307E+03  0.83259711499E+03  0.47000000000E+01 0.  1.
         -5    1    3    3    0  502 -0.63930533165E+02  0.20404605313E+02 -0.16262128300E+03  0.17598645594E+03  0.47000000000E+01 0.  1.
        -11    1    1    2    0    0  0.31333517259E+02 -0.26623321244E+02 -0.42335356991E+02  0.59015870657E+02  0.00000000000E+00 0.  1.
         11    1    1    2    0    0  0.12073330099E+03  0.64864460410E+02 -0.25877565245E+03  0.29282890310E+03  0.00000000000E+00 0. -1.
<mgrwt>
<rscale>  0 0.19573090E+03</rscale>
<asrwt>0</asrwt>
<pdfrwt beam="2">  1        2 0.20384512E+00 0.20053140E+03</pdfrwt>
<pdfrwt beam="1">  1       -2 0.54515445E-02 0.20053140E+03</pdfrwt>
<totfact> 0.29069691E+03</totfact>
</mgrwt>
</event>
<event>
 7    1  0.6008063E-006  0.1359842E+03  0.7546771E-02  0.1223895E+00
          2   -1    0    0  501    0  0.00000000000E+00  0.00000000000E+00  0.10084382177E+03  0.10084382177E+03  0.00000000000E+00 0. -1.
         -2   -1    0    0    0  501 -0.00000000000E+00 -0.00000000000E+00 -0.28800221736E+03  0.28800221736E+03  0.00000000000E+00 0.  1.
         23    2    1    2    0    0  0.75037401614E+01  0.79310442543E+02  0.30328135136E+02  0.13932513030E+03  0.11020546148E+03 0.  0.
          5    1    3    3  502    0 -0.43792127709E+02  0.69163459107E+02  0.28446731550E+02  0.86790789032E+02  0.47000000000E+01 0. -1.
         -5    1    3    3    0  502  0.51295867870E+02  0.10146983436E+02  0.18814035857E+01  0.52534341272E+02  0.47000000000E+01 0.  1.
        -11    1    1    2    0    0  0.75450730454E+01 -0.59075099726E+02 -0.21621940638E+03  0.22427132503E+03  0.00000000000E+00 0.  1.
         11    1    1    2    0    0 -0.15048813207E+02 -0.20235342817E+02 -0.12671243514E+01  0.25249583798E+02  0.00000000000E+00 0. -1.
<mgrwt>
<rscale>  0 0.13242921E+03</rscale>
<asrwt>0</asrwt>
<pdfrwt beam="1">  1        2 0.15514434E-01 0.13598418E+03</pdfrwt>
<pdfrwt beam="2">  1       -2 0.44308033E-01 0.13598418E+03</pdfrwt>
<totfact> 0.17756872E+03</totfact>
</mgrwt>
</event>
<event>
 6    1  0.6008063E-006  0.1897421E+03  0.7546771E-02  0.1169290E+00
         -2   -1    0    0    0  501 -0.00000000000E+00  0.00000000000E+00  0.18734052472E+03  0.18734052472E+03  0.00000000000E+00 0.  1.
          2   -1    0    0  501    0  0.00000000000E+00 -0.00000000000E+00 -0.19256259049E+03  0.19256259049E+03  0.00000000000E+00 0. -1.
          5    1    1    2  502    0 -0.15338092339E+02 -0.80443460738E+01 -0.74133748973E+02  0.76274971761E+02  0.47000000000E+01 0. -1.
         -5    1    1    2    0  502  0.13228161137E+03  0.32050744246E+01 -0.14651067468E+02  0.13321201518E+03  0.47000000000E+01 0.  1.
        -11    1    1    2    0    0 -0.13116185225E+03  0.12040117940E+02  0.79932523435E+02  0.15407012763E+03  0.00000000000E+00 0. -1.
         11    1    1    2    0    0  0.14218333218E+02 -0.72008462909E+01  0.36302272345E+01  0.16346000629E+02  0.00000000000E+00 0.  1.
<mgrwt>
<rscale>  0 0.17847228E+03</rscale>
<asrwt>0</asrwt>
<pdfrwt beam="2">  1        2 0.29625014E-01 0.18974207E+03</pdfrwt>
<pdfrwt beam="1">  1       -2 0.28821619E-01 0.18974207E+03</pdfrwt>
<totfact> 0.19304262E+03</totfact>
</mgrwt>
</event>
<event>
 7    1  0.6008063E-006  0.2156084E+03  0.7546771E-02  0.1140856E+00
         -2   -1    0    0    0  501 -0.00000000000E+00  0.00000000000E+00  0.20078338809E+02  0.20078338809E+02  0.00000000000E+00 0.  1.
          2   -1    0    0  501    0  0.00000000000E+00 -0.00000000000E+00 -0.21992124038E+04  0.21992124038E+04  0.00000000000E+00 0. -1.
         23    2    1    2    0    0 -0.16611319859E+03 -0.57511330560E+02 -0.13414965349E+04  0.13587126000E+04  0.12484321571E+03 0.  0.
          5    1    3    3  502    0 -0.86654599792E+02 -0.93936214174E+02 -0.76850522769E+03  0.77907342850E+03  0.47000000000E+01 0. -1.
         -5    1    3    3    0  502 -0.79458598796E+02  0.36424883614E+02 -0.57299130719E+03  0.57963917154E+03  0.47000000000E+01 0. -1.
        -11    1    1    2    0    0  0.46773981219E+02 -0.19272734997E+02 -0.14552483416E+03  0.15406726126E+03  0.00000000000E+00 0.  1.
         11    1    1    2    0    0  0.11933921737E+03  0.76784065557E+02 -0.69211269595E+03  0.70651088132E+03  0.00000000000E+00 0. -1.
<mgrwt>
<rscale>  0 0.21089873E+03</rscale>
<asrwt>0</asrwt>
<pdfrwt beam="2">  1        2 0.33834035E+00 0.21560839E+03</pdfrwt>
<pdfrwt beam="1">  1       -2 0.30889754E-02 0.21560839E+03</pdfrwt>
<totfact> 0.23700567E+03</totfact>
</mgrwt>
</event>
<event>
 7    1  0.6008063E-006  0.1513959E+03  0.7546771E-02  0.1207804E+00
          2   -1    0    0  501    0  0.00000000000E+00  0.00000000000E+00  0.91068890931E+03  0.91068890931E+03  0.00000000000E+00 0. -1.
         -2   -1    0    0    0  501 -0.00000000000E+00 -0.00000000000E+00 -0.23169539460E+02  0.23169539460E+02  0.00000000000E+00 0.  1.
         23    2    1    2    0    0 -0.72123189825E+02  0.45758612250E+02  0.62808204972E+03  0.64607103451E+03  0.12500046136E+03 0.  0.
          5    1    3    3  502    0 -0.12144346469E+02 -0.41306423154E+02  0.23689062599E+03  0.24081728432E+03  0.47000000000E+01 0.  1.
         -5    1    3    3    0  502 -0.59978843356E+02  0.87065035404E+02  0.39119142374E+03  0.40525375019E+03  0.47000000000E+01 0.  1.
        -11    1    1    2    0    0  0.34897460452E+02 -0.23014548788E+00  0.20401267553E+03  0.20697598288E+03  0.00000000000E+00 0. -1.
         11    1    1    2    0    0  0.37225729373E+02 -0.45528466762E+02  0.55424644598E+02  0.80811431381E+02  0.00000000000E+00 0.  1.
<mgrwt>
<rscale>  0 0.14418684E+03</rscale>
<asrwt>0</asrwt>
<pdfrwt beam="1">  1        2 0.14010596E+00 0.15139591E+03</pdfrwt>
<pdfrwt beam="2">  1       -2 0.35645452E-02 0.15139591E+03</pdfrwt>
<totfact> 0.94774169E+03</totfact>
</mgrwt>
</event>
<event>
 7    1  0.6008063E-006  0.1454574E+03  0.7546771E-02  0.1215616E+00
          1   -1    0    0  501    0  0.00000000000E+00  0.00000000000E+00  0.20428607225E+03  0.20428607225E+03  0.00000000000E+00 0. -1.
         -1   -1    0    0    0  501 -0.00000000000E+00 -0.00000000000E+00 -0.86937490702E+02  0.86937490702E+02  0.00000000000E+00 0.  1.
         23    2    1    2    0    0 -0.66781245551E+02  0.32752260459E+02  0.82865808867E+02  0.16740552116E+03  0.12500168365E+03 0.  0.
          5    1    3    3  502    0 -0.17212572066E+02  0.57601696662E+02  0.93003595445E+02  0.11084217095E+03  0.47000000000E+01 0.  1.
         -5    1    3    3    0  502 -0.49568673485E+02 -0.24849436203E+02 -0.10137786578E+02  0.56563350213E+02  0.47000000000E+01 0.  1.
        -11    1    1    2    0    0  0.16244728422E+02  0.28871107832E+02  0.28840991024E+02  0.43923055816E+02  0.00000000000E+00 0. -1.
         11    1    1    2    0    0  0.50536517129E+02 -0.61623368291E+02  0.56417816565E+01  0.79894985971E+02  0.00000000000E+00 0.  1.
<mgrwt>
<rscale>  0 0.13831370E+03</rscale>
<asrwt>0</asrwt>
<pdfrwt beam="1">  1        1 0.31428626E-01 0.14545744E+03</pdfrwt>
<pdfrwt beam="2">  1       -1 0.13374999E-01 0.14545744E+03</pdfrwt>
<totfact> 0.52852152E+03</totfact>
</mgrwt>
</event>
<event>
 7    1  0.6008063E-006  0.1685849E+03  0.7546771E-02  0.1186216E+00
         -1   -1    0    0    0  501 -0.00000000000E+00  0.00000000000E+00  0.34562528909E+02  0.34562528909E+02  0.00000000000E+00 0.  1.
          1   -1    0    0  501    0  0.00000000000E+00 -0.00000000000E+00 -0.76668177954E+03  0.76668177954E+03  0.00000000000E+00 0. -1.
         23    2    1    2    0    0 -0.10322424987E+02 -0.11265128812E+03 -0.50155870700E+03  0.52913326293E+03  0.12499603274E+03 0.  0.
          5    1    3    3  502    0  0.33376870000E+02  0.12445161496E+02 -0.10117090174E+03  0.10736171969E+03  0.47000000000E+01 0.  1.
         -5    1    3    3    0  502 -0.43699294987E+02 -0.12509644961E+03 -0.40038780525E+03  0.42177154324E+03  0.47000000000E+01 0.  1.
        -11    1    1    2    0    0  0.82739409404E+01  0.52260533250E+02 -0.19488475562E+03  0.20193981630E+03  0.00000000000E+00 0. -1.
         11    1    1    2    0    0  0.20484840471E+01  0.60390754866E+02 -0.35675788016E+02  0.70171229223E+02  0.00000000000E+00 0.  1.
<mgrwt>
<rscale>  0 0.16221709E+03</rscale>
<asrwt>0</asrwt>
<pdfrwt beam="2">  1        1 0.11795104E+00 0.16858491E+03</pdfrwt>
<pdfrwt beam="1">  1       -1 0.53173123E-02 0.16858491E+03</pdfrwt>
<totfact> 0.38798832E+03</totfact>
</mgrwt>
</event>
<event>
 7    1  0.6008063E-006  0.1348850E+03  0.7546771E-02  0.1233787E+00
          2   -1    0    0  501    0  0.00000000000E+00  0.00000000000E+00  0.24447542931E+03  0.24447542931E+03  0.00000000000E+00 0. -1.
         -2   -1    0    0    0  501 -0.00000000000E+00 -0.00000000000E+00 -0.99626330177E+02  0.99626330177E+02  0.00000000000E+00 0.  1.
         23    2    1    2    0    0  0.36259219692E+02 -0.35426235000E+02  0.18952657426E+03  0.23262478745E+03  0.12499688095E+03 0.  0.
          5    1    3    3  502    0  0.61555267971E+02 -0.67421855008E+02  0.14982406427E+03  0.17551096200E+03  0.47000000000E+01 0.  1.
         -5    1    3    3    0  502 -0.25296048279E+02  0.31995620008E+02  0.39702509989E+02  0.57113825451E+02  0.47000000000E+01 0.  1.
        -11    1    1    2    0    0 -0.50218264639E+02  0.34995456321E+02 -0.63395981794E+02  0.88122679113E+02  0.00000000000E+00 0.  1.
         11    1    1    2    0    0  0.13959044947E+02  0.43077867947E+00  0.18718506667E+02  0.23354292924E+02  0.00000000000E+00 0. -1.
<mgrwt>
<rscale>  0 0.12582407E+03</rscale>
<asrwt>0</asrwt>
<pdfrwt beam="1">  1        2 0.37611605E-01 0.13488502E+03</pdfrwt>
<pdfrwt beam="2">  1       -2 0.15327128E-01 0.13488502E+03</pdfrwt>
<totfact> 0.43320108E+03</totfact>
</mgrwt>
</event>
<event>
 7    1  0.6008063E-006  0.1740185E+03  0.7546771E-02  0.1179846E+00
          2   -1    0    0  501    0  0.00000000000E+00  0.00000000000E+00  0.86175275947E+03  0.86175275947E+03  0.00000000000E+00 0. -1.
         -2   -1    0    0    0  501 -0.00000000000E+00 -0.00000000000E+00 -0.33571166441E+02  0.33571166441E+02  0.00000000000E+00 0.  1.
         23    2    1    2    0    0 -0.83474927209E+02  0.87692969284E+02  0.56992661752E+03  0.59590165838E+03  0.12499726707E+03 0.  0.
          5    1    3    3  502    0  0.22318608703E+02  0.36920520221E+02  0.27583807982E+03  0.27923105376E+03  0.47000000000E+01 0. -1.
         -5    1    3    3    0  502 -0.10579353591E+03  0.50772449063E+02  0.29408853770E+03  0.31667060462E+03  0.47000000000E+01 0. -1.
        -11    1    1    2    0    0  0.47199596410E+02 -0.70781701685E+02  0.80178918258E+02  0.11690384993E+03  0.00000000000E+00 0.  1.
         11    1    1    2    0    0  0.36275330799E+02 -0.16911267599E+02  0.17807605726E+03  0.18251841760E+03  0.00000000000E+00 0. -1.
<mgrwt>
<rscale>  0 0.16809835E+03</rscale>
<asrwt>0</asrwt>
<pdfrwt beam="1">  1        2 0.13257733E+00 0.17401850E+03</pdfrwt>
<pdfrwt beam="2">  1       -2 0.51647955E-02 0.17401850E+03</pdfrwt>
<totfact> 0.58844354E+03</totfact>
</mgrwt>
</event>
<event>
 7    1  0.6008063E-006  0.1534357E+03  0.7546771E-02  0.1205364E+00
          1   -1    0    0  501    0  0.00000000000E+00  0.00000000000E+00  0.47544085661E+03  0.47544085661E+03  0.00000000000E+00 0. -1.
         -1   -1    0    0    0  501 -0.00000000000E+00 -0.00000000000E+00 -0.49158143502E+02  0.49158143502E+02  0.00000000000E+00 0.  1.
         23    2    1    2    0    0 -0.12218937158E+02  0.88164758610E+02  0.33643929574E+03  0.36977548925E+03  0.12498074111E+03 0.  0.
          5    1    3    3  502    0  0.18423978530E+02 -0.79983548706E+01  0.23723096195E+01  0.20763779002E+02  0.47000000000E+01 0. -1.
         -5    1    3    3    0  502 -0.30642915688E+02  0.96163113481E+02  0.33406698612E+03  0.34901171025E+03  0.47000000000E+01 0. -1.
        -11    1    1    2    0    0  0.37180225631E+02 -0.52062387541E+02  0.11468225937E+02  0.64995242754E+02  0.00000000000E+00 0.  1.
         11    1    1    2    0    0 -0.24961288473E+02 -0.36102371069E+02  0.78375191425E+02  0.89828268101E+02  0.00000000000E+00 0. -1.
<mgrwt>
<rscale>  0 0.14608790E+03</rscale>
<asrwt>0</asrwt>
<pdfrwt beam="1">  1        1 0.73144744E-01 0.15343570E+03</pdfrwt>
<pdfrwt beam="2">  1       -1 0.75627916E-02 0.15343570E+03</pdfrwt>
<totfact> 0.44056747E+03</totfact>
</mgrwt>
</event>
<event>
 7    1  0.6008063E-006  0.1633682E+03  0.7546771E-02  0.1192165E+00
         -2   -1    0    0    0  501 -0.00000000000E+00  0.00000000000E+00  0.58390300627E+02  0.58390300627E+02  0.00000000000E+00 0.  1.
          2   -1    0    0  501    0  0.00000000000E+00 -0.00000000000E+00 -0.55844571162E+03  0.55844571162E+03  0.00000000000E+00 0. -1.
         23    2    1    2    0    0 -0.68170637895E+02  0.80091891040E+02 -0.43201360615E+03  0.46187110467E+03  0.12500885787E+03 0.  0.
          5    1    3    3  502    0 -0.20972487648E+02  0.54812617456E+02 -0.53474761809E+02  0.79535579592E+02  0.47000000000E+01 0.  1.
         -5    1    3    3    0  502 -0.47198150248E+02  0.25279273584E+02 -0.37853884434E+03  0.38233552508E+03  0.47000000000E+01 0.  1.
        -11    1    1    2    0    0  0.18560113658E+02  0.20012984650E+02 -0.16801059553E+02  0.32051099446E+02  0.00000000000E+00 0.  1.
         11    1    1    2    0    0  0.49610524237E+02 -0.10010487569E+03 -0.51240745290E+02  0.12291380813E+03  0.00000000000E+00 0. -1.
<mgrwt>
<rscale>  0 0.15696660E+03</rscale>
<asrwt>0</asrwt>
<pdfrwt beam="2">  1        2 0.85914724E-01 0.16336818E+03</pdfrwt>
<pdfrwt beam="1">  1       -2 0.89831232E-02 0.16336818E+03</pdfrwt>
<totfact> 0.42193422E+03</totfact>
</mgrwt>
</event>
<event>
 7    1  0.6008063E-006  0.1911050E+03  0.7546771E-02  0.1160375E+00
          2   -1    0    0  501    0  0.00000000000E+00  0.00000000000E+00  0.37322320459E+03  0.37322320459E+03  0.00000000000E+00 0. -1.
         -2   -1    0    0    0  501 -0.00000000000E+00 -0.00000000000E+00 -0.10184610004E+03  0.10184610004E+03  0.00000000000E+00 0.  1.
         23    2    1    2    0    0  0.41509973362E+02 -0.14622482182E+03  0.21532221707E+03  0.28789717304E+03  0.11582896304E+03 0.  0.
          5    1    3    3  502    0 -0.19345739728E+02  0.11978094279E+01  0.55725285028E-01  0.19944560621E+02  0.47000000000E+01 0. -1.
         -5    1    3    3    0  502  0.60855713090E+02 -0.14742263125E+03  0.21526649179E+03  0.26795261242E+03  0.47000000000E+01 0.  1.
        -11    1    1    2    0    0  0.75395974740E+00  0.12168902304E+03  0.64264008462E+02  0.13761776618E+03  0.00000000000E+00 0.  1.
         11    1    1    2    0    0 -0.42263933109E+02  0.24535798779E+02 -0.82091209882E+01  0.49554365408E+02  0.00000000000E+00 0. -1.
<mgrwt>
<rscale>  0 0.18789404E+03</rscale>
<asrwt>0</asrwt>
<pdfrwt beam="1">  1        2 0.57418954E-01 0.19110501E+03</pdfrwt>
<pdfrwt beam="2">  1       -2 0.15668631E-01 0.19110501E+03</pdfrwt>
<totfact> 0.27016303E+03</totfact>
</mgrwt>
</event>
<event>
 7    1  0.6008063E-006  0.1284231E+03  0.7546771E-02  0.1244779E+00
         -2   -1    0    0    0  501 -0.00000000000E+00  0.00000000000E+00  0.58242484702E+02  0.58242484702E+02  0.00000000000E+00 0.  1.
          2   -1    0    0  501    0  0.00000000000E+00 -0.00000000000E+00 -0.22804873108E+03  0.22804873108E+03  0.00000000000E+00 0. -1.
         23    2    1    2    0    0 -0.12248551505E+02 -0.26825000767E+02 -0.61268429991E+02  0.14228954062E+03  0.12499154042E+03 0.  0.
          5    1    3    3  502    0  0.11145842662E+02 -0.63840459762E+02  0.22287556822E+01  0.65014548088E+02  0.47000000000E+01 0.  1.
         -5    1    3    3    0  502 -0.23394394167E+02  0.37015458995E+02 -0.63497185673E+02  0.77274992536E+02  0.47000000000E+01 0.  1.
        -11    1    1    2    0    0  0.25905157640E+02  0.45619477320E+02 -0.26572336531E+02  0.58807337740E+02  0.00000000000E+00 0.  1.
         11    1    1    2    0    0 -0.13656606135E+02 -0.18794476553E+02 -0.81965479856E+02  0.85194337418E+02  0.00000000000E+00 0. -1.
<mgrwt>
<rscale>  0 0.11898625E+03</rscale>
<asrwt>0</asrwt>
<pdfrwt beam="2">  1        2 0.35084420E-01 0.12842310E+03</pdfrwt>
<pdfrwt beam="1">  1       -2 0.89603823E-02 0.12842310E+03</pdfrwt>
<totfact> 0.10939447E+04</totfact>
</mgrwt>
</event>
<event>
 7    1  0.6008063E-006  0.2679294E+03  0.7546771E-02  0.1104590E+00
         -1   -1    0    0    0  501 -0.00000000000E+00  0.00000000000E+00  0.18332550370E+03  0.18332550370E+03  0.00000000000E+00 0.  1.
          1   -1    0    0  501    0  0.00000000000E+00 -0.00000000000E+00 -0.71610686877E+03  0.71610686877E+03  0.00000000000E+00 0. -1.
         23    2    1    2    0    0  0.16673610774E+03 -0.16840484233E+03 -0.58228093377E+03  0.64096589043E+03  0.12500026530E+03 0.  0.
          5    1    3    3  502    0  0.36883702126E+02 -0.12172341895E+03 -0.32390390233E+03  0.34801268102E+03  0.47000000000E+01 0.  1.
         -5    1    3    3    0  502  0.12985240562E+03 -0.46681423376E+02 -0.25837703144E+03  0.29295320942E+03  0.47000000000E+01 0.  1.
        -11    1    1    2    0    0 -0.15590435805E+03  0.10818433218E+03  0.20852077745E+02  0.19090528473E+03  0.00000000000E+00 0. -1.
         11    1    1    2    0    0 -0.10831749689E+02  0.60220510144E+02  0.28647490950E+02  0.67561197304E+02  0.00000000000E+00 0.  1.
<mgrwt>
<rscale>  0 0.26429435E+03</rscale>
<asrwt>0</asrwt>
<pdfrwt beam="2">  1        1 0.11017029E+00 0.26792944E+03</pdfrwt>
<pdfrwt beam="1">  1       -1 0.28203924E-01 0.26792944E+03</pdfrwt>
<totfact> 0.31210468E+02</totfact>
</mgrwt>
</event>
<event>
 7    1  0.6008063E-006  0.1512231E+03  0.7546771E-02  0.1208000E+00
         -2   -1    0    0    0  501 -0.00000000000E+00  0.00000000000E+00  0.15571052216E+02  0.15571052216E+02  0.00000000000E+00 0.  1.
          2   -1    0    0  501    0  0.00000000000E+00 -0.00000000000E+00 -0.13756960636E+04  0.13756960636E+04  0.00000000000E+00 0. -1.
         23    2    1    2    0    0  0.58015692814E+02 -0.62276324686E+02 -0.97150155587E+03  0.98320073532E+03  0.12499700650E+03 0.  0.
          5    1    3    3  502    0  0.88099145199E+02 -0.12363261818E+02 -0.68712537295E+03  0.69287637987E+03  0.47000000000E+01 0.  1.
         -5    1    3    3    0  502 -0.30083452386E+02 -0.49913062868E+02 -0.28437618293E+03  0.29032435545E+03  0.47000000000E+01 0.  1.
        -11    1    1    2    0    0  0.59601946645E+01  0.46529622223E+02 -0.82232619910E+02  0.94671714054E+02  0.00000000000E+00 0.  1.
         11    1    1    2    0    0 -0.63975887478E+02  0.15746702463E+02 -0.30639083563E+03  0.31339466647E+03  0.00000000000E+00 0. -1.
<mgrwt>
<rscale>  0 0.14403561E+03</rscale>
<asrwt>0</asrwt>
<pdfrwt beam="2">  1        2 0.21164554E+00 0.15122306E+03</pdfrwt>
<pdfrwt beam="1">  1       -2 0.23955466E-02 0.15122306E+03</pdfrwt>
<totfact> 0.92304577E+03</totfact>
</mgrwt>
</event>
<event>
 7    1  0.6008063E-006  0.1564182E+03  0.7546771E-02  0.1201053E+00
         -1   -1    0    0    0  501 -0.00000000000E+00  0.00000000000E+00  0.15023256233E+03  0.15023256233E+03  0.00000000000E+00 0.  1.
          1   -1    0    0  501    0  0.00000000000E+00 -0.00000000000E+00 -0.14786980799E+03  0.14786980799E+03  0.00000000000E+00 0. -1.
         23    2    1    2    0    0 -0.57821584751E+02 -0.74146647113E+02 -0.38767627835E+02  0.16115076720E+03  0.12500231942E+03 0.  0.
          5    1    3    3  502    0 -0.89636146419E+02 -0.19283530766E+02 -0.31878807302E+02  0.97184575209E+02  0.47000000000E+01 0.  1.
         -5    1    3    3    0  502  0.31814561668E+02 -0.54863116347E+02 -0.68888205332E+01  0.63966191991E+02  0.47000000000E+01 0.  1.
        -11    1    1    2    0    0  0.55715629643E+02 -0.41534252788E+00  0.22344307798E+02  0.60030592092E+02  0.00000000000E+00 0.  1.
         11    1    1    2    0    0  0.21059551076E+01  0.74561989641E+02  0.18786074375E+02  0.76921011022E+02  0.00000000000E+00 0. -1.
<mgrwt>
<rscale>  0 0.14952906E+03</rscale>
<asrwt>0</asrwt>
<pdfrwt beam="2">  1        1 0.22749201E-01 0.15641816E+03</pdfrwt>
<pdfrwt beam="1">  1       -1 0.23112702E-01 0.15641816E+03</pdfrwt>
<totfact> 0.33307210E+03</totfact>
</mgrwt>
</event>
<event>
 7    1  0.6008063E-006  0.1308733E+03  0.7546771E-02  0.1239513E+00
         -2   -1    0    0    0  501 -0.00000000000E+00  0.00000000000E+00  0.12984679112E+02  0.12984679112E+02  0.00000000000E+00 0.  1.
          2   -1    0    0  501    0  0.00000000000E+00 -0.00000000000E+00 -0.10382356771E+04  0.10382356771E+04  0.00000000000E+00 0. -1.
         23    2    1    2    0    0 -0.64033851801E+01 -0.38813939745E+02 -0.64731344097E+03  0.66041086669E+03  0.12482105880E+03 0.  0.
          5    1    3    3  502    0  0.32895422901E+02 -0.57823055375E+01 -0.54307559645E+03  0.54412198757E+03  0.47000000000E+01 0.  1.
         -5    1    3    3    0  502 -0.39298808081E+02 -0.33031634207E+02 -0.10423784453E+03  0.11628887912E+03  0.47000000000E+01 0.  1.
        -11    1    1    2    0    0 -0.40018276745E+02  0.32332771785E+02 -0.22722295561E+03  0.23297455261E+03  0.00000000000E+00 0. -1.
         11    1    1    2    0    0  0.46421661925E+02  0.64811679597E+01 -0.15071460137E+03  0.15783493688E+03  0.00000000000E+00 0.  1.
<mgrwt>
<rscale>  0 0.12219873E+03</rscale>
<asrwt>0</asrwt>
<pdfrwt beam="2">  1        2 0.15972854E+00 0.13087331E+03</pdfrwt>
<pdfrwt beam="1">  1       -2 0.19976433E-02 0.13087331E+03</pdfrwt>
<totfact> 0.18367719E+04</totfact>
</mgrwt>
</event>
<event>
 7    1  0.6008063E-006  0.1629294E+03  0.7546771E-02  0.1192824E+00
          1   -1    0    0  501    0  0.00000000000E+00  0.00000000000E+00  0.32465152340E+03  0.32465152340E+03  0.00000000000E+00 0. -1.
         -1   -1    0    0    0  501 -0.00000000000E+00 -0.00000000000E+00 -0.73438609456E+02  0.73438609456E+02  0.00000000000E+00 0.  1.
         23    2    1    2    0    0  0.61524380048E+02  0.84495531440E+02  0.17897708675E+03  0.24203054955E+03  0.12498497973E+03 0.  0.
          5    1    3    3  502    0 -0.38539841158E+02  0.21125293125E+02  0.53949899977E+02  0.69744383814E+02  0.47000000000E+01 0. -1.
         -5    1    3    3    0  502  0.10006422121E+03  0.63370238315E+02  0.12502718678E+03  0.17228616573E+03  0.47000000000E+01 0. -1.
        -11    1    1    2    0    0 -0.11609595937E+02 -0.60774956638E+02  0.79040143937E+02  0.10037789809E+03  0.00000000000E+00 0. -1.
         11    1    1    2    0    0 -0.49914784111E+02 -0.23720574802E+02 -0.68043167476E+01  0.55681685214E+02  0.00000000000E+00 0.  1.
<mgrwt>
<rscale>  0 0.15639852E+03</rscale>
<asrwt>0</asrwt>
<pdfrwt beam="1">  1        1 0.49946388E-01 0.16292940E+03</pdfrwt>
<pdfrwt beam="2">  1       -1 0.11298248E-01 0.16292940E+03</pdfrwt>
<totfact> 0.38842117E+03</totfact>
</mgrwt>
</event>
<event>
 7    1  0.6008063E-006  0.1712539E+03  0.7546771E-02  0.1182853E+00
         -2   -1    0    0    0  501 -0.00000000000E+00  0.00000000000E+00  0.22158594993E+03  0.22158594993E+03  0.00000000000E+00 0.  1.
          2   -1    0    0  501    0  0.00000000000E+00 -0.00000000000E+00 -0.12101308567E+03  0.12101308567E+03  0.00000000000E+00 0. -1.
         23    2    1    2    0    0 -0.65289576268E+02 -0.97164802640E+02  0.16981130079E+02  0.17209374567E+03  0.12499668347E+03 0.  0.
          5    1    3    3  502    0 -0.73118901932E+02 -0.10931607461E+03  0.45940285284E+02  0.13938786820E+03  0.47000000000E+01 0. -1.
         -5    1    3    3    0  502  0.78293256639E+01  0.12151271974E+02 -0.28959155205E+02  0.32705877470E+02  0.47000000000E+01 0. -1.
        -11    1    1    2    0    0  0.28420374412E+02  0.36523727216E+02  0.87970528685E+02  0.99400775895E+02  0.00000000000E+00 0. -1.
         11    1    1    2    0    0  0.36869201856E+02  0.60641075424E+02 -0.43787945025E+01  0.71104514029E+02  0.00000000000E+00 0.  1.
<mgrwt>
<rscale>  0 0.16528797E+03</rscale>
<asrwt>0</asrwt>
<pdfrwt beam="2">  1        2 0.18617398E-01 0.17125390E+03</pdfrwt>
<pdfrwt beam="1">  1       -2 0.34090146E-01 0.17125390E+03</pdfrwt>
<totfact> 0.23823620E+03</totfact>
</mgrwt>
</event>
<event>
 7    1  0.6008063E-006  0.1616663E+03  0.7546771E-02  0.1194357E+00
         -3   -1    0    0    0  501 -0.00000000000E+00  0.00000000000E+00  0.16254159600E+03  0.16254159600E+03  0.00000000000E+00 0.  1.
          3   -1    0    0  501    0  0.00000000000E+00 -0.00000000000E+00 -0.15404138541E+03  0.15404138541E+03  0.00000000000E+00 0. -1.
         23    2    1    2    0    0 -0.97398322396E+02  0.32018637640E+02 -0.47737491211E+02  0.16856710350E+03  0.12499749579E+03 0.  0.
          5    1    3    3  502    0 -0.70901372382E+02  0.44683809342E+02 -0.85954096470E+02  0.12014093442E+03  0.47000000000E+01 0.  1.
         -5    1    3    3    0  502 -0.26496950014E+02 -0.12665171701E+02  0.38216605259E+02  0.48426169080E+02  0.47000000000E+01 0.  1.
        -11    1    1    2    0    0  0.26228253246E+01 -0.39563414138E+02  0.48613559429E+01  0.39947161758E+02  0.00000000000E+00 0. -1.
         11    1    1    2    0    0  0.94775497072E+02  0.75447764974E+01  0.51376345861E+02  0.10806871616E+03  0.00000000000E+00 0.  1.
<mgrwt>
<rscale>  0 0.15508804E+03</rscale>
<asrwt>0</asrwt>
<pdfrwt beam="2">  1        3 0.23698675E-01 0.16166632E+03</pdfrwt>
<pdfrwt beam="1">  1       -3 0.25006399E-01 0.16166632E+03</pdfrwt>
<totfact> 0.59033092E+02</totfact>
</mgrwt>
</event>
<event>
 7    1  0.6008063E-006  0.1319296E+03  0.7546771E-02  0.1238263E+00
          2   -1    0    0  501    0  0.00000000000E+00  0.00000000000E+00  0.37766576720E+03  0.37766576720E+03  0.00000000000E+00 0. -1.
         -2   -1    0    0    0  501 -0.00000000000E+00 -0.00000000000E+00 -0.44898797461E+02  0.44898797461E+02  0.00000000000E+00 0.  1.
         23    2    1    2    0    0  0.40768026185E+02  0.16246822228E+02  0.28072837342E+03  0.31018354165E+03  0.12441631195E+03 0.  0.
          5    1    3    3  502    0 -0.44134323870E+02  0.13465925411E+02  0.86835309430E+02  0.98446079934E+02  0.47000000000E+01 0. -1.
         -5    1    3    3    0  502  0.84902350055E+02  0.27808968170E+01  0.19389306399E+03  0.21173746172E+03  0.47000000000E+01 0. -1.
        -11    1    1    2    0    0 -0.59748409551E+02  0.49969552779E+01  0.87970362440E+01  0.60598926167E+02  0.00000000000E+00 0.  1.
         11    1    1    2    0    0  0.18980383365E+02 -0.21243777506E+02  0.43241560071E+02  0.51782096836E+02  0.00000000000E+00 0. -1.
<mgrwt>
<rscale>  0 0.12297835E+03</rscale>
<asrwt>0</asrwt>
<pdfrwt beam="1">  1        2 0.58102424E-01 0.13192956E+03</pdfrwt>
<pdfrwt beam="2">  1       -2 0.69075075E-02 0.13192956E+03</pdfrwt>
<totfact> 0.95846987E+03</totfact>
</mgrwt>
</event>
<event>
 7    1  0.6008063E-006  0.1324686E+03  0.7546771E-02  0.1236873E+00
          1   -1    0    0  501    0  0.00000000000E+00  0.00000000000E+00  0.23261226989E+02  0.23261226989E+02  0.00000000000E+00 0. -1.
         -1   -1    0    0    0  501 -0.00000000000E+00 -0.00000000000E+00 -0.62060548096E+03  0.62060548096E+03  0.00000000000E+00 0.  1.
         23    2    1    2    0    0  0.14983606864E+02 -0.41224739153E+02 -0.26209850663E+03  0.29367254795E+03  0.12499580253E+03 0.  0.
          5    1    3    3  502    0  0.21349692184E+02  0.28021546316E+02 -0.19037090130E+03  0.19365997645E+03  0.47000000000E+01 0.  1.
         -5    1    3    3    0  502 -0.63660853196E+01 -0.69246285469E+02 -0.71727605327E+02  0.10001257151E+03  0.47000000000E+01 0.  1.
        -11    1    1    2    0    0 -0.12671807217E+02 -0.26572749845E+02 -0.15131901501E+03  0.15415618715E+03  0.00000000000E+00 0.  1.
         11    1    1    2    0    0 -0.23117996471E+01  0.67797488998E+02 -0.18392673233E+03  0.19603797285E+03  0.00000000000E+00 0. -1.
<mgrwt>
<rscale>  0 0.12385266E+03</rscale>
<asrwt>0</asrwt>
<pdfrwt beam="1">  1        1 0.35786501E-02 0.13246863E+03</pdfrwt>
<pdfrwt beam="2">  1       -1 0.95477772E-01 0.13246863E+03</pdfrwt>
<totfact> 0.28597846E+03</totfact>
</mgrwt>
</event>
<event>
 7    1  0.6008063E-006  0.1466884E+03  0.7546771E-02  0.1214583E+00
          2   -1    0    0  501    0  0.00000000000E+00  0.00000000000E+00  0.21423902969E+03  0.21423902969E+03  0.00000000000E+00 0. -1.
         -2   -1    0    0    0  501 -0.00000000000E+00 -0.00000000000E+00 -0.82115361860E+02  0.82115361860E+02  0.00000000000E+00 0.  1.
         23    2    1    2    0    0 -0.41476430758E+02  0.64585413907E+02  0.76409977979E+02  0.16539640322E+03  0.12500366181E+03 0.  0.
          5    1    3    3  502    0 -0.38316229971E+02  0.12437074261E+02 -0.27496887192E+02  0.48999827557E+02  0.47000000000E+01 0. -1.
         -5    1    3    3    0  502 -0.31602007871E+01  0.52148339646E+02  0.10390686517E+03  0.11639657567E+03  0.47000000000E+01 0. -1.
        -11    1    1    2    0    0  0.62533223263E+02 -0.30754039572E+02  0.10141540829E+02  0.70420634846E+02  0.00000000000E+00 0.  1.
         11    1    1    2    0    0 -0.21056792505E+02 -0.33831374335E+02  0.45572149018E+02  0.60537353477E+02  0.00000000000E+00 0. -1.
<mgrwt>
<rscale>  0 0.13907236E+03</rscale>
<asrwt>0</asrwt>
<pdfrwt beam="1">  1        2 0.32959850E-01 0.14668840E+03</pdfrwt>
<pdfrwt beam="2">  1       -2 0.12633133E-01 0.14668840E+03</pdfrwt>
<totfact> 0.68636894E+03</totfact>
</mgrwt>
</event>
<event>
 7    1  0.6008063E-006  0.2445966E+03  0.7546771E-02  0.1119438E+00
         -1   -1    0    0    0  501 -0.00000000000E+00  0.00000000000E+00  0.60990899760E+02  0.60990899760E+02  0.00000000000E+00 0.  1.
          1   -1    0    0  501    0  0.00000000000E+00 -0.00000000000E+00 -0.22035661550E+04  0.22035661550E+04  0.00000000000E+00 0. -1.
         23    2    1    2    0    0 -0.14797483738E+03 -0.14934992158E+03 -0.19507535362E+04  0.19660281947E+04  0.12500220709E+03 0.  0.
          5    1    3    3  502    0 -0.62095922585E+02 -0.53683366507E+02 -0.13048786944E+04  0.13074663684E+04  0.47000000000E+01 0.  1.
         -5    1    3    3    0  502 -0.85878914790E+02 -0.95666555076E+02 -0.64587484181E+03  0.65856182629E+03  0.47000000000E+01 0.  1.
        -11    1    1    2    0    0  0.90427104871E+02  0.14449593439E+03 -0.15192372797E+03  0.22833518229E+03  0.00000000000E+00 0.  1.
         11    1    1    2    0    0  0.57547732504E+02  0.48539871970E+01 -0.39897991068E+02  0.70193677773E+02  0.00000000000E+00 0. -1.
<mgrwt>
<rscale>  0 0.24053338E+03</rscale>
<asrwt>0</asrwt>
<pdfrwt beam="2">  1        1 0.33901009E+00 0.24459661E+03</pdfrwt>
<pdfrwt beam="1">  1       -1 0.93832177E-02 0.24459661E+03</pdfrwt>
<totfact> 0.16878402E+02</totfact>
</mgrwt>
</event>
<event>
 7    1  0.6008063E-006  0.1226283E+03  0.7546771E-02  0.1247239E+00
          1   -1    0    0  501    0  0.00000000000E+00  0.00000000000E+00  0.70160070878E+03  0.70160070878E+03  0.00000000000E+00 0. -1.
         -1   -1    0    0    0  501 -0.00000000000E+00 -0.00000000000E+00 -0.19506802006E+02  0.19506802006E+02  0.00000000000E+00 0.  1.
         23    2    1    2    0    0 -0.90804967164E+01  0.45772855471E+02  0.46062509089E+03  0.47666883609E+03  0.11340235983E+03 0.  0.
          5    1    3    3  502    0  0.30982582776E+02  0.30541394849E+02  0.39936976142E+03  0.40175987053E+03  0.47000000000E+01 0. -1.
         -5    1    3    3    0  502 -0.40063079493E+02  0.15231460622E+02  0.61255329479E+02  0.74908965556E+02  0.47000000000E+01 0.  1.
        -11    1    1    2    0    0  0.35466645778E+02 -0.54596804338E+02  0.96488743529E+02  0.11639919087E+03  0.00000000000E+00 0. -1.
         11    1    1    2    0    0 -0.26386149061E+02  0.88239488664E+01  0.12498007235E+03  0.12803948383E+03  0.00000000000E+00 0.  1.
<mgrwt>
<rscale>  0 0.11752367E+03</rscale>
<asrwt>0</asrwt>
<pdfrwt beam="1">  1        1 0.10793855E+00 0.12262832E+03</pdfrwt>
<pdfrwt beam="2">  1       -1 0.30010470E-02 0.12262832E+03</pdfrwt>
<totfact> 0.10076530E+04</totfact>
</mgrwt>
</event>
<event>
 7    1  0.6008063E-006  0.1908566E+03  0.7546771E-02  0.1162442E+00
          1   -1    0    0  501    0  0.00000000000E+00  0.00000000000E+00  0.79941121515E+02  0.79941121515E+02  0.00000000000E+00 0. -1.
         -1   -1    0    0    0  501 -0.00000000000E+00 -0.00000000000E+00 -0.44582075599E+03  0.44582075599E+03  0.00000000000E+00 0.  1.
         23    2    1    2    0    0 -0.14301870088E+03  0.18577857052E+02 -0.11698992367E+03  0.22385906962E+03  0.12500702076E+03 0.  0.
          5    1    3    3  502    0 -0.57567185506E+02 -0.45584861743E+02 -0.13078870262E+02  0.74733575550E+02  0.47000000000E+01 0.  1.
         -5    1    3    3    0  502 -0.85451515371E+02  0.64162718795E+02 -0.10391105341E+03  0.14912549407E+03  0.47000000000E+01 0.  1.
        -11    1    1    2    0    0  0.26077503495E+02 -0.17095210726E+02 -0.13538022774E+03  0.13892475835E+03  0.00000000000E+00 0.  1.
         11    1    1    2    0    0  0.11694119738E+03 -0.14826463263E+01 -0.11350948307E+03  0.16297804954E+03  0.00000000000E+00 0. -1.
<mgrwt>
<rscale>  0 0.18565292E+03</rscale>
<asrwt>0</asrwt>
<pdfrwt beam="1">  1        1 0.12298634E-01 0.19085660E+03</pdfrwt>
<pdfrwt beam="2">  1       -1 0.68587808E-01 0.19085660E+03</pdfrwt>
<totfact> 0.10767084E+03</totfact>
</mgrwt>
</event>
<event>
 7    1  0.6008063E-006  0.1952994E+03  0.7546771E-02  0.1157770E+00
         -2   -1    0    0    0  501 -0.00000000000E+00  0.00000000000E+00  0.22556344746E+02  0.22556344746E+02  0.00000000000E+00 0. -1.
          2   -1    0    0  501    0  0.00000000000E+00 -0.00000000000E+00 -0.15698738965E+04  0.15698738965E+04  0.00000000000E+00 0.  1.
         23    2    1    2    0    0  0.14998796936E+03  0.45290448563E+01 -0.91376068993E+03  0.93439844363E+03  0.12499979920E+03 0.  0.
          5    1    3    3  502    0 -0.15926015951E+02  0.18810519350E+02 -0.70313209817E+02  0.74655951518E+02  0.47000000000E+01 0. -1.
         -5    1    3    3    0  502  0.16591398531E+03 -0.14281474494E+02 -0.84344748011E+03  0.85974249211E+03  0.47000000000E+01 0. -1.
        -11    1    1    2    0    0 -0.93522263204E+02 -0.24725520156E+02 -0.52659002214E+03  0.53540154696E+03  0.00000000000E+00 0.  1.
         11    1    1    2    0    0 -0.56465706155E+02  0.20196475300E+02 -0.10696683970E+03  0.12263025068E+03  0.00000000000E+00 0. -1.
<mgrwt>
<rscale>  0 0.19076838E+03</rscale>
<asrwt>0</asrwt>
<pdfrwt beam="2">  1        2 0.24151903E+00 0.19529939E+03</pdfrwt>
<pdfrwt beam="1">  1       -2 0.34702074E-02 0.19529939E+03</pdfrwt>
<totfact> 0.42455785E+03</totfact>
</mgrwt>
</event>
<event>
 7    1  0.6008063E-006  0.3042228E+03  0.7546771E-02  0.1084510E+00
          1   -1    0    0  501    0  0.00000000000E+00  0.00000000000E+00  0.76100667399E+03  0.76100667399E+03  0.00000000000E+00 0. -1.
         -1   -1    0    0    0  501 -0.00000000000E+00 -0.00000000000E+00 -0.11797185927E+03  0.11797185927E+03  0.00000000000E+00 0.  1.
         23    2    1    2    0    0 -0.43874672476E+02  0.27389636423E+03  0.36029820928E+03  0.47155731460E+03  0.12492916440E+03 0.  0.
          5    1    3    3  502    0 -0.56032419074E+02  0.45930351598E+02  0.11858809741E+03  0.13904839457E+03  0.47000000000E+01 0.  1.
         -5    1    3    3    0  502  0.12157746598E+02  0.22796601264E+03  0.24171011187E+03  0.33250892003E+03  0.47000000000E+01 0.  1.
        -11    1    1    2    0    0  0.15847358660E+02 -0.17330240542E+03  0.11094802491E+03  0.20638393041E+03  0.00000000000E+00 0.  1.
         11    1    1    2    0    0  0.28027313817E+02 -0.10059395881E+03  0.17178858052E+03  0.20103728825E+03  0.00000000000E+00 0. -1.
<mgrwt>
<rscale>  0 0.30146643E+03</rscale>
<asrwt>0</asrwt>
<pdfrwt beam="1">  1        1 0.11707795E+00 0.30422278E+03</pdfrwt>
<pdfrwt beam="2">  1       -1 0.18149517E-01 0.30422278E+03</pdfrwt>
<totfact> 0.58941786E+02</totfact>
</mgrwt>
</event>
<event>
 7    1  0.6008063E-006  0.1342702E+03  0.7546771E-02  0.1235462E+00
          2   -1    0    0  501    0  0.00000000000E+00  0.00000000000E+00  0.42440040439E+03  0.42440040439E+03  0.00000000000E+00 0. -1.
         -2   -1    0    0    0  501 -0.00000000000E+00 -0.00000000000E+00 -0.32383230890E+02  0.32383230890E+02  0.00000000000E+00 0.  1.
         23    2    1    2    0    0  0.15345923924E+02 -0.46565223472E+02  0.21663896605E+03  0.25487436360E+03  0.12499872876E+03 0.  0.
          5    1    3    3  502    0  0.29970112584E+02  0.35504319949E+02  0.49568726229E+02  0.68102224658E+02  0.47000000000E+01 0. -1.
         -5    1    3    3    0  502 -0.14624188660E+02 -0.82069543421E+02  0.16707023982E+03  0.18677213894E+03  0.47000000000E+01 0. -1.
        -11    1    1    2    0    0 -0.12502741010E+02 -0.25125156442E+02  0.43228397538E+02  0.51539173186E+02  0.00000000000E+00 0.  1.
         11    1    1    2    0    0 -0.28431829134E+01  0.71690379914E+02  0.13214980992E+03  0.15037009850E+03  0.00000000000E+00 0. -1.
<mgrwt>
<rscale>  0 0.12474933E+03</rscale>
<asrwt>0</asrwt>
<pdfrwt beam="1">  1        2 0.65292366E-01 0.13427025E+03</pdfrwt>
<pdfrwt beam="2">  1       -2 0.49820358E-02 0.13427025E+03</pdfrwt>
<totfact> 0.13894943E+04</totfact>
</mgrwt>
</event>
<event>
 7    1  0.6008063E-006  0.1358438E+03  0.7546771E-02  0.1231187E+00
         -2   -1    0    0    0  501 -0.00000000000E+00  0.00000000000E+00  0.26123321868E+03  0.26123321868E+03  0.00000000000E+00 0.  1.
          2   -1    0    0  501    0  0.00000000000E+00 -0.00000000000E+00 -0.56253213050E+02  0.56253213050E+02  0.00000000000E+00 0. -1.
         23    2    1    2    0    0  0.25644867173E+02 -0.46590538612E+02  0.10010207788E+03  0.16874226218E+03  0.12500075020E+03 0.  0.
          5    1    3    3  502    0  0.21284623255E+02  0.21738704965E+01  0.11522265144E+03  0.11728644553E+03  0.47000000000E+01 0. -1.
         -5    1    3    3    0  502  0.43602439181E+01 -0.48764409109E+02 -0.15120573558E+02  0.51455816653E+02  0.47000000000E+01 0. -1.
        -11    1    1    2    0    0 -0.32352342222E+02 -0.17918578576E+02  0.20385201793E+02  0.42229207399E+02  0.00000000000E+00 0. -1.
         11    1    1    2    0    0  0.67074750492E+01  0.64509117188E+02  0.84492725951E+02  0.10651496214E+03  0.00000000000E+00 0.  1.
<mgrwt>
<rscale>  0 0.12751740E+03</rscale>
<asrwt>0</asrwt>
<pdfrwt beam="2">  1        2 0.86543406E-02 0.13584375E+03</pdfrwt>
<pdfrwt beam="1">  1       -2 0.40189725E-01 0.13584375E+03</pdfrwt>
<totfact> 0.43271173E+03</totfact>
</mgrwt>
</event>
<event>
 7    1  0.6008063E-006  0.1303202E+03  0.7546771E-02  0.1240655E+00
         -2   -1    0    0    0  501 -0.00000000000E+00  0.00000000000E+00  0.36427999039E+02  0.36427999039E+02  0.00000000000E+00 0.  1.
          2   -1    0    0  501    0  0.00000000000E+00 -0.00000000000E+00 -0.36375486291E+03  0.36375486291E+03  0.00000000000E+00 0. -1.
         23    2    1    2    0    0 -0.33155767885E+02  0.16085633911E+02 -0.20851098279E+03  0.24588654109E+03  0.12500123431E+03 0.  0.
          5    1    3    3  502    0  0.26266398840E+02  0.53509691841E+02 -0.90029868443E+02  0.10807718557E+03  0.47000000000E+01 0.  1.
         -5    1    3    3    0  502 -0.59422166724E+02 -0.37424057929E+02 -0.11848111435E+03  0.13780935552E+03  0.47000000000E+01 0.  1.
        -11    1    1    2    0    0  0.36543223986E+02 -0.33615435007E+02 -0.19429432846E+02  0.53318923008E+02  0.00000000000E+00 0.  1.
         11    1    1    2    0    0 -0.33874561015E+01  0.17529801095E+02 -0.99386448237E+02  0.10097739786E+03  0.00000000000E+00 0. -1.
<mgrwt>
<rscale>  0 0.12149268E+03</rscale>
<asrwt>0</asrwt>
<pdfrwt beam="2">  1        2 0.55962290E-01 0.13032023E+03</pdfrwt>
<pdfrwt beam="1">  1       -2 0.56043073E-02 0.13032023E+03</pdfrwt>
<totfact> 0.13688187E+04</totfact>
</mgrwt>
</event>
<event>
 7    1  0.6008063E-006  0.1197295E+03  0.7546771E-02  0.1255188E+00
         -2   -1    0    0    0  501 -0.00000000000E+00  0.00000000000E+00  0.16528947148E+03  0.16528947148E+03  0.00000000000E+00 0.  1.
          2   -1    0    0  501    0  0.00000000000E+00 -0.00000000000E+00 -0.11807208096E+03  0.11807208096E+03  0.00000000000E+00 0. -1.
         23    2    1    2    0    0  0.87257705176E+01  0.17728700224E+02 -0.65152091941E+02  0.13630832256E+03  0.11808775479E+03 0.  0.
          5    1    3    3  502    0 -0.46700468463E+02  0.19059665551E+02 -0.62707690140E+02  0.80613578312E+02  0.47000000000E+01 0. -1.
         -5    1    3    3    0  502  0.55426238981E+02 -0.13309653269E+01 -0.24444018016E+01  0.55694744244E+02  0.47000000000E+01 0.  1.
        -11    1    1    2    0    0  0.35297839977E+02  0.83693896576E+00  0.84881306366E+02  0.91931899493E+02  0.00000000000E+00 0.  1.
         11    1    1    2    0    0 -0.44023610495E+02 -0.18565639190E+02  0.27488176092E+02  0.55121330394E+02  0.00000000000E+00 0. -1.
<mgrwt>
<rscale>  0 0.11295820E+03</rscale>
<asrwt>0</asrwt>
<pdfrwt beam="2">  1        2 0.18164936E-01 0.11972954E+03</pdfrwt>
<pdfrwt beam="1">  1       -2 0.25429149E-01 0.11972954E+03</pdfrwt>
<totfact> 0.40683781E+03</totfact>
</mgrwt>
</event>
<event>
 7    1  0.6008063E-006  0.1462690E+03  0.7546771E-02  0.1215400E+00
          1   -1    0    0  501    0  0.00000000000E+00  0.00000000000E+00  0.12706300289E+03  0.12706300289E+03  0.00000000000E+00 0. -1.
         -1   -1    0    0    0  501 -0.00000000000E+00 -0.00000000000E+00 -0.14081839831E+03  0.14081839831E+03  0.00000000000E+00 0.  1.
         23    2    1    2    0    0  0.45466717965E+02 -0.60799730872E+02  0.14675050742E+02  0.14700332857E+03  0.12502316497E+03 0.  0.
          5    1    3    3  502    0  0.51961747655E+01 -0.88112729563E+02 -0.15233980148E+02  0.89694021509E+02  0.47000000000E+01 0.  1.
         -5    1    3    3    0  502  0.40270543199E+02  0.27312998692E+02  0.29909030890E+02  0.57309307061E+02  0.47000000000E+01 0.  1.
        -11    1    1    2    0    0 -0.40409612139E+02  0.77092440646E+02 -0.44222710218E+02  0.97631087554E+02  0.00000000000E+00 0.  1.
         11    1    1    2    0    0 -0.50571058258E+01 -0.16292709775E+02  0.15792264052E+02  0.23246985074E+02  0.00000000000E+00 0. -1.
<mgrwt>
<rscale>  0 0.13847194E+03</rscale>
<asrwt>0</asrwt>
<pdfrwt beam="1">  1        1 0.19548154E-01 0.14626900E+03</pdfrwt>
<pdfrwt beam="2">  1       -1 0.21664369E-01 0.14626900E+03</pdfrwt>
<totfact> 0.44712390E+03</totfact>
</mgrwt>
</event>
<event>
 7    1  0.6008063E-006  0.1521108E+03  0.7546771E-02  0.1206543E+00
          1   -1    0    0  501    0  0.00000000000E+00  0.00000000000E+00  0.63351890814E+03  0.63351890814E+03  0.00000000000E+00 0. -1.
         -1   -1    0    0    0  501 -0.00000000000E+00 -0.00000000000E+00 -0.37378549824E+02  0.37378549824E+02  0.00000000000E+00 0.  1.
         23    2    1    2    0    0  0.77161121376E+02  0.39477029964E+02  0.46354456756E+03  0.48786399202E+03  0.12500173616E+03 0.  0.
          5    1    3    3  502    0  0.50812773795E+02 -0.38673897879E+02  0.26885513949E+03  0.27637435552E+03  0.47000000000E+01 0. -1.
         -5    1    3    3    0  502  0.26348347581E+02  0.78150927843E+02  0.19468942807E+03  0.21148963650E+03  0.47000000000E+01 0. -1.
        -11    1    1    2    0    0 -0.24356065392E+02 -0.21074360666E+02 -0.67308887644E+01  0.32903669437E+02  0.00000000000E+00 0.  1.
         11    1    1    2    0    0 -0.52805055984E+02 -0.18402669298E+02  0.13932667952E+03  0.15012979651E+03  0.00000000000E+00 0. -1.
<mgrwt>
<rscale>  0 0.14516492E+03</rscale>
<asrwt>0</asrwt>
<pdfrwt beam="1">  1        1 0.97464439E-01 0.15211084E+03</pdfrwt>
<pdfrwt beam="2">  1       -1 0.57505466E-02 0.15211084E+03</pdfrwt>
<totfact> 0.45231768E+03</totfact>
</mgrwt>
</event>
<event>
 7    1  0.6008063E-006  0.1261956E+03  0.7546771E-02  0.1248267E+00
          1   -1    0    0  501    0  0.00000000000E+00  0.00000000000E+00  0.87002418424E+02  0.87002418424E+02  0.00000000000E+00 0. -1.
         -1   -1    0    0    0  501 -0.00000000000E+00 -0.00000000000E+00 -0.15485310355E+03  0.15485310355E+03  0.00000000000E+00 0.  1.
         23    2    1    2    0    0 -0.16844470279E+02 -0.73032662869E+00  0.92438549295E+00  0.12619902356E+03  0.12506426150E+03 0.  0.
          5    1    3    3  502    0 -0.43437944708E+02 -0.25314094804E+01 -0.51267278780E+02  0.67406876117E+02  0.47000000000E+01 0. -1.
         -5    1    3    3    0  502  0.26593474429E+02  0.18010828518E+01  0.52191664273E+02  0.58792147445E+02  0.47000000000E+01 0. -1.
        -11    1    1    2    0    0 -0.32261729275E+02 -0.13396734173E+02 -0.72458027507E+01  0.35676229058E+02  0.00000000000E+00 0.  1.
         11    1    1    2    0    0  0.49106199554E+02  0.14127060802E+02 -0.61529267868E+02  0.79980269354E+02  0.00000000000E+00 0. -1.
<mgrwt>
<rscale>  0 0.11691972E+03</rscale>
<asrwt>0</asrwt>
<pdfrwt beam="1">  1        1 0.13384988E-01 0.12619564E+03</pdfrwt>
<pdfrwt beam="2">  1       -1 0.23823554E-01 0.12619564E+03</pdfrwt>
<totfact> 0.61815734E+03</totfact>
</mgrwt>
</event>
<event>
 7    1  0.6008063E-006  0.1792544E+03  0.7546771E-02  0.1174109E+00
         -2   -1    0    0    0  501 -0.00000000000E+00  0.00000000000E+00  0.25984104815E+02  0.25984104815E+02  0.00000000000E+00 0.  1.
          2   -1    0    0  501    0  0.00000000000E+00 -0.00000000000E+00 -0.15020486326E+04  0.15020486326E+04  0.00000000000E+00 0. -1.
         23    2    1    2    0    0  0.72278029773E+02  0.10621749513E+03 -0.11702536675E+04  0.11839027783E+04  0.12500348927E+03 0.  0.
          5    1    3    3  502    0 -0.90166592258E+01  0.44907814560E+02 -0.11709082983E+03  0.12581877596E+03  0.47000000000E+01 0.  1.
         -5    1    3    3    0  502  0.81294688999E+02  0.61309680567E+02 -0.10531628376E+04  0.10580840023E+04  0.47000000000E+01 0.  1.
        -11    1    1    2    0    0 -0.36698548371E+02 -0.20601119289E+02 -0.26262080840E+02  0.49607322630E+02  0.00000000000E+00 0.  1.
         11    1    1    2    0    0 -0.35579481402E+02 -0.85616375839E+02 -0.27954877949E+03  0.29452263652E+03  0.00000000000E+00 0. -1.
<mgrwt>
<rscale>  0 0.17363550E+03</rscale>
<asrwt>0</asrwt>
<pdfrwt beam="2">  1        2 0.23108437E+00 0.17925441E+03</pdfrwt>
<pdfrwt beam="1">  1       -2 0.39975552E-02 0.17925441E+03</pdfrwt>
<totfact> 0.37271645E+03</totfact>
</mgrwt>
</event>
<event>
 7    1  0.6008063E-006  0.1452607E+03  0.7546771E-02  0.1212052E+00
          1   -1    0    0  501    0  0.00000000000E+00  0.00000000000E+00  0.21285244799E+03  0.21285244799E+03  0.00000000000E+00 0. -1.
         -1   -1    0    0    0  501 -0.00000000000E+00 -0.00000000000E+00 -0.97753410671E+02  0.97753410671E+02  0.00000000000E+00 0.  1.
         23    2    1    2    0    0  0.20048456615E+02  0.63525137061E+02  0.10288254418E+03  0.16483238726E+03  0.11021576267E+03 0.  0.
          5    1    3    3  502    0  0.50822910220E+02  0.46941221758E+02  0.10884676042E+03  0.12905872213E+03  0.47000000000E+01 0. -1.
         -5    1    3    3    0  502 -0.30774453605E+02  0.16583915303E+02 -0.59642162437E+01  0.35773665130E+02  0.47000000000E+01 0.  1.
        -11    1    1    2    0    0 -0.44002202333E+02 -0.94869407758E+02  0.34903501853E+00  0.10457781870E+03  0.00000000000E+00 0.  1.
         11    1    1    2    0    0  0.23953745718E+02  0.31344270697E+02  0.11867458126E+02  0.41195652705E+02  0.00000000000E+00 0. -1.
<mgrwt>
<rscale>  0 0.14095326E+03</rscale>
<asrwt>0</asrwt>
<pdfrwt beam="1">  1        1 0.32746530E-01 0.14526067E+03</pdfrwt>
<pdfrwt beam="2">  1       -1 0.15038986E-01 0.14526067E+03</pdfrwt>
<totfact> 0.41805075E+03</totfact>
</mgrwt>
</event>
<event>
 7    1  0.6008063E-006  0.1448574E+03  0.7546771E-02  0.1215640E+00
         -2   -1    0    0    0  501 -0.00000000000E+00  0.00000000000E+00  0.35859672592E+03  0.35859672592E+03  0.00000000000E+00 0.  1.
          2   -1    0    0  501    0  0.00000000000E+00 -0.00000000000E+00 -0.55588694919E+02  0.55588694919E+02  0.00000000000E+00 0. -1.
         23    2    1    2    0    0  0.64233014182E+02  0.35100270479E+02  0.93001755198E+02  0.17214237536E+03  0.12500304727E+03 0.  0.
          5    1    3    3  502    0 -0.20484195989E+02  0.30279736584E+02  0.77413387584E+02  0.85740231573E+02  0.47000000000E+01 0.  1.
         -5    1    3    3    0  502  0.84717210171E+02  0.48205338948E+01  0.15588367613E+02  0.86402143787E+02  0.47000000000E+01 0.  1.
        -11    1    1    2    0    0 -0.34116170783E+02 -0.14161737604E+02  0.20087519934E+03  0.20424327071E+03  0.00000000000E+00 0.  1.
         11    1    1    2    0    0 -0.30116843399E+02 -0.20938532874E+02  0.91310764649E+01  0.37799774770E+02  0.00000000000E+00 0. -1.
<mgrwt>
<rscale>  0 0.13829608E+03</rscale>
<asrwt>0</asrwt>
<pdfrwt beam="2">  1        2 0.85521071E-02 0.14485742E+03</pdfrwt>
<pdfrwt beam="1">  1       -2 0.55168726E-01 0.14485742E+03</pdfrwt>
<totfact> 0.23729277E+03</totfact>
</mgrwt>
</event>
<event>
 7    1  0.6008063E-006  0.1275072E+03  0.7546771E-02  0.1246014E+00
          1   -1    0    0  501    0  0.00000000000E+00  0.00000000000E+00  0.12778282030E+03  0.12778282030E+03  0.00000000000E+00 0. -1.
         -1   -1    0    0    0  501 -0.00000000000E+00 -0.00000000000E+00 -0.98417401899E+02  0.98417401899E+02  0.00000000000E+00 0.  1.
         23    2    1    2    0    0 -0.61139636582E+01 -0.24369387962E+02  0.33362366730E+02  0.13179962976E+03  0.12500738886E+03 0.  0.
          5    1    3    3  502    0 -0.36126519035E+02 -0.11951015338E+02 -0.37546948071E+02  0.53663912033E+02  0.47000000000E+01 0.  1.
         -5    1    3    3    0  502  0.30012555377E+02 -0.12418372624E+02  0.70909314801E+02  0.78135717726E+02  0.47000000000E+01 0.  1.
        -11    1    1    2    0    0 -0.11550802474E+02  0.16832147057E+02  0.40821001939E+02  0.45640951038E+02  0.00000000000E+00 0. -1.
         11    1    1    2    0    0  0.17664766132E+02  0.75372409042E+01 -0.44817950271E+02  0.48759641400E+02  0.00000000000E+00 0.  1.
<mgrwt>
<rscale>  0 0.11824898E+03</rscale>
<asrwt>0</asrwt>
<pdfrwt beam="1">  1        1 0.19658895E-01 0.12750723E+03</pdfrwt>
<pdfrwt beam="2">  1       -1 0.15141139E-01 0.12750723E+03</pdfrwt>
<totfact> 0.77809964E+03</totfact>
</mgrwt>
</event>
<event>
 7    1  0.6008063E-006  0.1292107E+03  0.7546771E-02  0.1242978E+00
         -2   -1    0    0    0  501 -0.00000000000E+00  0.00000000000E+00  0.10552647857E+03  0.10552647857E+03  0.00000000000E+00 0. -1.
          2   -1    0    0  501    0  0.00000000000E+00 -0.00000000000E+00 -0.17253373038E+03  0.17253373038E+03  0.00000000000E+00 0.  1.
         23    2    1    2    0    0 -0.23452165942E+02  0.22820812157E+02 -0.11266769335E+03  0.17143343751E+03  0.12499848326E+03 0.  0.
          5    1    3    3  502    0  0.48047906769E+02 -0.42947808827E+01 -0.23474054382E+02  0.53853205260E+02  0.47000000000E+01 0. -1.
         -5    1    3    3    0  502 -0.71500072711E+02  0.27115593040E+02 -0.89193638965E+02  0.11758023225E+03  0.47000000000E+01 0. -1.
        -11    1    1    2    0    0 -0.19346737956E+02 -0.27034648555E+02 -0.11426988962E+02  0.35153158731E+02  0.00000000000E+00 0.  1.
         11    1    1    2    0    0  0.42798903898E+02  0.42138363982E+01  0.57087430501E+02  0.71473612706E+02  0.00000000000E+00 0. -1.
<mgrwt>
<rscale>  0 0.12007239E+03</rscale>
<asrwt>0</asrwt>
<pdfrwt beam="2">  1        2 0.26543650E-01 0.12921074E+03</pdfrwt>
<pdfrwt beam="1">  1       -2 0.16234843E-01 0.12921074E+03</pdfrwt>
<totfact> 0.57248768E+03</totfact>
</mgrwt>
</event>
<event>
 7    1  0.6008063E-006  0.2598655E+03  0.7546771E-02  0.1108110E+00
         -2   -1    0    0    0  501 -0.00000000000E+00  0.00000000000E+00  0.22751718223E+03  0.22751718223E+03  0.00000000000E+00 0.  1.
          2   -1    0    0  501    0  0.00000000000E+00 -0.00000000000E+00 -0.31042856594E+03  0.31042856594E+03  0.00000000000E+00 0. -1.
         23    2    1    2    0    0 -0.18826469052E+03 -0.11605559293E+03 -0.10967417897E+03  0.27670575792E+03  0.12500062634E+03 0.  0.
          5    1    3    3  502    0 -0.16574956035E+03 -0.92808003098E+02 -0.32357348131E+02  0.19275717931E+03  0.47000000000E+01 0.  1.
         -5    1    3    3    0  502 -0.22515130165E+02 -0.23247589829E+02 -0.77316830841E+02  0.83948578609E+02  0.47000000000E+01 0.  1.
        -11    1    1    2    0    0  0.11871301528E+03  0.11447603662E+03 -0.34562878539E+02  0.16849966033E+03  0.00000000000E+00 0. -1.
         11    1    1    2    0    0  0.69551675243E+02  0.15795563029E+01  0.61325673809E+02  0.92740329929E+02  0.00000000000E+00 0.  1.
<mgrwt>
<rscale>  0 0.25839740E+03</rscale>
<asrwt>0</asrwt>
<pdfrwt beam="2">  1        2 0.47758240E-01 0.25986551E+03</pdfrwt>
<pdfrwt beam="1">  1       -2 0.35002644E-01 0.25986551E+03</pdfrwt>
<totfact> 0.81063507E+02</totfact>
</mgrwt>
</event>
<event>
 7    1  0.6008063E-006  0.1742590E+03  0.7546771E-02  0.1178307E+00
          3   -1    0    0  501    0  0.00000000000E+00  0.00000000000E+00  0.45855387955E+02  0.45855387955E+02  0.00000000000E+00 0. -1.
         -3   -1    0    0    0  501 -0.00000000000E+00 -0.00000000000E+00 -0.60616880299E+03  0.60616880299E+03  0.00000000000E+00 0.  1.
         23    2    1    2    0    0  0.12630776667E+03  0.30265370129E+02 -0.25180277198E+03  0.30622021552E+03  0.11617460940E+03 0.  0.
          5    1    3    3  502    0  0.32727786539E+01 -0.12186318958E+02  0.79565841147E+01  0.15640162424E+02  0.47000000000E+01 0. -1.
         -5    1    3    3    0  502  0.12303498802E+03  0.42451689087E+02 -0.25975935609E+03  0.29058005310E+03  0.47000000000E+01 0.  1.
        -11    1    1    2    0    0 -0.13591209606E+03 -0.24093975143E+02 -0.24440010601E+03  0.28068492890E+03  0.00000000000E+00 0. -1.
         11    1    1    2    0    0  0.96043293936E+01 -0.61713949859E+01 -0.64110537053E+02  0.65119046526E+02  0.00000000000E+00 0.  1.
<mgrwt>
<rscale>  0 0.16956006E+03</rscale>
<asrwt>0</asrwt>
<pdfrwt beam="1">  1        3 0.70546755E-02 0.17425896E+03</pdfrwt>
<pdfrwt beam="2">  1       -3 0.93256733E-01 0.17425896E+03</pdfrwt>
<totfact> 0.33386279E+02</totfact>
</mgrwt>
</event>
<event>
 6    1  0.6008063E-006  0.2596783E+03  0.7546771E-02  0.1149850E+00
          2   -1    0    0  501    0  0.00000000000E+00  0.00000000000E+00  0.94885453291E+03  0.94885453291E+03  0.00000000000E+00 0. -1.
         -2   -1    0    0    0  501 -0.00000000000E+00 -0.00000000000E+00 -0.69219305117E+02  0.69219305117E+02  0.00000000000E+00 0.  1.
          5    1    1    2  502    0  0.88554112626E+02 -0.64416126655E+02  0.55861765356E+03  0.56926886540E+03  0.47000000000E+01 0. -1.
         -5    1    1    2    0  502 -0.10612117892E+03  0.83276560852E+02  0.33067519994E+03  0.35716224333E+03  0.47000000000E+01 0.  1.
        -11    1    1    2    0    0  0.24668637589E+02  0.57693297990E+01  0.33165155732E+02  0.41734331210E+02  0.00000000000E+00 0.  1.
         11    1    1    2    0    0 -0.71015712941E+01 -0.24629763996E+02 -0.42822781445E+02  0.49908398091E+02  0.00000000000E+00 0. -1.
<mgrwt>
<rscale>  0 0.19986879E+03</rscale>
<asrwt>0</asrwt>
<pdfrwt beam="1">  1        2 0.14597761E+00 0.25967830E+03</pdfrwt>
<pdfrwt beam="2">  1       -2 0.10649125E-01 0.25967830E+03</pdfrwt>
<totfact> 0.16945676E+03</totfact>
</mgrwt>
</event>
<event>
 7    1  0.6008063E-006  0.1514174E+03  0.7546771E-02  0.1207797E+00
         -1   -1    0    0    0  501 -0.00000000000E+00  0.00000000000E+00  0.44026978649E+03  0.44026978649E+03  0.00000000000E+00 0.  1.
          1   -1    0    0  501    0  0.00000000000E+00 -0.00000000000E+00 -0.44011802508E+02  0.44011802508E+02  0.00000000000E+00 0. -1.
         23    2    1    2    0    0 -0.82950730822E+02  0.20500176454E+02  0.18509052529E+03  0.23913535257E+03  0.12500453320E+03 0.  0.
          5    1    3    3  502    0  0.28558391809E+02 -0.13228118062E+02  0.22131061635E+02  0.38761304664E+02  0.47000000000E+01 0. -1.
         -5    1    3    3    0  502 -0.11150912263E+03  0.33728294517E+02  0.16295946366E+03  0.20037404791E+03  0.47000000000E+01 0. -1.
        -11    1    1    2    0    0  0.47425765649E+02  0.32327437031E+02  0.12908380660E+03  0.14126887682E+03  0.00000000000E+00 0.  1.
         11    1    1    2    0    0  0.35524965174E+02 -0.52827613486E+02  0.82083652096E+02  0.10387735961E+03  0.00000000000E+00 0. -1.
<mgrwt>
<rscale>  0 0.14419183E+03</rscale>
<asrwt>0</asrwt>
<pdfrwt beam="2">  1        1 0.67710468E-02 0.15141735E+03</pdfrwt>
<pdfrwt beam="1">  1       -1 0.67733810E-01 0.15141735E+03</pdfrwt>
<totfact> 0.24365986E+03</totfact>
</mgrwt>
</event>
<event>
 7    1  0.6008063E-006  0.1409855E+03  0.7546771E-02  0.1217342E+00
         -2   -1    0    0    0  501 -0.00000000000E+00  0.00000000000E+00  0.18533503368E+02  0.18533503368E+02  0.00000000000E+00 0.  1.
          2   -1    0    0  501    0  0.00000000000E+00 -0.00000000000E+00 -0.99535865052E+03  0.99535865052E+03  0.00000000000E+00 0. -1.
         23    2    1    2    0    0 -0.20073039174E+02  0.62049084502E+02 -0.60911999552E+03  0.62522321658E+03  0.12499554319E+03 0.  0.
          5    1    3    3  502    0  0.43075217494E+01 -0.23235353311E+02 -0.35884650466E+03  0.35965447348E+03  0.47000000000E+01 0. -1.
         -5    1    3    3    0  502 -0.24380560923E+02  0.85284437812E+02 -0.25027349086E+03  0.26556874310E+03  0.47000000000E+01 0. -1.
        -11    1    1    2    0    0 -0.43855465447E+02 -0.36495669570E+02 -0.16307613422E+03  0.17276880881E+03  0.00000000000E+00 0.  1.
         11    1    1    2    0    0  0.63928504620E+02 -0.25553414932E+02 -0.20462901741E+03  0.21590012850E+03  0.00000000000E+00 0. -1.
<mgrwt>
<rscale>  0 0.13705868E+03</rscale>
<asrwt>0</asrwt>
<pdfrwt beam="2">  1        2 0.15313214E+00 0.14098547E+03</pdfrwt>
<pdfrwt beam="1">  1       -2 0.28513074E-02 0.14098547E+03</pdfrwt>
<totfact> 0.11642887E+04</totfact>
</mgrwt>
</event>
<event>
 7    1  0.6008063E-006  0.1264936E+03  0.7546771E-02  0.1246619E+00
          3   -1    0    0  501    0  0.00000000000E+00  0.00000000000E+00  0.48714209425E+03  0.48714209425E+03  0.00000000000E+00 0. -1.
         -3   -1    0    0    0  501 -0.00000000000E+00 -0.00000000000E+00 -0.25284561646E+02  0.25284561646E+02  0.00000000000E+00 0.  1.
         23    2    1    2    0    0 -0.19261034405E+02 -0.19602649146E+01  0.26798914896E+03  0.29634241493E+03  0.12500325132E+03 0.  0.
          5    1    3    3  502    0  0.25900201230E+02 -0.15417269812E+02  0.72739210728E+01  0.31361003810E+02  0.47000000000E+01 0. -1.
         -5    1    3    3    0  502 -0.45161235635E+02  0.13457004897E+02  0.26071522789E+03  0.26498141112E+03  0.47000000000E+01 0. -1.
        -11    1    1    2    0    0  0.15759702962E+02 -0.33925470276E+02  0.29034725236E+02  0.47353152381E+02  0.00000000000E+00 0.  1.
         11    1    1    2    0    0  0.35013314429E+01  0.35885735191E+02  0.16483365841E+03  0.16873108859E+03  0.00000000000E+00 0. -1.
<mgrwt>
<rscale>  0 0.11788977E+03</rscale>
<asrwt>0</asrwt>
<pdfrwt beam="1">  1        3 0.74944931E-01 0.12649365E+03</pdfrwt>
<pdfrwt beam="2">  1       -3 0.38899329E-02 0.12649365E+03</pdfrwt>
<totfact> 0.13279677E+03</totfact>
</mgrwt>
</event>
<event>
 7    1  0.6008063E-006  0.2318852E+03  0.7546771E-02  0.1128197E+00
         -3   -1    0    0    0  501 -0.00000000000E+00  0.00000000000E+00  0.91518168328E+03  0.91518168328E+03  0.00000000000E+00 0.  1.
          3   -1    0    0  501    0  0.00000000000E+00 -0.00000000000E+00 -0.83830264468E+02  0.83830264468E+02  0.00000000000E+00 0. -1.
         23    2    1    2    0    0 -0.88347922498E+02 -0.17418541290E+03  0.13146583177E+03  0.26655962415E+03  0.12499941931E+03 0.  0.
          5    1    3    3  502    0  0.22170922823E+02 -0.10366072780E+02 -0.61927141101E+01  0.25679661052E+02  0.47000000000E+01 0. -1.
         -5    1    3    3    0  502 -0.11051884532E+03 -0.16381934012E+03  0.13765854588E+03  0.24087996310E+03  0.47000000000E+01 0. -1.
        -11    1    1    2    0    0  0.48945578990E+02  0.72574700098E+02  0.16716129916E+03  0.18869461236E+03  0.00000000000E+00 0. -1.
         11    1    1    2    0    0  0.39402343508E+02  0.10161071280E+03  0.53272428788E+03  0.54375771123E+03  0.00000000000E+00 0.  1.
<mgrwt>
<rscale>  0 0.22780188E+03</rscale>
<asrwt>0</asrwt>
<pdfrwt beam="2">  1        3 0.12896964E-01 0.23188525E+03</pdfrwt>
<pdfrwt beam="1">  1       -3 0.14079718E+00 0.23188525E+03</pdfrwt>
<totfact> 0.47594107E+01</totfact>
</mgrwt>
</event>
<event>
 7    1  0.6008063E-006  0.1311395E+03  0.7546771E-02  0.1239474E+00
         -1   -1    0    0    0  501 -0.00000000000E+00  0.00000000000E+00  0.20723763615E+02  0.20723763615E+02  0.00000000000E+00 0.  1.
          1   -1    0    0  501    0  0.00000000000E+00 -0.00000000000E+00 -0.77167610599E+03  0.77167610599E+03  0.00000000000E+00 0. -1.
         23    2    1    2    0    0  0.47029710358E+01  0.39391981385E+02 -0.58211689419E+03  0.59670566840E+03  0.12499492016E+03 0.  0.
          5    1    3    3  502    0  0.45410289372E+02  0.13026503098E+02 -0.86269233261E+02  0.98469562663E+02  0.47000000000E+01 0.  1.
         -5    1    3    3    0  502 -0.40707318336E+02  0.26365478287E+02 -0.49584766093E+03  0.49823610574E+03  0.47000000000E+01 0.  1.
        -11    1    1    2    0    0  0.13818528898E+02 -0.28304935776E+01  0.65725852649E+01  0.15561565213E+02  0.00000000000E+00 0.  1.
         11    1    1    2    0    0 -0.18521499934E+02 -0.36561487807E+02 -0.17540803345E+03  0.18013263599E+03  0.00000000000E+00 0. -1.
<mgrwt>
<rscale>  0 0.12222289E+03</rscale>
<asrwt>0</asrwt>
<pdfrwt beam="2">  1        1 0.11871939E+00 0.13113953E+03</pdfrwt>
<pdfrwt beam="1">  1       -1 0.31882716E-02 0.13113953E+03</pdfrwt>
<totfact> 0.80702886E+03</totfact>
</mgrwt>
</event>
<event>
 7    1  0.6008063E-006  0.1118589E+03  0.7546771E-02  0.1266713E+00
         -2   -1    0    0    0  501 -0.00000000000E+00  0.00000000000E+00  0.14767014494E+03  0.14767014494E+03  0.00000000000E+00 0.  1.
          2   -1    0    0  501    0  0.00000000000E+00 -0.00000000000E+00 -0.32874930231E+03  0.32874930231E+03  0.00000000000E+00 0. -1.
         23    2    1    2    0    0  0.29870634354E+00  0.14470299392E+02 -0.30313041588E+03  0.32311058777E+03  0.11091854715E+03 0.  0.
          5    1    3    3  502    0  0.43982327521E+02  0.40494512129E+02 -0.18306023234E+03  0.19263278359E+03  0.47000000000E+01 0. -1.
         -5    1    3    3    0  502 -0.43683621178E+02 -0.26024212737E+02 -0.12007018354E+03  0.13047780418E+03  0.47000000000E+01 0.  1.
        -11    1    1    2    0    0 -0.33166818241E+02  0.16288746588E+02  0.92109178024E+02  0.99244454626E+02  0.00000000000E+00 0. -1.
         11    1    1    2    0    0  0.32868111898E+02 -0.30759045980E+02  0.29942080488E+02  0.54064404863E+02  0.00000000000E+00 0.  1.
<mgrwt>
<rscale>  0 0.10674803E+03</rscale>
<asrwt>0</asrwt>
<pdfrwt beam="2">  1        2 0.50576815E-01 0.11185885E+03</pdfrwt>
<pdfrwt beam="1">  1       -2 0.22718484E-01 0.11185885E+03</pdfrwt>
<totfact> 0.16251363E+03</totfact>
</mgrwt>
</event>
<event>
 7    1  0.6008063E-006  0.1392996E+03  0.7546771E-02  0.1225621E+00
         -1   -1    0    0    0  501 -0.00000000000E+00  0.00000000000E+00  0.54919401283E+02  0.54919401283E+02  0.00000000000E+00 0.  1.
          1   -1    0    0  501    0  0.00000000000E+00 -0.00000000000E+00 -0.47405285333E+03  0.47405285333E+03  0.00000000000E+00 0. -1.
         23    2    1    2    0    0  0.41245923393E+02  0.45580414049E+02 -0.39183720415E+03  0.41586147228E+03  0.12500227688E+03 0.  0.
          5    1    3    3  502    0  0.45393231500E+02 -0.35510587735E+02 -0.15362143515E+03  0.16414378649E+03  0.47000000000E+01 0.  1.
         -5    1    3    3    0  502 -0.41473081063E+01  0.81091001784E+02 -0.23821576901E+03  0.25171768579E+03  0.47000000000E+01 0.  1.
        -11    1    1    2    0    0 -0.22534858246E+02 -0.37736584120E+02  0.29409572902E+02  0.52884710413E+02  0.00000000000E+00 0.  1.
         11    1    1    2    0    0 -0.18711065148E+02 -0.78438299289E+01 -0.56705820798E+02  0.60226071923E+02  0.00000000000E+00 0. -1.
<mgrwt>
<rscale>  0 0.13124448E+03</rscale>
<asrwt>0</asrwt>
<pdfrwt beam="2">  1        1 0.72931208E-01 0.13929957E+03</pdfrwt>
<pdfrwt beam="1">  1       -1 0.84491387E-02 0.13929957E+03</pdfrwt>
<totfact> 0.37238849E+03</totfact>
</mgrwt>
</event>
<event>
 6    1  0.6008063E-006  0.1573535E+03  0.7546771E-02  0.1215785E+00
         -2   -1    0    0    0  501 -0.00000000000E+00  0.00000000000E+00  0.35681873896E+02  0.35681873896E+02  0.00000000000E+00 0.  1.
          2   -1    0    0  501    0  0.00000000000E+00 -0.00000000000E+00 -0.50006832240E+03  0.50006832240E+03  0.00000000000E+00 0. -1.
          5    1    1    2  502    0  0.46606012850E+02 -0.49099141215E+01 -0.35088622476E+03  0.35403313463E+03  0.47000000000E+01 0. -1.
         -5    1    1    2    0  502 -0.38282944180E+02  0.25030740975E+02 -0.22573730880E+02  0.51222896586E+02  0.47000000000E+01 0.  1.
        -11    1    1    2    0    0  0.40404346934E+02 -0.17275828149E+02 -0.51869351818E+02  0.67980843974E+02  0.00000000000E+00 0.  1.
         11    1    1    2    0    0 -0.48727415604E+02 -0.28449987043E+01 -0.39057141054E+02  0.62513321111E+02  0.00000000000E+00 0. -1.
<mgrwt>
<rscale>  0 0.13819014E+03</rscale>
<asrwt>0</asrwt>
<pdfrwt beam="2">  1        2 0.76933584E-01 0.15735346E+03</pdfrwt>
<pdfrwt beam="1">  1       -2 0.54895194E-02 0.15735346E+03</pdfrwt>
<totfact> 0.10157911E+04</totfact>
</mgrwt>
</event>
<event>
 7    1  0.6008063E-006  0.1918489E+03  0.7546771E-02  0.1162144E+00
          2   -1    0    0  501    0  0.00000000000E+00  0.00000000000E+00  0.95684618652E+03  0.95684618652E+03  0.00000000000E+00 0. -1.
         -2   -1    0    0    0  501 -0.00000000000E+00 -0.00000000000E+00 -0.40368221801E+02  0.40368221801E+02  0.00000000000E+00 0.  1.
         23    2    1    2    0    0  0.83740708138E+02  0.11900556600E+03  0.67847622576E+03  0.70507872109E+03  0.12502472986E+03 0.  0.
          5    1    3    3  502    0  0.59442031148E+02 -0.59147437299E+01  0.15116487523E+03  0.16260765285E+03  0.47000000000E+01 0. -1.
         -5    1    3    3    0  502  0.24298676990E+02  0.12492030973E+03  0.52731135053E+03  0.54247106824E+03  0.47000000000E+01 0. -1.
        -11    1    1    2    0    0 -0.67792934771E+02 -0.40264973351E+02  0.68057481232E+02  0.10415839302E+03  0.00000000000E+00 0.  1.
         11    1    1    2    0    0 -0.15947773367E+02 -0.78740592650E+02  0.16994425773E+03  0.18797729422E+03  0.00000000000E+00 0. -1.
<mgrwt>
<rscale>  0 0.18597382E+03</rscale>
<asrwt>0</asrwt>
<pdfrwt beam="1">  1        2 0.14720709E+00 0.19184894E+03</pdfrwt>
<pdfrwt beam="2">  1       -2 0.62104964E-02 0.19184894E+03</pdfrwt>
<totfact> 0.38797132E+03</totfact>
</mgrwt>
</event>
<event>
 7    1  0.6008063E-006  0.1793189E+03  0.7546771E-02  0.1172505E+00
          1   -1    0    0  501    0  0.00000000000E+00  0.00000000000E+00  0.72574840988E+02  0.72574840988E+02  0.00000000000E+00 0. -1.
         -1   -1    0    0    0  501 -0.00000000000E+00 -0.00000000000E+00 -0.54130880952E+03  0.54130880952E+03  0.00000000000E+00 0.  1.
         23    2    1    2    0    0  0.56768621137E+02 -0.11535470451E+03 -0.88459683558E+02  0.19995094131E+03  0.12500351642E+03 0.  0.
          5    1    3    3  502    0 -0.34383582860E+02 -0.32097992964E+02 -0.53846361095E+02  0.71652163441E+02  0.47000000000E+01 0.  1.
         -5    1    3    3    0  502  0.91152203997E+02 -0.83256711544E+02 -0.34613322463E+02  0.12829877787E+03  0.47000000000E+01 0.  1.
        -11    1    1    2    0    0 -0.69682017134E+02  0.10022276602E+03 -0.37346356892E+03  0.39290612575E+03  0.00000000000E+00 0.  1.
         11    1    1    2    0    0  0.12913395997E+02  0.15131938483E+02 -0.68107160555E+01  0.21026583451E+02  0.00000000000E+00 0. -1.
<mgrwt>
<rscale>  0 0.17522576E+03</rscale>
<asrwt>0</asrwt>
<pdfrwt beam="1">  1        1 0.11165361E-01 0.17931889E+03</pdfrwt>
<pdfrwt beam="2">  1       -1 0.83278275E-01 0.17931889E+03</pdfrwt>
<totfact> 0.82443659E+02</totfact>
</mgrwt>
</event>
<event>
 7    1  0.6008063E-006  0.1940257E+03  0.7546771E-02  0.1159243E+00
          1   -1    0    0  501    0  0.00000000000E+00  0.00000000000E+00  0.66057075834E+02  0.66057075834E+02  0.00000000000E+00 0. -1.
         -1   -1    0    0    0  501 -0.00000000000E+00 -0.00000000000E+00 -0.57615650250E+03  0.57615650250E+03  0.00000000000E+00 0.  1.
         23    2    1    2    0    0 -0.78852178897E+02 -0.12570468184E+03 -0.16299903134E+03  0.25340613562E+03  0.12500660863E+03 0.  0.
          5    1    3    3  502    0 -0.30867215921E+02 -0.13959894577E+03 -0.13044685793E+03  0.19359525672E+03  0.47000000000E+01 0.  1.
         -5    1    3    3    0  502 -0.47984962976E+02  0.13894263931E+02 -0.32552173410E+02  0.59810878908E+02  0.47000000000E+01 0.  1.
        -11    1    1    2    0    0  0.81045725842E+02  0.94488121524E+02 -0.33095904471E+03  0.35359624441E+03  0.00000000000E+00 0.  1.
         11    1    1    2    0    0 -0.21935469452E+01  0.31216560315E+02 -0.16141350622E+02  0.35211198304E+02  0.00000000000E+00 0. -1.
<mgrwt>
<rscale>  0 0.18913574E+03</rscale>
<asrwt>0</asrwt>
<pdfrwt beam="1">  1        1 0.10162627E-01 0.19402573E+03</pdfrwt>
<pdfrwt beam="2">  1       -1 0.88639459E-01 0.19402573E+03</pdfrwt>
<totfact> 0.82052252E+02</totfact>
</mgrwt>
</event>
<event>
 7    1  0.6008063E-006  0.1535008E+03  0.7546771E-02  0.1203491E+00
         -3   -1    0    0    0  501 -0.00000000000E+00  0.00000000000E+00  0.54888852168E+02  0.54888852168E+02  0.00000000000E+00 0.  1.
          3   -1    0    0  501    0  0.00000000000E+00 -0.00000000000E+00 -0.38443339805E+03  0.38443339805E+03  0.00000000000E+00 0. -1.
         23    2    1    2    0    0  0.47644865145E+02  0.75290038618E+02 -0.22114300492E+03  0.26919645498E+03  0.12499551857E+03 0.  0.
          5    1    3    3  502    0  0.33588339373E+02  0.10402279341E+03 -0.20652101074E+03  0.23371336284E+03  0.47000000000E+01 0.  1.
         -5    1    3    3    0  502  0.14056525772E+02 -0.28732754792E+02 -0.14621994173E+02  0.35483092147E+02  0.47000000000E+01 0.  1.
        -11    1    1    2    0    0 -0.68159955214E+02 -0.18407377871E+02 -0.60659113136E+02  0.93081357217E+02  0.00000000000E+00 0. -1.
         11    1    1    2    0    0  0.20515090069E+02 -0.56882660747E+02 -0.47742427830E+02  0.77044438016E+02  0.00000000000E+00 0.  1.
<mgrwt>
<rscale>  0 0.14757014E+03</rscale>
<asrwt>0</asrwt>
<pdfrwt beam="2">  1        3 0.59143600E-01 0.15350082E+03</pdfrwt>
<pdfrwt beam="1">  1       -3 0.84444388E-02 0.15350082E+03</pdfrwt>
<totfact> 0.65278162E+02</totfact>
</mgrwt>
</event>
<event>
 7    1  0.6008063E-006  0.1481477E+03  0.7546771E-02  0.1212168E+00
         -2   -1    0    0    0  501 -0.00000000000E+00  0.00000000000E+00  0.53268936014E+03  0.53268936014E+03  0.00000000000E+00 0. -1.
          2   -1    0    0  501    0  0.00000000000E+00 -0.00000000000E+00 -0.37618596034E+02  0.37618596034E+02  0.00000000000E+00 0.  1.
         23    2    1    2    0    0 -0.47682512118E+02 -0.63654367991E+02  0.18226984766E+03  0.23488302373E+03  0.12498894730E+03 0.  0.
          5    1    3    3  502    0  0.34789695582E+02  0.27055778600E+01  0.80958121442E+02  0.88283353457E+02  0.47000000000E+01 0. -1.
         -5    1    3    3    0  502 -0.82472207700E+02 -0.66359945851E+02  0.10131172622E+03  0.14659967028E+03  0.47000000000E+01 0. -1.
        -11    1    1    2    0    0  0.97342294966E+01  0.74896622595E+02  0.15075862967E+03  0.16861916771E+03  0.00000000000E+00 0.  1.
         11    1    1    2    0    0  0.37948282621E+02 -0.11242254604E+02  0.16204228678E+03  0.16680576473E+03  0.00000000000E+00 0. -1.
<mgrwt>
<rscale>  0 0.14086664E+03</rscale>
<asrwt>0</asrwt>
<pdfrwt beam="2">  1        2 0.57874767E-02 0.14814769E+03</pdfrwt>
<pdfrwt beam="1">  1       -2 0.81952203E-01 0.14814769E+03</pdfrwt>
<totfact> 0.16948556E+03</totfact>
</mgrwt>
</event>
<event>
 7    1  0.6008063E-006  0.1269318E+03  0.7546771E-02  0.1245874E+00
          2   -1    0    0  501    0  0.00000000000E+00  0.00000000000E+00  0.27383246688E+03  0.27383246688E+03  0.00000000000E+00 0. -1.
         -2   -1    0    0    0  501 -0.00000000000E+00 -0.00000000000E+00 -0.65961207893E+02  0.65961207893E+02  0.00000000000E+00 0.  1.
         23    2    1    2    0    0  0.16401371345E+02 -0.14769046257E+02  0.20829081572E+03  0.24391956112E+03  0.12499823469E+03 0.  0.
          5    1    3    3  502    0  0.10885026925E+02 -0.25329438159E+02  0.22281011920E+03  0.22455846336E+03  0.47000000000E+01 0.  1.
         -5    1    3    3    0  502  0.55163444198E+01  0.10560391902E+02 -0.14519303481E+02  0.19361097760E+02  0.47000000000E+01 0.  1.
        -11    1    1    2    0    0  0.33268870028E+02  0.58929813012E+01 -0.22713001639E+02  0.40711489595E+02  0.00000000000E+00 0. -1.
         11    1    1    2    0    0 -0.49670241373E+02  0.88760649562E+01  0.22293444906E+02  0.55162624058E+02  0.00000000000E+00 0.  1.
<mgrwt>
<rscale>  0 0.11833200E+03</rscale>
<asrwt>0</asrwt>
<pdfrwt beam="1">  1        2 0.42128071E-01 0.12693183E+03</pdfrwt>
<pdfrwt beam="2">  1       -2 0.10147878E-01 0.12693183E+03</pdfrwt>
<totfact> 0.74070429E+03</totfact>
</mgrwt>
</event>
<event>
 6    1  0.6008063E-006  0.2152778E+03  0.7546771E-02  0.1166924E+00
         -1   -1    0    0    0  501 -0.00000000000E+00  0.00000000000E+00  0.15071953520E+03  0.15071953520E+03  0.00000000000E+00 0.  1.
          1   -1    0    0  501    0  0.00000000000E+00 -0.00000000000E+00 -0.21156572919E+03  0.21156572919E+03  0.00000000000E+00 0. -1.
          5    1    1    2  502    0  0.75633183895E+02  0.11308087463E+03 -0.80703988231E+02  0.15824944370E+03  0.47000000000E+01 0. -1.
         -5    1    1    2    0  502 -0.44024403883E+02 -0.64796197695E+02 -0.32063599057E+02  0.84775348761E+02  0.47000000000E+01 0.  1.
        -11    1    1    2    0    0 -0.43006535521E+02 -0.32146959617E+02  0.72837152229E+02  0.90488893544E+02  0.00000000000E+00 0.  1.
         11    1    1    2    0    0  0.11397755509E+02 -0.16137717322E+02 -0.20915758928E+02  0.28771578381E+02  0.00000000000E+00 0. -1.
<mgrwt>
<rscale>  0 0.18091102E+03</rscale>
<asrwt>0</asrwt>
<pdfrwt beam="2">  1        1 0.32548574E-01 0.21527778E+03</pdfrwt>
<pdfrwt beam="1">  1       -1 0.23187621E-01 0.21527778E+03</pdfrwt>
<totfact> 0.21353791E+03</totfact>
</mgrwt>
</event>
<event>
 7    1  0.6008063E-006  0.1344383E+03  0.7546771E-02  0.1233721E+00
          2   -1    0    0  501    0  0.00000000000E+00  0.00000000000E+00  0.10277533102E+04  0.10277533102E+04  0.00000000000E+00 0. -1.
         -2   -1    0    0    0  501 -0.00000000000E+00 -0.00000000000E+00 -0.16817416336E+02  0.16817416336E+02  0.00000000000E+00 0.  1.
         23    2    1    2    0    0  0.26002582002E+02 -0.42094694066E+02  0.78117114074E+03  0.79265503038E+03  0.12500219408E+03 0.  0.
          5    1    3    3  502    0 -0.37604016949E+02 -0.87378331118E+01  0.94041199728E+02  0.10176565759E+03  0.47000000000E+01 0.  1.
         -5    1    3    3    0  502  0.63606598951E+02 -0.33356860954E+02  0.68712994101E+03  0.69088937279E+03  0.47000000000E+01 0.  1.
        -11    1    1    2    0    0  0.29172956082E+02 -0.24138440926E+01  0.41827777324E+02  0.51053412871E+02  0.00000000000E+00 0. -1.
         11    1    1    2    0    0 -0.55175538084E+02  0.44508538158E+02  0.18793697576E+03  0.20086228324E+03  0.00000000000E+00 0.  1.
<mgrwt>
<rscale>  0 0.12586676E+03</rscale>
<asrwt>0</asrwt>
<pdfrwt beam="1">  1        2 0.15811584E+00 0.13443826E+03</pdfrwt>
<pdfrwt beam="2">  1       -2 0.25872956E-02 0.13443826E+03</pdfrwt>
<totfact> 0.12806029E+04</totfact>
</mgrwt>
</event>
<event>
 7    1  0.6008063E-006  0.1391155E+03  0.7546771E-02  0.1226522E+00
         -2   -1    0    0    0  501 -0.00000000000E+00  0.00000000000E+00  0.35408685100E+02  0.35408685100E+02  0.00000000000E+00 0.  1.
          2   -1    0    0  501    0  0.00000000000E+00 -0.00000000000E+00 -0.56509643026E+03  0.56509643026E+03  0.00000000000E+00 0. -1.
         23    2    1    2    0    0 -0.53809630475E+02 -0.28855855986E+02 -0.43517571706E+03  0.45687090809E+03  0.12499994076E+03 0.  0.
          5    1    3    3  502    0 -0.89642260962E+02 -0.31641702465E+02 -0.37251184456E+03  0.38447899374E+03  0.47000000000E+01 0. -1.
         -5    1    3    3    0  502  0.35832630487E+02  0.27858464791E+01 -0.62663872496E+02  0.72391914358E+02  0.47000000000E+01 0. -1.
        -11    1    1    2    0    0  0.17120654308E+02 -0.98859958259E+01 -0.87632809065E+02  0.89835176529E+02  0.00000000000E+00 0. -1.
         11    1    1    2    0    0  0.36688976167E+02  0.38741851812E+02 -0.68792190398E+01  0.53799030740E+02  0.00000000000E+00 0.  1.
<mgrwt>
<rscale>  0 0.13063117E+03</rscale>
<asrwt>0</asrwt>
<pdfrwt beam="2">  1        2 0.86937902E-01 0.13911550E+03</pdfrwt>
<pdfrwt beam="1">  1       -2 0.54474907E-02 0.13911550E+03</pdfrwt>
<totfact> 0.88975427E+03</totfact>
</mgrwt>
</event>
<event>
 7    1  0.6008063E-006  0.2491746E+03  0.7546771E-02  0.1115922E+00
          1   -1    0    0  501    0  0.00000000000E+00  0.00000000000E+00  0.58068354823E+03  0.58068354823E+03  0.00000000000E+00 0. -1.
         -1   -1    0    0    0  501 -0.00000000000E+00 -0.00000000000E+00 -0.10483173373E+03  0.10483173373E+03  0.00000000000E+00 0.  1.
         23    2    1    2    0    0 -0.20937951412E+03  0.51229994180E+02  0.30521724600E+03  0.39401214802E+03  0.12499484906E+03 0.  0.
          5    1    3    3  502    0 -0.20688630997E+03  0.16169063025E+02  0.22398374738E+03  0.30537549499E+03  0.47000000000E+01 0.  1.
         -5    1    3    3    0  502 -0.24932041449E+01  0.35060931155E+02  0.81233498630E+02  0.88636653028E+02  0.47000000000E+01 0.  1.
        -11    1    1    2    0    0  0.15084994480E+03 -0.17287667018E+02  0.63041220231E+02  0.16440427223E+03  0.00000000000E+00 0.  1.
         11    1    1    2    0    0  0.58529569314E+02 -0.33942327163E+02  0.10759334827E+03  0.12709886171E+03  0.00000000000E+00 0. -1.
<mgrwt>
<rscale>  0 0.24590281E+03</rscale>
<asrwt>0</asrwt>
<pdfrwt beam="1">  1        1 0.89335929E-01 0.24917465E+03</pdfrwt>
<pdfrwt beam="2">  1       -1 0.16127959E-01 0.24917465E+03</pdfrwt>
<totfact> 0.10546031E+03</totfact>
</mgrwt>
</event>
<event>
 7    1  0.6008063E-006  0.2976968E+03  0.7546771E-02  0.1087856E+00
         -2   -1    0    0    0  501 -0.00000000000E+00  0.00000000000E+00  0.35602676371E+02  0.35602676371E+02  0.00000000000E+00 0.  1.
          2   -1    0    0  501    0  0.00000000000E+00 -0.00000000000E+00 -0.31614171778E+04  0.31614171778E+04  0.00000000000E+00 0. -1.
         23    2    1    2    0    0  0.16489017258E+03  0.21403492610E+03 -0.23725696148E+04  0.23911733473E+04  0.12499472450E+03 0.  0.
          5    1    3    3  502    0  0.15273306659E+03  0.12939572902E+03 -0.19327412738E+04  0.19430855786E+04  0.47000000000E+01 0.  1.
         -5    1    3    3    0  502  0.12157105991E+02  0.84639197086E+02 -0.43982834103E+03  0.44808776872E+03  0.47000000000E+01 0.  1.
        -11    1    1    2    0    0 -0.60755363550E+02 -0.15297541549E+03 -0.39988264107E+03  0.43243360019E+03  0.00000000000E+00 0. -1.
         11    1    1    2    0    0 -0.10413480903E+03 -0.61059510608E+02 -0.35336224549E+03  0.37341290662E+03  0.00000000000E+00 0.  1.
<mgrwt>
<rscale>  0 0.29482512E+03</rscale>
<asrwt>0</asrwt>
<pdfrwt beam="2">  1        2 0.48637184E+00 0.29769683E+03</pdfrwt>
<pdfrwt beam="1">  1       -2 0.54773352E-02 0.29769683E+03</pdfrwt>
<totfact> 0.28163628E+02</totfact>
</mgrwt>
</event>
<event>
 7    1  0.6008063E-006  0.1721327E+03  0.7546771E-02  0.1182698E+00
         -4   -1    0    0    0  501 -0.00000000000E+00  0.00000000000E+00  0.29320168262E+03  0.29320168262E+03  0.00000000000E+00 0.  1.
          4   -1    0    0  501    0  0.00000000000E+00 -0.00000000000E+00 -0.12954551983E+03  0.12954551983E+03  0.00000000000E+00 0. -1.
         23    2    1    2    0    0  0.10727266765E+03 -0.49964955547E+02 -0.35049604127E+02  0.17566482541E+03  0.12500293648E+03 0.  0.
          5    1    3    3  502    0  0.37364337974E+02 -0.85545764342E+02 -0.16340788630E+02  0.94885630746E+02  0.47000000000E+01 0. -1.
         -5    1    3    3    0  502  0.69908329681E+02  0.35580808794E+02 -0.18708815497E+02  0.80779194664E+02  0.47000000000E+01 0. -1.
        -11    1    1    2    0    0 -0.21625787263E+02  0.63148490320E+01  0.12210557307E+03  0.12416651307E+03  0.00000000000E+00 0.  1.
         11    1    1    2    0    0 -0.85646880391E+02  0.43650106515E+02  0.76600193846E+02  0.12291586398E+03  0.00000000000E+00 0. -1.
<mgrwt>
<rscale>  0 0.16543141E+03</rscale>
<asrwt>0</asrwt>
<pdfrwt beam="2">  1        4 0.19930080E-01 0.17213267E+03</pdfrwt>
<pdfrwt beam="1">  1       -4 0.45107951E-01 0.17213267E+03</pdfrwt>
<totfact> 0.18868619E+02</totfact>
</mgrwt>
</event>
<event>
 7    1  0.6008063E-006  0.1569027E+03  0.7546771E-02  0.1199904E+00
         -2   -1    0    0    0  501 -0.00000000000E+00  0.00000000000E+00  0.25842857906E+02  0.25842857906E+02  0.00000000000E+00 0.  1.
          2   -1    0    0  501    0  0.00000000000E+00 -0.00000000000E+00 -0.90647886865E+03  0.90647886865E+03  0.00000000000E+00 0. -1.
         23    2    1    2    0    0 -0.58058166015E+02  0.74992862127E+02 -0.62385446285E+03  0.64328286247E+03  0.12499508120E+03 0.  0.
          5    1    3    3  502    0  0.56009287122E+00  0.45915573303E+02 -0.50840683844E+03  0.51049794999E+03  0.47000000000E+01 0. -1.
         -5    1    3    3    0  502 -0.58618258886E+02  0.29077288824E+02 -0.11544762441E+03  0.13278491248E+03  0.47000000000E+01 0. -1.
        -11    1    1    2    0    0  0.22424775848E+02 -0.22309393190E+02 -0.85195979769E+01  0.32759168885E+02  0.00000000000E+00 0.  1.
         11    1    1    2    0    0  0.35633390167E+02 -0.52683468937E+02 -0.24826194992E+03  0.25627969520E+03  0.00000000000E+00 0. -1.
<mgrwt>
<rscale>  0 0.15046397E+03</rscale>
<asrwt>0</asrwt>
<pdfrwt beam="2">  1        2 0.13945830E+00 0.15690268E+03</pdfrwt>
<pdfrwt beam="1">  1       -2 0.39758239E-02 0.15690268E+03</pdfrwt>
<totfact> 0.81214217E+03</totfact>
</mgrwt>
</event>
<event>
 7    1  0.6008063E-006  0.1332331E+03  0.7546771E-02  0.1238925E+00
          2   -1    0    0  501    0  0.00000000000E+00  0.00000000000E+00  0.41770719396E+03  0.41770719396E+03  0.00000000000E+00 0. -1.
         -2   -1    0    0    0  501 -0.00000000000E+00 -0.00000000000E+00 -0.31764347422E+02  0.31764347422E+02  0.00000000000E+00 0.  1.
         23    2    1    2    0    0 -0.41587555962E+02  0.19914105278E+02  0.25148213398E+03  0.28459500359E+03  0.12499982383E+03 0.  0.
          5    1    3    3  502    0 -0.50263403547E+02 -0.16721292490E+02  0.32444458235E+02  0.62295619660E+02  0.47000000000E+01 0.  1.
         -5    1    3    3    0  502  0.86758475853E+01  0.36635397769E+02  0.21903767574E+03  0.22229938393E+03  0.47000000000E+01 0.  1.
        -11    1    1    2    0    0  0.29391299533E+02  0.39388710200E+01  0.19864242501E+01  0.29720516053E+02  0.00000000000E+00 0.  1.
         11    1    1    2    0    0  0.12196256429E+02 -0.23852976298E+02  0.13247428831E+03  0.13515602174E+03  0.00000000000E+00 0. -1.
<mgrwt>
<rscale>  0 0.12256503E+03</rscale>
<asrwt>0</asrwt>
<pdfrwt beam="1">  1        2 0.64262641E-01 0.13323308E+03</pdfrwt>
<pdfrwt beam="2">  1       -2 0.48868230E-02 0.13323308E+03</pdfrwt>
<totfact> 0.14540194E+04</totfact>
</mgrwt>
</event>
<event>
 7    1  0.6008063E-006  0.1779694E+03  0.7546771E-02  0.1175701E+00
          2   -1    0    0  501    0  0.00000000000E+00  0.00000000000E+00  0.14644922032E+03  0.14644922032E+03  0.00000000000E+00 0. -1.
         -2   -1    0    0    0  501 -0.00000000000E+00 -0.00000000000E+00 -0.21632455754E+03  0.21632455754E+03  0.00000000000E+00 0.  1.
         23    2    1    2    0    0 -0.10294970006E+03 -0.73881619122E+02  0.26302148229E+02  0.17990249259E+03  0.12496387259E+03 0.  0.
          5    1    3    3  502    0 -0.11494379831E+03 -0.17767947731E+02 -0.47945011741E+00  0.11640488224E+03  0.47000000000E+01 0.  1.
         -5    1    3    3    0  502  0.11994098255E+02 -0.56113671391E+02  0.26781598347E+02  0.63497610348E+02  0.47000000000E+01 0.  1.
        -11    1    1    2    0    0  0.55844565222E+02  0.43307943720E+01 -0.79468139524E+02  0.97224258517E+02  0.00000000000E+00 0.  1.
         11    1    1    2    0    0  0.47105134837E+02  0.69550824750E+02 -0.16709345924E+02  0.85647026759E+02  0.00000000000E+00 0. -1.
<mgrwt>
<rscale>  0 0.17207489E+03</rscale>
<asrwt>0</asrwt>
<pdfrwt beam="1">  1        2 0.22530649E-01 0.17796939E+03</pdfrwt>
<pdfrwt beam="2">  1       -2 0.33280701E-01 0.17796939E+03</pdfrwt>
<totfact> 0.20083107E+03</totfact>
</mgrwt>
</event>
<event>
 7    1  0.6008063E-006  0.2986889E+03  0.7546771E-02  0.1087512E+00
         -2   -1    0    0    0  501 -0.00000000000E+00  0.00000000000E+00  0.80694453422E+02  0.80694453422E+02  0.00000000000E+00 0.  1.
          2   -1    0    0  501    0  0.00000000000E+00 -0.00000000000E+00 -0.11579381377E+04  0.11579381377E+04  0.00000000000E+00 0. -1.
         23    2    1    2    0    0  0.26819847703E+03  0.40738867902E+02 -0.72962275433E+03  0.78839355512E+03  0.12499982270E+03 0.  0.
          5    1    3    3  502    0  0.16319885699E+03 -0.55329290043E+01 -0.27843048730E+03  0.32281590184E+03  0.47000000000E+01 0.  1.
         -5    1    3    3    0  502  0.10499962004E+03  0.46271796906E+02 -0.45119226704E+03  0.46557765328E+03  0.47000000000E+01 0.  1.
        -11    1    1    2    0    0 -0.27753213747E+02 -0.27921051082E+02 -0.86547904439E+02  0.95080837868E+02  0.00000000000E+00 0. -1.
         11    1    1    2    0    0 -0.24044526328E+03 -0.12817816820E+02 -0.26107302554E+03  0.35515819817E+03  0.00000000000E+00 0.  1.
<mgrwt>
<rscale>  0 0.29550042E+03</rscale>
<asrwt>0</asrwt>
<pdfrwt beam="2">  1        2 0.17814432E+00 0.29868886E+03</pdfrwt>
<pdfrwt beam="1">  1       -2 0.12414532E-01 0.29868886E+03</pdfrwt>
<totfact> 0.98874413E+02</totfact>
</mgrwt>
</event>
<event>
 7    1  0.6008063E-006  0.1318652E+03  0.7546771E-02  0.1231581E+00
          2   -1    0    0  501    0  0.00000000000E+00  0.00000000000E+00  0.44772142117E+02  0.44772142117E+02  0.00000000000E+00 0. -1.
         -2   -1    0    0    0  501 -0.00000000000E+00 -0.00000000000E+00 -0.34154709592E+03  0.34154709592E+03  0.00000000000E+00 0.  1.
         23    2    1    2    0    0 -0.63988815152E+02 -0.21237295870E+02 -0.17674643553E+03  0.22051699219E+03  0.11332629956E+03 0.  0.
          5    1    3    3  502    0  0.28780881317E+02 -0.58337309435E+01 -0.80747038650E+02  0.86049670522E+02  0.47000000000E+01 0. -1.
         -5    1    3    3    0  502 -0.92769696470E+02 -0.15403564927E+02 -0.95999396880E+02  0.13446732167E+03  0.47000000000E+01 0.  1.
        -11    1    1    2    0    0  0.11727886278E+02  0.14507659733E+02 -0.11073639084E+03  0.11229676649E+03  0.00000000000E+00 0.  1.
         11    1    1    2    0    0  0.52260928875E+02  0.67296361375E+01 -0.92921274353E+01  0.53505479361E+02  0.00000000000E+00 0. -1.
<mgrwt>
<rscale>  0 0.12725897E+03</rscale>
<asrwt>0</asrwt>
<pdfrwt beam="1">  1        2 0.68880219E-02 0.13186524E+03</pdfrwt>
<pdfrwt beam="2">  1       -2 0.52545707E-01 0.13186524E+03</pdfrwt>
<totfact> 0.34180846E+03</totfact>
</mgrwt>
</event>
<event>
 7    1  0.6008063E-006  0.1539527E+03  0.7546771E-02  0.1210896E+00
         -1   -1    0    0    0  501 -0.00000000000E+00  0.00000000000E+00  0.65690146437E+02  0.65690146437E+02  0.00000000000E+00 0.  1.
          1   -1    0    0  501    0  0.00000000000E+00 -0.00000000000E+00 -0.39760001599E+03  0.39760001599E+03  0.00000000000E+00 0. -1.
         23    2    1    2    0    0  0.71141376441E+02 -0.54913628541E+02 -0.31569914483E+03  0.35123695125E+03  0.12499937533E+03 0.  0.
          5    1    3    3  502    0 -0.92300158201E+01 -0.38244589896E+02 -0.22645166193E+03  0.22989190295E+03  0.47000000000E+01 0.  1.
         -5    1    3    3    0  502  0.80371392261E+02 -0.16669038644E+02 -0.89247482896E+02  0.12134504830E+03  0.47000000000E+01 0.  1.
        -11    1    1    2    0    0 -0.33022984733E+02  0.62669159037E+02 -0.18082165135E+02  0.73108862055E+02  0.00000000000E+00 0.  1.
         11    1    1    2    0    0 -0.38118391708E+02 -0.77555304960E+01  0.18714404113E+01  0.38944349126E+02  0.00000000000E+00 0. -1.
<mgrwt>
<rscale>  0 0.14182356E+03</rscale>
<asrwt>0</asrwt>
<pdfrwt beam="2">  1        1 0.61169234E-01 0.15395274E+03</pdfrwt>
<pdfrwt beam="1">  1       -1 0.10106176E-01 0.15395274E+03</pdfrwt>
<totfact> 0.35651366E+03</totfact>
</mgrwt>
</event>
<event>
 6    1  0.6008063E-006  0.1605165E+03  0.7546771E-02  0.1211925E+00
          1   -1    0    0  501    0  0.00000000000E+00  0.00000000000E+00  0.16037523276E+03  0.16037523276E+03  0.00000000000E+00 0. -1.
         -1   -1    0    0    0  501 -0.00000000000E+00 -0.00000000000E+00 -0.59298819091E+03  0.59298819091E+03  0.00000000000E+00 0.  1.
          5    1    1    2  502    0  0.30733396949E+02  0.20949031557E+02 -0.23741679333E+02  0.44375228999E+02  0.47000000000E+01 0.  1.
         -5    1    1    2    0  502 -0.62298262039E+02 -0.16827794494E+02  0.13873580079E+03  0.15308154867E+03  0.47000000000E+01 0. -1.
        -11    1    1    2    0    0  0.61460966682E+02 -0.16009092196E+02 -0.35859662271E+03  0.36417753813E+03  0.00000000000E+00 0.  1.
         11    1    1    2    0    0 -0.29896101592E+02  0.11887855134E+02 -0.18901045690E+03  0.19172910788E+03  0.00000000000E+00 0. -1.
<mgrwt>
<rscale>  0 0.14104861E+03</rscale>
<asrwt>0</asrwt>
<pdfrwt beam="1">  1        1 0.24673113E-01 0.16051645E+03</pdfrwt>
<pdfrwt beam="2">  1       -1 0.91228952E-01 0.16051645E+03</pdfrwt>
<totfact> 0.24365441E+02</totfact>
</mgrwt>
</event>
<event>
 7    1  0.6008063E-006  0.1440091E+03  0.7546771E-02  0.1217970E+00
         -1   -1    0    0    0  501 -0.00000000000E+00  0.00000000000E+00  0.58091104532E+02  0.58091104532E+02  0.00000000000E+00 0.  1.
          1   -1    0    0  501    0  0.00000000000E+00 -0.00000000000E+00 -0.30045116368E+03  0.30045116368E+03  0.00000000000E+00 0. -1.
         23    2    1    2    0    0  0.55710027937E+02 -0.44833195599E+02 -0.16295358569E+03  0.21746837580E+03  0.12500000297E+03 0.  0.
          5    1    3    3  502    0  0.12534376355E+01  0.40792441071E+02 -0.61011534778E+02  0.73553325761E+02  0.47000000000E+01 0. -1.
         -5    1    3    3    0  502  0.54456590302E+02 -0.85625636670E+02 -0.10194205091E+03  0.14391505004E+03  0.47000000000E+01 0. -1.
        -11    1    1    2    0    0 -0.57979758752E+02  0.18715043665E+02 -0.93279084416E+02  0.11141316293E+03  0.00000000000E+00 0. -1.
         11    1    1    2    0    0  0.22697308146E+01  0.26118151933E+02  0.13872610965E+02  0.29660729481E+02  0.00000000000E+00 0.  1.
<mgrwt>
<rscale>  0 0.13660629E+03</rscale>
<asrwt>0</asrwt>
<pdfrwt beam="2">  1        1 0.46223255E-01 0.14400911E+03</pdfrwt>
<pdfrwt beam="1">  1       -1 0.89370931E-02 0.14400911E+03</pdfrwt>
<totfact> 0.60841576E+03</totfact>
</mgrwt>
</event>
<event>
 7    1  0.8427483E-006  0.2379374E+03  0.7546771E-02  0.1124376E+00
         -2   -1    0    0    0  501 -0.00000000000E+00  0.00000000000E+00  0.95764072547E+02  0.95764072547E+02  0.00000000000E+00 0.  1.
          2   -1    0    0  501    0  0.00000000000E+00 -0.00000000000E+00 -0.55138673379E+03  0.55138673379E+03  0.00000000000E+00 0. -1.
         23    2    1    2    0    0 -0.20063655830E+03  0.27091098015E+02 -0.26632984098E+03  0.35713550923E+03  0.12500092656E+03 0.  0.
          5    1    3    3  502    0 -0.15463237423E+03  0.26949226514E+02 -0.10400538507E+03  0.18835244117E+03  0.47000000000E+01 0. -1.
         -5    1    3    3    0  502 -0.46004184065E+02  0.14187150075E+00 -0.16232445591E+03  0.16878306806E+03  0.47000000000E+01 0. -1.
        -11    1    1    2    0    0  0.13136607614E+03 -0.31851582469E+02 -0.70584568978E+02  0.15249180517E+03  0.00000000000E+00 0.  1.
         11    1    1    2    0    0  0.69270482161E+02  0.47604844542E+01 -0.11870825129E+03  0.13752349194E+03  0.00000000000E+00 0. -1.
<mgrwt>
<rscale>  0 0.23324623E+03</rscale>
<asrwt>0</asrwt>
<pdfrwt beam="2">  1        2 0.84828726E-01 0.23793736E+03</pdfrwt>
<pdfrwt beam="1">  1       -2 0.14732935E-01 0.23793736E+03</pdfrwt>
<totfact> 0.19561219E+03</totfact>
</mgrwt>
</event>
<event>
 7    1  0.6008063E-006  0.2008353E+03  0.7546771E-02  0.1153204E+00
         -1   -1    0    0    0  501 -0.00000000000E+00  0.00000000000E+00  0.25201768125E+03  0.25201768125E+03  0.00000000000E+00 0.  1.
          1   -1    0    0  501    0  0.00000000000E+00 -0.00000000000E+00 -0.15383504322E+03  0.15383504322E+03  0.00000000000E+00 0. -1.
         23    2    1    2    0    0 -0.86730127903E+02  0.13109566543E+03  0.38486693513E+01  0.20087220048E+03  0.12500656018E+03 0.  0.
          5    1    3    3  502    0 -0.71162674301E+02  0.17729178649E+02 -0.33007912392E+02  0.80560922721E+02  0.47000000000E+01 0. -1.
         -5    1    3    3    0  502 -0.15567453602E+02  0.11336648679E+03  0.36856581743E+02  0.12031127776E+03  0.47000000000E+01 0. -1.
        -11    1    1    2    0    0 -0.14835113129E+02 -0.18993968062E+02 -0.41805068728E+01  0.24460744919E+02  0.00000000000E+00 0. -1.
         11    1    1    2    0    0  0.10156524103E+03 -0.11210169737E+03  0.98514475552E+02  0.18051977906E+03  0.00000000000E+00 0.  1.
<mgrwt>
<rscale>  0 0.19594685E+03</rscale>
<asrwt>0</asrwt>
<pdfrwt beam="2">  1        1 0.23666930E-01 0.20083533E+03</pdfrwt>
<pdfrwt beam="1">  1       -1 0.38771951E-01 0.20083533E+03</pdfrwt>
<totfact> 0.13312027E+03</totfact>
</mgrwt>
</event>
<event>
 7    1  0.6008063E-006  0.1421163E+03  0.7546771E-02  0.1220327E+00
         -1   -1    0    0    0  501 -0.00000000000E+00  0.00000000000E+00  0.18121729721E+03  0.18121729721E+03  0.00000000000E+00 0.  1.
          1   -1    0    0  501    0  0.00000000000E+00 -0.00000000000E+00 -0.10071356395E+03  0.10071356395E+03  0.00000000000E+00 0. -1.
         23    2    1    2    0    0  0.67069978371E+02  0.84338435229E+01  0.16706097538E+01  0.14212612674E+03  0.12501013259E+03 0.  0.
          5    1    3    3  502    0 -0.33244768501E+02 -0.27111427866E+01 -0.19456008406E+02  0.38899758238E+02  0.47000000000E+01 0. -1.
         -5    1    3    3    0  502  0.10031474687E+03  0.11144986309E+02  0.21126618160E+02  0.10322636850E+03  0.47000000000E+01 0. -1.
        -11    1    1    2    0    0 -0.53052819314E+02 -0.48671447062E+02  0.57576275975E+02  0.92187520585E+02  0.00000000000E+00 0.  1.
         11    1    1    2    0    0 -0.14017159057E+02  0.40237603540E+02  0.21256847525E+02  0.47617213834E+02  0.00000000000E+00 0. -1.
<mgrwt>
<rscale>  0 0.13492411E+03</rscale>
<asrwt>0</asrwt>
<pdfrwt beam="2">  1        1 0.15494394E-01 0.14211631E+03</pdfrwt>
<pdfrwt beam="1">  1       -1 0.27879584E-01 0.14211631E+03</pdfrwt>
<totfact> 0.39759858E+03</totfact>
</mgrwt>
</event>
<event>
 7    1  0.6008063E-006  0.1343996E+03  0.7546771E-02  0.1233613E+00
          2   -1    0    0  501    0  0.00000000000E+00  0.00000000000E+00  0.33099802891E+03  0.33099802891E+03  0.00000000000E+00 0. -1.
         -2   -1    0    0    0  501 -0.00000000000E+00 -0.00000000000E+00 -0.83936696963E+02  0.83936696963E+02  0.00000000000E+00 0.  1.
         23    2    1    2    0    0  0.31021613071E+02  0.38402181619E+02  0.27631794314E+03  0.30727000441E+03  0.12500472743E+03 0.  0.
          5    1    3    3  502    0  0.11222372369E+02 -0.59767429944E+01 -0.99838059069E+01  0.16835363934E+02  0.47000000000E+01 0. -1.
         -5    1    3    3    0  502  0.19799240703E+02  0.44378924613E+02  0.28630174905E+03  0.29043464048E+03  0.47000000000E+01 0. -1.
        -11    1    1    2    0    0 -0.36040664925E+02  0.13263604360E+02 -0.39127765272E+02  0.54825493559E+02  0.00000000000E+00 0.  1.
         11    1    1    2    0    0  0.50190518533E+01 -0.51665785979E+02  0.98711540784E+01  0.52839227901E+02  0.00000000000E+00 0. -1.
<mgrwt>
<rscale>  0 0.12593675E+03</rscale>
<asrwt>0</asrwt>
<pdfrwt beam="1">  1        2 0.50922773E-01 0.13439959E+03</pdfrwt>
<pdfrwt beam="2">  1       -2 0.12913338E-01 0.13439959E+03</pdfrwt>
<totfact> 0.41473313E+03</totfact>
</mgrwt>
</event>
<event>
 7    1  0.6008063E-006  0.1349133E+03  0.7546771E-02  0.1231774E+00
         -2   -1    0    0    0  501 -0.00000000000E+00  0.00000000000E+00  0.13093429252E+02  0.13093429252E+02  0.00000000000E+00 0.  1.
          2   -1    0    0  501    0  0.00000000000E+00 -0.00000000000E+00 -0.12602642297E+04  0.12602642297E+04  0.00000000000E+00 0. -1.
         23    2    1    2    0    0 -0.38530622244E+02  0.33067947253E+02 -0.90590684216E+03  0.91589781883E+03  0.12499403940E+03 0.  0.
          5    1    3    3  502    0  0.42895510605E+02  0.70066197706E+01 -0.19426223143E+03  0.19912062201E+03  0.47000000000E+01 0.  1.
         -5    1    3    3    0  502 -0.81426132849E+02  0.26061327483E+02 -0.71164461073E+03  0.71677719682E+03  0.47000000000E+01 0.  1.
        -11    1    1    2    0    0  0.68701673612E+02 -0.14855529011E+02 -0.24765995830E+03  0.25744137516E+03  0.00000000000E+00 0.  1.
         11    1    1    2    0    0 -0.30171051368E+02 -0.18212418243E+02 -0.93604000013E+02  0.10001846498E+03  0.00000000000E+00 0. -1.
<mgrwt>
<rscale>  0 0.12713201E+03</rscale>
<asrwt>0</asrwt>
<pdfrwt beam="2">  1        2 0.19388688E+00 0.13491333E+03</pdfrwt>
<pdfrwt beam="1">  1       -2 0.20143730E-02 0.13491333E+03</pdfrwt>
<totfact> 0.13634965E+04</totfact>
</mgrwt>
</event>
<event>
 7    1  0.6008063E-006  0.1268449E+03  0.7546771E-02  0.1246730E+00
         -1   -1    0    0    0  501 -0.00000000000E+00  0.00000000000E+00  0.83726563458E+02  0.83726563458E+02  0.00000000000E+00 0.  1.
          1   -1    0    0  501    0  0.00000000000E+00 -0.00000000000E+00 -0.15156924683E+03  0.15156924683E+03  0.00000000000E+00 0. -1.
         23    2    1    2    0    0  0.20351274186E+02  0.71067139125E+01 -0.60626407662E+02  0.14058872788E+03  0.12499979743E+03 0.  0.
          5    1    3    3  502    0 -0.11293684256E+02 -0.30153384471E+02  0.25569393663E+02  0.41384269855E+02  0.47000000000E+01 0.  1.
         -5    1    3    3    0  502  0.31644958442E+02  0.37260098383E+02 -0.86195801326E+02  0.99204458027E+02  0.47000000000E+01 0.  1.
        -11    1    1    2    0    0 -0.63008920055E+01 -0.10680411875E+02  0.41795370786E+02  0.43596163329E+02  0.00000000000E+00 0.  1.
         11    1    1    2    0    0 -0.14050382180E+02  0.35736979623E+01 -0.49011646491E+02  0.51110919071E+02  0.00000000000E+00 0. -1.
<mgrwt>
<rscale>  0 0.11782414E+03</rscale>
<asrwt>0</asrwt>
<pdfrwt beam="2">  1        1 0.23318345E-01 0.12684490E+03</pdfrwt>
<pdfrwt beam="1">  1       -1 0.12881010E-01 0.12684490E+03</pdfrwt>
<totfact> 0.80622909E+03</totfact>
</mgrwt>
</event>
<event>
 7    1  0.6008063E-006  0.1340702E+03  0.7546771E-02  0.1233969E+00
         -2   -1    0    0    0  501 -0.00000000000E+00  0.00000000000E+00  0.48621744210E+02  0.48621744210E+02  0.00000000000E+00 0.  1.
          2   -1    0    0  501    0  0.00000000000E+00 -0.00000000000E+00 -0.30514923119E+03  0.30514923119E+03  0.00000000000E+00 0. -1.
         23    2    1    2    0    0  0.19465406316E+01 -0.48431757659E+02 -0.18237429977E+03  0.22635195849E+03  0.12500159889E+03 0.  0.
          5    1    3    3  502    0  0.82398398651E+01  0.40508359954E+02 -0.82425890566E+02  0.92330599602E+02  0.47000000000E+01 0. -1.
         -5    1    3    3    0  502 -0.62932992336E+01 -0.88940117613E+02 -0.99948409203E+02  0.13402135889E+03  0.47000000000E+01 0. -1.
        -11    1    1    2    0    0 -0.26479886716E+02  0.53508827180E+02 -0.12676406468E+02  0.61033353731E+02  0.00000000000E+00 0.  1.
         11    1    1    2    0    0  0.24533346085E+02 -0.50770695214E+01 -0.61476780740E+02  0.66385663175E+02  0.00000000000E+00 0. -1.
<mgrwt>
<rscale>  0 0.12570691E+03</rscale>
<asrwt>0</asrwt>
<pdfrwt beam="2">  1        2 0.46946036E-01 0.13407022E+03</pdfrwt>
<pdfrwt beam="1">  1       -2 0.74802683E-02 0.13407022E+03</pdfrwt>
<totfact> 0.10649238E+04</totfact>
</mgrwt>
</event>
<event>
 7    1  0.6008063E-006  0.1286718E+03  0.7546771E-02  0.1242971E+00
         -1   -1    0    0    0  501 -0.00000000000E+00  0.00000000000E+00  0.36941783075E+02  0.36941783075E+02  0.00000000000E+00 0.  1.
          1   -1    0    0  501    0  0.00000000000E+00 -0.00000000000E+00 -0.35052692111E+03  0.35052692111E+03  0.00000000000E+00 0. -1.
         23    2    1    2    0    0  0.56297652295E+01  0.29863077113E+02 -0.15735266324E+03  0.20326410330E+03  0.12503174568E+03 0.  0.
          5    1    3    3  502    0  0.26138457008E+02  0.40823256632E+02 -0.16967842624E+03  0.17652936172E+03  0.47000000000E+01 0.  1.
         -5    1    3    3    0  502 -0.20508691779E+02 -0.10960179519E+02  0.12325763001E+02  0.26734741576E+02  0.47000000000E+01 0.  1.
        -11    1    1    2    0    0 -0.12883252089E+02 -0.59886258065E+02 -0.12989063621E+03  0.14361030417E+03  0.00000000000E+00 0. -1.
         11    1    1    2    0    0  0.72534868598E+01  0.30023180953E+02 -0.26341838587E+02  0.40594296721E+02  0.00000000000E+00 0.  1.
<mgrwt>
<rscale>  0 0.12007645E+03</rscale>
<asrwt>0</asrwt>
<pdfrwt beam="2">  1        1 0.53927218E-01 0.12867181E+03</pdfrwt>
<pdfrwt beam="1">  1       -1 0.56833513E-02 0.12867181E+03</pdfrwt>
<totfact> 0.98357063E+03</totfact>
</mgrwt>
</event>
<event>
 7    1  0.6008063E-006  0.1256278E+03  0.7546771E-02  0.1253336E+00
          2   -1    0    0  501    0  0.00000000000E+00  0.00000000000E+00  0.47678623333E+03  0.47678623333E+03  0.00000000000E+00 0. -1.
         -2   -1    0    0    0  501 -0.00000000000E+00 -0.00000000000E+00 -0.23970759762E+02  0.23970759762E+02  0.00000000000E+00 0.  1.
         23    2    1    2    0    0  0.97667938846E+01 -0.78184037313E+01  0.30965781897E+03  0.33417106296E+03  0.12500326705E+03 0.  0.
          5    1    3    3  502    0  0.20122838943E+02 -0.31513920535E+02  0.30519340940E+03  0.30751124041E+03  0.47000000000E+01 0.  1.
         -5    1    3    3    0  502 -0.10356045058E+02  0.23695516803E+02  0.44644095641E+01  0.26659822553E+02  0.47000000000E+01 0.  1.
        -11    1    1    2    0    0 -0.28931590335E+01  0.46029456329E+02  0.83942077690E+02  0.95777625916E+02  0.00000000000E+00 0. -1.
         11    1    1    2    0    0 -0.68736348511E+01 -0.38211052598E+02  0.59215576912E+02  0.70808304214E+02  0.00000000000E+00 0.  1.
<mgrwt>
<rscale>  0 0.11400058E+03</rscale>
<asrwt>0</asrwt>
<pdfrwt beam="1">  1        2 0.73351721E-01 0.12562776E+03</pdfrwt>
<pdfrwt beam="2">  1       -2 0.36878096E-02 0.12562776E+03</pdfrwt>
<totfact> 0.19069723E+04</totfact>
</mgrwt>
</event>
<event>
 7    1  0.6008063E-006  0.1441150E+03  0.7546771E-02  0.1217929E+00
          2   -1    0    0  501    0  0.00000000000E+00  0.00000000000E+00  0.24912610302E+03  0.24912610302E+03  0.00000000000E+00 0.  1.
         -2   -1    0    0    0  501 -0.00000000000E+00 -0.00000000000E+00 -0.68131072423E+02  0.68131072423E+02  0.00000000000E+00 0. -1.
         23    2    1    2    0    0 -0.70801283618E+02  0.11519103465E+02  0.99613748944E+02  0.17519137596E+03  0.12499443078E+03 0.  0.
          5    1    3    3  502    0 -0.98807144916E+02 -0.44821933858E+01  0.10243897456E+03  0.14247377110E+03  0.47000000000E+01 0. -1.
         -5    1    3    3    0  502  0.28005861297E+02  0.16001296851E+02 -0.28252256144E+01  0.32717604859E+02  0.47000000000E+01 0. -1.
        -11    1    1    2    0    0 -0.17715273105E+02 -0.19094283534E+02  0.92838616964E+01  0.27651630203E+02  0.00000000000E+00 0.  1.
         11    1    1    2    0    0  0.88516556724E+02  0.75751800690E+01  0.72097419962E+02  0.11441416928E+03  0.00000000000E+00 0. -1.
<mgrwt>
<rscale>  0 0.13663544E+03</rscale>
<asrwt>0</asrwt>
<pdfrwt beam="1">  1        2 0.38327092E-01 0.14411495E+03</pdfrwt>
<pdfrwt beam="2">  1       -2 0.10481704E-01 0.14411495E+03</pdfrwt>
<totfact> 0.78513099E+03</totfact>
</mgrwt>
</event>
<event>
 7    1  0.6008063E-006  0.1524776E+03  0.7546771E-02  0.1205731E+00
         -2   -1    0    0    0  501 -0.00000000000E+00  0.00000000000E+00  0.57594889262E+02  0.57594889262E+02  0.00000000000E+00 0.  1.
          2   -1    0    0  501    0  0.00000000000E+00 -0.00000000000E+00 -0.36118167427E+03  0.36118167427E+03  0.00000000000E+00 0. -1.
         23    2    1    2    0    0 -0.26652318110E+02 -0.83146769025E+02 -0.21486227490E+03  0.26346768427E+03  0.12500276883E+03 0.  0.
          5    1    3    3  502    0  0.13356299794E+02 -0.85649964959E+02 -0.20394958705E+03  0.22165701275E+03  0.47000000000E+01 0. -1.
         -5    1    3    3    0  502 -0.40008617903E+02  0.25031959339E+01 -0.10912687848E+02  0.41810671515E+02  0.47000000000E+01 0. -1.
        -11    1    1    2    0    0 -0.20745727915E+02  0.65519710432E+02 -0.23192118211E+02  0.72533385616E+02  0.00000000000E+00 0.  1.
         11    1    1    2    0    0  0.47398046025E+02  0.17627058593E+02 -0.65532391892E+02  0.82775493649E+02  0.00000000000E+00 0. -1.
<mgrwt>
<rscale>  0 0.14579991E+03</rscale>
<asrwt>0</asrwt>
<pdfrwt beam="2">  1        2 0.55566413E-01 0.15247762E+03</pdfrwt>
<pdfrwt beam="1">  1       -2 0.88607520E-02 0.15247762E+03</pdfrwt>
<totfact> 0.69092796E+03</totfact>
</mgrwt>
</event>
<event>
 7    1  0.6008063E-006  0.1574899E+03  0.7546771E-02  0.1202364E+00
         -2   -1    0    0    0  501 -0.00000000000E+00  0.00000000000E+00  0.84328925275E+02  0.84328925275E+02  0.00000000000E+00 0.  1.
          2   -1    0    0  501    0  0.00000000000E+00 -0.00000000000E+00 -0.23833702013E+03  0.23833702013E+03  0.00000000000E+00 0. -1.
         23    2    1    2    0    0  0.53289395623E+02  0.79621300654E+02 -0.68669049917E+02  0.17180953491E+03  0.12499506656E+03 0.  0.
          5    1    3    3  502    0  0.10090919423E+02 -0.18513205883E+02 -0.60423100522E+02  0.64168578943E+02  0.47000000000E+01 0.  1.
         -5    1    3    3    0  502  0.43198476200E+02  0.98134506537E+02 -0.82459493948E+01  0.10764095596E+03  0.47000000000E+01 0.  1.
        -11    1    1    2    0    0 -0.68288779284E+02 -0.38607735270E+02 -0.40574553527E+02  0.88318791843E+02  0.00000000000E+00 0.  1.
         11    1    1    2    0    0  0.14999383661E+02 -0.41013565384E+02 -0.44764491409E+02  0.62537618653E+02  0.00000000000E+00 0. -1.
<mgrwt>
<rscale>  0 0.14847150E+03</rscale>
<asrwt>0</asrwt>
<pdfrwt beam="2">  1        2 0.36667234E-01 0.15748993E+03</pdfrwt>
<pdfrwt beam="1">  1       -2 0.12973681E-01 0.15748993E+03</pdfrwt>
<totfact> 0.58902739E+03</totfact>
</mgrwt>
</event>
<event>
 7    1  0.6008063E-006  0.1630846E+03  0.7546771E-02  0.1192478E+00
          2   -1    0    0  501    0  0.00000000000E+00  0.00000000000E+00  0.14572569668E+04  0.14572569668E+04  0.00000000000E+00 0. -1.
         -2   -1    0    0    0  501 -0.00000000000E+00 -0.00000000000E+00 -0.15780004228E+02  0.15780004228E+02  0.00000000000E+00 0.  1.
         23    2    1    2    0    0 -0.55513308753E+02 -0.88828770665E+02  0.84316949793E+03  0.85879647540E+03  0.12499722389E+03 0.  0.
          5    1    3    3  502    0 -0.75246147098E+02 -0.32101787166E+02  0.67891646620E+03  0.68384367034E+03  0.47000000000E+01 0. -1.
         -5    1    3    3    0  502  0.19732838345E+02 -0.56726983499E+02  0.16425303173E+03  0.17495280506E+03  0.47000000000E+01 0. -1.
        -11    1    1    2    0    0  0.48547042976E+02  0.12244437458E+01  0.27226692248E+03  0.27656390169E+03  0.00000000000E+00 0. -1.
         11    1    1    2    0    0  0.69662657767E+01  0.87604326919E+02  0.32604054219E+03  0.33767659396E+03  0.00000000000E+00 0.  1.
<mgrwt>
<rscale>  0 0.15669652E+03</rscale>
<asrwt>0</asrwt>
<pdfrwt beam="1">  1        2 0.22419328E+00 0.16308459E+03</pdfrwt>
<pdfrwt beam="2">  1       -2 0.24276941E-02 0.16308459E+03</pdfrwt>
<totfact> 0.82170582E+03</totfact>
</mgrwt>
</event>
<event>
 7    1  0.6008063E-006  0.1493639E+03  0.7546771E-02  0.1211823E+00
         -2   -1    0    0    0  501 -0.00000000000E+00  0.00000000000E+00  0.23474197501E+02  0.23474197501E+02  0.00000000000E+00 0.  1.
          2   -1    0    0  501    0  0.00000000000E+00 -0.00000000000E+00 -0.84138031124E+03  0.84138031124E+03  0.00000000000E+00 0. -1.
         23    2    1    2    0    0  0.73913193647E+02 -0.34939558065E+02 -0.57872969224E+03  0.59769358302E+03  0.12500251834E+03 0.  0.
          5    1    3    3  502    0  0.17250939759E+02 -0.60389425566E+02 -0.45322454680E+03  0.45757956408E+03  0.47000000000E+01 0.  1.
         -5    1    3    3    0  502  0.56662253887E+02  0.25449867501E+02 -0.12550514544E+03  0.14011401894E+03  0.47000000000E+01 0.  1.
        -11    1    1    2    0    0 -0.91468691032E+02  0.17464237575E+02 -0.17246607562E+03  0.19600017416E+03  0.00000000000E+00 0. -1.
         11    1    1    2    0    0  0.17555497385E+02  0.17475320490E+02 -0.66710345888E+02  0.71160751564E+02  0.00000000000E+00 0.  1.
<mgrwt>
<rscale>  0 0.14112496E+03</rscale>
<asrwt>0</asrwt>
<pdfrwt beam="2">  1        2 0.12944311E+00 0.14936386E+03</pdfrwt>
<pdfrwt beam="1">  1       -2 0.36114154E-02 0.14936386E+03</pdfrwt>
<totfact> 0.10292431E+04</totfact>
</mgrwt>
</event>
<event>
 7    1  0.6008063E-006  0.1380820E+03  0.7546771E-02  0.1229507E+00
         -3   -1    0    0    0  501 -0.00000000000E+00  0.00000000000E+00  0.38356598973E+03  0.38356598973E+03  0.00000000000E+00 0.  1.
          3   -1    0    0  501    0  0.00000000000E+00 -0.00000000000E+00 -0.39173018519E+02  0.39173018519E+02  0.00000000000E+00 0. -1.
         23    2    1    2    0    0 -0.55245010880E+02 -0.19702858640E+02  0.16265870446E+03  0.21336469796E+03  0.12500570519E+03 0.  0.
          5    1    3    3  502    0 -0.77852989652E+02  0.12751756543E+02  0.15326469342E+03  0.17244086389E+03  0.47000000000E+01 0. -1.
         -5    1    3    3    0  502  0.22607978772E+02 -0.32454615182E+02  0.93940110461E+01  0.40923834062E+02  0.47000000000E+01 0. -1.
        -11    1    1    2    0    0  0.10578855632E+02  0.49172305643E+02  0.93922527976E+02  0.10654233473E+03  0.00000000000E+00 0. -1.
         11    1    1    2    0    0  0.44666155248E+02 -0.29469447004E+02  0.87811738772E+02  0.10283197556E+03  0.00000000000E+00 0.  1.
<mgrwt>
<rscale>  0 0.12862705E+03</rscale>
<asrwt>0</asrwt>
<pdfrwt beam="2">  1        3 0.60266185E-02 0.13808201E+03</pdfrwt>
<pdfrwt beam="1">  1       -3 0.59010150E-01 0.13808201E+03</pdfrwt>
<totfact> 0.11128715E+03</totfact>
</mgrwt>
</event>
<event>
 7    1  0.6008063E-006  0.1476468E+03  0.7546771E-02  0.1212651E+00
         -2   -1    0    0    0  501 -0.00000000000E+00  0.00000000000E+00  0.34971444579E+02  0.34971444579E+02  0.00000000000E+00 0.  1.
          2   -1    0    0  501    0  0.00000000000E+00 -0.00000000000E+00 -0.82353675200E+03  0.82353675200E+03  0.00000000000E+00 0. -1.
         23    2    1    2    0    0  0.15507314647E+02  0.77038441710E+02 -0.68011331356E+03  0.69595524024E+03  0.12499671527E+03 0.  0.
          5    1    3    3  502    0  0.22397040615E+02  0.43881911892E+02 -0.74881041843E+02  0.89758063967E+02  0.47000000000E+01 0.  1.
         -5    1    3    3    0  502 -0.68897259689E+01  0.33156529818E+02 -0.60523227172E+03  0.60619717628E+03  0.47000000000E+01 0.  1.
        -11    1    1    2    0    0  0.23067799255E+02 -0.65841288792E+02 -0.99297463174E+02  0.12135561324E+03  0.00000000000E+00 0. -1.
         11    1    1    2    0    0 -0.38575113902E+02 -0.11197152918E+02 -0.91545306831E+01  0.41197343095E+02  0.00000000000E+00 0.  1.
<mgrwt>
<rscale>  0 0.14050468E+03</rscale>
<asrwt>0</asrwt>
<pdfrwt beam="2">  1        2 0.12669794E+00 0.14764680E+03</pdfrwt>
<pdfrwt beam="1">  1       -2 0.53802232E-02 0.14764680E+03</pdfrwt>
<totfact> 0.58216760E+03</totfact>
</mgrwt>
</event>
<event>
 7    1  0.6008063E-006  0.1272980E+03  0.7546771E-02  0.1246894E+00
          1   -1    0    0  501    0  0.00000000000E+00  0.00000000000E+00  0.42126947213E+03  0.42126947213E+03  0.00000000000E+00 0. -1.
         -1   -1    0    0    0  501 -0.00000000000E+00 -0.00000000000E+00 -0.32653230016E+02  0.32653230016E+02  0.00000000000E+00 0.  1.
         23    2    1    2    0    0 -0.22549901685E+02 -0.83806211486E+01  0.29772029560E+03  0.32379338336E+03  0.12500419121E+03 0.  0.
          5    1    3    3  502    0 -0.24490988839E+02  0.56679862629E+02  0.15186221024E+03  0.16400193980E+03  0.47000000000E+01 0. -1.
         -5    1    3    3    0  502  0.19410871541E+01 -0.65060483777E+02  0.14585808536E+03  0.15979144356E+03  0.47000000000E+01 0. -1.
        -11    1    1    2    0    0  0.10799841970E+02  0.27593331005E+02 -0.63545137653E+01  0.30305252808E+02  0.00000000000E+00 0.  1.
         11    1    1    2    0    0  0.11750059715E+02 -0.19212709857E+02  0.97250460282E+02  0.99824065978E+02  0.00000000000E+00 0. -1.
<mgrwt>
<rscale>  0 0.11772762E+03</rscale>
<asrwt>0</asrwt>
<pdfrwt beam="1">  1        1 0.64810684E-01 0.12729800E+03</pdfrwt>
<pdfrwt beam="2">  1       -1 0.50235741E-02 0.12729800E+03</pdfrwt>
<totfact> 0.93688311E+03</totfact>
</mgrwt>
</event>
<event>
 7    1  0.6008063E-006  0.1333279E+03  0.7546771E-02  0.1239009E+00
          1   -1    0    0  501    0  0.00000000000E+00  0.00000000000E+00  0.34938592942E+03  0.34938592942E+03  0.00000000000E+00 0. -1.
         -1   -1    0    0    0  501 -0.00000000000E+00 -0.00000000000E+00 -0.63785866110E+02  0.63785866110E+02  0.00000000000E+00 0.  1.
         23    2    1    2    0    0  0.46378516373E+02  0.39367986460E+00  0.28877429958E+03  0.31806749716E+03  0.12500085955E+03 0.  0.
          5    1    3    3  502    0 -0.30428900845E+02 -0.19961329394E+02  0.30214554404E+02  0.47532956731E+02  0.47000000000E+01 0.  1.
         -5    1    3    3    0  502  0.76807417217E+02  0.20355009259E+02  0.25855974517E+03  0.27053454043E+03  0.47000000000E+01 0.  1.
        -11    1    1    2    0    0 -0.19922170096E+02  0.15525296231E+02  0.36775416877E+02  0.44613439353E+02  0.00000000000E+00 0. -1.
         11    1    1    2    0    0 -0.26456346277E+02 -0.15918976096E+02 -0.39949653142E+02  0.50490859019E+02  0.00000000000E+00 0.  1.
<mgrwt>
<rscale>  0 0.12251249E+03</rscale>
<asrwt>0</asrwt>
<pdfrwt beam="1">  1        1 0.53751680E-01 0.13332793E+03</pdfrwt>
<pdfrwt beam="2">  1       -1 0.98132104E-02 0.13332793E+03</pdfrwt>
<totfact> 0.43559158E+03</totfact>
</mgrwt>
</event>
<event>
 7    1  0.6008063E-006  0.1306517E+03  0.7546771E-02  0.1240765E+00
          2   -1    0    0  501    0  0.00000000000E+00  0.00000000000E+00  0.11600050822E+04  0.11600050822E+04  0.00000000000E+00 0. -1.
         -2   -1    0    0    0  501 -0.00000000000E+00 -0.00000000000E+00 -0.20417264179E+02  0.20417264179E+02  0.00000000000E+00 0.  1.
         23    2    1    2    0    0 -0.28754972526E+02 -0.24850439343E+02  0.10092338417E+04  0.10176555505E+04  0.12500191808E+03 0.  0.
          5    1    3    3  502    0  0.42733238977E+02  0.10520559936E+02  0.22139671654E+03  0.22577734162E+03  0.47000000000E+01 0. -1.
         -5    1    3    3    0  502 -0.71488211503E+02 -0.35370999279E+02  0.78783712515E+03  0.79187820891E+03  0.47000000000E+01 0. -1.
        -11    1    1    2    0    0  0.88352769267E+01  0.34197778121E+02  0.52097099304E+01  0.35702818156E+02  0.00000000000E+00 0.  1.
         11    1    1    2    0    0  0.19919695600E+02 -0.93473387773E+01  0.12514426643E+03  0.12706397772E+03  0.00000000000E+00 0. -1.
<mgrwt>
<rscale>  0 0.12142463E+03</rscale>
<asrwt>0</asrwt>
<pdfrwt beam="1">  1        2 0.17846227E+00 0.13065172E+03</pdfrwt>
<pdfrwt beam="2">  1       -2 0.31411185E-02 0.13065172E+03</pdfrwt>
<totfact> 0.80794514E+03</totfact>
</mgrwt>
</event>
<event>
 7    1  0.6008063E-006  0.1356293E+03  0.7546771E-02  0.1231444E+00
         -1   -1    0    0    0  501 -0.00000000000E+00  0.00000000000E+00  0.11838717364E+03  0.11838717364E+03  0.00000000000E+00 0.  1.
          1   -1    0    0  501    0  0.00000000000E+00 -0.00000000000E+00 -0.12446867937E+03  0.12446867937E+03  0.00000000000E+00 0. -1.
         23    2    1    2    0    0  0.42113186335E+02 -0.31572578856E+02  0.10954564786E+02  0.13607095711E+03  0.12499981872E+03 0.  0.
          5    1    3    3  502    0  0.45406798099E+02 -0.55536585530E+02 -0.37962559388E+02  0.81297820151E+02  0.47000000000E+01 0.  1.
         -5    1    3    3    0  502 -0.32936117634E+01  0.23964006674E+02  0.48917124175E+02  0.54773136955E+02  0.47000000000E+01 0.  1.
        -11    1    1    2    0    0 -0.39284301548E+01  0.15579106954E+02 -0.50852377252E+02  0.53330154783E+02  0.00000000000E+00 0. -1.
         11    1    1    2    0    0 -0.38184756180E+02  0.15993471903E+02  0.33816306732E+02  0.53454741128E+02  0.00000000000E+00 0.  1.
<mgrwt>
<rscale>  0 0.12734825E+03</rscale>
<asrwt>0</asrwt>
<pdfrwt beam="2">  1        1 0.19149028E-01 0.13562928E+03</pdfrwt>
<pdfrwt beam="1">  1       -1 0.18213411E-01 0.13562928E+03</pdfrwt>
<totfact> 0.60373965E+03</totfact>
</mgrwt>
</event>
<event>
 6    1  0.6008063E-006  0.2852452E+03  0.7546771E-02  0.1099901E+00
          2   -1    0    0  501    0  0.00000000000E+00  0.00000000000E+00  0.53805093705E+03  0.53805093705E+03  0.00000000000E+00 0. -1.
         -2   -1    0    0    0  501 -0.00000000000E+00 -0.00000000000E+00 -0.15988228070E+03  0.15988228070E+03  0.00000000000E+00 0.  1.
          5    1    1    2  502    0  0.20636415720E+02  0.21732888618E+03  0.36957000994E+03  0.42925725232E+03  0.47000000000E+01 0. -1.
         -5    1    1    2    0  502 -0.29058674007E+02  0.16646350964E+01 -0.86942816188E+01  0.30738543849E+02  0.47000000000E+01 0.  1.
        -11    1    1    2    0    0 -0.92909120583E+01 -0.77453438127E+02  0.48584947221E+02  0.91901323282E+02  0.00000000000E+00 0. -1.
         11    1    1    2    0    0  0.17713170345E+02 -0.14154008315E+03 -0.31292019190E+02  0.14603609830E+03  0.00000000000E+00 0.  1.
<mgrwt>
<rscale>  0 0.27242187E+03</rscale>
<asrwt>0</asrwt>
<pdfrwt beam="1">  1        2 0.82777066E-01 0.28524523E+03</pdfrwt>
<pdfrwt beam="2">  1       -2 0.24597274E-01 0.28524523E+03</pdfrwt>
<totfact> 0.84006430E+02</totfact>
</mgrwt>
</event>
<event>
 7    1  0.6008063E-006  0.1326104E+03  0.7546771E-02  0.1236593E+00
         -1   -1    0    0    0  501 -0.00000000000E+00  0.00000000000E+00  0.17083824385E+02  0.17083824385E+02  0.00000000000E+00 0.  1.
          1   -1    0    0  501    0  0.00000000000E+00 -0.00000000000E+00 -0.11184664112E+04  0.11184664112E+04  0.00000000000E+00 0. -1.
         23    2    1    2    0    0 -0.44146947135E+02 -0.35255971673E+01 -0.90334267759E+03  0.91302437981E+03  0.12499656873E+03 0.  0.
          5    1    3    3  502    0  0.39235602245E+02 -0.87512058063E+01 -0.16222382742E+03  0.16719651991E+03  0.47000000000E+01 0.  1.
         -5    1    3    3    0  502 -0.83382549380E+02  0.52256086390E+01 -0.74111885017E+03  0.74582785990E+03  0.47000000000E+01 0.  1.
        -11    1    1    2    0    0  0.20439048325E+01  0.31140652150E+02 -0.14902279548E+03  0.15225541480E+03  0.00000000000E+00 0. -1.
         11    1    1    2    0    0  0.42103042303E+02 -0.27615054983E+02 -0.49017113690E+02  0.70270440922E+02  0.00000000000E+00 0.  1.
<mgrwt>
<rscale>  0 0.12403010E+03</rscale>
<asrwt>0</asrwt>
<pdfrwt beam="2">  1        1 0.17207179E+00 0.13261043E+03</pdfrwt>
<pdfrwt beam="1">  1       -1 0.26282802E-02 0.13261043E+03</pdfrwt>
<totfact> 0.58494947E+03</totfact>
</mgrwt>
</event>
<event>
 7    1  0.6008063E-006  0.1261756E+03  0.7546771E-02  0.1248061E+00
         -2   -1    0    0    0  501 -0.00000000000E+00  0.00000000000E+00  0.21566150295E+02  0.21566150295E+02  0.00000000000E+00 0.  1.
          2   -1    0    0  501    0  0.00000000000E+00 -0.00000000000E+00 -0.66222653096E+03  0.66222653096E+03  0.00000000000E+00 0. -1.
         23    2    1    2    0    0 -0.78572744367E+01  0.15205775185E+02 -0.49439252408E+03  0.51023940975E+03  0.12500933977E+03 0.  0.
          5    1    3    3  502    0  0.24533385751E+02 -0.40667425453E+02 -0.10292005801E+03  0.11344758636E+03  0.47000000000E+01 0.  1.
         -5    1    3    3    0  502 -0.32390660188E+02  0.55873200637E+02 -0.39147246607E+03  0.39679182339E+03  0.47000000000E+01 0.  1.
        -11    1    1    2    0    0 -0.34859067717E+02  0.10015791025E+02 -0.29731581030E+02  0.46898161825E+02  0.00000000000E+00 0.  1.
         11    1    1    2    0    0  0.42716342154E+02 -0.25221566210E+02 -0.11653627556E+03  0.12665510969E+03  0.00000000000E+00 0. -1.
<mgrwt>
<rscale>  0 0.11704054E+03</rscale>
<asrwt>0</asrwt>
<pdfrwt beam="2">  1        2 0.10188101E+00 0.12617562E+03</pdfrwt>
<pdfrwt beam="1">  1       -2 0.33178691E-02 0.12617562E+03</pdfrwt>
<totfact> 0.15428878E+04</totfact>
</mgrwt>
</event>
<event>
 7    1  0.6008063E-006  0.1393572E+03  0.7546771E-02  0.1232528E+00
         -1   -1    0    0    0  501 -0.00000000000E+00  0.00000000000E+00  0.44712234846E+03  0.44712234846E+03  0.00000000000E+00 0.  1.
          1   -1    0    0  501    0  0.00000000000E+00 -0.00000000000E+00 -0.33857719893E+02  0.33857719893E+02  0.00000000000E+00 0. -1.
         23    2    1    2    0    0  0.53059811778E+02 -0.31295540094E+02  0.17006097126E+03  0.21986621920E+03  0.12500266375E+03 0.  0.
          5    1    3    3  502    0  0.65806366949E+02 -0.61241547481E+02  0.68506213542E+02  0.11312027388E+03  0.47000000000E+01 0. -1.
         -5    1    3    3    0  502 -0.12746555171E+02  0.29946007387E+02  0.10155475772E+03  0.10674594532E+03  0.47000000000E+01 0. -1.
        -11    1    1    2    0    0 -0.62759260121E+02  0.45546638849E+02  0.19116341432E+03  0.20629268532E+03  0.00000000000E+00 0.  1.
         11    1    1    2    0    0  0.96994483433E+01 -0.14251098755E+02  0.52040242983E+02  0.54821163829E+02  0.00000000000E+00 0. -1.
<mgrwt>
<rscale>  0 0.12664047E+03</rscale>
<asrwt>0</asrwt>
<pdfrwt beam="2">  1        1 0.52088803E-02 0.13935717E+03</pdfrwt>
<pdfrwt beam="1">  1       -1 0.68788049E-01 0.13935717E+03</pdfrwt>
<totfact> 0.33630427E+03</totfact>
</mgrwt>
</event>
<event>
 7    1  0.6008063E-006  0.1270277E+03  0.7546771E-02  0.1248533E+00
          2   -1    0    0  501    0  0.00000000000E+00  0.00000000000E+00  0.21500395588E+03  0.21500395588E+03  0.00000000000E+00 0. -1.
         -2   -1    0    0    0  501 -0.00000000000E+00 -0.00000000000E+00 -0.57884807389E+02  0.57884807389E+02  0.00000000000E+00 0.  1.
         23    2    1    2    0    0  0.10116015384E+02  0.20208211573E+02  0.12049423487E+03  0.17508537517E+03  0.12500128951E+03 0.  0.
          5    1    3    3  502    0  0.95474142529E+00 -0.29898046712E+02  0.12017498656E+03  0.12393111846E+03  0.47000000000E+01 0.  1.
         -5    1    3    3    0  502  0.91612739591E+01  0.50106258285E+02  0.31924831335E+00  0.51154256708E+02  0.47000000000E+01 0.  1.
        -11    1    1    2    0    0 -0.12208821962E+02  0.25262734196E+02  0.43504084772E+02  0.51767426676E+02  0.00000000000E+00 0. -1.
         11    1    1    2    0    0  0.20928065773E+01 -0.45470945770E+02 -0.68791711527E+01  0.46035961425E+02  0.00000000000E+00 0.  1.
<mgrwt>
<rscale>  0 0.11676425E+03</rscale>
<asrwt>0</asrwt>
<pdfrwt beam="1">  1        2 0.33077531E-01 0.12702767E+03</pdfrwt>
<pdfrwt beam="2">  1       -2 0.89053551E-02 0.12702767E+03</pdfrwt>
<totfact> 0.11753199E+04</totfact>
</mgrwt>
</event>
<event>
 6    1  0.6008063E-006  0.1443912E+03  0.7546771E-02  0.1226368E+00
          2   -1    0    0  501    0  0.00000000000E+00  0.00000000000E+00  0.14556128756E+04  0.14556128756E+04  0.00000000000E+00 0. -1.
         -2   -1    0    0    0  501 -0.00000000000E+00 -0.00000000000E+00 -0.14225175953E+02  0.14225175953E+02  0.00000000000E+00 0.  1.
          5    1    1    2  502    0 -0.19773725624E+02  0.37699756894E+01  0.11416963445E+04  0.11418834642E+04  0.47000000000E+01 0. -1.
         -5    1    1    2    0  502  0.16648425070E+02 -0.31500259326E+02  0.73020208307E+02  0.81384748056E+02  0.47000000000E+01 0.  1.
        -11    1    1    2    0    0  0.22277220592E+01  0.60730788664E+02  0.11432231575E+03  0.12947116790E+03  0.00000000000E+00 0.  1.
         11    1    1    2    0    0  0.89757849483E+00 -0.33000505028E+02  0.11234883108E+03  0.11709867132E+03  0.00000000000E+00 0. -1.
<mgrwt>
<rscale>  0 0.13073561E+03</rscale>
<asrwt>0</asrwt>
<pdfrwt beam="1">  1        2 0.22394032E+00 0.14439119E+03</pdfrwt>
<pdfrwt beam="2">  1       -2 0.21884898E-02 0.14439119E+03</pdfrwt>
<totfact> 0.95376568E+03</totfact>
</mgrwt>
</event>
<event>
 7    1  0.6008063E-006  0.1661581E+03  0.7546771E-02  0.1188850E+00
         -2   -1    0    0    0  501 -0.00000000000E+00  0.00000000000E+00  0.23556696210E+03  0.23556696210E+03  0.00000000000E+00 0.  1.
          2   -1    0    0  501    0  0.00000000000E+00 -0.00000000000E+00 -0.11539485697E+03  0.11539485697E+03  0.00000000000E+00 0. -1.
         23    2    1    2    0    0  0.47354113142E+01 -0.10935629627E+03  0.23793205995E+01  0.16617508911E+03  0.12500910136E+03 0.  0.
          5    1    3    3  502    0  0.28752076638E+02 -0.90104580453E+02 -0.48598839446E+02  0.10643991040E+03  0.47000000000E+01 0. -1.
         -5    1    3    3    0  502 -0.24016665324E+02 -0.19251715813E+02  0.50978160045E+02  0.59735178719E+02  0.47000000000E+01 0. -1.
        -11    1    1    2    0    0  0.39028402553E+01  0.12295723568E+03  0.11506566508E+03  0.16844530640E+03  0.00000000000E+00 0.  1.
         11    1    1    2    0    0 -0.86382515694E+01 -0.13600939414E+02  0.27271194479E+01  0.16341423549E+02  0.00000000000E+00 0. -1.
<mgrwt>
<rscale>  0 0.15986391E+03</rscale>
<asrwt>0</asrwt>
<pdfrwt beam="2">  1        2 0.17753055E-01 0.16615805E+03</pdfrwt>
<pdfrwt beam="1">  1       -2 0.36241071E-01 0.16615805E+03</pdfrwt>
<totfact> 0.22433158E+03</totfact>
</mgrwt>
</event>
<event>
 7    1  0.6008063E-006  0.1367814E+03  0.7546771E-02  0.1228032E+00
          3   -1    0    0  501    0  0.00000000000E+00  0.00000000000E+00  0.26516688313E+02  0.26516688313E+02  0.00000000000E+00 0. -1.
         -3   -1    0    0    0  501 -0.00000000000E+00 -0.00000000000E+00 -0.60482147519E+03  0.60482147519E+03  0.00000000000E+00 0.  1.
         23    2    1    2    0    0 -0.19233317309E+02  0.52099887986E+02 -0.24953087393E+03  0.28456072850E+03  0.12499932935E+03 0.  0.
          5    1    3    3  502    0  0.35214683729E+02  0.28616819112E+02 -0.20563727757E+03  0.21063659752E+03  0.47000000000E+01 0. -1.
         -5    1    3    3    0  502 -0.54448001038E+02  0.23483068874E+02 -0.43893596356E+02  0.73924130984E+02  0.47000000000E+01 0. -1.
        -11    1    1    2    0    0 -0.31023050430E+02  0.75872103183E+01 -0.10784148702E+03  0.11247124851E+03  0.00000000000E+00 0.  1.
         11    1    1    2    0    0  0.50256367739E+02 -0.59687098305E+02 -0.22093242592E+03  0.23430618649E+03  0.00000000000E+00 0. -1.
<mgrwt>
<rscale>  0 0.12961261E+03</rscale>
<asrwt>0</asrwt>
<pdfrwt beam="1">  1        3 0.40794906E-02 0.13678140E+03</pdfrwt>
<pdfrwt beam="2">  1       -3 0.93049456E-01 0.13678140E+03</pdfrwt>
<totfact> 0.77683615E+02</totfact>
</mgrwt>
</event>
<event>
 7    1  0.6008063E-006  0.1392804E+03  0.7546771E-02  0.1227211E+00
          2   -1    0    0  501    0  0.00000000000E+00  0.00000000000E+00  0.48473451881E+02  0.48473451881E+02  0.00000000000E+00 0. -1.
         -2   -1    0    0    0  501 -0.00000000000E+00 -0.00000000000E+00 -0.35122294911E+03  0.35122294911E+03  0.00000000000E+00 0.  1.
         23    2    1    2    0    0 -0.61353126936E+02  0.31644193219E+01 -0.10223878302E+03  0.17277671508E+03  0.12499921914E+03 0.  0.
          5    1    3    3  502    0 -0.97256869770E+02 -0.13316497194E+02 -0.82751165065E+02  0.12847596326E+03  0.47000000000E+01 0.  1.
         -5    1    3    3    0  502  0.35903742834E+02  0.16480916516E+02 -0.19487617958E+02  0.44300751827E+02  0.47000000000E+01 0.  1.
        -11    1    1    2    0    0  0.30269535387E+02  0.27086867733E+02 -0.16765693027E+03  0.17250736055E+03  0.00000000000E+00 0.  1.
         11    1    1    2    0    0  0.31083591549E+02 -0.30251287055E+02 -0.32853783934E+02  0.54412325358E+02  0.00000000000E+00 0. -1.
<mgrwt>
<rscale>  0 0.13016510E+03</rscale>
<asrwt>0</asrwt>
<pdfrwt beam="1">  1        2 0.74574543E-02 0.13928038E+03</pdfrwt>
<pdfrwt beam="2">  1       -2 0.54034299E-01 0.13928038E+03</pdfrwt>
<totfact> 0.29325652E+03</totfact>
</mgrwt>
</event>
<event>
 6    1  0.6008063E-006  0.2386852E+03  0.7546771E-02  0.1147296E+00
          2   -1    0    0  501    0  0.00000000000E+00  0.00000000000E+00  0.12346352639E+04  0.12346352639E+04  0.00000000000E+00 0. -1.
         -2   -1    0    0    0  501 -0.00000000000E+00 -0.00000000000E+00 -0.31214656728E+02  0.31214656728E+02  0.00000000000E+00 0.  1.
          5    1    1    2  502    0  0.52635394534E+01  0.58399510096E+02  0.68233374665E+03  0.68486468696E+03  0.47000000000E+01 0. -1.
         -5    1    1    2    0  502 -0.84626301170E+02 -0.97327043599E+02  0.31043133715E+03  0.33619022793E+03  0.47000000000E+01 0.  1.
        -11    1    1    2    0    0  0.58507411292E+02 -0.12065282775E+02  0.15661966207E+03  0.16762579387E+03  0.00000000000E+00 0.  1.
         11    1    1    2    0    0  0.20855350425E+02  0.50992816278E+02  0.54035861274E+02  0.77169211846E+02  0.00000000000E+00 0. -1.
<mgrwt>
<rscale>  0 0.20292306E+03</rscale>
<asrwt>0</asrwt>
<pdfrwt beam="1">  1        2 0.18994385E+00 0.23868521E+03</pdfrwt>
<pdfrwt beam="2">  1       -2 0.48022558E-02 0.23868521E+03</pdfrwt>
<totfact> 0.39641610E+03</totfact>
</mgrwt>
</event>
<event>
 7    1  0.6008063E-006  0.1270454E+03  0.7546771E-02  0.1247792E+00
         -2   -1    0    0    0  501 -0.00000000000E+00  0.00000000000E+00  0.71803950310E+02  0.71803950310E+02  0.00000000000E+00 0.  1.
          2   -1    0    0  501    0  0.00000000000E+00 -0.00000000000E+00 -0.16723020647E+03  0.16723020647E+03  0.00000000000E+00 0. -1.
         23    2    1    2    0    0  0.22536836597E+02  0.20695704688E+01 -0.59095516486E+02  0.14011714689E+03  0.12501336992E+03 0.  0.
          5    1    3    3  502    0  0.45094212425E+02 -0.51288995890E+02 -0.25948528552E+02  0.73208368563E+02  0.47000000000E+01 0.  1.
         -5    1    3    3    0  502 -0.22557375827E+02  0.53358566359E+02 -0.33146987933E+02  0.66908778327E+02  0.47000000000E+01 0.  1.
        -11    1    1    2    0    0  0.19823890260E+02 -0.39965974255E+01  0.19978276325E+02  0.28426940407E+02  0.00000000000E+00 0.  1.
         11    1    1    2    0    0 -0.42360726857E+02  0.19270269566E+01 -0.56309015997E+02  0.70490069480E+02  0.00000000000E+00 0. -1.
<mgrwt>
<rscale>  0 0.11719804E+03</rscale>
<asrwt>0</asrwt>
<pdfrwt beam="2">  1        2 0.25727724E-01 0.12704540E+03</pdfrwt>
<pdfrwt beam="1">  1       -2 0.11046762E-01 0.12704540E+03</pdfrwt>
<totfact> 0.11009027E+04</totfact>
</mgrwt>
</event>
<event>
 7    1  0.6008063E-006  0.1374064E+03  0.7546771E-02  0.1228351E+00
         -1   -1    0    0    0  501 -0.00000000000E+00  0.00000000000E+00  0.15208232680E+02  0.15208232680E+02  0.00000000000E+00 0.  1.
          1   -1    0    0  501    0  0.00000000000E+00 -0.00000000000E+00 -0.10333967846E+04  0.10333967846E+04  0.00000000000E+00 0. -1.
         23    2    1    2    0    0 -0.23844865738E+02 -0.51846276100E+02 -0.67345685102E+03  0.68733153735E+03  0.12499559225E+03 0.  0.
          5    1    3    3  502    0 -0.66453501361E+02 -0.10177673302E+02 -0.22405571981E+03  0.23397159755E+03  0.47000000000E+01 0. -1.
         -5    1    3    3    0  502  0.42608635623E+02 -0.41668602798E+02 -0.44940113121E+03  0.45335993980E+03  0.47000000000E+01 0. -1.
        -11    1    1    2    0    0  0.57616116260E+01  0.76923792024E+02 -0.24839197210E+03  0.26009428627E+03  0.00000000000E+00 0.  1.
         11    1    1    2    0    0  0.18083254112E+02 -0.25077515924E+02 -0.96339728829E+02  0.10117919369E+03  0.00000000000E+00 0. -1.
<mgrwt>
<rscale>  0 0.12939841E+03</rscale>
<asrwt>0</asrwt>
<pdfrwt beam="2">  1        1 0.15898418E+00 0.13740638E+03</pdfrwt>
<pdfrwt beam="1">  1       -1 0.23397272E-02 0.13740638E+03</pdfrwt>
<totfact> 0.79700126E+03</totfact>
</mgrwt>
</event>
<event>
 7    1  0.6008063E-006  0.3277864E+03  0.7546771E-02  0.1073401E+00
         -3   -1    0    0    0  501 -0.00000000000E+00  0.00000000000E+00  0.67157906139E+03  0.67157906139E+03  0.00000000000E+00 0.  1.
          3   -1    0    0  501    0  0.00000000000E+00 -0.00000000000E+00 -0.15464596907E+03  0.15464596907E+03  0.00000000000E+00 0. -1.
         23    2    1    2    0    0  0.88649473732E+02 -0.28976548628E+03  0.25197903775E+03  0.41344575334E+03  0.12498475609E+03 0.  0.
          5    1    3    3  502    0 -0.75912178256E+01 -0.16673207287E+03  0.16431796458E+03  0.23426415474E+03  0.47000000000E+01 0. -1.
         -5    1    3    3    0  502  0.96240691558E+02 -0.12303341341E+03  0.87661073168E+02  0.17918159860E+03  0.47000000000E+01 0. -1.
        -11    1    1    2    0    0 -0.68166165161E+02  0.28800393440E+03  0.24810189415E+03  0.38619611881E+03  0.00000000000E+00 0.  1.
         11    1    1    2    0    0 -0.20483308571E+02  0.17615518839E+01  0.16852160426E+02  0.26583158317E+02  0.00000000000E+00 0. -1.
<mgrwt>
<rscale>  0 0.32493326E+03</rscale>
<asrwt>0</asrwt>
<pdfrwt beam="2">  1        3 0.23791688E-01 0.32778645E+03</pdfrwt>
<pdfrwt beam="1">  1       -3 0.10331985E+00 0.32778645E+03</pdfrwt>
<totfact> 0.34678960E+01</totfact>
</mgrwt>
</event>
<event>
 7    1  0.6008063E-006  0.1449144E+03  0.7546771E-02  0.1217152E+00
          2   -1    0    0  501    0  0.00000000000E+00  0.00000000000E+00  0.46293829581E+03  0.46293829581E+03  0.00000000000E+00 0. -1.
         -2   -1    0    0    0  501 -0.00000000000E+00 -0.00000000000E+00 -0.38708782280E+02  0.38708782280E+02  0.00000000000E+00 0.  1.
         23    2    1    2    0    0 -0.25370527980E+02  0.68790198671E+02  0.28833066729E+03  0.32269918287E+03  0.12499773519E+03 0.  0.
          5    1    3    3  502    0 -0.51627245447E+02  0.79398479985E+02  0.12516828084E+03  0.15703082381E+03  0.47000000000E+01 0.  1.
         -5    1    3    3    0  502  0.26256717467E+02 -0.10608281313E+02  0.16316238644E+03  0.16566835906E+03  0.47000000000E+01 0.  1.
        -11    1    1    2    0    0  0.15619090507E+02  0.12486869736E+02  0.73068258013E+02  0.75755186179E+02  0.00000000000E+00 0. -1.
         11    1    1    2    0    0  0.97514374735E+01 -0.81277068407E+02  0.62830588230E+02  0.10319270904E+03  0.00000000000E+00 0.  1.
<mgrwt>
<rscale>  0 0.13719603E+03</rscale>
<asrwt>0</asrwt>
<pdfrwt beam="1">  1        2 0.71221272E-01 0.14491442E+03</pdfrwt>
<pdfrwt beam="2">  1       -2 0.59551976E-02 0.14491442E+03</pdfrwt>
<totfact> 0.97166889E+03</totfact>
</mgrwt>
</event>
<event>
 7    1  0.6008063E-006  0.2677195E+03  0.7546771E-02  0.1104742E+00
         -2   -1    0    0    0  501 -0.00000000000E+00  0.00000000000E+00  0.93446994630E+02  0.93446994630E+02  0.00000000000E+00 0.  1.
          2   -1    0    0  501    0  0.00000000000E+00 -0.00000000000E+00 -0.74807637529E+03  0.74807637529E+03  0.00000000000E+00 0. -1.
         23    2    1    2    0    0 -0.45251328683E+02  0.23238049234E+03 -0.40803645433E+03  0.48802402913E+03  0.12500131589E+03 0.  0.
          5    1    3    3  502    0 -0.20721498823E+02 -0.10374308324E+02 -0.33757961972E+02  0.41215249401E+02  0.47000000000E+01 0. -1.
         -5    1    3    3    0  502 -0.24529829859E+02  0.24275480066E+03 -0.37427849236E+03  0.44680877973E+03  0.47000000000E+01 0. -1.
        -11    1    1    2    0    0 -0.31505009143E+01 -0.23614168670E+02  0.35755178935E+01  0.24090225117E+02  0.00000000000E+00 0. -1.
         11    1    1    2    0    0  0.48401829597E+02 -0.20876632367E+03 -0.25016844422E+03  0.32940911568E+03  0.00000000000E+00 0.  1.
<mgrwt>
<rscale>  0 0.26403571E+03</rscale>
<asrwt>0</asrwt>
<pdfrwt beam="2">  1        2 0.11508867E+00 0.26771945E+03</pdfrwt>
<pdfrwt beam="1">  1       -2 0.14376461E-01 0.26771945E+03</pdfrwt>
<totfact> 0.14193847E+03</totfact>
</mgrwt>
</event>
<event>
 7    1  0.6008063E-006  0.1233123E+03  0.7546771E-02  0.1252822E+00
         -2   -1    0    0    0  501 -0.00000000000E+00  0.00000000000E+00  0.96528963215E+02  0.96528963215E+02  0.00000000000E+00 0.  1.
          2   -1    0    0  501    0  0.00000000000E+00 -0.00000000000E+00 -0.17439276665E+03  0.17439276665E+03  0.00000000000E+00 0. -1.
         23    2    1    2    0    0  0.10209177463E+02 -0.53359510450E+00 -0.11871726266E+03  0.17117158555E+03  0.12288779930E+03 0.  0.
          5    1    3    3  502    0  0.24729632381E+02 -0.87993443272E+01 -0.14067628594E+03  0.14318132073E+03  0.47000000000E+01 0. -1.
         -5    1    3    3    0  502 -0.14520454919E+02  0.82657492227E+01  0.21959023282E+02  0.27990264821E+02  0.47000000000E+01 0.  1.
        -11    1    1    2    0    0 -0.35434992573E+02 -0.32670168779E+02  0.29592786547E+02  0.56557153768E+02  0.00000000000E+00 0. -1.
         11    1    1    2    0    0  0.25225815111E+02  0.33203763883E+02  0.11260672674E+02  0.43192990555E+02  0.00000000000E+00 0.  1.
<mgrwt>
<rscale>  0 0.11429197E+03</rscale>
<asrwt>0</asrwt>
<pdfrwt beam="2">  1        2 0.26829656E-01 0.12331230E+03</pdfrwt>
<pdfrwt beam="1">  1       -2 0.14850610E-01 0.12331230E+03</pdfrwt>
<totfact> 0.65258196E+03</totfact>
</mgrwt>
</event>
<event>
 7    1  0.6008063E-006  0.1353757E+03  0.7546771E-02  0.1231894E+00
          2   -1    0    0  501    0  0.00000000000E+00  0.00000000000E+00  0.16784983213E+04  0.16784983213E+04  0.00000000000E+00 0. -1.
         -2   -1    0    0    0  501 -0.00000000000E+00 -0.00000000000E+00 -0.11036769152E+02  0.11036769152E+02  0.00000000000E+00 0.  1.
         23    2    1    2    0    0  0.16960182117E+02  0.49136348384E+02  0.13095937130E+04  0.13165721697E+04  0.12499822560E+03 0.  0.
          5    1    3    3  502    0  0.43642512619E+02  0.81039769879E+02  0.80939937324E+03  0.81462970030E+03  0.47000000000E+01 0.  1.
         -5    1    3    3    0  502 -0.26682330502E+02 -0.31903421496E+02  0.50019433976E+03  0.50194246941E+03  0.47000000000E+01 0.  1.
        -11    1    1    2    0    0 -0.47887870830E+02 -0.88393229315E+01  0.23529029108E+03  0.24027672146E+03  0.00000000000E+00 0. -1.
         11    1    1    2    0    0  0.30927688714E+02 -0.40297025452E+02  0.12257754810E+03  0.13268619931E+03  0.00000000000E+00 0.  1.
<mgrwt>
<rscale>  0 0.12705364E+03</rscale>
<asrwt>0</asrwt>
<pdfrwt beam="1">  1        2 0.25823031E+00 0.13537572E+03</pdfrwt>
<pdfrwt beam="2">  1       -2 0.16979658E-02 0.13537572E+03</pdfrwt>
<totfact> 0.10539136E+04</totfact>
</mgrwt>
</event>
<event>
 7    1  0.6008063E-006  0.1405169E+03  0.7546771E-02  0.1223750E+00
         -2   -1    0    0    0  501 -0.00000000000E+00  0.00000000000E+00  0.14367062174E+02  0.14367062174E+02  0.00000000000E+00 0.  1.
          2   -1    0    0  501    0  0.00000000000E+00 -0.00000000000E+00 -0.13338124123E+04  0.13338124123E+04  0.00000000000E+00 0. -1.
         23    2    1    2    0    0 -0.63454961921E+02  0.96539011915E+01 -0.10024235981E+04  0.10122243163E+04  0.12500106621E+03 0.  0.
          5    1    3    3  502    0 -0.79646122164E+02  0.86977238714E+01 -0.33109429354E+03  0.34068266230E+03  0.47000000000E+01 0. -1.
         -5    1    3    3    0  502  0.16191160244E+02  0.95617732009E+00 -0.67132930455E+03  0.67154165403E+03  0.47000000000E+01 0. -1.
        -11    1    1    2    0    0  0.68757090850E+01  0.34100494286E+02 -0.15488522499E+03  0.15874366761E+03  0.00000000000E+00 0. -1.
         11    1    1    2    0    0  0.56579252835E+02 -0.43754395477E+02 -0.16213652701E+03  0.17721149050E+03  0.00000000000E+00 0.  1.
<mgrwt>
<rscale>  0 0.13252940E+03</rscale>
<asrwt>0</asrwt>
<pdfrwt beam="2">  1        2 0.20520190E+00 0.14051689E+03</pdfrwt>
<pdfrwt beam="1">  1       -2 0.22103174E-02 0.14051689E+03</pdfrwt>
<totfact> 0.10894960E+04</totfact>
</mgrwt>
</event>
<event>
 7    1  0.6008063E-006  0.1429468E+03  0.7546771E-02  0.1219706E+00
          1   -1    0    0  501    0  0.00000000000E+00  0.00000000000E+00  0.15119664573E+03  0.15119664573E+03  0.00000000000E+00 0. -1.
         -1   -1    0    0    0  501 -0.00000000000E+00 -0.00000000000E+00 -0.11788704979E+03  0.11788704979E+03  0.00000000000E+00 0.  1.
         23    2    1    2    0    0 -0.37665496260E+02  0.58239405724E+02  0.53013387966E+02  0.15246055227E+03  0.12499313064E+03 0.  0.
          5    1    3    3  502    0 -0.32947683591E+02  0.34573662425E+02  0.93498749817E+02  0.10509516737E+03  0.47000000000E+01 0.  1.
         -5    1    3    3    0  502 -0.47178126687E+01  0.23665743299E+02 -0.40485361851E+02  0.47365384897E+02  0.47000000000E+01 0.  1.
        -11    1    1    2    0    0  0.23603798690E+01 -0.38452183537E+02  0.32615700079E+02  0.50476981918E+02  0.00000000000E+00 0. -1.
         11    1    1    2    0    0  0.35305116391E+02 -0.19787222187E+02 -0.52319492105E+02  0.66146161335E+02  0.00000000000E+00 0.  1.
<mgrwt>
<rscale>  0 0.13536455E+03</rscale>
<asrwt>0</asrwt>
<pdfrwt beam="1">  1        1 0.23261022E-01 0.14294685E+03</pdfrwt>
<pdfrwt beam="2">  1       -1 0.18136469E-01 0.14294685E+03</pdfrwt>
<totfact> 0.47652284E+03</totfact>
</mgrwt>
</event>
<event>
 7    1  0.6008063E-006  0.2143357E+03  0.7546771E-02  0.1141893E+00
         -1   -1    0    0    0  501 -0.00000000000E+00  0.00000000000E+00  0.26342867369E+02  0.26342867369E+02  0.00000000000E+00 0.  1.
          1   -1    0    0  501    0  0.00000000000E+00 -0.00000000000E+00 -0.24186114186E+04  0.24186114186E+04  0.00000000000E+00 0. -1.
         23    2    1    2    0    0 -0.16232048640E+03  0.62981129784E+02 -0.19432601434E+04  0.19550447040E+04  0.12500098667E+03 0.  0.
          5    1    3    3  502    0 -0.10809927215E+03  0.23719423323E+02 -0.60197061500E+03  0.61207742566E+03  0.47000000000E+01 0. -1.
         -5    1    3    3    0  502 -0.54221214249E+02  0.39261706461E+02 -0.13412895284E+04  0.13429672784E+04  0.47000000000E+01 0. -1.
        -11    1    1    2    0    0  0.16269459078E+03 -0.37357827292E+02 -0.35203260848E+03  0.38960504946E+03  0.00000000000E+00 0. -1.
         11    1    1    2    0    0 -0.37410437520E+00 -0.25623302492E+02 -0.96975799357E+02  0.10030453253E+03  0.00000000000E+00 0.  1.
<mgrwt>
<rscale>  0 0.20958798E+03</rscale>
<asrwt>0</asrwt>
<pdfrwt beam="2">  1        1 0.37209411E+00 0.21433574E+03</pdfrwt>
<pdfrwt beam="1">  1       -1 0.40527483E-02 0.21433574E+03</pdfrwt>
<totfact> 0.43766093E+02</totfact>
</mgrwt>
</event>
<event>
 7    1  0.6008063E-006  0.2001602E+03  0.7546771E-02  0.1153451E+00
         -1   -1    0    0    0  501 -0.00000000000E+00  0.00000000000E+00  0.67190908668E+03  0.67190908668E+03  0.00000000000E+00 0.  1.
          1   -1    0    0  501    0  0.00000000000E+00 -0.00000000000E+00 -0.62607663402E+02  0.62607663402E+02  0.00000000000E+00 0. -1.
         23    2    1    2    0    0  0.13379742342E+03  0.80821784164E+02  0.18514265167E+03  0.27265714185E+03  0.12502081516E+03 0.  0.
          5    1    3    3  502    0  0.27826868437E+02  0.21661953774E+02  0.13776922994E+03  0.14228852928E+03  0.47000000000E+01 0.  1.
         -5    1    3    3    0  502  0.10597055499E+03  0.59159830390E+02  0.47373421736E+02  0.13036861257E+03  0.47000000000E+01 0.  1.
        -11    1    1    2    0    0 -0.18929358985E+02 -0.47712154249E+02  0.21409259277E+03  0.22015996133E+03  0.00000000000E+00 0.  1.
         11    1    1    2    0    0 -0.11486806444E+03 -0.33109629914E+02  0.21006617884E+03  0.24169964690E+03  0.00000000000E+00 0. -1.
<mgrwt>
<rscale>  0 0.19566248E+03</rscale>
<asrwt>0</asrwt>
<pdfrwt beam="2">  1        1 0.96319487E-02 0.20016022E+03</pdfrwt>
<pdfrwt beam="1">  1       -1 0.10337062E+00 0.20016022E+03</pdfrwt>
<totfact> 0.63028889E+02</totfact>
</mgrwt>
</event>
<event>
 7    1  0.6008063E-006  0.1206986E+03  0.7546771E-02  0.1248284E+00
         -1   -1    0    0    0  501 -0.00000000000E+00  0.00000000000E+00  0.53567358488E+02  0.53567358488E+02  0.00000000000E+00 0.  1.
          1   -1    0    0  501    0  0.00000000000E+00 -0.00000000000E+00 -0.28292174882E+03  0.28292174882E+03  0.00000000000E+00 0. -1.
         23    2    1    2    0    0 -0.28801316698E+02 -0.33605027054E+02 -0.18602450467E+03  0.22175048598E+03  0.11229135322E+03 0.  0.
          5    1    3    3  502    0  0.24251798236E+02 -0.48927027115E+02 -0.13774662063E+03  0.14825054872E+03  0.47000000000E+01 0. -1.
         -5    1    3    3    0  502 -0.53053114933E+02  0.15322000061E+02 -0.48277884041E+02  0.73499937262E+02  0.47000000000E+01 0.  1.
        -11    1    1    2    0    0  0.53942564591E+02 -0.10664791457E+02 -0.27110332397E+02  0.61306673162E+02  0.00000000000E+00 0.  1.
         11    1    1    2    0    0 -0.25141247893E+02  0.44269818511E+02 -0.16219553262E+02  0.53431948164E+02  0.00000000000E+00 0. -1.
<mgrwt>
<rscale>  0 0.11690992E+03</rscale>
<asrwt>0</asrwt>
<pdfrwt beam="2">  1        1 0.43526422E-01 0.12069864E+03</pdfrwt>
<pdfrwt beam="1">  1       -1 0.82411322E-02 0.12069864E+03</pdfrwt>
<totfact> 0.73226204E+03</totfact>
</mgrwt>
</event>
<event>
 7    1  0.6008063E-006  0.1316525E+03  0.7546771E-02  0.1238597E+00
         -2   -1    0    0    0  501 -0.00000000000E+00  0.00000000000E+00  0.11234782045E+03  0.11234782045E+03  0.00000000000E+00 0.  1.
          2   -1    0    0  501    0  0.00000000000E+00 -0.00000000000E+00 -0.12275982316E+03  0.12275982316E+03  0.00000000000E+00 0. -1.
         23    2    1    2    0    0 -0.35829949654E+02  0.20585291691E+02 -0.26405964062E+02  0.13427450812E+03  0.12499931627E+03 0.  0.
          5    1    3    3  502    0 -0.33854845865E+02  0.44752679046E+01  0.47371876091E+02  0.58586374318E+02  0.47000000000E+01 0.  1.
         -5    1    3    3    0  502 -0.19751037887E+01  0.16110023787E+02 -0.73777840152E+02  0.75688133805E+02  0.47000000000E+01 0.  1.
        -11    1    1    2    0    0 -0.59547229646E+01 -0.17541378871E+02 -0.32092955075E+02  0.37055586134E+02  0.00000000000E+00 0. -1.
         11    1    1    2    0    0  0.41784672619E+02 -0.30439128202E+01  0.48086916426E+02  0.63777549361E+02  0.00000000000E+00 0.  1.
<mgrwt>
<rscale>  0 0.12276914E+03</rscale>
<asrwt>0</asrwt>
<pdfrwt beam="2">  1        2 0.18886127E-01 0.13165245E+03</pdfrwt>
<pdfrwt beam="1">  1       -2 0.17284280E-01 0.13165245E+03</pdfrwt>
<totfact> 0.75551255E+03</totfact>
</mgrwt>
</event>
<event>
 7    1  0.6008063E-006  0.1773462E+03  0.7546771E-02  0.1175903E+00
          2   -1    0    0  501    0  0.00000000000E+00  0.00000000000E+00  0.69703099521E+03  0.69703099521E+03  0.00000000000E+00 0. -1.
         -2   -1    0    0    0  501 -0.00000000000E+00 -0.00000000000E+00 -0.53446912702E+02  0.53446912702E+02  0.00000000000E+00 0.  1.
         23    2    1    2    0    0 -0.48511377250E+02  0.11607054741E+03  0.52502330119E+03  0.55416708589E+03  0.12500386633E+03 0.  0.
          5    1    3    3  502    0 -0.63966755218E+02  0.11862418267E+03  0.30434386502E+03  0.33288244271E+03  0.47000000000E+01 0. -1.
         -5    1    3    3    0  502  0.15455377968E+02 -0.25536352658E+01  0.22067943617E+03  0.22128464318E+03  0.47000000000E+01 0. -1.
        -11    1    1    2    0    0  0.17133730200E+02 -0.56859361432E+01  0.68975462370E+02  0.71298730631E+02  0.00000000000E+00 0. -1.
         11    1    1    2    0    0  0.31377647050E+02 -0.11038461126E+03  0.49585318950E+02  0.12501209139E+03  0.00000000000E+00 0.  1.
<mgrwt>
<rscale>  0 0.17187819E+03</rscale>
<asrwt>0</asrwt>
<pdfrwt beam="1">  1        2 0.10723553E+00 0.17734625E+03</pdfrwt>
<pdfrwt beam="2">  1       -2 0.82226025E-02 0.17734625E+03</pdfrwt>
<totfact> 0.37567205E+03</totfact>
</mgrwt>
</event>
<event>
 6    1  0.6008063E-006  0.4094848E+03  0.7546771E-02  0.1040544E+00
         -3   -1    0    0    0  501 -0.00000000000E+00  0.00000000000E+00  0.29158729927E+03  0.29158729927E+03  0.00000000000E+00 0.  1.
          3   -1    0    0  501    0  0.00000000000E+00 -0.00000000000E+00 -0.14376292229E+03  0.14376292229E+03  0.00000000000E+00 0. -1.
          5    1    1    2  502    0  0.30449356951E+02 -0.13104093438E+03 -0.10354011032E+02  0.13501179713E+03  0.47000000000E+01 0. -1.
         -5    1    1    2    0  502 -0.35773392345E+01  0.20283430881E+02  0.41160910627E+02  0.46265813383E+02  0.47000000000E+01 0.  1.
        -11    1    1    2    0    0 -0.84337584106E+02  0.13520537019E+03  0.62489616214E+02  0.17116738111E+03  0.00000000000E+00 0.  1.
         11    1    1    2    0    0  0.57465566389E+02 -0.24447866698E+02  0.54527861170E+02  0.82905229934E+02  0.00000000000E+00 0. -1.
<mgrwt>
<rscale>  0 0.40948476E+03</rscale>
<asrwt>0</asrwt>
<pdfrwt beam="2">  1        3 0.22117373E-01 0.40948476E+03</pdfrwt>
<pdfrwt beam="1">  1       -3 0.44859585E-01 0.40948476E+03</pdfrwt>
<totfact> 0.24254535E+02</totfact>
</mgrwt>
</event>
<event>
 7    1  0.6008063E-006  0.1262664E+03  0.7546771E-02  0.1247696E+00
         -3   -1    0    0    0  501 -0.00000000000E+00  0.00000000000E+00  0.90660180468E+02  0.90660180468E+02  0.00000000000E+00 0.  1.
          3   -1    0    0  501    0  0.00000000000E+00 -0.00000000000E+00 -0.13368325365E+03  0.13368325365E+03  0.00000000000E+00 0. -1.
         23    2    1    2    0    0  0.84999003104E+01 -0.15712095191E+02 -0.25966938400E+02  0.12890879228E+03  0.12499630633E+03 0.  0.
          5    1    3    3  502    0 -0.41334558047E+02 -0.41434923172E+01 -0.55627753537E+02  0.69586285869E+02  0.47000000000E+01 0.  1.
         -5    1    3    3    0  502  0.49834458357E+02 -0.11568602873E+02  0.29660815137E+02  0.59322506410E+02  0.47000000000E+01 0.  1.
        -11    1    1    2    0    0 -0.49349768549E+02  0.48234252774E+01  0.67791389572E+00  0.49589561951E+02  0.00000000000E+00 0.  1.
         11    1    1    2    0    0  0.40849868238E+02  0.10888669913E+02 -0.17734048678E+02  0.45845079889E+02  0.00000000000E+00 0. -1.
<mgrwt>
<rscale>  0 0.11725463E+03</rscale>
<asrwt>0</asrwt>
<pdfrwt beam="2">  1        3 0.20566654E-01 0.12626636E+03</pdfrwt>
<pdfrwt beam="1">  1       -3 0.13947720E-01 0.12626636E+03</pdfrwt>
<totfact> 0.20324087E+03</totfact>
</mgrwt>
</event>
<event>
 7    1  0.6008063E-006  0.1284019E+03  0.7546771E-02  0.1240825E+00
         -3   -1    0    0    0  501 -0.00000000000E+00  0.00000000000E+00  0.27913555516E+03  0.27913555516E+03  0.00000000000E+00 0.  1.
          3   -1    0    0  501    0  0.00000000000E+00 -0.00000000000E+00 -0.48061211207E+02  0.48061211207E+02  0.00000000000E+00 0. -1.
         23    2    1    2    0    0 -0.12884146387E+02 -0.26357368453E+02  0.11586463443E+03  0.17294988672E+03  0.12500535071E+03 0.  0.
          5    1    3    3  502    0 -0.56066769839E+02  0.24548971002E+02  0.52096154390E+02  0.80512321787E+02  0.47000000000E+01 0. -1.
         -5    1    3    3    0  502  0.43182623452E+02 -0.50906339455E+02  0.63768480038E+02  0.92437564936E+02  0.47000000000E+01 0. -1.
        -11    1    1    2    0    0  0.67449669624E+01  0.54106210728E+02  0.25594777890E+02  0.60233456433E+02  0.00000000000E+00 0. -1.
         11    1    1    2    0    0  0.61391794242E+01 -0.27748842274E+02  0.89614931637E+02  0.94013423211E+02  0.00000000000E+00 0.  1.
<mgrwt>
<rscale>  0 0.12138765E+03</rscale>
<asrwt>0</asrwt>
<pdfrwt beam="2">  1        3 0.73940327E-02 0.12840191E+03</pdfrwt>
<pdfrwt beam="1">  1       -3 0.42943931E-01 0.12840191E+03</pdfrwt>
<totfact> 0.14936751E+03</totfact>
</mgrwt>
</event>
<event>
 7    1  0.6008063E-006  0.1130448E+03  0.7546771E-02  0.1263560E+00
         -2   -1    0    0    0  501 -0.00000000000E+00  0.00000000000E+00  0.86707095293E+01  0.86707095293E+01  0.00000000000E+00 0.  1.
          2   -1    0    0  501    0  0.00000000000E+00 -0.00000000000E+00 -0.12754206363E+04  0.12754206363E+04  0.00000000000E+00 0. -1.
         23    2    1    2    0    0 -0.20733684455E+02 -0.14468987671E+02 -0.76659273606E+03  0.77488292123E+03  0.11018112979E+03 0.  0.
          5    1    3    3  502    0 -0.53089632256E+02 -0.35538891025E+02 -0.61698081001E+03  0.62029745425E+03  0.47000000000E+01 0. -1.
         -5    1    3    3    0  502  0.32355947802E+02  0.21069903354E+02 -0.14961192605E+03  0.15458546698E+03  0.47000000000E+01 0.  1.
        -11    1    1    2    0    0 -0.36119317882E+02  0.10321522689E+02 -0.16355735096E+03  0.16781580976E+03  0.00000000000E+00 0. -1.
         11    1    1    2    0    0  0.56853002337E+02  0.41474649821E+01 -0.33659983976E+03  0.34139261484E+03  0.00000000000E+00 0.  1.
<mgrwt>
<rscale>  0 0.10840077E+03</rscale>
<asrwt>0</asrwt>
<pdfrwt beam="2">  1        2 0.19621860E+00 0.11304476E+03</pdfrwt>
<pdfrwt beam="1">  1       -2 0.13339550E-02 0.11304476E+03</pdfrwt>
<totfact> 0.23954665E+04</totfact>
</mgrwt>
</event>
<event>
 7    1  0.6008063E-006  0.1456168E+03  0.7546771E-02  0.1215395E+00
         -1   -1    0    0    0  501 -0.00000000000E+00  0.00000000000E+00  0.10841740096E+03  0.10841740096E+03  0.00000000000E+00 0.  1.
          1   -1    0    0  501    0  0.00000000000E+00 -0.00000000000E+00 -0.16158177331E+03  0.16158177331E+03  0.00000000000E+00 0. -1.
         23    2    1    2    0    0  0.65040742937E+02  0.36728304271E+02 -0.28030473215E+02  0.14829009869E+03  0.12499991746E+03 0.  0.
          5    1    3    3  502    0  0.68638769644E+02 -0.34232403526E+01  0.31898233601E+02  0.75911702521E+02  0.47000000000E+01 0.  1.
         -5    1    3    3    0  502 -0.35980267066E+01  0.40151544624E+02 -0.59928706816E+02  0.72378396173E+02  0.47000000000E+01 0.  1.
        -11    1    1    2    0    0 -0.75133252604E+02 -0.14331762350E+02 -0.46191402263E+02  0.89353515330E+02  0.00000000000E+00 0. -1.
         11    1    1    2    0    0  0.10092509667E+02 -0.22396541921E+02  0.21057503127E+02  0.32355560254E+02  0.00000000000E+00 0.  1.
<mgrwt>
<rscale>  0 0.13847565E+03</rscale>
<asrwt>0</asrwt>
<pdfrwt beam="2">  1        1 0.24858734E-01 0.14561678E+03</pdfrwt>
<pdfrwt beam="1">  1       -1 0.16679600E-01 0.14561678E+03</pdfrwt>
<totfact> 0.50114080E+03</totfact>
</mgrwt>
</event>
<event>
 7    1  0.6008063E-006  0.1760874E+03  0.7546771E-02  0.1177496E+00
         -1   -1    0    0    0  501 -0.00000000000E+00  0.00000000000E+00  0.39017233635E+02  0.39017233635E+02  0.00000000000E+00 0.  1.
          1   -1    0    0  501    0  0.00000000000E+00 -0.00000000000E+00 -0.92706495980E+03  0.92706495980E+03  0.00000000000E+00 0. -1.
         23    2    1    2    0    0 -0.10350433434E+03  0.68389053867E+02 -0.70543270311E+03  0.72707775895E+03  0.12496623159E+03 0.  0.
          5    1    3    3  502    0  0.25825732070E+02  0.31012793010E+02 -0.19345609426E+03  0.19767678714E+03  0.47000000000E+01 0.  1.
         -5    1    3    3    0  502 -0.12933006641E+03  0.37376260857E+02 -0.51197660884E+03  0.52940097181E+03  0.47000000000E+01 0.  1.
        -11    1    1    2    0    0  0.42806828713E+02 -0.16140952783E+02 -0.14203814173E+03  0.14922395467E+03  0.00000000000E+00 0.  1.
         11    1    1    2    0    0  0.60697505627E+02 -0.52248101084E+02 -0.40576881323E+02  0.89780479806E+02  0.00000000000E+00 0. -1.
<mgrwt>
<rscale>  0 0.17033777E+03</rscale>
<asrwt>0</asrwt>
<pdfrwt beam="2">  1        1 0.14262536E+00 0.17608739E+03</pdfrwt>
<pdfrwt beam="1">  1       -1 0.60026520E-02 0.17608739E+03</pdfrwt>
<totfact> 0.24100119E+03</totfact>
</mgrwt>
</event>
<event>
 7    1  0.6008063E-006  0.2417910E+03  0.7546771E-02  0.1121383E+00
          2   -1    0    0  501    0  0.00000000000E+00  0.00000000000E+00  0.96477187537E+03  0.96477187537E+03  0.00000000000E+00 0. -1.
         -2   -1    0    0    0  501 -0.00000000000E+00 -0.00000000000E+00 -0.57005571076E+02  0.57005571076E+02  0.00000000000E+00 0.  1.
         23    2    1    2    0    0 -0.20390411484E+03 -0.35521761765E+02  0.42643391303E+03  0.49021297934E+03  0.12499679726E+03 0.  0.
          5    1    3    3  502    0 -0.60098616540E+02  0.20800277973E+02  0.23869494799E+03  0.24706651629E+03  0.47000000000E+01 0.  1.
         -5    1    3    3    0  502 -0.14380549830E+03 -0.56322039738E+02  0.18773896503E+03  0.24314646305E+03  0.47000000000E+01 0.  1.
        -11    1    1    2    0    0  0.57241378177E+02  0.52142581897E+02  0.14860206520E+03  0.16756490684E+03  0.00000000000E+00 0.  1.
         11    1    1    2    0    0  0.14666273667E+03 -0.16620820132E+02  0.33273032606E+03  0.36399956026E+03  0.00000000000E+00 0. -1.
<mgrwt>
<rscale>  0 0.23762842E+03</rscale>
<asrwt>0</asrwt>
<pdfrwt beam="1">  1        2 0.14842643E+00 0.24179099E+03</pdfrwt>
<pdfrwt beam="2">  1       -2 0.87700886E-02 0.24179099E+03</pdfrwt>
<totfact> 0.22536543E+03</totfact>
</mgrwt>
</event>
<event>
 7    1  0.6008063E-006  0.1556188E+03  0.7546771E-02  0.1202156E+00
          2   -1    0    0  501    0  0.00000000000E+00  0.00000000000E+00  0.12055070349E+04  0.12055070349E+04  0.00000000000E+00 0. -1.
         -2   -1    0    0    0  501 -0.00000000000E+00 -0.00000000000E+00 -0.17141487148E+02  0.17141487148E+02  0.00000000000E+00 0.  1.
         23    2    1    2    0    0 -0.77521912774E+02 -0.50819037673E+02  0.72556384840E+03  0.74206475510E+03  0.12499992444E+03 0.  0.
          5    1    3    3  502    0  0.64092478131E+01 -0.24338331185E+02  0.24348444673E+02  0.35332273920E+02  0.47000000000E+01 0. -1.
         -5    1    3    3    0  502 -0.83931160587E+02 -0.26480706488E+02  0.70121540373E+03  0.70673248118E+03  0.47000000000E+01 0. -1.
        -11    1    1    2    0    0 -0.16388721538E+02  0.21279993728E+02  0.57000811538E+02  0.63012069024E+02  0.00000000000E+00 0. -1.
         11    1    1    2    0    0  0.93910634312E+02  0.29539043945E+02  0.40580088783E+03  0.41757169794E+03  0.00000000000E+00 0.  1.
<mgrwt>
<rscale>  0 0.14863819E+03</rscale>
<asrwt>0</asrwt>
<pdfrwt beam="1">  1        2 0.18546255E+00 0.15561877E+03</pdfrwt>
<pdfrwt beam="2">  1       -2 0.26371528E-02 0.15561877E+03</pdfrwt>
<totfact> 0.99344295E+03</totfact>
</mgrwt>
</event>
<event>
 7    1  0.6008063E-006  0.1387835E+03  0.7546771E-02  0.1226109E+00
          1   -1    0    0  501    0  0.00000000000E+00  0.00000000000E+00  0.38309830332E+02  0.38309830332E+02  0.00000000000E+00 0. -1.
         -1   -1    0    0    0  501 -0.00000000000E+00 -0.00000000000E+00 -0.42735126098E+03  0.42735126098E+03  0.00000000000E+00 0.  1.
         23    2    1    2    0    0 -0.59268423181E+02 -0.11097200568E+02 -0.16121605641E+03  0.21272393481E+03  0.12499984699E+03 0.  0.
          5    1    3    3  502    0 -0.33447723993E+02  0.56079021236E+02 -0.90700094266E+02  0.11185796334E+03  0.47000000000E+01 0.  1.
         -5    1    3    3    0  502 -0.25820699189E+02 -0.67176221805E+02 -0.70515962144E+02  0.10086597147E+03  0.47000000000E+01 0.  1.
        -11    1    1    2    0    0  0.67360885936E+01 -0.27616332474E+02 -0.19095478516E+02  0.34244328123E+02  0.00000000000E+00 0. -1.
         11    1    1    2    0    0  0.52532334588E+02  0.38713533042E+02 -0.20872989572E+03  0.21869282838E+03  0.00000000000E+00 0.  1.
<mgrwt>
<rscale>  0 0.13091197E+03</rscale>
<asrwt>0</asrwt>
<pdfrwt beam="1">  1        1 0.58938203E-02 0.13878348E+03</pdfrwt>
<pdfrwt beam="2">  1       -1 0.65746345E-01 0.13878348E+03</pdfrwt>
<totfact> 0.31037906E+03</totfact>
</mgrwt>
</event>
<event>
 7    1  0.6008063E-006  0.1413619E+03  0.7546771E-02  0.1222279E+00
          2   -1    0    0  501    0  0.00000000000E+00  0.00000000000E+00  0.42936943383E+02  0.42936943383E+02  0.00000000000E+00 0. -1.
         -2   -1    0    0    0  501 -0.00000000000E+00 -0.00000000000E+00 -0.40830391602E+03  0.40830391602E+03  0.00000000000E+00 0.  1.
         23    2    1    2    0    0 -0.14798868045E+02 -0.64333050665E+02 -0.13820629553E+03  0.19769713707E+03  0.12500171990E+03 0.  0.
          5    1    3    3  502    0 -0.27198475438E+02 -0.79757535769E+02 -0.33126763544E+02  0.90666940177E+02  0.47000000000E+01 0. -1.
         -5    1    3    3    0  502  0.12399607393E+02  0.15424485105E+02 -0.10507953199E+03  0.10703019689E+03  0.47000000000E+01 0. -1.
        -11    1    1    2    0    0 -0.35084348744E+02  0.29200527601E+02 -0.13920472068E+03  0.14649756517E+03  0.00000000000E+00 0. -1.
         11    1    1    2    0    0  0.49883216789E+02  0.35132523064E+02 -0.87955956420E+02  0.10704615717E+03  0.00000000000E+00 0.  1.
<mgrwt>
<rscale>  0 0.13355175E+03</rscale>
<asrwt>0</asrwt>
<pdfrwt beam="1">  1        2 0.66056836E-02 0.14136187E+03</pdfrwt>
<pdfrwt beam="2">  1       -2 0.62815987E-01 0.14136187E+03</pdfrwt>
<totfact> 0.25179217E+03</totfact>
</mgrwt>
</event>
<event>
 7    1  0.6008063E-006  0.1358514E+03  0.7546771E-02  0.1222769E+00
          2   -1    0    0  501    0  0.00000000000E+00  0.00000000000E+00  0.10555736413E+03  0.10555736413E+03  0.00000000000E+00 0. -1.
         -2   -1    0    0    0  501 -0.00000000000E+00 -0.00000000000E+00 -0.16194082823E+03  0.16194082823E+03  0.00000000000E+00 0.  1.
         23    2    1    2    0    0  0.52512454870E+02 -0.85584733583E+01 -0.26757098449E+02  0.13846132682E+03  0.12499916530E+03 0.  0.
          5    1    3    3  502    0  0.20463507251E+02  0.24920226290E+02  0.43384790198E+02  0.54259587429E+02  0.47000000000E+01 0. -1.
         -5    1    3    3    0  502  0.32048947618E+02 -0.33478699648E+02 -0.70141888647E+02  0.84201739392E+02  0.47000000000E+01 0. -1.
        -11    1    1    2    0    0 -0.88156859494E+02  0.59357002799E+00 -0.13802222227E+02  0.89232760462E+02  0.00000000000E+00 0. -1.
         11    1    1    2    0    0  0.35644404624E+02  0.79649033303E+01 -0.15824143420E+02  0.39804105078E+02  0.00000000000E+00 0.  1.
<mgrwt>
<rscale>  0 0.13320993E+03</rscale>
<asrwt>0</asrwt>
<pdfrwt beam="1">  1        2 0.16239595E-01 0.13585138E+03</pdfrwt>
<pdfrwt beam="2">  1       -2 0.24913973E-01 0.13585138E+03</pdfrwt>
<totfact> 0.48354168E+03</totfact>
</mgrwt>
</event>
<event>
 7    1  0.6008063E-006  0.1459601E+03  0.7546771E-02  0.1214454E+00
          2   -1    0    0  501    0  0.00000000000E+00  0.00000000000E+00  0.10090123202E+04  0.10090123202E+04  0.00000000000E+00 0. -1.
         -2   -1    0    0    0  501 -0.00000000000E+00 -0.00000000000E+00 -0.19264551439E+02  0.19264551439E+02  0.00000000000E+00 0.  1.
         23    2    1    2    0    0 -0.66448492462E+02  0.35534439562E+02  0.68798448141E+03  0.70329723061E+03  0.12500499741E+03 0.  0.
          5    1    3    3  502    0 -0.70499649277E+02 -0.28518302148E+02  0.27630005889E+03  0.28661351442E+03  0.47000000000E+01 0.  1.
         -5    1    3    3    0  502  0.40511568152E+01  0.64052741711E+02  0.41168442253E+03  0.41668371620E+03  0.47000000000E+01 0.  1.
        -11    1    1    2    0    0  0.78931321600E+01  0.22751988029E+02  0.19848514417E+02  0.31207659623E+02  0.00000000000E+00 0. -1.
         11    1    1    2    0    0  0.58555360302E+02 -0.58286427591E+02  0.28191477297E+03  0.29377198144E+03  0.00000000000E+00 0.  1.
<mgrwt>
<rscale>  0 0.13916692E+03</rscale>
<asrwt>0</asrwt>
<pdfrwt beam="1">  1        2 0.15523262E+00 0.14596009E+03</pdfrwt>
<pdfrwt beam="2">  1       -2 0.29637779E-02 0.14596009E+03</pdfrwt>
<totfact> 0.10815441E+04</totfact>
</mgrwt>
</event>
<event>
 7    1  0.6008063E-006  0.1340600E+03  0.7546771E-02  0.1235231E+00
          2   -1    0    0  501    0  0.00000000000E+00  0.00000000000E+00  0.56624893404E+03  0.56624893404E+03  0.00000000000E+00 0. -1.
         -2   -1    0    0    0  501 -0.00000000000E+00 -0.00000000000E+00 -0.27194554071E+02  0.27194554071E+02  0.00000000000E+00 0.  1.
         23    2    1    2    0    0  0.25955192557E+02  0.40773442626E+02  0.39791271017E+03  0.41988879764E+03  0.12504371965E+03 0.  0.
          5    1    3    3  502    0  0.28499571522E+02  0.83677439539E+02  0.30147293316E+03  0.31420082574E+03  0.47000000000E+01 0. -1.
         -5    1    3    3    0  502 -0.25443789646E+01 -0.42903996913E+02  0.96439777009E+02  0.10568797190E+03  0.47000000000E+01 0. -1.
        -11    1    1    2    0    0 -0.41988750519E+02 -0.12849947261E+02  0.20080560570E+02  0.48284627238E+02  0.00000000000E+00 0.  1.
         11    1    1    2    0    0  0.16033557962E+02 -0.27923495365E+02  0.12106110923E+03  0.12527006323E+03  0.00000000000E+00 0. -1.
<mgrwt>
<rscale>  0 0.12489664E+03</rscale>
<asrwt>0</asrwt>
<pdfrwt beam="1">  1        2 0.87115212E-01 0.13405998E+03</pdfrwt>
<pdfrwt beam="2">  1       -2 0.41837780E-02 0.13405998E+03</pdfrwt>
<totfact> 0.13150831E+04</totfact>
</mgrwt>
</event>
<event>
 7    1  0.6008063E-006  0.1804021E+03  0.7546771E-02  0.1173109E+00
          3   -1    0    0  501    0  0.00000000000E+00  0.00000000000E+00  0.69076987680E+03  0.69076987680E+03  0.00000000000E+00 0. -1.
         -3   -1    0    0    0  501 -0.00000000000E+00 -0.00000000000E+00 -0.44005985390E+02  0.44005985390E+02  0.00000000000E+00 0.  1.
         23    2    1    2    0    0  0.12632367218E+03  0.31006198540E+02  0.43004783737E+03  0.46635399152E+03  0.12500339386E+03 0.  0.
          5    1    3    3  502    0  0.13170551740E+03 -0.32507373149E+01  0.39663780502E+03  0.41797194760E+03  0.47000000000E+01 0. -1.
         -5    1    3    3    0  502 -0.53818452262E+01  0.34256935855E+02  0.33410032350E+02  0.48382043920E+02  0.47000000000E+01 0. -1.
        -11    1    1    2    0    0 -0.11050397566E+02  0.24321394843E+02  0.18320979206E+02  0.32392897564E+02  0.00000000000E+00 0.  1.
         11    1    1    2    0    0 -0.11527327461E+03 -0.55327593384E+02  0.19839507484E+03  0.23602897311E+03  0.00000000000E+00 0. -1.
<mgrwt>
<rscale>  0 0.17462511E+03</rscale>
<asrwt>0</asrwt>
<pdfrwt beam="1">  1        3 0.10627228E+00 0.18040206E+03</pdfrwt>
<pdfrwt beam="2">  1       -3 0.67701521E-02 0.18040206E+03</pdfrwt>
<totfact> 0.26654283E+02</totfact>
</mgrwt>
</event>
<event>
 7    1  0.6008063E-006  0.2417308E+03  0.7546771E-02  0.1121278E+00
          2   -1    0    0  501    0  0.00000000000E+00  0.00000000000E+00  0.39229376023E+03  0.39229376023E+03  0.00000000000E+00 0. -1.
         -2   -1    0    0    0  501 -0.00000000000E+00 -0.00000000000E+00 -0.29506540267E+03  0.29506540267E+03  0.00000000000E+00 0.  1.
         23    2    1    2    0    0 -0.30387350461E+02 -0.20465594918E+03  0.29876389556E+03  0.38430933337E+03  0.12500539918E+03 0.  0.
          5    1    3    3  502    0  0.62353786388E+01 -0.64803477733E+02  0.16784882444E+02  0.67395793279E+02  0.47000000000E+01 0. -1.
         -5    1    3    3    0  502 -0.36622729100E+02 -0.13985247145E+03  0.28197901311E+03  0.31691354009E+03  0.47000000000E+01 0. -1.
        -11    1    1    2    0    0  0.27876715789E+02  0.50246809767E+02 -0.12237579031E+02  0.58750417152E+02  0.00000000000E+00 0. -1.
         11    1    1    2    0    0  0.25106346727E+01  0.15440913941E+03 -0.18929795896E+03  0.24429941238E+03  0.00000000000E+00 0.  1.
<mgrwt>
<rscale>  0 0.23778353E+03</rscale>
<asrwt>0</asrwt>
<pdfrwt beam="1">  1        2 0.60352886E-01 0.24173084E+03</pdfrwt>
<pdfrwt beam="2">  1       -2 0.45394677E-01 0.24173084E+03</pdfrwt>
<totfact> 0.38244036E+02</totfact>
</mgrwt>
</event>
<event>
 7    1  0.6008063E-006  0.1256975E+03  0.7546771E-02  0.1248964E+00
         -1   -1    0    0    0  501 -0.00000000000E+00  0.00000000000E+00  0.34211596691E+02  0.34211596691E+02  0.00000000000E+00 0.  1.
          1   -1    0    0  501    0  0.00000000000E+00 -0.00000000000E+00 -0.49401487108E+03  0.49401487108E+03  0.00000000000E+00 0. -1.
         23    2    1    2    0    0 -0.80502409486E+01 -0.51585942431E+00 -0.39637544724E+03  0.41582851593E+03  0.12543837926E+03 0.  0.
          5    1    3    3  502    0  0.24237082227E+02  0.55418559826E+02 -0.20545488364E+03  0.21422523694E+03  0.47000000000E+01 0. -1.
         -5    1    3    3    0  502 -0.32287323176E+02 -0.55934419250E+02 -0.19092056360E+03  0.20160327899E+03  0.47000000000E+01 0.  1.
        -11    1    1    2    0    0 -0.33079514977E+01  0.29097898045E+02 -0.74231550185E+02  0.79799456493E+02  0.00000000000E+00 0. -1.
         11    1    1    2    0    0  0.11358192446E+02 -0.28582038621E+02  0.10803723041E+02  0.32598495347E+02  0.00000000000E+00 0.  1.
<mgrwt>
<rscale>  0 0.11651227E+03</rscale>
<asrwt>0</asrwt>
<pdfrwt beam="2">  1        1 0.76002285E-01 0.12569749E+03</pdfrwt>
<pdfrwt beam="1">  1       -1 0.52633227E-02 0.12569749E+03</pdfrwt>
<totfact> 0.71252885E+03</totfact>
</mgrwt>
</event>
<event>
 6    1  0.6008063E-006  0.2992864E+03  0.7546771E-02  0.1085598E+00
         -2   -1    0    0    0  501 -0.00000000000E+00  0.00000000000E+00  0.16751555831E+03  0.16751555831E+03  0.00000000000E+00 0.  1.
          2   -1    0    0  501    0  0.00000000000E+00 -0.00000000000E+00 -0.13367766061E+03  0.13367766061E+03  0.00000000000E+00 0. -1.
          5    1    1    2  502    0 -0.29402466236E+02 -0.13229943914E+02 -0.11073282507E+03  0.11542696818E+03  0.47000000000E+01 0. -1.
         -5    1    1    2    0  502 -0.35640956876E+01  0.74402081052E+01  0.40293224757E+02  0.41396780504E+02  0.47000000000E+01 0.  1.
        -11    1    1    2    0    0  0.35882778164E+02 -0.32873610722E+02  0.21985195861E+02  0.53400345389E+02  0.00000000000E+00 0. -1.
         11    1    1    2    0    0 -0.29162162397E+01  0.38663346531E+02  0.82292302148E+02  0.90969124844E+02  0.00000000000E+00 0.  1.
<mgrwt>
<rscale>  0 0.29928640E+03</rscale>
<asrwt>0</asrwt>
<pdfrwt beam="2">  1        2 0.20565794E-01 0.29928640E+03</pdfrwt>
<pdfrwt beam="1">  1       -2 0.25771624E-01 0.29928640E+03</pdfrwt>
<totfact> 0.36138962E+03</totfact>
</mgrwt>
</event>
<event>
 7    1  0.6008063E-006  0.1306174E+03  0.7546771E-02  0.1239806E+00
          2   -1    0    0  501    0  0.00000000000E+00  0.00000000000E+00  0.38887927697E+03  0.38887927697E+03  0.00000000000E+00 0. -1.
         -2   -1    0    0    0  501 -0.00000000000E+00 -0.00000000000E+00 -0.43490384039E+02  0.43490384039E+02  0.00000000000E+00 0.  1.
         23    2    1    2    0    0 -0.86731813729E+01 -0.36888834511E+02  0.29107810238E+03  0.31904134153E+03  0.12499962295E+03 0.  0.
          5    1    3    3  502    0 -0.52699870132E+02  0.40209597311E+01  0.59399001075E+02  0.79647823308E+02  0.47000000000E+01 0.  1.
         -5    1    3    3    0  502  0.44026688759E+02 -0.40909794242E+02  0.23167910130E+03  0.23939351822E+03  0.47000000000E+01 0.  1.
        -11    1    1    2    0    0  0.25854322664E+01  0.57543570523E+02  0.66982218113E+02  0.88343446344E+02  0.00000000000E+00 0. -1.
         11    1    1    2    0    0  0.60877491064E+01 -0.20654736012E+02 -0.12671427560E+02  0.24984873130E+02  0.00000000000E+00 0.  1.
<mgrwt>
<rscale>  0 0.12201702E+03</rscale>
<asrwt>0</asrwt>
<pdfrwt beam="1">  1        2 0.59827579E-01 0.13061744E+03</pdfrwt>
<pdfrwt beam="2">  1       -2 0.66908286E-02 0.13061744E+03</pdfrwt>
<totfact> 0.97468579E+03</totfact>
</mgrwt>
</event>
<event>
 7    1  0.6008063E-006  0.1818847E+03  0.7546771E-02  0.1171263E+00
          1   -1    0    0  501    0  0.00000000000E+00  0.00000000000E+00  0.12402107096E+03  0.12402107096E+03  0.00000000000E+00 0. -1.
         -1   -1    0    0    0  501 -0.00000000000E+00 -0.00000000000E+00 -0.25744575129E+03  0.25744575129E+03  0.00000000000E+00 0.  1.
         23    2    1    2    0    0  0.77676090258E+02  0.10687835287E+03 -0.17081998894E+02  0.18268509849E+03  0.12500197285E+03 0.  0.
          5    1    3    3  502    0 -0.32438292032E+02  0.43780179506E+02 -0.90365192776E+01  0.55431900457E+02  0.47000000000E+01 0.  1.
         -5    1    3    3    0  502  0.11011438229E+03  0.63098173362E+02 -0.80454796162E+01  0.12725319804E+03  0.47000000000E+01 0.  1.
        -11    1    1    2    0    0 -0.34159876537E+02 -0.10489273651E+03 -0.54250496658E+02  0.12293290742E+03  0.00000000000E+00 0. -1.
         11    1    1    2    0    0 -0.43516213721E+02 -0.19856163533E+01 -0.62092184782E+02  0.75848816338E+02  0.00000000000E+00 0.  1.
<mgrwt>
<rscale>  0 0.17647128E+03</rscale>
<asrwt>0</asrwt>
<pdfrwt beam="1">  1        1 0.19080165E-01 0.18188472E+03</pdfrwt>
<pdfrwt beam="2">  1       -1 0.39607038E-01 0.18188472E+03</pdfrwt>
<totfact> 0.16845621E+03</totfact>
</mgrwt>
</event>
<event>
 6    1  0.6008063E-006  0.1511332E+03  0.7546771E-02  0.1217646E+00
         -2   -1    0    0    0  501 -0.00000000000E+00  0.00000000000E+00  0.20765676712E+02  0.20765676712E+02  0.00000000000E+00 0.  1.
          2   -1    0    0  501    0  0.00000000000E+00 -0.00000000000E+00 -0.11112363084E+04  0.11112363084E+04  0.00000000000E+00 0. -1.
          5    1    1    2  502    0  0.81209047869E+02  0.53361653265E+02 -0.68648320116E+03  0.69334237644E+03  0.47000000000E+01 0. -1.
         -5    1    1    2    0  502 -0.36894836666E+02 -0.35257517113E+02 -0.24272229998E+03  0.24807363100E+03  0.47000000000E+01 0.  1.
        -11    1    1    2    0    0 -0.45081650466E+02  0.81395808100E+01 -0.15754326888E+03  0.16406855139E+03  0.00000000000E+00 0.  1.
         11    1    1    2    0    0  0.76743926301E+00 -0.26243716962E+02 -0.37218616696E+01  0.26517426295E+02  0.00000000000E+00 0. -1.
<mgrwt>
<rscale>  0 0.13683959E+03</rscale>
<asrwt>0</asrwt>
<pdfrwt beam="2">  1        2 0.17095941E+00 0.15113317E+03</pdfrwt>
<pdfrwt beam="1">  1       -2 0.31947200E-02 0.15113317E+03</pdfrwt>
<totfact> 0.84537532E+03</totfact>
</mgrwt>
</event>
<event>
 7    1  0.6008063E-006  0.1980214E+03  0.7546771E-02  0.1155868E+00
         -1   -1    0    0    0  501 -0.00000000000E+00  0.00000000000E+00  0.12988253435E+03  0.12988253435E+03  0.00000000000E+00 0.  1.
          1   -1    0    0  501    0  0.00000000000E+00 -0.00000000000E+00 -0.27549574419E+03  0.27549574419E+03  0.00000000000E+00 0. -1.
         23    2    1    2    0    0 -0.10908064014E+02  0.15318943430E+03 -0.97213412050E+02  0.22059675203E+03  0.12500596340E+03 0.  0.
          5    1    3    3  502    0 -0.15610890472E+02  0.17045797230E+03 -0.64438772224E+02  0.18295919104E+03  0.47000000000E+01 0. -1.
         -5    1    3    3    0  502  0.47028264581E+01 -0.17268538003E+02 -0.32774639826E+02  0.37637560989E+02  0.47000000000E+01 0. -1.
        -11    1    1    2    0    0  0.15001516179E+02 -0.10092914129E+03 -0.74386032224E+02  0.12627358726E+03  0.00000000000E+00 0. -1.
         11    1    1    2    0    0 -0.40934521650E+01 -0.52260293007E+02  0.25986234432E+02  0.58507939254E+02  0.00000000000E+00 0.  1.
<mgrwt>
<rscale>  0 0.19290361E+03</rscale>
<asrwt>0</asrwt>
<pdfrwt beam="2">  1        1 0.42383960E-01 0.19802141E+03</pdfrwt>
<pdfrwt beam="1">  1       -1 0.19981929E-01 0.19802141E+03</pdfrwt>
<totfact> 0.19514311E+03</totfact>
</mgrwt>
</event>
<event>
 7    1  0.6008063E-006  0.1285458E+03  0.7546771E-02  0.1244131E+00
         -1   -1    0    0    0  501 -0.00000000000E+00  0.00000000000E+00  0.23366008797E+03  0.23366008797E+03  0.00000000000E+00 0.  1.
          1   -1    0    0  501    0  0.00000000000E+00 -0.00000000000E+00 -0.95263691749E+02  0.95263691749E+02  0.00000000000E+00 0. -1.
         23    2    1    2    0    0 -0.10770169888E+02 -0.27955739326E+02 -0.32957194294E+02  0.13270343061E+03  0.12500601554E+03 0.  0.
          5    1    3    3  502    0  0.34107893444E+02 -0.52252021128E+02 -0.48476823682E+02  0.79156266596E+02  0.47000000000E+01 0.  1.
         -5    1    3    3    0  502 -0.44878063332E+02  0.24296281802E+02  0.15519629388E+02  0.53547164017E+02  0.47000000000E+01 0.  1.
        -11    1    1    2    0    0  0.42607321828E+02  0.41358362529E+02  0.12523940774E+03  0.13860305651E+03  0.00000000000E+00 0.  1.
         11    1    1    2    0    0 -0.31837151939E+02 -0.13402623203E+02  0.46114182775E+02  0.57617292590E+02  0.00000000000E+00 0. -1.
<mgrwt>
<rscale>  0 0.11937515E+03</rscale>
<asrwt>0</asrwt>
<pdfrwt beam="2">  1        1 0.14655953E-01 0.12854580E+03</pdfrwt>
<pdfrwt beam="1">  1       -1 0.35947706E-01 0.12854580E+03</pdfrwt>
<totfact> 0.27643403E+03</totfact>
</mgrwt>
</event>
<event>
 7    1  0.6008063E-006  0.1488076E+03  0.7546771E-02  0.1211348E+00
          3   -1    0    0  501    0  0.00000000000E+00  0.00000000000E+00  0.82118586026E+03  0.82118586026E+03  0.00000000000E+00 0. -1.
         -3   -1    0    0    0  501 -0.00000000000E+00 -0.00000000000E+00 -0.26290734583E+02  0.26290734583E+02  0.00000000000E+00 0.  1.
         23    2    1    2    0    0 -0.45875059133E+02 -0.66771003407E+02  0.59649981150E+03  0.61478103634E+03  0.12482311313E+03 0.  0.
          5    1    3    3  502    0 -0.69177730173E+02 -0.75389448974E+02  0.29602875765E+03  0.31324789341E+03  0.47000000000E+01 0.  1.
         -5    1    3    3    0  502  0.23302671040E+02  0.86184455675E+01  0.30047105385E+03  0.30153314293E+03  0.47000000000E+01 0.  1.
        -11    1    1    2    0    0  0.72365396588E+02  0.57023002949E+02  0.16490092367E+03  0.18889332470E+03  0.00000000000E+00 0. -1.
         11    1    1    2    0    0 -0.26490337455E+02  0.97480004579E+01  0.33494390513E+02  0.43802233816E+02  0.00000000000E+00 0.  1.
<mgrwt>
<rscale>  0 0.14148228E+03</rscale>
<asrwt>0</asrwt>
<pdfrwt beam="1">  1        3 0.12633627E+00 0.14880759E+03</pdfrwt>
<pdfrwt beam="2">  1       -3 0.40447290E-02 0.14880759E+03</pdfrwt>
<totfact> 0.39405716E+02</totfact>
</mgrwt>
</event>
<event>
 7    1  0.6008063E-006  0.1531587E+03  0.7546771E-02  0.1204975E+00
         -2   -1    0    0    0  501 -0.00000000000E+00  0.00000000000E+00  0.15540870540E+02  0.15540870540E+02  0.00000000000E+00 0.  1.
          2   -1    0    0  501    0  0.00000000000E+00 -0.00000000000E+00 -0.13933685831E+04  0.13933685831E+04  0.00000000000E+00 0. -1.
         23    2    1    2    0    0  0.51916170349E+02  0.71659354209E+02 -0.95416385144E+03  0.96637789659E+03  0.12500892698E+03 0.  0.
          5    1    3    3  502    0  0.14470317104E+02  0.28488254124E+02 -0.44905893620E+02  0.55313650955E+02  0.47000000000E+01 0. -1.
         -5    1    3    3    0  502  0.37445853245E+02  0.43171100085E+02 -0.90925795782E+03  0.91106424563E+03  0.47000000000E+01 0. -1.
        -11    1    1    2    0    0 -0.25758880275E+02 -0.79993820372E+02 -0.39068528781E+03  0.39962172779E+03  0.00000000000E+00 0. -1.
         11    1    1    2    0    0 -0.26157290073E+02  0.83344661631E+01 -0.32978573319E+02  0.42909829275E+02  0.00000000000E+00 0.  1.
<mgrwt>
<rscale>  0 0.14639393E+03</rscale>
<asrwt>0</asrwt>
<pdfrwt beam="2">  1        2 0.21436453E+00 0.15315869E+03</pdfrwt>
<pdfrwt beam="1">  1       -2 0.23909017E-02 0.15315869E+03</pdfrwt>
<totfact> 0.90629137E+03</totfact>
</mgrwt>
</event>
<event>
 7    1  0.6008063E-006  0.1264893E+03  0.7546771E-02  0.1246948E+00
          2   -1    0    0  501    0  0.00000000000E+00  0.00000000000E+00  0.44660369816E+03  0.44660369816E+03  0.00000000000E+00 0. -1.
         -2   -1    0    0    0  501 -0.00000000000E+00 -0.00000000000E+00 -0.28214487303E+02  0.28214487303E+02  0.00000000000E+00 0.  1.
         23    2    1    2    0    0 -0.19443032495E+02 -0.68238324529E+00  0.27783271767E+03  0.30527130384E+03  0.12498421013E+03 0.  0.
          5    1    3    3  502    0 -0.35591857621E+02 -0.55695500014E+02  0.11701827589E+03  0.13447726924E+03  0.47000000000E+01 0. -1.
         -5    1    3    3    0  502  0.16148825126E+02  0.55013116768E+02  0.16081444178E+03  0.17079403460E+03  0.47000000000E+01 0. -1.
        -11    1    1    2    0    0 -0.14437889733E+02 -0.36775517241E+02  0.36086759802E+02  0.53508369077E+02  0.00000000000E+00 0.  1.
         11    1    1    2    0    0  0.33880922229E+02  0.37457900486E+02  0.10446973338E+03  0.11603851254E+03  0.00000000000E+00 0. -1.
<mgrwt>
<rscale>  0 0.11769567E+03</rscale>
<asrwt>0</asrwt>
<pdfrwt beam="1">  1        2 0.68708256E-01 0.12648933E+03</pdfrwt>
<pdfrwt beam="2">  1       -2 0.43406907E-02 0.12648933E+03</pdfrwt>
<totfact> 0.16082061E+04</totfact>
</mgrwt>
</event>
<event>
 7    1  0.6008063E-006  0.1383535E+03  0.7546771E-02  0.1226877E+00
         -1   -1    0    0    0  501 -0.00000000000E+00  0.00000000000E+00  0.87581921975E+02  0.87581921975E+02  0.00000000000E+00 0.  1.
          1   -1    0    0  501    0  0.00000000000E+00 -0.00000000000E+00 -0.23872580201E+03  0.23872580201E+03  0.00000000000E+00 0. -1.
         23    2    1    2    0    0 -0.54289438258E+02 -0.23891486550E+02 -0.16606278446E+03  0.21614472301E+03  0.12499418653E+03 0.  0.
          5    1    3    3  502    0  0.13185029045E+02 -0.20138944877E+02  0.10765670338E+02  0.26784543108E+02  0.47000000000E+01 0. -1.
         -5    1    3    3    0  502 -0.67474467303E+02 -0.37525416731E+01 -0.17682845480E+03  0.18936017991E+03  0.47000000000E+01 0. -1.
        -11    1    1    2    0    0 -0.10447096482E+02  0.20085720639E+02  0.35519315757E+02  0.42121251054E+02  0.00000000000E+00 0.  1.
         11    1    1    2    0    0  0.64736534741E+02  0.38057659103E+01 -0.20600411325E+02  0.68041749912E+02  0.00000000000E+00 0. -1.
<mgrwt>
<rscale>  0 0.13039072E+03</rscale>
<asrwt>0</asrwt>
<pdfrwt beam="2">  1        1 0.36727046E-01 0.13835351E+03</pdfrwt>
<pdfrwt beam="1">  1       -1 0.13474142E-01 0.13835351E+03</pdfrwt>
<totfact> 0.42941044E+03</totfact>
</mgrwt>
</event>
<event>
 7    1  0.6008063E-006  0.2170091E+03  0.7546771E-02  0.1139600E+00
         -1   -1    0    0    0  501 -0.00000000000E+00  0.00000000000E+00  0.26553215784E+03  0.26553215784E+03  0.00000000000E+00 0.  1.
          1   -1    0    0  501    0  0.00000000000E+00 -0.00000000000E+00 -0.16446190463E+03  0.16446190463E+03  0.00000000000E+00 0. -1.
         23    2    1    2    0    0 -0.14776256318E+03 -0.98155293579E+02  0.70223236012E+02  0.22808829398E+03  0.12499892095E+03 0.  0.
          5    1    3    3  502    0 -0.90124313366E+02 -0.60755270040E+02 -0.23971984397E+02  0.11140170884E+03  0.47000000000E+01 0.  1.
         -5    1    3    3    0  502 -0.57638249818E+02 -0.37400023538E+02  0.94195220409E+02  0.11668658514E+03  0.47000000000E+01 0.  1.
        -11    1    1    2    0    0  0.13225671797E+03  0.11575455305E+03  0.23475383652E+02  0.17731906169E+03  0.00000000000E+00 0.  1.
         11    1    1    2    0    0  0.15505845218E+02 -0.17599259474E+02  0.73716335501E+01  0.24586706798E+02  0.00000000000E+00 0. -1.
<mgrwt>
<rscale>  0 0.21250225E+03</rscale>
<asrwt>0</asrwt>
<pdfrwt beam="2">  1        1 0.25301831E-01 0.21700914E+03</pdfrwt>
<pdfrwt beam="1">  1       -1 0.40851101E-01 0.21700914E+03</pdfrwt>
<totfact> 0.11164031E+03</totfact>
</mgrwt>
</event>
<event>
 7    1  0.6008063E-006  0.1739435E+03  0.7546771E-02  0.1179869E+00
         -2   -1    0    0    0  501 -0.00000000000E+00  0.00000000000E+00  0.50939919077E+03  0.50939919077E+03  0.00000000000E+00 0.  1.
          2   -1    0    0  501    0  0.00000000000E+00 -0.00000000000E+00 -0.55915180482E+02  0.55915180482E+02  0.00000000000E+00 0. -1.
         23    2    1    2    0    0 -0.10861872040E+03  0.53218586743E+02  0.31561044319E+03  0.36036966422E+03  0.12500439451E+03 0.  0.
          5    1    3    3  502    0 -0.42184078915E+02  0.14043616984E+02  0.10903398636E+02  0.46018407118E+02  0.47000000000E+01 0. -1.
         -5    1    3    3    0  502 -0.66434641485E+02  0.39174969759E+02  0.30470704455E+03  0.31435125711E+03  0.47000000000E+01 0. -1.
        -11    1    1    2    0    0  0.40135675055E+02 -0.32966030999E+02  0.26317479471E+01  0.52005362312E+02  0.00000000000E+00 0. -1.
         11    1    1    2    0    0  0.68483045344E+02 -0.20252555744E+02  0.13524181915E+03  0.15293934471E+03  0.00000000000E+00 0.  1.
<mgrwt>
<rscale>  0 0.16807616E+03</rscale>
<asrwt>0</asrwt>
<pdfrwt beam="2">  1        2 0.86023358E-02 0.17394351E+03</pdfrwt>
<pdfrwt beam="1">  1       -2 0.78369103E-01 0.17394351E+03</pdfrwt>
<totfact> 0.11361042E+03</totfact>
</mgrwt>
</event>
<event>
 7    1  0.6008063E-006  0.1420287E+03  0.7546771E-02  0.1221193E+00
         -3   -1    0    0    0  501 -0.00000000000E+00  0.00000000000E+00  0.21143411140E+03  0.21143411140E+03  0.00000000000E+00 0.  1.
          3   -1    0    0  501    0  0.00000000000E+00 -0.00000000000E+00 -0.15991614224E+03  0.15991614224E+03  0.00000000000E+00 0. -1.
         23    2    1    2    0    0  0.67389755176E+02  0.23607634437E+01 -0.10594591174E+03  0.17719110271E+03  0.12500079344E+03 0.  0.
          5    1    3    3  502    0 -0.19694092515E+02  0.40062052701E+01 -0.85020795355E+02  0.87490185755E+02  0.47000000000E+01 0.  1.
         -5    1    3    3    0  502  0.87083847691E+02 -0.16454418265E+01 -0.20925116386E+02  0.89700916958E+02  0.47000000000E+01 0.  1.
        -11    1    1    2    0    0 -0.80061973735E+02 -0.13235911950E+02  0.76608451602E+02  0.11159732909E+03  0.00000000000E+00 0. -1.
         11    1    1    2    0    0  0.12672218559E+02  0.10875148507E+02  0.80855429292E+02  0.82561821833E+02  0.00000000000E+00 0.  1.
<mgrwt>
<rscale>  0 0.13431299E+03</rscale>
<asrwt>0</asrwt>
<pdfrwt beam="2">  1        3 0.24602483E-01 0.14202870E+03</pdfrwt>
<pdfrwt beam="1">  1       -3 0.32528325E-01 0.14202870E+03</pdfrwt>
<totfact> 0.33409328E+02</totfact>
</mgrwt>
</event>
<event>
 7    1  0.6008063E-006  0.1418808E+03  0.7546771E-02  0.1221354E+00
         -2   -1    0    0    0  501 -0.00000000000E+00  0.00000000000E+00  0.18700070023E+02  0.18700070023E+02  0.00000000000E+00 0.  1.
          2   -1    0    0  501    0  0.00000000000E+00 -0.00000000000E+00 -0.10308762582E+04  0.10308762582E+04  0.00000000000E+00 0. -1.
         23    2    1    2    0    0 -0.45779660212E+02 -0.49078369172E+02 -0.75828891843E+03  0.77144814103E+03  0.12500274750E+03 0.  0.
          5    1    3    3  502    0 -0.54438397501E+02 -0.81896663623E+02 -0.66121386729E+03  0.66850315701E+03  0.47000000000E+01 0. -1.
         -5    1    3    3    0  502  0.86587372888E+01  0.32818294451E+02 -0.97075051135E+02  0.10294498402E+03  0.47000000000E+01 0. -1.
        -11    1    1    2    0    0  0.39811542720E+02 -0.14391695928E+02 -0.55835493725E+02  0.70069124477E+02  0.00000000000E+00 0.  1.
         11    1    1    2    0    0  0.59681174922E+01  0.63470065100E+02 -0.19805177599E+03  0.20805906268E+03  0.00000000000E+00 0. -1.
<mgrwt>
<rscale>  0 0.13419978E+03</rscale>
<asrwt>0</asrwt>
<pdfrwt beam="2">  1        2 0.15859634E+00 0.14188076E+03</pdfrwt>
<pdfrwt beam="1">  1       -2 0.28769340E-02 0.14188076E+03</pdfrwt>
<totfact> 0.10949256E+04</totfact>
</mgrwt>
</event>
<event>
 7    1  0.6008063E-006  0.1421393E+03  0.7546771E-02  0.1221303E+00
         -2   -1    0    0    0  501 -0.00000000000E+00  0.00000000000E+00  0.84270525710E+02  0.84270525710E+02  0.00000000000E+00 0. -1.
          2   -1    0    0  501    0  0.00000000000E+00 -0.00000000000E+00 -0.19335733411E+03  0.19335733411E+03  0.00000000000E+00 0.  1.
         23    2    1    2    0    0 -0.67970297422E+01  0.67318740126E+02 -0.64503610730E+02  0.15609070590E+03  0.12500232112E+03 0.  0.
          5    1    3    3  502    0 -0.56446001741E+02  0.59271725072E+02 -0.66457991491E+02  0.10553692784E+03  0.47000000000E+01 0. -1.
         -5    1    3    3    0  502  0.49648971999E+02  0.80470150533E+01  0.19543807618E+01  0.50553778059E+02  0.47000000000E+01 0. -1.
        -11    1    1    2    0    0 -0.11478122883E+02 -0.42100795608E+02  0.21378503853E+02  0.48592846415E+02  0.00000000000E+00 0. -1.
         11    1    1    2    0    0  0.18275152625E+02 -0.25217944517E+02 -0.65961701522E+02  0.72944307501E+02  0.00000000000E+00 0.  1.
<mgrwt>
<rscale>  0 0.13423552E+03</rscale>
<asrwt>0</asrwt>
<pdfrwt beam="2">  1        2 0.29747282E-01 0.14213934E+03</pdfrwt>
<pdfrwt beam="1">  1       -2 0.12964696E-01 0.14213934E+03</pdfrwt>
<totfact> 0.73399915E+03</totfact>
</mgrwt>
</event>
<event>
 7    1  0.6008063E-006  0.1487773E+03  0.7546771E-02  0.1211795E+00
          4   -1    0    0  501    0  0.00000000000E+00  0.00000000000E+00  0.38274278524E+03  0.38274278524E+03  0.00000000000E+00 0. -1.
         -4   -1    0    0    0  501 -0.00000000000E+00 -0.00000000000E+00 -0.48173642746E+02  0.48173642746E+02  0.00000000000E+00 0.  1.
         23    2    1    2    0    0  0.38912736008E+02  0.70671866763E+02  0.15686327613E+03  0.21619616072E+03  0.12500391489E+03 0.  0.
          5    1    3    3  502    0  0.74610983517E+02  0.34872415672E+02  0.14036100635E+03  0.16280720605E+03  0.47000000000E+01 0.  1.
         -5    1    3    3    0  502 -0.35698247509E+02  0.35799451091E+02  0.16502269778E+02  0.53388954676E+02  0.47000000000E+01 0.  1.
        -11    1    1    2    0    0 -0.41227634642E+01 -0.57212671882E+02  0.34947010846E+02  0.67168300332E+02  0.00000000000E+00 0.  1.
         11    1    1    2    0    0 -0.34789972544E+02 -0.13459194881E+02  0.14275885552E+03  0.14755196693E+03  0.00000000000E+00 0. -1.
<mgrwt>
<rscale>  0 0.14114602E+03</rscale>
<asrwt>0</asrwt>
<pdfrwt beam="1">  1        4 0.58883503E-01 0.14877733E+03</pdfrwt>
<pdfrwt beam="2">  1       -4 0.74113299E-02 0.14877733E+03</pdfrwt>
<totfact> 0.58432038E+02</totfact>
</mgrwt>
</event>
<event>
 7    1  0.6008063E-006  0.1262332E+03  0.7546771E-02  0.1248086E+00
          1   -1    0    0  501    0  0.00000000000E+00  0.00000000000E+00  0.94227705500E+02  0.94227705500E+02  0.00000000000E+00 0. -1.
         -1   -1    0    0    0  501 -0.00000000000E+00 -0.00000000000E+00 -0.14091377333E+03  0.14091377333E+03  0.00000000000E+00 0.  1.
         23    2    1    2    0    0  0.12004287030E+02 -0.12877768428E+02  0.89741347930E+01  0.12655179097E+03  0.12499952350E+03 0.  0.
          5    1    3    3  502    0 -0.24044769248E+01 -0.65267251065E+02  0.24393057572E+02  0.69876368170E+02  0.47000000000E+01 0. -1.
         -5    1    3    3    0  502  0.14408763955E+02  0.52389482637E+02 -0.15418922779E+02  0.56675422799E+02  0.47000000000E+01 0. -1.
        -11    1    1    2    0    0  0.49965054331E+01 -0.38472844829E+02 -0.18631239676E+02  0.43037750262E+02  0.00000000000E+00 0.  1.
         11    1    1    2    0    0 -0.17000792464E+02  0.51350613257E+02 -0.37028962950E+02  0.65551937602E+02  0.00000000000E+00 0. -1.
<mgrwt>
<rscale>  0 0.11702551E+03</rscale>
<asrwt>0</asrwt>
<pdfrwt beam="1">  1        1 0.14496570E-01 0.12623320E+03</pdfrwt>
<pdfrwt beam="2">  1       -1 0.21679042E-01 0.12623320E+03</pdfrwt>
<totfact> 0.64959209E+03</totfact>
</mgrwt>
</event>
<event>
 7    1  0.6008063E-006  0.1836504E+03  0.7546771E-02  0.1168976E+00
          2   -1    0    0  501    0  0.00000000000E+00  0.00000000000E+00  0.36055241847E+03  0.36055241847E+03  0.00000000000E+00 0. -1.
         -2   -1    0    0    0  501 -0.00000000000E+00 -0.00000000000E+00 -0.10070967092E+03  0.10070967092E+03  0.00000000000E+00 0.  1.
         23    2    1    2    0    0 -0.65741946849E+02 -0.11738903752E+03  0.22879925784E+03  0.29338810779E+03  0.12500116680E+03 0.  0.
          5    1    3    3  502    0 -0.14954738328E+02 -0.53475364133E+02  0.59884654038E+01  0.56046502884E+02  0.47000000000E+01 0. -1.
         -5    1    3    3    0  502 -0.50787208521E+02 -0.63913673387E+02  0.22281079243E+03  0.23734160491E+03  0.47000000000E+01 0. -1.
        -11    1    1    2    0    0 -0.42266929613E+01  0.15726843707E+02  0.40944614067E+02  0.44064270872E+02  0.00000000000E+00 0. -1.
         11    1    1    2    0    0  0.69968639810E+02  0.10166219381E+03 -0.99011243587E+01  0.12380971073E+03  0.00000000000E+00 0.  1.
<mgrwt>
<rscale>  0 0.17879318E+03</rscale>
<asrwt>0</asrwt>
<pdfrwt beam="1">  1        2 0.55469602E-01 0.18365043E+03</pdfrwt>
<pdfrwt beam="2">  1       -2 0.15493796E-01 0.18365043E+03</pdfrwt>
<totfact> 0.28523026E+03</totfact>
</mgrwt>
</event>
<event>
 7    1  0.6008063E-006  0.1472915E+03  0.7546771E-02  0.1213460E+00
         -2   -1    0    0    0  501 -0.00000000000E+00  0.00000000000E+00  0.28655678284E+02  0.28655678284E+02  0.00000000000E+00 0.  1.
          2   -1    0    0  501    0  0.00000000000E+00 -0.00000000000E+00 -0.73634419320E+03  0.73634419320E+03  0.00000000000E+00 0. -1.
         23    2    1    2    0    0 -0.76551411403E+02 -0.14526207099E+02 -0.53408658904E+03  0.55402461148E+03  0.12499462492E+03 0.  0.
          5    1    3    3  502    0 -0.30693087241E+02 -0.42453531208E+02 -0.45669681474E+03  0.45971560612E+03  0.47000000000E+01 0.  1.
         -5    1    3    3    0  502 -0.45858324162E+02  0.27927324109E+02 -0.77389774304E+02  0.94309005369E+02  0.47000000000E+01 0.  1.
        -11    1    1    2    0    0  0.41222789665E+02  0.33066826821E+02 -0.16050723592E+03  0.16898315362E+03  0.00000000000E+00 0. -1.
         11    1    1    2    0    0  0.35328621739E+02 -0.18540619722E+02 -0.13094689962E+02  0.41992106387E+02  0.00000000000E+00 0.  1.
<mgrwt>
<rscale>  0 0.13990281E+03</rscale>
<asrwt>0</asrwt>
<pdfrwt beam="2">  1        2 0.11328372E+00 0.14729150E+03</pdfrwt>
<pdfrwt beam="1">  1       -2 0.44085660E-02 0.14729150E+03</pdfrwt>
<totfact> 0.90167928E+03</totfact>
</mgrwt>
</event>
<event>
 7    1  0.6008063E-006  0.1350215E+03  0.7546771E-02  0.1232237E+00
          1   -1    0    0  501    0  0.00000000000E+00  0.00000000000E+00  0.19412209088E+03  0.19412209088E+03  0.00000000000E+00 0. -1.
         -1   -1    0    0    0  501 -0.00000000000E+00 -0.00000000000E+00 -0.74965156957E+02  0.74965156957E+02  0.00000000000E+00 0.  1.
         23    2    1    2    0    0  0.92230266129E+01 -0.50196299024E+02  0.54039006990E+02  0.14543391226E+03  0.12500430353E+03 0.  0.
          5    1    3    3  502    0  0.39509674878E+02  0.25657145326E+02 -0.77795181740E-01  0.47343421585E+02  0.47000000000E+01 0.  1.
         -5    1    3    3    0  502 -0.30286648265E+02 -0.75853444351E+02  0.54116802171E+02  0.98090490672E+02  0.47000000000E+01 0.  1.
        -11    1    1    2    0    0 -0.47572917676E+02  0.46487002999E+02  0.38980177866E+02  0.77095254137E+02  0.00000000000E+00 0. -1.
         11    1    1    2    0    0  0.38349891063E+02  0.37092960252E+01  0.26137749073E+02  0.46558081448E+02  0.00000000000E+00 0.  1.
<mgrwt>
<rscale>  0 0.12682987E+03</rscale>
<asrwt>0</asrwt>
<pdfrwt beam="1">  1        1 0.29864937E-01 0.13502151E+03</pdfrwt>
<pdfrwt beam="2">  1       -1 0.11533101E-01 0.13502151E+03</pdfrwt>
<totfact> 0.70494983E+03</totfact>
</mgrwt>
</event>
<event>
 7    1  0.6008063E-006  0.1397275E+03  0.7546771E-02  0.1240693E+00
         -2   -1    0    0    0  501 -0.00000000000E+00  0.00000000000E+00  0.12341059889E+02  0.12341059889E+02  0.00000000000E+00 0.  1.
          2   -1    0    0  501    0  0.00000000000E+00 -0.00000000000E+00 -0.17831397177E+04  0.17831397177E+04  0.00000000000E+00 0. -1.
         23    2    1    2    0    0 -0.58644279052E+02 -0.51369869736E+02 -0.16091666502E+04  0.16152216808E+04  0.11595583192E+03 0.  0.
          5    1    3    3  502    0 -0.61846353253E+02 -0.91736654056E+00 -0.13319677185E+04  0.13334113791E+04  0.47000000000E+01 0. -1.
         -5    1    3    3    0  502  0.32020742007E+01 -0.50452503195E+02 -0.27719893178E+03  0.28181030169E+03  0.47000000000E+01 0.  1.
        -11    1    1    2    0    0  0.38910117777E+02  0.35174311315E+02 -0.89435755647E+02  0.10368212879E+03  0.00000000000E+00 0.  1.
         11    1    1    2    0    0  0.19734161276E+02  0.16195558421E+02 -0.72196251956E+02  0.76576968015E+02  0.00000000000E+00 0. -1.
<mgrwt>
<rscale>  0 0.12146901E+03</rscale>
<asrwt>0</asrwt>
<pdfrwt beam="2">  1        2 0.27432910E+00 0.13972748E+03</pdfrwt>
<pdfrwt beam="1">  1       -2 0.18986252E-02 0.13972748E+03</pdfrwt>
<totfact> 0.79331913E+03</totfact>
</mgrwt>
</event>
<event>
 7    1  0.6008063E-006  0.1262963E+03  0.7546771E-02  0.1255112E+00
         -2   -1    0    0    0  501 -0.00000000000E+00  0.00000000000E+00  0.49418441547E+02  0.49418441547E+02  0.00000000000E+00 0.  1.
          2   -1    0    0  501    0  0.00000000000E+00 -0.00000000000E+00 -0.63649942312E+03  0.63649942312E+03  0.00000000000E+00 0. -1.
         23    2    1    2    0    0 -0.15229532612E+02  0.97347522868E+01 -0.59152609361E+03  0.60485856330E+03  0.12499623238E+03 0.  0.
          5    1    3    3  502    0 -0.49786036416E+02 -0.40830916574E+02 -0.28187106803E+03  0.28916985003E+03  0.47000000000E+01 0.  1.
         -5    1    3    3    0  502  0.34556503804E+02  0.50565668861E+02 -0.30965502557E+03  0.31568871327E+03  0.47000000000E+01 0.  1.
        -11    1    1    2    0    0  0.22962029549E+02 -0.18386761103E+02  0.36552603468E+02  0.46919298856E+02  0.00000000000E+00 0.  1.
         11    1    1    2    0    0 -0.77324969374E+01  0.86520088161E+01 -0.32107491434E+02  0.34140002514E+02  0.00000000000E+00 0. -1.
<mgrwt>
<rscale>  0 0.11300047E+03</rscale>
<asrwt>0</asrwt>
<pdfrwt beam="2">  1        2 0.97922982E-01 0.12629633E+03</pdfrwt>
<pdfrwt beam="1">  1       -2 0.76028376E-02 0.12629633E+03</pdfrwt>
<totfact> 0.46542011E+03</totfact>
</mgrwt>
</event>
<event>
 7    1  0.6008063E-006  0.1263419E+03  0.7546771E-02  0.1236240E+00
         -2   -1    0    0    0  501 -0.00000000000E+00  0.00000000000E+00  0.73487127389E+02  0.73487127389E+02  0.00000000000E+00 0.  1.
          2   -1    0    0  501    0  0.00000000000E+00 -0.00000000000E+00 -0.32550864155E+03  0.32550864155E+03  0.00000000000E+00 0. -1.
         23    2    1    2    0    0 -0.17682209424E+02  0.42222446279E+01 -0.25076677279E+03  0.28079573324E+03  0.12502712342E+03 0.  0.
          5    1    3    3  502    0 -0.28415634399E+02  0.26061512472E+02 -0.25295072179E+03  0.25591562744E+03  0.47000000000E+01 0.  1.
         -5    1    3    3    0  502  0.10733424975E+02 -0.21839267845E+02  0.21839490024E+01  0.24880105806E+02  0.47000000000E+01 0.  1.
        -11    1    1    2    0    0  0.13469562470E+02  0.25348070190E+02  0.50705476709E+02  0.58266621180E+02  0.00000000000E+00 0.  1.
         11    1    1    2    0    0  0.42126469548E+01 -0.29570314817E+02 -0.51960218076E+02  0.59933414514E+02  0.00000000000E+00 0. -1.
<mgrwt>
<rscale>  0 0.12425354E+03</rscale>
<asrwt>0</asrwt>
<pdfrwt beam="2">  1        2 0.50078253E-01 0.12634188E+03</pdfrwt>
<pdfrwt beam="1">  1       -2 0.11305712E-01 0.12634188E+03</pdfrwt>
<totfact> 0.52012483E+03</totfact>
</mgrwt>
</event>
<event>
 7    1  0.6008063E-006  0.1382119E+03  0.7546771E-02  0.1227133E+00
          2   -1    0    0  501    0  0.00000000000E+00  0.00000000000E+00  0.27240473235E+03  0.27240473235E+03  0.00000000000E+00 0. -1.
         -2   -1    0    0    0  501 -0.00000000000E+00 -0.00000000000E+00 -0.56157115315E+02  0.56157115315E+02  0.00000000000E+00 0.  1.
         23    2    1    2    0    0  0.29774727952E+02 -0.50909526625E+02  0.12823922556E+03  0.18854132188E+03  0.12499686700E+03 0.  0.
          5    1    3    3  502    0 -0.28616719696E+02  0.25258824979E+02  0.18493079978E+02  0.42673280781E+02  0.47000000000E+01 0.  1.
         -5    1    3    3    0  502  0.58391447648E+02 -0.76168351604E+02  0.10974614558E+03  0.14586804110E+03  0.47000000000E+01 0.  1.
        -11    1    1    2    0    0 -0.33632026025E+02  0.66527635476E+02  0.30911296021E+02  0.80700357361E+02  0.00000000000E+00 0.  1.
         11    1    1    2    0    0  0.38572980728E+01 -0.15618108851E+02  0.57097095456E+02  0.59320168425E+02  0.00000000000E+00 0. -1.
<mgrwt>
<rscale>  0 0.13021797E+03</rscale>
<asrwt>0</asrwt>
<pdfrwt beam="1">  1        2 0.41908420E-01 0.13821191E+03</pdfrwt>
<pdfrwt beam="2">  1       -2 0.86395564E-02 0.13821191E+03</pdfrwt>
<totfact> 0.96353182E+03</totfact>
</mgrwt>
</event>
<event>
 7    1  0.6008063E-006  0.1300884E+03  0.7546771E-02  0.1242806E+00
          1   -1    0    0  501    0  0.00000000000E+00  0.00000000000E+00  0.93556158495E+03  0.93556158495E+03  0.00000000000E+00 0. -1.
         -1   -1    0    0    0  501 -0.00000000000E+00 -0.00000000000E+00 -0.16593868631E+02  0.16593868631E+02  0.00000000000E+00 0.  1.
         23    2    1    2    0    0 -0.25263316187E+02 -0.25691021327E+02  0.72149608032E+03  0.73312998771E+03  0.12499888498E+03 0.  0.
          5    1    3    3  502    0 -0.34971681339E+02 -0.72353461536E+02  0.50710902595E+03  0.51345856317E+03  0.47000000000E+01 0. -1.
         -5    1    3    3    0  502  0.97083651513E+01  0.46662440209E+02  0.21438705436E+03  0.21967142454E+03  0.47000000000E+01 0. -1.
        -11    1    1    2    0    0  0.10758009657E+02  0.48683554879E+02  0.56056836688E+02  0.75021278494E+02  0.00000000000E+00 0.  1.
         11    1    1    2    0    0  0.14505306531E+02 -0.22992533552E+02  0.14141479931E+03  0.14400418738E+03  0.00000000000E+00 0. -1.
<mgrwt>
<rscale>  0 0.12017688E+03</rscale>
<asrwt>0</asrwt>
<pdfrwt beam="1">  1        1 0.14393251E+00 0.13008837E+03</pdfrwt>
<pdfrwt beam="2">  1       -1 0.25529036E-02 0.13008837E+03</pdfrwt>
<totfact> 0.82688498E+03</totfact>
</mgrwt>
</event>
<event>
 7    1  0.6008063E-006  0.1254207E+03  0.7546771E-02  0.1257590E+00
          1   -1    0    0  501    0  0.00000000000E+00  0.00000000000E+00  0.56343785429E+02  0.56343785429E+02  0.00000000000E+00 0. -1.
         -1   -1    0    0    0  501 -0.00000000000E+00 -0.00000000000E+00 -0.19341145366E+03  0.19341145366E+03  0.00000000000E+00 0.  1.
         23    2    1    2    0    0 -0.94431621337E+01 -0.40919726431E+01 -0.57934070568E+02  0.13815461401E+03  0.12499769313E+03 0.  0.
          5    1    3    3  502    0 -0.63479897700E+02 -0.23207695898E+02 -0.34780582811E+02  0.76158213619E+02  0.47000000000E+01 0.  1.
         -5    1    3    3    0  502  0.54036735566E+02  0.19115723255E+02 -0.23153487757E+02  0.61996400392E+02  0.47000000000E+01 0.  1.
        -11    1    1    2    0    0  0.42207110660E+02 -0.68996848989E+01 -0.33323355772E+02  0.54217081090E+02  0.00000000000E+00 0. -1.
         11    1    1    2    0    0 -0.32763948527E+02  0.10991657542E+02 -0.45810241892E+02  0.57383543989E+02  0.00000000000E+00 0.  1.
<mgrwt>
<rscale>  0 0.11162480E+03</rscale>
<asrwt>0</asrwt>
<pdfrwt beam="1">  1        1 0.86682746E-02 0.12542066E+03</pdfrwt>
<pdfrwt beam="2">  1       -1 0.29755608E-01 0.12542066E+03</pdfrwt>
<totfact> 0.75841327E+03</totfact>
</mgrwt>
</event>
<event>
 7    1  0.6008063E-006  0.1925430E+03  0.7546771E-02  0.1158541E+00
         -1   -1    0    0    0  501 -0.00000000000E+00  0.00000000000E+00  0.29609673946E+03  0.29609673946E+03  0.00000000000E+00 0.  1.
          1   -1    0    0  501    0  0.00000000000E+00 -0.00000000000E+00 -0.14540919073E+03  0.14540919073E+03  0.00000000000E+00 0. -1.
         23    2    1    2    0    0 -0.13066677976E+03  0.66143487070E+02 -0.17741494091E+02  0.19335864685E+03  0.12499614988E+03 0.  0.
          5    1    3    3  502    0 -0.14512554009E+03  0.23947071560E+02 -0.19633332951E+02  0.14846697405E+03  0.47000000000E+01 0.  1.
         -5    1    3    3    0  502  0.14458760330E+02  0.42196415510E+02  0.18918388602E+01  0.44891672796E+02  0.47000000000E+01 0.  1.
        -11    1    1    2    0    0  0.95305994689E+02  0.91564413018E+01  0.66467806752E+02  0.11655488997E+03  0.00000000000E+00 0.  1.
         11    1    1    2    0    0  0.35360785067E+02 -0.75299928371E+02  0.10196123606E+03  0.13159239337E+03  0.00000000000E+00 0. -1.
<mgrwt>
<rscale>  0 0.18991197E+03</rscale>
<asrwt>0</asrwt>
<pdfrwt beam="2">  1        1 0.22370645E-01 0.19254300E+03</pdfrwt>
<pdfrwt beam="1">  1       -1 0.45553345E-01 0.19254300E+03</pdfrwt>
<totfact> 0.10719622E+03</totfact>
</mgrwt>
</event>
<event>
 7    1  0.6008063E-006  0.1301420E+03  0.7546771E-02  0.1240927E+00
          1   -1    0    0  501    0  0.00000000000E+00  0.00000000000E+00  0.26392008790E+02  0.26392008790E+02  0.00000000000E+00 0. -1.
         -1   -1    0    0    0  501 -0.00000000000E+00 -0.00000000000E+00 -0.49675290910E+03  0.49675290910E+03  0.00000000000E+00 0.  1.
         23    2    1    2    0    0 -0.30405437577E+02  0.19683653419E+02 -0.24969675129E+03  0.28157665282E+03  0.12500002785E+03 0.  0.
          5    1    3    3  502    0 -0.65290420466E+02 -0.18737078748E+02 -0.19257968764E+03  0.20426194755E+03  0.47000000000E+01 0.  1.
         -5    1    3    3    0  502  0.34884982889E+02  0.38420732167E+02 -0.57117063646E+02  0.77314705270E+02  0.47000000000E+01 0.  1.
        -11    1    1    2    0    0  0.31427157579E+02 -0.54124296886E+02 -0.12306374601E+03  0.13806444629E+03  0.00000000000E+00 0.  1.
         11    1    1    2    0    0 -0.10217200019E+01  0.34440643467E+02 -0.97600403012E+02  0.10350381878E+03  0.00000000000E+00 0. -1.
<mgrwt>
<rscale>  0 0.12132482E+03</rscale>
<asrwt>0</asrwt>
<pdfrwt beam="1">  1        1 0.40603093E-02 0.13014201E+03</pdfrwt>
<pdfrwt beam="2">  1       -1 0.76423519E-01 0.13014201E+03</pdfrwt>
<totfact> 0.38204942E+03</totfact>
</mgrwt>
</event>
<event>
 7    1  0.6008063E-006  0.1311002E+03  0.7546771E-02  0.1239947E+00
         -2   -1    0    0    0  501 -0.00000000000E+00  0.00000000000E+00  0.19923483748E+02  0.19923483748E+02  0.00000000000E+00 0.  1.
          2   -1    0    0  501    0  0.00000000000E+00 -0.00000000000E+00 -0.67790956175E+03  0.67790956175E+03  0.00000000000E+00 0. -1.
         23    2    1    2    0    0 -0.34871279441E+02 -0.18623331651E+02 -0.43255284863E+03  0.45198365940E+03  0.12499770758E+03 0.  0.
          5    1    3    3  502    0  0.42001322689E+02 -0.31744094855E+02 -0.16525571788E+03  0.17350314394E+03  0.47000000000E+01 0. -1.
         -5    1    3    3    0  502 -0.76872602130E+02  0.13120763204E+02 -0.26729713075E+03  0.27848051546E+03  0.47000000000E+01 0. -1.
        -11    1    1    2    0    0  0.32277627270E+02  0.52420542757E+02 -0.17079452276E+03  0.18155034434E+03  0.00000000000E+00 0. -1.
         11    1    1    2    0    0  0.25936521703E+01 -0.33797211106E+02 -0.54638706616E+02  0.64299041757E+02  0.00000000000E+00 0.  1.
<mgrwt>
<rscale>  0 0.12192968E+03</rscale>
<asrwt>0</asrwt>
<pdfrwt beam="2">  1        2 0.10429379E+00 0.13110020E+03</pdfrwt>
<pdfrwt beam="1">  1       -2 0.30651510E-02 0.13110020E+03</pdfrwt>
<totfact> 0.16918799E+04</totfact>
</mgrwt>
</event>
<event>
 6    1  0.6008063E-006  0.2761894E+03  0.7546771E-02  0.1097789E+00
         -2   -1    0    0    0  501 -0.00000000000E+00  0.00000000000E+00  0.22828924662E+02  0.22828924662E+02  0.00000000000E+00 0.  1.
          2   -1    0    0  501    0  0.00000000000E+00 -0.00000000000E+00 -0.83535020529E+03  0.83535020529E+03  0.00000000000E+00 0. -1.
          5    1    1    2  502    0 -0.69564696210E+02 -0.29170041205E+02 -0.43900846080E+03  0.44546678543E+03  0.47000000000E+01 0. -1.
         -5    1    1    2    0  502  0.15900861342E+00  0.26162478577E+01  0.10109918117E+02  0.11452968215E+02  0.47000000000E+01 0.  1.
        -11    1    1    2    0    0 -0.83980695500E+01  0.34099391931E+02 -0.17463521738E+03  0.17813128656E+03  0.00000000000E+00 0.  1.
         11    1    1    2    0    0  0.77803757146E+02 -0.75455985840E+01 -0.20898752057E+03  0.22312808975E+03  0.00000000000E+00 0. -1.
<mgrwt>
<rscale>  0 0.27618941E+03</rscale>
<asrwt>0</asrwt>
<pdfrwt beam="2">  1        2 0.12851543E+00 0.27618941E+03</pdfrwt>
<pdfrwt beam="1">  1       -2 0.35121419E-02 0.27618941E+03</pdfrwt>
<totfact> 0.11182424E+04</totfact>
</mgrwt>
</event>
<event>
 7    1  0.6008063E-006  0.1475398E+03  0.7546771E-02  0.1214381E+00
         -2   -1    0    0    0  501 -0.00000000000E+00  0.00000000000E+00  0.84705272178E+02  0.84705272178E+02  0.00000000000E+00 0.  1.
          2   -1    0    0  501    0  0.00000000000E+00 -0.00000000000E+00 -0.20796897153E+03  0.20796897153E+03  0.00000000000E+00 0. -1.
         23    2    1    2    0    0 -0.76452678461E+02 -0.17321982016E+02 -0.80904567660E+02  0.16826632006E+03  0.12499176891E+03 0.  0.
          5    1    3    3  502    0  0.45253334351E+01 -0.20128785975E+02  0.26330568238E+02  0.33779216854E+02  0.47000000000E+01 0.  1.
         -5    1    3    3    0  502 -0.80978011896E+02  0.28068039588E+01 -0.10723513590E+03  0.13448710321E+03  0.47000000000E+01 0.  1.
        -11    1    1    2    0    0  0.13508350953E+02  0.39794114469E+01 -0.56753510158E+02  0.58474542975E+02  0.00000000000E+00 0. -1.
         11    1    1    2    0    0  0.62944327509E+02  0.13342570569E+02  0.14394378466E+02  0.65933380668E+02  0.00000000000E+00 0.  1.
<mgrwt>
<rscale>  0 0.13922101E+03</rscale>
<asrwt>0</asrwt>
<pdfrwt beam="2">  1        2 0.31995226E-01 0.14753984E+03</pdfrwt>
<pdfrwt beam="1">  1       -2 0.13031580E-01 0.14753984E+03</pdfrwt>
<totfact> 0.67441727E+03</totfact>
</mgrwt>
</event>
<event>
 6    1  0.6008063E-006  0.1353523E+03  0.7546771E-02  0.1236642E+00
         -2   -1    0    0    0  501 -0.00000000000E+00  0.00000000000E+00  0.56884195056E+02  0.56884195056E+02  0.00000000000E+00 0.  1.
          2   -1    0    0  501    0  0.00000000000E+00 -0.00000000000E+00 -0.23568437112E+03  0.23568437112E+03  0.00000000000E+00 0. -1.
          5    1    1    2  502    0  0.50616153688E+01  0.22425723500E+02 -0.11857365711E+03  0.12087321947E+03  0.47000000000E+01 0. -1.
         -5    1    1    2    0  502 -0.21254680886E+02 -0.54036793512E+02  0.12203057711E+01  0.58269337209E+02  0.47000000000E+01 0.  1.
        -11    1    1    2    0    0  0.51264657011E+02  0.30904250758E+02 -0.33650716479E+02  0.68669560163E+02  0.00000000000E+00 0. -1.
         11    1    1    2    0    0 -0.35071591494E+02  0.70681925451E+00 -0.27796108248E+02  0.44756449335E+02  0.00000000000E+00 0.  1.
<mgrwt>
<rscale>  0 0.12399901E+03</rscale>
<asrwt>0</asrwt>
<pdfrwt beam="2">  1        2 0.36259133E-01 0.13535231E+03</pdfrwt>
<pdfrwt beam="1">  1       -2 0.87514148E-02 0.13535231E+03</pdfrwt>
<totfact> 0.11001850E+04</totfact>
</mgrwt>
</event>
<event>
 7    1  0.6008063E-006  0.1354110E+03  0.7546771E-02  0.1229759E+00
          3   -1    0    0  501    0  0.00000000000E+00  0.00000000000E+00  0.31201010806E+02  0.31201010806E+02  0.00000000000E+00 0. -1.
         -3   -1    0    0    0  501 -0.00000000000E+00 -0.00000000000E+00 -0.59554663542E+03  0.59554663542E+03  0.00000000000E+00 0.  1.
         23    2    1    2    0    0  0.96149836645E+01 -0.51163803424E+02 -0.16947243644E+03  0.21692634556E+03  0.12500379992E+03 0.  0.
          5    1    3    3  502    0 -0.52618955142E+02 -0.46190943104E+01 -0.42386551299E+02  0.67888144794E+02  0.47000000000E+01 0.  1.
         -5    1    3    3    0  502  0.62233938807E+02 -0.46544709114E+02 -0.12708588514E+03  0.14903820077E+03  0.47000000000E+01 0.  1.
        -11    1    1    2    0    0 -0.12748029464E+02  0.63816676385E+02 -0.39077570711E+03  0.39615746075E+03  0.00000000000E+00 0.  1.
         11    1    1    2    0    0  0.31330457998E+01 -0.12652872961E+02 -0.40974810625E+01  0.13663839915E+02  0.00000000000E+00 0. -1.
<mgrwt>
<rscale>  0 0.12845990E+03</rscale>
<asrwt>0</asrwt>
<pdfrwt beam="1">  1        3 0.48001556E-02 0.13541098E+03</pdfrwt>
<pdfrwt beam="2">  1       -3 0.91622557E-01 0.13541098E+03</pdfrwt>
<totfact> 0.62168055E+02</totfact>
</mgrwt>
</event>
<event>
 7    1  0.6008063E-006  0.1432453E+03  0.7546771E-02  0.1219084E+00
         -1   -1    0    0    0  501 -0.00000000000E+00  0.00000000000E+00  0.26382938002E+02  0.26382938002E+02  0.00000000000E+00 0.  1.
          1   -1    0    0  501    0  0.00000000000E+00 -0.00000000000E+00 -0.64220732524E+03  0.64220732524E+03  0.00000000000E+00 0. -1.
         23    2    1    2    0    0  0.56413831889E+02 -0.41378608104E+02 -0.37416823403E+03  0.40065082157E+03  0.12499801529E+03 0.  0.
          5    1    3    3  502    0  0.86988885684E+02 -0.61175990910E+02 -0.27270319571E+03  0.29274338771E+03  0.47000000000E+01 0. -1.
         -5    1    3    3    0  502 -0.30575053795E+02  0.19797382805E+02 -0.10146503832E+03  0.10790743386E+03  0.47000000000E+01 0. -1.
        -11    1    1    2    0    0 -0.77577911449E+02  0.14745546725E+02 -0.19337883366E+03  0.20888067599E+03  0.00000000000E+00 0. -1.
         11    1    1    2    0    0  0.21164079560E+02  0.26633061379E+02 -0.48277319546E+02  0.59058765688E+02  0.00000000000E+00 0.  1.
<mgrwt>
<rscale>  0 0.13580740E+03</rscale>
<asrwt>0</asrwt>
<pdfrwt beam="2">  1        1 0.98801130E-01 0.14324529E+03</pdfrwt>
<pdfrwt beam="1">  1       -1 0.40589134E-02 0.14324529E+03</pdfrwt>
<totfact> 0.74123668E+03</totfact>
</mgrwt>
</event>
<event>
 6    1  0.6008063E-006  0.1824784E+03  0.7546771E-02  0.1182004E+00
          1   -1    0    0  501    0  0.00000000000E+00  0.00000000000E+00  0.16341755175E+03  0.16341755175E+03  0.00000000000E+00 0. -1.
         -1   -1    0    0    0  501 -0.00000000000E+00 -0.00000000000E+00 -0.14862960603E+03  0.14862960603E+03  0.00000000000E+00 0.  1.
          5    1    1    2  502    0 -0.27416487823E+02 -0.80166370652E+02 -0.76268038276E+01  0.85197235429E+02  0.47000000000E+01 0. -1.
         -5    1    1    2    0  502 -0.57241150101E+02  0.71311556237E+02  0.40928004093E+02  0.10029495918E+03  0.47000000000E+01 0.  1.
        -11    1    1    2    0    0 -0.49966014090E+01  0.32165276564E+02 -0.54170334792E+01  0.32998716547E+02  0.00000000000E+00 0.  1.
         11    1    1    2    0    0  0.89654239333E+02 -0.23310462148E+02 -0.13096221060E+02  0.93556246622E+02  0.00000000000E+00 0. -1.
<mgrwt>
<rscale>  0 0.16607496E+03</rscale>
<asrwt>0</asrwt>
<pdfrwt beam="1">  1        1 0.25141162E-01 0.18247845E+03</pdfrwt>
<pdfrwt beam="2">  1       -1 0.22866093E-01 0.18247845E+03</pdfrwt>
<totfact> 0.30075688E+03</totfact>
</mgrwt>
</event>
<event>
 7    1  0.6008063E-006  0.1404721E+03  0.7546771E-02  0.1224982E+00
          1   -1    0    0  501    0  0.00000000000E+00  0.00000000000E+00  0.42356198586E+02  0.42356198586E+02  0.00000000000E+00 0. -1.
         -1   -1    0    0    0  501 -0.00000000000E+00 -0.00000000000E+00 -0.37950442732E+03  0.37950442732E+03  0.00000000000E+00 0.  1.
         23    2    1    2    0    0  0.60917686338E+02 -0.20010194008E+02 -0.14968216593E+03  0.20527340548E+03  0.12498419031E+03 0.  0.
          5    1    3    3  502    0  0.94757317029E+02 -0.54538992482E+01 -0.72183848145E+02  0.11933688483E+03  0.47000000000E+01 0. -1.
         -5    1    3    3    0  502 -0.33839630691E+02 -0.14556294760E+02 -0.77498317781E+02  0.85936520649E+02  0.47000000000E+01 0. -1.
        -11    1    1    2    0    0 -0.74688213645E+02  0.24676009457E+01 -0.91874741061E+02  0.11842882401E+03  0.00000000000E+00 0. -1.
         11    1    1    2    0    0  0.13770527307E+02  0.17542593063E+02 -0.95591321743E+02  0.98158396412E+02  0.00000000000E+00 0.  1.
<mgrwt>
<rscale>  0 0.13168113E+03</rscale>
<asrwt>0</asrwt>
<pdfrwt beam="1">  1        1 0.65163382E-02 0.14047213E+03</pdfrwt>
<pdfrwt beam="2">  1       -1 0.58385297E-01 0.14047213E+03</pdfrwt>
<totfact> 0.34024435E+03</totfact>
</mgrwt>
</event>
<event>
 7    1  0.6008063E-006  0.1259339E+03  0.7546771E-02  0.1247439E+00
         -1   -1    0    0    0  501 -0.00000000000E+00  0.00000000000E+00  0.32438977829E+02  0.32438977829E+02  0.00000000000E+00 0.  1.
          1   -1    0    0  501    0  0.00000000000E+00 -0.00000000000E+00 -0.38196710134E+03  0.38196710134E+03  0.00000000000E+00 0. -1.
         23    2    1    2    0    0 -0.11286822939E+02  0.10395350710E+02 -0.22302850669E+03  0.25612704521E+03  0.12499557112E+03 0.  0.
          5    1    3    3  502    0  0.22854076126E+01  0.43564765261E+02 -0.21456292489E+03  0.21900331184E+03  0.47000000000E+01 0.  1.
         -5    1    3    3    0  502 -0.13572230552E+02 -0.33169414551E+02 -0.84655818053E+01  0.37123733367E+02  0.47000000000E+01 0.  1.
        -11    1    1    2    0    0  0.19292036989E+02  0.32243055858E+02 -0.10144670422E+03  0.10818147318E+03  0.00000000000E+00 0. -1.
         11    1    1    2    0    0 -0.80052140499E+01 -0.42638406568E+02 -0.25052912594E+02  0.50097560780E+02  0.00000000000E+00 0.  1.
<mgrwt>
<rscale>  0 0.11740556E+03</rscale>
<asrwt>0</asrwt>
<pdfrwt beam="2">  1        1 0.58764169E-01 0.12593391E+03</pdfrwt>
<pdfrwt beam="1">  1       -1 0.49906120E-02 0.12593391E+03</pdfrwt>
<totfact> 0.10692327E+04</totfact>
</mgrwt>
</event>
<event>
 7    1  0.6008063E-006  0.1460971E+03  0.7546771E-02  0.1215124E+00
         -1   -1    0    0    0  501 -0.00000000000E+00  0.00000000000E+00  0.46268985527E+02  0.46268985527E+02  0.00000000000E+00 0.  1.
          1   -1    0    0  501    0  0.00000000000E+00 -0.00000000000E+00 -0.41918951217E+03  0.41918951217E+03  0.00000000000E+00 0. -1.
         23    2    1    2    0    0  0.33624113872E+02  0.67744556562E+02 -0.27606795408E+03  0.31234255282E+03  0.12499779621E+03 0.  0.
          5    1    3    3  502    0 -0.52636647139E+01  0.15882719842E+02 -0.23461083356E+03  0.23525369323E+03  0.47000000000E+01 0.  1.
         -5    1    3    3    0  502  0.38887778586E+02  0.51861836719E+02 -0.41457120522E+02  0.77088859592E+02  0.47000000000E+01 0.  1.
        -11    1    1    2    0    0 -0.61850971989E+02 -0.47009888361E+02 -0.87197258301E+02  0.11678541944E+03  0.00000000000E+00 0. -1.
         11    1    1    2    0    0  0.28226858117E+02 -0.20734668201E+02 -0.96553142618E+01  0.36330525430E+02  0.00000000000E+00 0.  1.
<mgrwt>
<rscale>  0 0.13867399E+03</rscale>
<asrwt>0</asrwt>
<pdfrwt beam="2">  1        1 0.64490694E-01 0.14609707E+03</pdfrwt>
<pdfrwt beam="1">  1       -1 0.71183055E-02 0.14609707E+03</pdfrwt>
<totfact> 0.56588251E+03</totfact>
</mgrwt>
</event>
<event>
 7    1  0.6008063E-006  0.1357334E+03  0.7546771E-02  0.1233986E+00
         -1   -1    0    0    0  501 -0.00000000000E+00  0.00000000000E+00  0.74960829338E+02  0.74960829338E+02  0.00000000000E+00 0.  1.
          1   -1    0    0  501    0  0.00000000000E+00 -0.00000000000E+00 -0.20481849177E+03  0.20481849177E+03  0.00000000000E+00 0. -1.
         23    2    1    2    0    0  0.47232753828E+02 -0.23828850596E+02 -0.11687450245E+03  0.17911782768E+03  0.12499919886E+03 0.  0.
          5    1    3    3  502    0 -0.39689430672E+02 -0.15214779881E+01 -0.62139986162E+02  0.73898807044E+02  0.47000000000E+01 0.  1.
         -5    1    3    3    0  502  0.86922184500E+02 -0.22307372607E+02 -0.54734516283E+02  0.10521902064E+03  0.47000000000E+01 0.  1.
        -11    1    1    2    0    0 -0.36199648885E+02  0.39813369946E+02  0.23975888557E+02  0.58909780494E+02  0.00000000000E+00 0.  1.
         11    1    1    2    0    0 -0.11033104943E+02 -0.15984519350E+02 -0.36959048547E+02  0.41751712935E+02  0.00000000000E+00 0. -1.
<mgrwt>
<rscale>  0 0.12569562E+03</rscale>
<asrwt>0</asrwt>
<pdfrwt beam="2">  1        1 0.31510537E-01 0.13573337E+03</pdfrwt>
<pdfrwt beam="1">  1       -1 0.11532435E-01 0.13573337E+03</pdfrwt>
<totfact> 0.65978414E+03</totfact>
</mgrwt>
</event>
<event>
 7    1  0.6008063E-006  0.1707674E+03  0.7546771E-02  0.1181720E+00
          1   -1    0    0  501    0  0.00000000000E+00  0.00000000000E+00  0.55122454772E+02  0.55122454772E+02  0.00000000000E+00 0. -1.
         -1   -1    0    0    0  501 -0.00000000000E+00 -0.00000000000E+00 -0.47771840474E+03  0.47771840474E+03  0.00000000000E+00 0.  1.
         23    2    1    2    0    0 -0.11046330986E+03  0.36525473186E+02 -0.21767708004E+03  0.27666734783E+03  0.12500102865E+03 0.  0.
          5    1    3    3  502    0 -0.53685060682E+02 -0.10313006713E+02 -0.93363127945E+01  0.55656990437E+02  0.47000000000E+01 0.  1.
         -5    1    3    3    0  502 -0.56778249173E+02  0.46838479898E+02 -0.20834076725E+03  0.22101035739E+03  0.47000000000E+01 0.  1.
        -11    1    1    2    0    0  0.37380691517E+02 -0.58826730869E+02 -0.13800297976E+03  0.15460505420E+03  0.00000000000E+00 0. -1.
         11    1    1    2    0    0  0.73082618339E+02  0.22301257683E+02 -0.66915890170E+02  0.10156845748E+03  0.00000000000E+00 0.  1.
<mgrwt>
<rscale>  0 0.16633893E+03</rscale>
<asrwt>0</asrwt>
<pdfrwt beam="1">  1        1 0.84803778E-02 0.17076742E+03</pdfrwt>
<pdfrwt beam="2">  1       -1 0.73495138E-01 0.17076742E+03</pdfrwt>
<totfact> 0.15361391E+03</totfact>
</mgrwt>
</event>
<event>
 7    1  0.6008063E-006  0.1304442E+03  0.7546771E-02  0.1240497E+00
          3   -1    0    0  501    0  0.00000000000E+00  0.00000000000E+00  0.46386397407E+03  0.46386397407E+03  0.00000000000E+00 0. -1.
         -3   -1    0    0    0  501 -0.00000000000E+00 -0.00000000000E+00 -0.33648449253E+02  0.33648449253E+02  0.00000000000E+00 0.  1.
         23    2    1    2    0    0 -0.37144596686E+02 -0.35650755391E+01  0.33921056083E+03  0.36342742000E+03  0.12499301662E+03 0.  0.
          5    1    3    3  502    0  0.41112424724E+02  0.70814873297E+01  0.60035568393E+02  0.73258026193E+02  0.47000000000E+01 0. -1.
         -5    1    3    3    0  502 -0.78257021409E+02 -0.10646562869E+02  0.27917499244E+03  0.29016939381E+03  0.47000000000E+01 0. -1.
        -11    1    1    2    0    0  0.10147379945E+02  0.44839532262E+02  0.27116754825E+02  0.53374819582E+02  0.00000000000E+00 0.  1.
         11    1    1    2    0    0  0.26997216741E+02 -0.41274456723E+02  0.63888209167E+02  0.80710183745E+02  0.00000000000E+00 0. -1.
<mgrwt>
<rscale>  0 0.12158992E+03</rscale>
<asrwt>0</asrwt>
<pdfrwt beam="1">  1        3 0.71363683E-01 0.13044418E+03</pdfrwt>
<pdfrwt beam="2">  1       -3 0.51766849E-02 0.13044418E+03</pdfrwt>
<totfact> 0.94552426E+02</totfact>
</mgrwt>
</event>
<event>
 7    1  0.6008063E-006  0.1583524E+03  0.7546771E-02  0.1198424E+00
          3   -1    0    0  501    0  0.00000000000E+00  0.00000000000E+00  0.55666375312E+02  0.55666375312E+02  0.00000000000E+00 0. -1.
         -3   -1    0    0    0  501 -0.00000000000E+00 -0.00000000000E+00 -0.40829128087E+03  0.40829128087E+03  0.00000000000E+00 0.  1.
         23    2    1    2    0    0 -0.48766645740E+02  0.84095630735E+02 -0.13183688092E+03  0.20604965188E+03  0.12500094009E+03 0.  0.
          5    1    3    3  502    0 -0.42657609560E+02  0.10798988789E+03 -0.13778793463E+03  0.18024730919E+03  0.47000000000E+01 0. -1.
         -5    1    3    3    0  502 -0.61090361796E+01 -0.23894257158E+02  0.59510537089E+01  0.25802342692E+02  0.47000000000E+01 0. -1.
        -11    1    1    2    0    0  0.38357250384E+02  0.91847718164E+01 -0.65483488468E+02  0.76444266968E+02  0.00000000000E+00 0.  1.
         11    1    1    2    0    0  0.10409395356E+02 -0.93280402552E+02 -0.15530453617E+03  0.18146373734E+03  0.00000000000E+00 0. -1.
<mgrwt>
<rscale>  0 0.15167955E+03</rscale>
<asrwt>0</asrwt>
<pdfrwt beam="1">  1        3 0.85640581E-02 0.15835244E+03</pdfrwt>
<pdfrwt beam="2">  1       -3 0.62814041E-01 0.15835244E+03</pdfrwt>
<totfact> 0.56518785E+02</totfact>
</mgrwt>
</event>
<event>
 7    1  0.6008063E-006  0.1346963E+03  0.7546771E-02  0.1232937E+00
         -1   -1    0    0    0  501 -0.00000000000E+00  0.00000000000E+00  0.89496971881E+02  0.89496971881E+02  0.00000000000E+00 0.  1.
          1   -1    0    0  501    0  0.00000000000E+00 -0.00000000000E+00 -0.16012461558E+03  0.16012461558E+03  0.00000000000E+00 0. -1.
         23    2    1    2    0    0  0.50084251619E+02  0.28833656334E+01 -0.33025481994E+02  0.13868589162E+03  0.12500539195E+03 0.  0.
          5    1    3    3  502    0 -0.17157914529E+01  0.56777198613E+02 -0.42332065244E+00  0.56998801944E+02  0.47000000000E+01 0.  1.
         -5    1    3    3    0  502  0.51800043072E+02 -0.53893832980E+02 -0.32602161341E+02  0.81687089675E+02  0.47000000000E+01 0.  1.
        -11    1    1    2    0    0 -0.29997203059E+02  0.35826940316E+02 -0.47051877664E+02  0.66311997674E+02  0.00000000000E+00 0. -1.
         11    1    1    2    0    0 -0.20087048560E+02 -0.38710305949E+02  0.94497159588E+01  0.44623698169E+02  0.00000000000E+00 0.  1.
<mgrwt>
<rscale>  0 0.12637444E+03</rscale>
<asrwt>0</asrwt>
<pdfrwt beam="2">  1        1 0.24634556E-01 0.13469630E+03</pdfrwt>
<pdfrwt beam="1">  1       -1 0.13768765E-01 0.13469630E+03</pdfrwt>
<totfact> 0.68152012E+03</totfact>
</mgrwt>
</event>
<event>
 7    1  0.6008063E-006  0.1262403E+03  0.7546771E-02  0.1246207E+00
         -1   -1    0    0    0  501 -0.00000000000E+00  0.00000000000E+00  0.17039896315E+02  0.17039896315E+02  0.00000000000E+00 0.  1.
          1   -1    0    0  501    0  0.00000000000E+00 -0.00000000000E+00 -0.86340546491E+03  0.86340546491E+03  0.00000000000E+00 0. -1.
         23    2    1    2    0    0 -0.34964752648E+02 -0.67478317669E+01 -0.64221327814E+03  0.65450324439E+03  0.12111372811E+03 0.  0.
          5    1    3    3  502    0 -0.28804323714E+02  0.53921634617E+02 -0.40080220633E+03  0.40546483244E+03  0.47000000000E+01 0. -1.
         -5    1    3    3    0  502 -0.61604289346E+01 -0.60669466384E+02 -0.24141107181E+03  0.24903841195E+03  0.47000000000E+01 0.  1.
        -11    1    1    2    0    0  0.69880816921E+01  0.46484716708E+02 -0.82668415099E+02  0.95098522745E+02  0.00000000000E+00 0. -1.
         11    1    1    2    0    0  0.27976670956E+02 -0.39736884941E+02 -0.12148387536E+03  0.13084359409E+03  0.00000000000E+00 0.  1.
<mgrwt>
<rscale>  0 0.11813419E+03</rscale>
<asrwt>0</asrwt>
<pdfrwt beam="2">  1        1 0.13283159E+00 0.12624026E+03</pdfrwt>
<pdfrwt beam="1">  1       -1 0.26215229E-02 0.12624026E+03</pdfrwt>
<totfact> 0.90231222E+03</totfact>
</mgrwt>
</event>
<event>
 7    1  0.6008063E-006  0.1395455E+03  0.7546771E-02  0.1224886E+00
         -1   -1    0    0    0  501 -0.00000000000E+00  0.00000000000E+00  0.13390322750E+03  0.13390322750E+03  0.00000000000E+00 0.  1.
          1   -1    0    0  501    0  0.00000000000E+00 -0.00000000000E+00 -0.12347413321E+03  0.12347413321E+03  0.00000000000E+00 0. -1.
         23    2    1    2    0    0  0.31180036861E+01  0.61986750890E+02 -0.23328565429E+02  0.14148206005E+03  0.12498348738E+03 0.  0.
          5    1    3    3  502    0  0.36443689298E+02 -0.27134523690E+01 -0.51480095044E+02  0.63307152038E+02  0.47000000000E+01 0. -1.
         -5    1    3    3    0  502 -0.33325685612E+02  0.64700203259E+02  0.28151529615E+02  0.78174908013E+02  0.47000000000E+01 0. -1.
        -11    1    1    2    0    0 -0.47056241008E+02 -0.25321397881E+02  0.12769764149E+02  0.54941149286E+02  0.00000000000E+00 0.  1.
         11    1    1    2    0    0  0.43938237321E+02 -0.36665353009E+02  0.20987895568E+02  0.60954151381E+02  0.00000000000E+00 0. -1.
<mgrwt>
<rscale>  0 0.13174689E+03</rscale>
<asrwt>0</asrwt>
<pdfrwt beam="2">  1        1 0.18996021E-01 0.13954552E+03</pdfrwt>
<pdfrwt beam="1">  1       -1 0.20600497E-01 0.13954552E+03</pdfrwt>
<totfact> 0.50167837E+03</totfact>
</mgrwt>
</event>
<event>
 7    1  0.6008063E-006  0.1382814E+03  0.7546771E-02  0.1227162E+00
         -1   -1    0    0    0  501 -0.00000000000E+00  0.00000000000E+00  0.13850797041E+02  0.13850797041E+02  0.00000000000E+00 0.  1.
          1   -1    0    0  501    0  0.00000000000E+00 -0.00000000000E+00 -0.14969575923E+04  0.14969575923E+04  0.00000000000E+00 0. -1.
         23    2    1    2    0    0  0.53104116367E+02 -0.25943247202E+02 -0.11934804340E+04  0.12014646488E+04  0.12501462617E+03 0.  0.
          5    1    3    3  502    0  0.43062844003E+02  0.43195011065E+02 -0.74995798626E+03  0.75244886116E+03  0.47000000000E+01 0. -1.
         -5    1    3    3    0  502  0.10041272363E+02 -0.69138258267E+02 -0.44352244770E+03  0.44901578761E+03  0.47000000000E+01 0. -1.
        -11    1    1    2    0    0 -0.26030006394E+02 -0.22081397747E+02 -0.35275797093E+02  0.49086976072E+02  0.00000000000E+00 0.  1.
         11    1    1    2    0    0 -0.27074109973E+02  0.48024644949E+02 -0.25435056417E+03  0.26025676446E+03  0.00000000000E+00 0. -1.
<mgrwt>
<rscale>  0 0.13019812E+03</rscale>
<asrwt>0</asrwt>
<pdfrwt beam="2">  1        1 0.23030109E+00 0.13828144E+03</pdfrwt>
<pdfrwt beam="1">  1       -1 0.21308926E-02 0.13828144E+03</pdfrwt>
<totfact> 0.44279189E+03</totfact>
</mgrwt>
</event>
<event>
 7    1  0.6008063E-006  0.1529921E+03  0.7546771E-02  0.1206597E+00
         -2   -1    0    0    0  501 -0.00000000000E+00  0.00000000000E+00  0.28351670030E+02  0.28351670030E+02  0.00000000000E+00 0.  1.
          2   -1    0    0  501    0  0.00000000000E+00 -0.00000000000E+00 -0.15119648912E+04  0.15119648912E+04  0.00000000000E+00 0. -1.
         23    2    1    2    0    0 -0.70272884618E+02  0.46701866940E+02 -0.13479916810E+04  0.13566459171E+04  0.12762143111E+03 0.  0.
          5    1    3    3  502    0 -0.91532816904E+01  0.27334257203E+02 -0.11021775663E+04  0.11025644751E+04  0.47000000000E+01 0. -1.
         -5    1    3    3    0  502 -0.61119602927E+02  0.19367609737E+02 -0.24581411471E+03  0.25408144198E+03  0.47000000000E+01 0.  1.
        -11    1    1    2    0    0 -0.88237791795E+01 -0.26007527347E+02 -0.80525541757E+02  0.85080041332E+02  0.00000000000E+00 0. -1.
         11    1    1    2    0    0  0.79096663797E+02 -0.20694339592E+02 -0.55095998392E+02  0.98590602766E+02  0.00000000000E+00 0.  1.
<mgrwt>
<rscale>  0 0.14512288E+03</rscale>
<asrwt>0</asrwt>
<pdfrwt beam="2">  1        2 0.23261001E+00 0.15299207E+03</pdfrwt>
<pdfrwt beam="1">  1       -2 0.43617949E-02 0.15299207E+03</pdfrwt>
<totfact> 0.32260409E+03</totfact>
</mgrwt>
</event>
<event>
 7    1  0.6008063E-006  0.1596275E+03  0.7546771E-02  0.1196986E+00
         -2   -1    0    0    0  501 -0.00000000000E+00  0.00000000000E+00  0.16070463165E+03  0.16070463165E+03  0.00000000000E+00 0.  1.
          2   -1    0    0  501    0  0.00000000000E+00 -0.00000000000E+00 -0.15350156657E+03  0.15350156657E+03  0.00000000000E+00 0. -1.
         23    2    1    2    0    0 -0.38313989854E+02  0.91586042196E+02 -0.51397850582E+02  0.16769821230E+03  0.12499994568E+03 0.  0.
          5    1    3    3  502    0 -0.64932707097E+02  0.60737132527E+02  0.14370957710E+02  0.90187971172E+02  0.47000000000E+01 0. -1.
         -5    1    3    3    0  502  0.26618717243E+02  0.30848909669E+02 -0.65768808292E+02  0.77510241127E+02  0.47000000000E+01 0. -1.
        -11    1    1    2    0    0 -0.27526508894E+02 -0.27707708294E+02  0.33356713147E+02  0.51362399698E+02  0.00000000000E+00 0.  1.
         11    1    1    2    0    0  0.65840498748E+02 -0.63878333902E+02  0.25244202515E+02  0.95145586225E+02  0.00000000000E+00 0. -1.
<mgrwt>
<rscale>  0 0.15287339E+03</rscale>
<asrwt>0</asrwt>
<pdfrwt beam="2">  1        2 0.23615626E-01 0.15962754E+03</pdfrwt>
<pdfrwt beam="1">  1       -2 0.24723790E-01 0.15962754E+03</pdfrwt>
<totfact> 0.32317473E+03</totfact>
</mgrwt>
</event>
<event>
 7    1  0.6008063E-006  0.1259682E+03  0.7546771E-02  0.1248253E+00
         -2   -1    0    0    0  501 -0.00000000000E+00  0.00000000000E+00  0.26929263328E+02  0.26929263328E+02  0.00000000000E+00 0. -1.
          2   -1    0    0  501    0  0.00000000000E+00 -0.00000000000E+00 -0.52604374969E+03  0.52604374969E+03  0.00000000000E+00 0.  1.
         23    2    1    2    0    0 -0.26691891115E+01 -0.15491151128E+02 -0.38695202142E+03  0.40693960805E+03  0.12498350844E+03 0.  0.
          5    1    3    3  502    0 -0.39279626411E+02  0.37460231626E+02 -0.11247827469E+03  0.12497843926E+03  0.47000000000E+01 0.  1.
         -5    1    3    3    0  502  0.36610437299E+02 -0.52951382754E+02 -0.27447374673E+03  0.28196116878E+03  0.47000000000E+01 0.  1.
        -11    1    1    2    0    0 -0.12816238428E+02 -0.28646752493E+02 -0.87911221037E+02  0.93344925840E+02  0.00000000000E+00 0.  1.
         11    1    1    2    0    0  0.15485427539E+02  0.44137903621E+02 -0.24251243902E+02  0.52688479129E+02  0.00000000000E+00 0. -1.
<mgrwt>
<rscale>  0 0.11692777E+03</rscale>
<asrwt>0</asrwt>
<pdfrwt beam="2">  1        2 0.80929798E-01 0.12596816E+03</pdfrwt>
<pdfrwt beam="1">  1       -2 0.41429641E-02 0.12596816E+03</pdfrwt>
<totfact> 0.14414111E+04</totfact>
</mgrwt>
</event>
<event>
 7    1  0.6008063E-006  0.1484819E+03  0.7546771E-02  0.1210247E+00
         -2   -1    0    0    0  501 -0.00000000000E+00  0.00000000000E+00  0.13106375525E+02  0.13106375525E+02  0.00000000000E+00 0.  1.
          2   -1    0    0  501    0  0.00000000000E+00 -0.00000000000E+00 -0.20657269560E+04  0.20657269560E+04  0.00000000000E+00 0. -1.
         23    2    1    2    0    0 -0.27237069612E+02 -0.75366735409E+02 -0.16616787589E+04  0.16682994856E+04  0.12499949127E+03 0.  0.
          5    1    3    3  502    0  0.37505832572E+02 -0.58945205879E+02 -0.11684764789E+04  0.11705727643E+04  0.47000000000E+01 0. -1.
         -5    1    3    3    0  502 -0.64742902183E+02 -0.16421529529E+02 -0.49320228005E+03  0.49772672126E+03  0.47000000000E+01 0. -1.
        -11    1    1    2    0    0  0.28466294235E+02  0.61723835261E+02 -0.39097106202E+03  0.39683564996E+03  0.00000000000E+00 0. -1.
         11    1    1    2    0    0 -0.12292246232E+01  0.13642900148E+02  0.29240528005E-01  0.13698195962E+02  0.00000000000E+00 0.  1.
<mgrwt>
<rscale>  0 0.14231522E+03</rscale>
<asrwt>0</asrwt>
<pdfrwt beam="2">  1        2 0.31780420E+00 0.14848190E+03</pdfrwt>
<pdfrwt beam="1">  1       -2 0.20163651E-02 0.14848190E+03</pdfrwt>
<totfact> 0.52140346E+03</totfact>
</mgrwt>
</event>
<event>
 7    1  0.6008063E-006  0.1764187E+03  0.7546771E-02  0.1176730E+00
          2   -1    0    0  501    0  0.00000000000E+00  0.00000000000E+00  0.13687257834E+04  0.13687257834E+04  0.00000000000E+00 0. -1.
         -2   -1    0    0    0  501 -0.00000000000E+00 -0.00000000000E+00 -0.20273470450E+02  0.20273470450E+02  0.00000000000E+00 0.  1.
         23    2    1    2    0    0 -0.69815506412E+02 -0.10307853728E+03  0.76168608653E+03  0.78184989938E+03  0.12499672385E+03 0.  0.
          5    1    3    3  502    0 -0.89764805050E+02 -0.93747750500E+02  0.42477845568E+03  0.44419048544E+03  0.47000000000E+01 0. -1.
         -5    1    3    3    0  502  0.19949298637E+02 -0.93307867773E+01  0.33690763085E+03  0.33765941394E+03  0.47000000000E+01 0. -1.
        -11    1    1    2    0    0 -0.68936290418E+01  0.17617281450E+02  0.15506291848E+02  0.24460903784E+02  0.00000000000E+00 0.  1.
         11    1    1    2    0    0  0.76709135454E+02  0.85461255827E+02  0.57125993461E+03  0.58268845072E+03  0.00000000000E+00 0. -1.
<mgrwt>
<rscale>  0 0.17107600E+03</rscale>
<asrwt>0</asrwt>
<pdfrwt beam="1">  1        2 0.21057313E+00 0.17641874E+03</pdfrwt>
<pdfrwt beam="2">  1       -2 0.31189965E-02 0.17641874E+03</pdfrwt>
<totfact> 0.63474168E+03</totfact>
</mgrwt>
</event>
<event>
 7    1  0.6008063E-006  0.1264202E+03  0.7546771E-02  0.1247962E+00
         -1   -1    0    0    0  501 -0.00000000000E+00  0.00000000000E+00  0.10632967577E+03  0.10632967577E+03  0.00000000000E+00 0.  1.
          1   -1    0    0  501    0  0.00000000000E+00 -0.00000000000E+00 -0.11335968607E+03  0.11335968607E+03  0.00000000000E+00 0. -1.
         23    2    1    2    0    0 -0.76099124885E+01 -0.17280505482E+02 -0.73094776293E+01  0.12663132576E+03  0.12500215023E+03 0.  0.
          5    1    3    3  502    0 -0.35074434834E+01 -0.42391128462E+02 -0.56602993766E+02  0.70959839595E+02  0.47000000000E+01 0. -1.
         -5    1    3    3    0  502 -0.41024690050E+01  0.25110622980E+02  0.49293516137E+02  0.55671486162E+02  0.47000000000E+01 0. -1.
        -11    1    1    2    0    0 -0.12976880407E+02 -0.12798735349E+01 -0.41174977107E+02  0.43190464702E+02  0.00000000000E+00 0. -1.
         11    1    1    2    0    0  0.20586792895E+02  0.18560379017E+02  0.41454444439E+02  0.49867571374E+02  0.00000000000E+00 0.  1.
<mgrwt>
<rscale>  0 0.11709822E+03</rscale>
<asrwt>0</asrwt>
<pdfrwt beam="2">  1        1 0.17439952E-01 0.12642019E+03</pdfrwt>
<pdfrwt beam="1">  1       -1 0.16358412E-01 0.12642019E+03</pdfrwt>
<totfact> 0.80228282E+03</totfact>
</mgrwt>
</event>
<event>
 7    1  0.6008063E-006  0.1333262E+03  0.7546771E-02  0.1234773E+00
         -2   -1    0    0    0  501 -0.00000000000E+00  0.00000000000E+00  0.26540792627E+02  0.26540792627E+02  0.00000000000E+00 0.  1.
          2   -1    0    0  501    0  0.00000000000E+00 -0.00000000000E+00 -0.59650604636E+03  0.59650604636E+03  0.00000000000E+00 0. -1.
         23    2    1    2    0    0  0.30656319520E+02 -0.34810321725E+02 -0.42075427855E+03  0.44137291566E+03  0.12499727731E+03 0.  0.
          5    1    3    3  502    0  0.46207460086E+02 -0.56009873859E+02 -0.12668981492E+03  0.14609803059E+03  0.47000000000E+01 0. -1.
         -5    1    3    3    0  502 -0.15551140566E+02  0.21199552134E+02 -0.29406446363E+03  0.29527488507E+03  0.47000000000E+01 0. -1.
        -11    1    1    2    0    0  0.57163580710E+00  0.25494883169E+02 -0.14679844333E+03  0.14899697580E+03  0.00000000000E+00 0. -1.
         11    1    1    2    0    0 -0.31227955327E+02  0.93154385556E+01 -0.24125318523E+01  0.32676947522E+02  0.00000000000E+00 0.  1.
<mgrwt>
<rscale>  0 0.12519006E+03</rscale>
<asrwt>0</asrwt>
<pdfrwt beam="2">  1        2 0.91770161E-01 0.13332625E+03</pdfrwt>
<pdfrwt beam="1">  1       -2 0.40831989E-02 0.13332625E+03</pdfrwt>
<totfact> 0.12852274E+04</totfact>
</mgrwt>
</event>
<event>
 6    1  0.6008063E-006  0.7175560E+03  0.7546771E-02  0.1019643E+00
          3   -1    0    0  501    0  0.00000000000E+00  0.00000000000E+00  0.35832792213E+03  0.35832792213E+03  0.00000000000E+00 0. -1.
         -3   -1    0    0    0  501 -0.00000000000E+00 -0.00000000000E+00 -0.11343469642E+04  0.11343469642E+04  0.00000000000E+00 0.  1.
          5    1    1    2  502    0 -0.36917878604E+02 -0.30547805608E+03  0.23762829285E+03  0.38880466570E+03  0.47000000000E+01 0. -1.
         -5    1    1    2    0  502 -0.32998058103E+01  0.21162901369E+03 -0.25169071153E+03  0.32888908833E+03  0.47000000000E+01 0.  1.
        -11    1    1    2    0    0  0.52895574903E+02  0.67350877103E+01 -0.30371519959E+03  0.30836054500E+03  0.00000000000E+00 0. -1.
         11    1    1    2    0    0 -0.12677890488E+02  0.87113954674E+02 -0.45824142375E+03  0.46662058725E+03  0.00000000000E+00 0.  1.
<mgrwt>
<rscale>  0 0.47815537E+03</rscale>
<asrwt>0</asrwt>
<pdfrwt beam="1">  1        3 0.55127374E-01 0.71755597E+03</pdfrwt>
<pdfrwt beam="2">  1       -3 0.17451491E+00 0.71755597E+03</pdfrwt>
<totfact> 0.18268154E+00</totfact>
</mgrwt>
</event>
<event>
 7    1  0.6008063E-006  0.2600775E+03  0.7546771E-02  0.1109354E+00
          2   -1    0    0  501    0  0.00000000000E+00  0.00000000000E+00  0.25631822914E+04  0.25631822914E+04  0.00000000000E+00 0. -1.
         -2   -1    0    0    0  501 -0.00000000000E+00 -0.00000000000E+00 -0.38788104760E+02  0.38788104760E+02  0.00000000000E+00 0.  1.
         23    2    1    2    0    0  0.12544297086E+03 -0.19047134533E+03  0.20629998413E+04  0.20793288897E+04  0.12500005502E+03 0.  0.
          5    1    3    3  502    0 -0.13443350134E+02 -0.26958499440E+02  0.58925231222E+03  0.59004055946E+03  0.47000000000E+01 0. -1.
         -5    1    3    3    0  502  0.13888632099E+03 -0.16351284589E+03  0.14737475291E+04  0.14892883302E+04  0.47000000000E+01 0. -1.
        -11    1    1    2    0    0 -0.56875942235E+02  0.11201387595E+03  0.15801927902E+03  0.20187142877E+03  0.00000000000E+00 0.  1.
         11    1    1    2    0    0 -0.68567028623E+02  0.78457469383E+02  0.30337506627E+03  0.32077007770E+03  0.00000000000E+00 0. -1.
<mgrwt>
<rscale>  0 0.25635344E+03</rscale>
<asrwt>0</asrwt>
<pdfrwt beam="1">  1        2 0.39433560E+00 0.26007746E+03</pdfrwt>
<pdfrwt beam="2">  1       -2 0.59674028E-02 0.26007746E+03</pdfrwt>
<totfact> 0.55402087E+02</totfact>
</mgrwt>
</event>
<event>
 7    1  0.6008063E-006  0.1320324E+03  0.7546771E-02  0.1242225E+00
          2   -1    0    0  501    0  0.00000000000E+00  0.00000000000E+00  0.10997836526E+03  0.10997836526E+03  0.00000000000E+00 0.  1.
         -2   -1    0    0    0  501 -0.00000000000E+00 -0.00000000000E+00 -0.11420317876E+03  0.11420317876E+03  0.00000000000E+00 0. -1.
         23    2    1    2    0    0  0.36936694958E+02 -0.21065186764E+02  0.42224715242E+01  0.13209988768E+03  0.12499795811E+03 0.  0.
          5    1    3    3  502    0 -0.21647318577E+02 -0.53548087409E+02 -0.19096950659E+02  0.61014650627E+02  0.47000000000E+01 0.  1.
         -5    1    3    3    0  502  0.58584013535E+02  0.32482900645E+02  0.23319422183E+02  0.71085237055E+02  0.47000000000E+01 0.  1.
        -11    1    1    2    0    0 -0.59709097105E+02 -0.96317634681E+00 -0.20079317265E+01  0.59750613181E+02  0.00000000000E+00 0.  1.
         11    1    1    2    0    0  0.22772402147E+02  0.22028363110E+02 -0.64393532891E+01  0.32331043157E+02  0.00000000000E+00 0. -1.
<mgrwt>
<rscale>  0 0.12052991E+03</rscale>
<asrwt>0</asrwt>
<pdfrwt beam="1">  1        2 0.16919749E-01 0.13203239E+03</pdfrwt>
<pdfrwt beam="2">  1       -2 0.17569720E-01 0.13203239E+03</pdfrwt>
<totfact> 0.83409131E+03</totfact>
</mgrwt>
</event>
<event>
 7    1  0.6008063E-006  0.1548855E+03  0.7546771E-02  0.1203176E+00
         -2   -1    0    0    0  501 -0.00000000000E+00  0.00000000000E+00  0.36960263404E+02  0.36960263404E+02  0.00000000000E+00 0. -1.
          2   -1    0    0  501    0  0.00000000000E+00 -0.00000000000E+00 -0.80327459958E+03  0.80327459958E+03  0.00000000000E+00 0.  1.
         23    2    1    2    0    0 -0.66192008757E+02 -0.63116209424E+02 -0.64561647179E+03  0.66393534221E+03  0.12499788825E+03 0.  0.
          5    1    3    3  502    0  0.30459997335E+02 -0.35131600287E+02 -0.12051585851E+03  0.12926021402E+03  0.47000000000E+01 0.  1.
         -5    1    3    3    0  502 -0.96652006093E+02 -0.27984609137E+02 -0.52510061328E+03  0.53467512819E+03  0.47000000000E+01 0.  1.
        -11    1    1    2    0    0  0.37472768756E+02  0.34526182206E+02 -0.12554096527E+03  0.13548726736E+03  0.00000000000E+00 0.  1.
         11    1    1    2    0    0  0.28719240001E+02  0.28590027217E+02  0.48431008885E+01  0.40812253414E+02  0.00000000000E+00 0. -1.
<mgrwt>
<rscale>  0 0.14782166E+03</rscale>
<asrwt>0</asrwt>
<pdfrwt beam="2">  1        2 0.12358070E+00 0.15488547E+03</pdfrwt>
<pdfrwt beam="1">  1       -2 0.56861949E-02 0.15488547E+03</pdfrwt>
<totfact> 0.55362149E+03</totfact>
</mgrwt>
</event>
<event>
 7    1  0.6008063E-006  0.1319738E+03  0.7546771E-02  0.1238184E+00
          2   -1    0    0  501    0  0.00000000000E+00  0.00000000000E+00  0.59501539053E+03  0.59501539053E+03  0.00000000000E+00 0. -1.
         -2   -1    0    0    0  501 -0.00000000000E+00 -0.00000000000E+00 -0.24699013936E+02  0.24699013936E+02  0.00000000000E+00 0.  1.
         23    2    1    2    0    0 -0.19313164159E+02 -0.37689543182E+02  0.41216111096E+03  0.43277461505E+03  0.12499434414E+03 0.  0.
          5    1    3    3  502    0  0.96259004890E-01 -0.75198961919E+02  0.15752465174E+03  0.17461672041E+03  0.47000000000E+01 0. -1.
         -5    1    3    3    0  502 -0.19409423164E+02  0.37509418737E+02  0.25463645922E+03  0.25815789464E+03  0.47000000000E+01 0. -1.
        -11    1    1    2    0    0  0.31188707953E+02  0.78954400670E+01  0.15058685572E+03  0.15398530642E+03  0.00000000000E+00 0. -1.
         11    1    1    2    0    0 -0.11875543794E+02  0.29794103115E+02  0.75684099084E+01  0.32954482993E+02  0.00000000000E+00 0.  1.
<mgrwt>
<rscale>  0 0.12302774E+03</rscale>
<asrwt>0</asrwt>
<pdfrwt beam="1">  1        2 0.91540818E-01 0.13197381E+03</pdfrwt>
<pdfrwt beam="2">  1       -2 0.37998487E-02 0.13197381E+03</pdfrwt>
<totfact> 0.14329783E+04</totfact>
</mgrwt>
</event>
<event>
 7    1  0.6008063E-006  0.1261970E+03  0.7546771E-02  0.1247885E+00
          2   -1    0    0  501    0  0.00000000000E+00  0.00000000000E+00  0.62698922844E+03  0.62698922844E+03  0.00000000000E+00 0.  1.
         -2   -1    0    0    0  501 -0.00000000000E+00 -0.00000000000E+00 -0.19970512912E+02  0.19970512912E+02  0.00000000000E+00 0. -1.
         23    2    1    2    0    0  0.11275812091E+01 -0.17300454613E+02  0.40633052642E+03  0.42547640958E+03  0.12500040495E+03 0.  0.
          5    1    3    3  502    0 -0.18619216999E+02 -0.11737747351E+02  0.40363002761E+03  0.40425702115E+03  0.47000000000E+01 0.  1.
         -5    1    3    3    0  502  0.19746798208E+02 -0.55627072619E+01  0.27004988054E+01  0.21219388430E+02  0.47000000000E+01 0.  1.
        -11    1    1    2    0    0  0.31250274717E+02 -0.24138623439E+02  0.10686728843E+03  0.11392923307E+03  0.00000000000E+00 0.  1.
         11    1    1    2    0    0 -0.32377855926E+02  0.41439078052E+02  0.93820900669E+02  0.10755409870E+03  0.00000000000E+00 0. -1.
<mgrwt>
<rscale>  0 0.11714347E+03</rscale>
<asrwt>0</asrwt>
<pdfrwt beam="1">  1        2 0.96459866E-01 0.12619698E+03</pdfrwt>
<pdfrwt beam="2">  1       -2 0.30723871E-02 0.12619698E+03</pdfrwt>
<totfact> 0.18401834E+04</totfact>
</mgrwt>
</event>
<event>
 7    1  0.6008063E-006  0.1373715E+03  0.7546771E-02  0.1229126E+00
         -2   -1    0    0    0  501 -0.00000000000E+00  0.00000000000E+00  0.12473808255E+03  0.12473808255E+03  0.00000000000E+00 0.  1.
          2   -1    0    0  501    0  0.00000000000E+00 -0.00000000000E+00 -0.14968559237E+03  0.14968559237E+03  0.00000000000E+00 0. -1.
         23    2    1    2    0    0 -0.49393548887E+02 -0.28403593146E+02 -0.75330461502E+02  0.15667038389E+03  0.12499777591E+03 0.  0.
          5    1    3    3  502    0 -0.27909719600E+02  0.48046384528E+02 -0.17934967855E+02  0.58576109348E+02  0.47000000000E+01 0. -1.
         -5    1    3    3    0  502 -0.21483829287E+02 -0.76449977674E+02 -0.57395493646E+02  0.98094274543E+02  0.47000000000E+01 0. -1.
        -11    1    1    2    0    0  0.60919385088E+01  0.25256587307E+02 -0.21535689839E+02  0.33746005008E+02  0.00000000000E+00 0. -1.
         11    1    1    2    0    0  0.43301610378E+02  0.31470058395E+01  0.71918641516E+02  0.84007286021E+02  0.00000000000E+00 0.  1.
<mgrwt>
<rscale>  0 0.12888096E+03</rscale>
<asrwt>0</asrwt>
<pdfrwt beam="2">  1        2 0.23028553E-01 0.13737151E+03</pdfrwt>
<pdfrwt beam="1">  1       -2 0.19190474E-01 0.13737151E+03</pdfrwt>
<totfact> 0.50897133E+03</totfact>
</mgrwt>
</event>
<event>
 7    1  0.6008063E-006  0.1320206E+03  0.7546771E-02  0.1237541E+00
          2   -1    0    0  501    0  0.00000000000E+00  0.00000000000E+00  0.12031079065E+03  0.12031079065E+03  0.00000000000E+00 0. -1.
         -2   -1    0    0    0  501 -0.00000000000E+00 -0.00000000000E+00 -0.11391244120E+03  0.11391244120E+03  0.00000000000E+00 0.  1.
         23    2    1    2    0    0  0.39413450649E+02  0.15845458546E+02  0.15557139880E+02  0.13293404503E+03  0.12499974831E+03 0.  0.
          5    1    3    3  502    0  0.52674887067E+02  0.62093492407E+02 -0.17717227618E+01  0.81581091733E+02  0.47000000000E+01 0.  1.
         -5    1    3    3    0  502 -0.13261436418E+02 -0.46248033862E+02  0.17328862642E+02  0.51352953298E+02  0.47000000000E+01 0.  1.
        -11    1    1    2    0    0 -0.12660278366E+02  0.11010141928E+01 -0.48870715476E+02  0.50495957379E+02  0.00000000000E+00 0.  1.
         11    1    1    2    0    0 -0.26753172283E+02 -0.16946472739E+02  0.39711925047E+02  0.50793229435E+02  0.00000000000E+00 0. -1.
<mgrwt>
<rscale>  0 0.12343159E+03</rscale>
<asrwt>0</asrwt>
<pdfrwt beam="1">  1        2 0.18509352E-01 0.13202059E+03</pdfrwt>
<pdfrwt beam="2">  1       -2 0.17524991E-01 0.13202059E+03</pdfrwt>
<totfact> 0.75566172E+03</totfact>
</mgrwt>
</event>
<event>
 7    1  0.6008063E-006  0.1600225E+03  0.7546771E-02  0.1197697E+00
          1   -1    0    0  501    0  0.00000000000E+00  0.00000000000E+00  0.67430774521E+03  0.67430774521E+03  0.00000000000E+00 0. -1.
         -1   -1    0    0    0  501 -0.00000000000E+00 -0.00000000000E+00 -0.33232250590E+02  0.33232250590E+02  0.00000000000E+00 0.  1.
         23    2    1    2    0    0  0.97088769015E+02 -0.23592185439E+02  0.43205043845E+03  0.46073287073E+03  0.12499750609E+03 0.  0.
          5    1    3    3  502    0  0.50537424280E+02 -0.70562025867E+02  0.17676988953E+03  0.19698404654E+03  0.47000000000E+01 0. -1.
         -5    1    3    3    0  502  0.46551344735E+02  0.46969840429E+02  0.25528054892E+03  0.26374882420E+03  0.47000000000E+01 0. -1.
        -11    1    1    2    0    0 -0.82074519339E+02  0.41636193751E+02  0.10261696499E+03  0.13784063573E+03  0.00000000000E+00 0.  1.
         11    1    1    2    0    0 -0.15014249676E+02 -0.18044008312E+02  0.10640809119E+03  0.10896648934E+03  0.00000000000E+00 0. -1.
<mgrwt>
<rscale>  0 0.15228149E+03</rscale>
<asrwt>0</asrwt>
<pdfrwt beam="1">  1        1 0.10373964E+00 0.16002249E+03</pdfrwt>
<pdfrwt beam="2">  1       -1 0.51126545E-02 0.16002249E+03</pdfrwt>
<totfact> 0.49476969E+03</totfact>
</mgrwt>
</event>
<event>
 7    1  0.6008063E-006  0.1343378E+03  0.7546771E-02  0.1233907E+00
         -2   -1    0    0    0  501 -0.00000000000E+00  0.00000000000E+00  0.23707965998E+02  0.23707965998E+02  0.00000000000E+00 0.  1.
          2   -1    0    0  501    0  0.00000000000E+00 -0.00000000000E+00 -0.60243074373E+03  0.60243074373E+03  0.00000000000E+00 0. -1.
         23    2    1    2    0    0  0.16002244278E+02 -0.46537439997E+02 -0.36217089393E+03  0.38628279271E+03  0.12499933755E+03 0.  0.
          5    1    3    3  502    0 -0.10304490697E+02 -0.64372579667E+02 -0.84843211804E+02  0.10710029006E+03  0.47000000000E+01 0.  1.
         -5    1    3    3    0  502  0.26306734975E+02  0.17835139670E+02 -0.27732768213E+03  0.27918250265E+03  0.47000000000E+01 0.  1.
        -11    1    1    2    0    0  0.36749399801E+02  0.30069094884E+02 -0.11047397998E+03  0.12024628521E+03  0.00000000000E+00 0.  1.
         11    1    1    2    0    0 -0.52751644079E+02  0.16468345113E+02 -0.10607790382E+03  0.11960963181E+03  0.00000000000E+00 0. -1.
<mgrwt>
<rscale>  0 0.12574671E+03</rscale>
<asrwt>0</asrwt>
<pdfrwt beam="2">  1        2 0.92681646E-01 0.13433778E+03</pdfrwt>
<pdfrwt beam="1">  1       -2 0.36473796E-02 0.13433778E+03</pdfrwt>
<totfact> 0.15033081E+04</totfact>
</mgrwt>
</event>
<event>
 7    1  0.6008063E-006  0.1414578E+03  0.7546771E-02  0.1221795E+00
          2   -1    0    0  501    0  0.00000000000E+00  0.00000000000E+00  0.14417975619E+03  0.14417975619E+03  0.00000000000E+00 0. -1.
         -2   -1    0    0    0  501 -0.00000000000E+00 -0.00000000000E+00 -0.13492406030E+03  0.13492406030E+03  0.00000000000E+00 0.  1.
         23    2    1    2    0    0 -0.62883683502E+02  0.20704126694E+02  0.61354798875E+02  0.15419051153E+03  0.12500913562E+03 0.  0.
          5    1    3    3  502    0 -0.26181146355E+02  0.73657998034E+01 -0.38211192017E+02  0.47136956060E+02  0.47000000000E+01 0. -1.
         -5    1    3    3    0  502 -0.36702537147E+02  0.13338326890E+02  0.99565990892E+02  0.10705355547E+03  0.47000000000E+01 0. -1.
        -11    1    1    2    0    0 -0.17499594136E+02  0.12667685874E+02  0.31370090502E+01  0.21829953873E+02  0.00000000000E+00 0. -1.
         11    1    1    2    0    0  0.80383277638E+02 -0.33371812567E+02 -0.55236112042E+02  0.10308335109E+03  0.00000000000E+00 0.  1.
<mgrwt>
<rscale>  0 0.13388983E+03</rscale>
<asrwt>0</asrwt>
<pdfrwt beam="1">  1        2 0.22181501E-01 0.14145778E+03</pdfrwt>
<pdfrwt beam="2">  1       -2 0.20757548E-01 0.14145778E+03</pdfrwt>
<totfact> 0.46550418E+03</totfact>
</mgrwt>
</event>
<event>
 7    1  0.6008063E-006  0.1665693E+03  0.7546771E-02  0.1188576E+00
         -1   -1    0    0    0  501 -0.00000000000E+00  0.00000000000E+00  0.54678034098E+02  0.54678034098E+02  0.00000000000E+00 0.  1.
          1   -1    0    0  501    0  0.00000000000E+00 -0.00000000000E+00 -0.44967002277E+03  0.44967002277E+03  0.00000000000E+00 0. -1.
         23    2    1    2    0    0 -0.53705107670E+02 -0.96092698556E+02 -0.25666571811E+03  0.30597815885E+03  0.12500918979E+03 0.  0.
          5    1    3    3  502    0  0.18808845480E+02  0.16481641490E+02 -0.81882604831E+02  0.85745368087E+02  0.47000000000E+01 0. -1.
         -5    1    3    3    0  502 -0.72513953150E+02 -0.11257434005E+03 -0.17478311328E+03  0.22023279076E+03  0.47000000000E+01 0. -1.
        -11    1    1    2    0    0  0.64859738982E+02  0.24335722319E+02 -0.61200359350E+02  0.92436449013E+02  0.00000000000E+00 0. -1.
         11    1    1    2    0    0 -0.11154631311E+02  0.71756976237E+02 -0.77125911210E+02  0.10593344901E+03  0.00000000000E+00 0.  1.
<mgrwt>
<rscale>  0 0.16010667E+03</rscale>
<asrwt>0</asrwt>
<pdfrwt beam="2">  1        1 0.69180003E-01 0.16656933E+03</pdfrwt>
<pdfrwt beam="1">  1       -1 0.84120053E-02 0.16656933E+03</pdfrwt>
<totfact> 0.40450982E+03</totfact>
</mgrwt>
</event>
<event>
 7    1  0.6008063E-006  0.1975135E+03  0.7546771E-02  0.1155846E+00
         -2   -1    0    0    0  501 -0.00000000000E+00  0.00000000000E+00  0.13983770854E+03  0.13983770854E+03  0.00000000000E+00 0.  1.
          2   -1    0    0  501    0  0.00000000000E+00 -0.00000000000E+00 -0.49374444352E+03  0.49374444352E+03  0.00000000000E+00 0. -1.
         23    2    1    2    0    0 -0.85929531165E+02 -0.12649927555E+03 -0.40161515145E+03  0.44755591937E+03  0.12500248018E+03 0.  0.
          5    1    3    3  502    0 -0.32319893025E+01 -0.78335419426E+02 -0.80575562922E+02  0.11252286448E+03  0.47000000000E+01 0.  1.
         -5    1    3    3    0  502 -0.82697541862E+02 -0.48163856119E+02 -0.32103958852E+03  0.33503305489E+03  0.47000000000E+01 0.  1.
        -11    1    1    2    0    0  0.60461194991E+02  0.78764227647E+02  0.75934646873E+02  0.12500172100E+03  0.00000000000E+00 0. -1.
         11    1    1    2    0    0  0.25468336174E+02  0.47735047898E+02 -0.28226230407E+02  0.61024511701E+02  0.00000000000E+00 0.  1.
<mgrwt>
<rscale>  0 0.19292908E+03</rscale>
<asrwt>0</asrwt>
<pdfrwt beam="2">  1        2 0.75960684E-01 0.19751347E+03</pdfrwt>
<pdfrwt beam="1">  1       -2 0.21513494E-01 0.19751347E+03</pdfrwt>
<totfact> 0.11669159E+03</totfact>
</mgrwt>
</event>
<event>
 6    1  0.6008063E-006  0.1519211E+03  0.7546771E-02  0.1200749E+00
         -3   -1    0    0    0  501 -0.00000000000E+00  0.00000000000E+00  0.70477632127E+03  0.70477632127E+03  0.00000000000E+00 0.  1.
          3   -1    0    0  501    0  0.00000000000E+00 -0.00000000000E+00 -0.50218377111E+02  0.50218377111E+02  0.00000000000E+00 0. -1.
          5    1    1    2  502    0 -0.38083889270E+01  0.90445953249E+02  0.68779050763E+02  0.11378761844E+03  0.47000000000E+01 0. -1.
         -5    1    1    2    0  502  0.99896485489E+01 -0.59423087568E+02  0.30535879593E+02  0.67715776277E+02  0.47000000000E+01 0.  1.
        -11    1    1    2    0    0 -0.50932980421E+02 -0.66684950441E+02  0.27724927016E+03  0.28966913697E+03  0.00000000000E+00 0.  1.
         11    1    1    2    0    0  0.44751720799E+02  0.35662084760E+02  0.27799374365E+03  0.28382216670E+03  0.00000000000E+00 0. -1.
<mgrwt>
<rscale>  0 0.14977535E+03</rscale>
<asrwt>0</asrwt>
<pdfrwt beam="2">  1        3 0.77259047E-02 0.15192112E+03</pdfrwt>
<pdfrwt beam="1">  1       -3 0.10842712E+00 0.15192112E+03</pdfrwt>
<totfact> 0.20086581E+02</totfact>
</mgrwt>
</event>
<event>
 6    1  0.6008063E-006  0.2210308E+03  0.7546771E-02  0.1170361E+00
         -2   -1    0    0    0  501 -0.00000000000E+00  0.00000000000E+00  0.12893168986E+03  0.12893168986E+03  0.00000000000E+00 0.  1.
          2   -1    0    0  501    0  0.00000000000E+00 -0.00000000000E+00 -0.26249813460E+03  0.26249813460E+03  0.00000000000E+00 0. -1.
          5    1    1    2  502    0 -0.72362196735E+02 -0.51437833969E+02 -0.18017877840E+03  0.20091943775E+03  0.47000000000E+01 0. -1.
         -5    1    1    2    0  502  0.74633718493E+02  0.42795970952E+02 -0.31048067707E+01  0.86217265620E+02  0.47000000000E+01 0.  1.
        -11    1    1    2    0    0  0.33007361314E+02  0.21706319294E+02  0.53476018837E+02  0.66485598357E+02  0.00000000000E+00 0. -1.
         11    1    1    2    0    0 -0.35278883073E+02 -0.13064456276E+02 -0.37588783997E+01  0.37807522737E+02  0.00000000000E+00 0.  1.
<mgrwt>
<rscale>  0 0.17738157E+03</rscale>
<asrwt>0</asrwt>
<pdfrwt beam="2">  1        2 0.40384328E-01 0.22103080E+03</pdfrwt>
<pdfrwt beam="1">  1       -2 0.19835645E-01 0.22103080E+03</pdfrwt>
<totfact> 0.26669616E+03</totfact>
</mgrwt>
</event>
<event>
 6    1  0.6008063E-006  0.2651033E+03  0.7546771E-02  0.1127433E+00
          2   -1    0    0  501    0  0.00000000000E+00  0.00000000000E+00  0.26586314234E+04  0.26586314234E+04  0.00000000000E+00 0. -1.
         -2   -1    0    0    0  501 -0.00000000000E+00 -0.00000000000E+00 -0.25992845765E+02  0.25992845765E+02  0.00000000000E+00 0.  1.
          5    1    1    2  502    0  0.24284160043E+02 -0.60786787390E+02  0.18441860009E+04  0.18453533130E+04  0.47000000000E+01 0. -1.
         -5    1    1    2    0  502 -0.11927199578E+03 -0.54457185342E+01  0.51495591686E+03  0.52863706939E+03  0.47000000000E+01 0.  1.
        -11    1    1    2    0    0  0.31172698368E+02 -0.19241546510E+02  0.41918269604E+02  0.55669700576E+02  0.00000000000E+00 0. -1.
         11    1    1    2    0    0  0.63815137364E+02  0.85474052434E+02  0.23157839033E+03  0.25496418624E+03  0.00000000000E+00 0.  1.
<mgrwt>
<rscale>  0 0.22887652E+03</rscale>
<asrwt>0</asrwt>
<pdfrwt beam="1">  1        2 0.40902000E+00 0.26510328E+03</pdfrwt>
<pdfrwt beam="2">  1       -2 0.39989014E-02 0.26510328E+03</pdfrwt>
<totfact> 0.90150305E+02</totfact>
</mgrwt>
</event>
<event>
 7    1  0.6008063E-006  0.1263755E+03  0.7546771E-02  0.1248419E+00
         -2   -1    0    0    0  501 -0.00000000000E+00  0.00000000000E+00  0.80182587249E+02  0.80182587249E+02  0.00000000000E+00 0. -1.
          2   -1    0    0  501    0  0.00000000000E+00 -0.00000000000E+00 -0.14911766680E+03  0.14911766680E+03  0.00000000000E+00 0.  1.
         23    2    1    2    0    0  0.23474481801E+00 -0.18588952102E+02 -0.38780980480E+02  0.13219198033E+03  0.12500060389E+03 0.  0.
          5    1    3    3  502    0 -0.33054829112E+02  0.43101522284E+02 -0.66084060331E+01  0.54919249641E+02  0.47000000000E+01 0. -1.
         -5    1    3    3    0  502  0.33289573930E+02 -0.61690474385E+02 -0.32172574447E+02  0.77272730694E+02  0.47000000000E+01 0. -1.
        -11    1    1    2    0    0  0.21059105845E+02 -0.19236611310E+02 -0.43214514931E+02  0.51778638978E+02  0.00000000000E+00 0.  1.
         11    1    1    2    0    0 -0.21293850663E+02  0.37825563411E+02  0.13060415856E+02  0.45329634741E+02  0.00000000000E+00 0. -1.
<mgrwt>
<rscale>  0 0.11683064E+03</rscale>
<asrwt>0</asrwt>
<pdfrwt beam="2">  1        2 0.22941179E-01 0.12637545E+03</pdfrwt>
<pdfrwt beam="1">  1       -2 0.12335783E-01 0.12637545E+03</pdfrwt>
<totfact> 0.10479011E+04</totfact>
</mgrwt>
</event>
<event>
 7    1  0.6008063E-006  0.1558626E+03  0.7546771E-02  0.1201536E+00
         -1   -1    0    0    0  501 -0.00000000000E+00  0.00000000000E+00  0.33128927519E+03  0.33128927519E+03  0.00000000000E+00 0.  1.
          1   -1    0    0  501    0  0.00000000000E+00 -0.00000000000E+00 -0.85830519971E+02  0.85830519971E+02  0.00000000000E+00 0. -1.
         23    2    1    2    0    0 -0.48762028457E+02 -0.79316412226E+02  0.20819974217E+02  0.15724702348E+03  0.12499730556E+03 0.  0.
          5    1    3    3  502    0 -0.23503419263E+01 -0.92214317486E+02  0.45450443536E+02  0.10294094071E+03  0.47000000000E+01 0. -1.
         -5    1    3    3    0  502 -0.46411686530E+02  0.12897905260E+02 -0.24630469318E+02  0.54306082767E+02  0.47000000000E+01 0. -1.
        -11    1    1    2    0    0  0.17839855490E+02  0.41352648582E+02  0.20009761002E+03  0.20510328014E+03  0.00000000000E+00 0.  1.
         11    1    1    2    0    0  0.30922172967E+02  0.37963763644E+02  0.24541170985E+02  0.54769491547E+02  0.00000000000E+00 0. -1.
<mgrwt>
<rscale>  0 0.14913848E+03</rscale>
<asrwt>0</asrwt>
<pdfrwt beam="2">  1        1 0.13204696E-01 0.15586262E+03</pdfrwt>
<pdfrwt beam="1">  1       -1 0.50967580E-01 0.15586262E+03</pdfrwt>
<totfact> 0.17168371E+03</totfact>
</mgrwt>
</event>
<event>
 7    1  0.6008063E-006  0.1645245E+03  0.7546771E-02  0.1190748E+00
          2   -1    0    0  501    0  0.00000000000E+00  0.00000000000E+00  0.76435326583E+03  0.76435326583E+03  0.00000000000E+00 0.  1.
         -2   -1    0    0    0  501 -0.00000000000E+00 -0.00000000000E+00 -0.30918104526E+02  0.30918104526E+02  0.00000000000E+00 0. -1.
         23    2    1    2    0    0  0.74180069207E+02 -0.77081766829E+02  0.44334813770E+03  0.47289097614E+03  0.12499609061E+03 0.  0.
          5    1    3    3  502    0 -0.26221136452E+02 -0.14204180846E+01  0.16875298866E+03  0.17084854921E+03  0.47000000000E+01 0.  1.
         -5    1    3    3    0  502  0.10040120566E+03 -0.75661348745E+02  0.27459514903E+03  0.30204242693E+03  0.47000000000E+01 0.  1.
        -11    1    1    2    0    0 -0.30255041398E+02  0.50699552813E+02  0.25122959944E+03  0.25807387280E+03  0.00000000000E+00 0.  1.
         11    1    1    2    0    0 -0.43925027809E+02  0.26382214016E+02  0.38857424166E+02  0.64306521421E+02  0.00000000000E+00 0. -1.
<mgrwt>
<rscale>  0 0.15819671E+03</rscale>
<asrwt>0</asrwt>
<pdfrwt beam="1">  1        2 0.11759280E+00 0.16452448E+03</pdfrwt>
<pdfrwt beam="2">  1       -2 0.47566320E-02 0.16452448E+03</pdfrwt>
<totfact> 0.77329481E+03</totfact>
</mgrwt>
</event>
<event>
 7    1  0.6008063E-006  0.1357544E+03  0.7546771E-02  0.1231942E+00
          2   -1    0    0  501    0  0.00000000000E+00  0.00000000000E+00  0.42124438917E+03  0.42124438917E+03  0.00000000000E+00 0. -1.
         -2   -1    0    0    0  501 -0.00000000000E+00 -0.00000000000E+00 -0.34621725126E+02  0.34621725126E+02  0.00000000000E+00 0.  1.
         23    2    1    2    0    0  0.52899609873E+02  0.24014347559E+01  0.24543175650E+03  0.28047461266E+03  0.12500050255E+03 0.  0.
          5    1    3    3  502    0  0.45923384725E+02  0.45759717137E+02  0.55486289855E+02  0.85461847271E+02  0.47000000000E+01 0. -1.
         -5    1    3    3    0  502  0.69762251482E+01 -0.43358282381E+02  0.18994546664E+03  0.19501276539E+03  0.47000000000E+01 0. -1.
        -11    1    1    2    0    0  0.16204008324E+02  0.16870800859E+02  0.91462446688E+01  0.25116679696E+02  0.00000000000E+00 0. -1.
         11    1    1    2    0    0 -0.69103618198E+02 -0.19272235615E+02  0.13204466288E+03  0.15027482193E+03  0.00000000000E+00 0.  1.
<mgrwt>
<rscale>  0 0.12702246E+03</rscale>
<asrwt>0</asrwt>
<pdfrwt beam="1">  1        2 0.64806825E-01 0.13575442E+03</pdfrwt>
<pdfrwt beam="2">  1       -2 0.53264196E-02 0.13575442E+03</pdfrwt>
<totfact> 0.12678282E+04</totfact>
</mgrwt>
</event>
<event>
 7    1  0.6008063E-006  0.1348340E+03  0.7546771E-02  0.1233168E+00
         -3   -1    0    0    0  501 -0.00000000000E+00  0.00000000000E+00  0.15075003021E+03  0.15075003021E+03  0.00000000000E+00 0.  1.
          3   -1    0    0  501    0  0.00000000000E+00 -0.00000000000E+00 -0.96258149416E+02  0.96258149416E+02  0.00000000000E+00 0. -1.
         23    2    1    2    0    0  0.41844117996E+02  0.28321653479E+02  0.48451282829E+02  0.14327504506E+03  0.12500866155E+03 0.  0.
          5    1    3    3  502    0  0.43521119700E+02 -0.15977846988E+02  0.77239802825E+02  0.90207852180E+02  0.47000000000E+01 0.  1.
         -5    1    3    3    0  502 -0.16770017048E+01  0.44299500466E+02 -0.28788519997E+02  0.53067192877E+02  0.47000000000E+01 0.  1.
        -11    1    1    2    0    0  0.18543477789E+02 -0.32023106537E+02  0.19390024492E+02  0.41776943050E+02  0.00000000000E+00 0.  1.
         11    1    1    2    0    0 -0.60387595784E+02  0.37014530588E+01 -0.13349426524E+02  0.61956191522E+02  0.00000000000E+00 0. -1.
<mgrwt>
<rscale>  0 0.12622477E+03</rscale>
<asrwt>0</asrwt>
<pdfrwt beam="2">  1        3 0.14808946E-01 0.13483402E+03</pdfrwt>
<pdfrwt beam="1">  1       -3 0.23192312E-01 0.13483402E+03</pdfrwt>
<totfact> 0.14995663E+03</totfact>
</mgrwt>
</event>
<event>
 7    1  0.6008063E-006  0.1322981E+03  0.7546771E-02  0.1236971E+00
         -1   -1    0    0    0  501 -0.00000000000E+00  0.00000000000E+00  0.16062707086E+03  0.16062707086E+03  0.00000000000E+00 0.  1.
          1   -1    0    0  501    0  0.00000000000E+00 -0.00000000000E+00 -0.10569637422E+03  0.10569637422E+03  0.00000000000E+00 0. -1.
         23    2    1    2    0    0  0.43042635119E+02 -0.49334720351E+01 -0.28107578098E+02  0.13525096465E+03  0.12500311959E+03 0.  0.
          5    1    3    3  502    0  0.56060556706E+02 -0.35001692206E+02  0.26528192899E+02  0.71370438516E+02  0.47000000000E+01 0. -1.
         -5    1    3    3    0  502 -0.13017921587E+02  0.30068220171E+02 -0.54635770997E+02  0.63880526134E+02  0.47000000000E+01 0. -1.
        -11    1    1    2    0    0 -0.18804218960E+02 -0.27364892637E+02  0.84370546731E+02  0.90668766151E+02  0.00000000000E+00 0.  1.
         11    1    1    2    0    0 -0.24238416158E+02  0.32298364672E+02 -0.13322719893E+01  0.40403714273E+02  0.00000000000E+00 0. -1.
<mgrwt>
<rscale>  0 0.12379094E+03</rscale>
<asrwt>0</asrwt>
<pdfrwt beam="2">  1        1 0.16260981E-01 0.13229810E+03</pdfrwt>
<pdfrwt beam="1">  1       -1 0.24711857E-01 0.13229810E+03</pdfrwt>
<totfact> 0.45408522E+03</totfact>
</mgrwt>
</event>
<event>
 7    1  0.6008063E-006  0.1330560E+03  0.7546771E-02  0.1234657E+00
         -2   -1    0    0    0  501 -0.00000000000E+00  0.00000000000E+00  0.16645517921E+03  0.16645517921E+03  0.00000000000E+00 0.  1.
          2   -1    0    0  501    0  0.00000000000E+00 -0.00000000000E+00 -0.93003574593E+02  0.93003574593E+02  0.00000000000E+00 0. -1.
         23    2    1    2    0    0 -0.45342619411E+02  0.46770507128E+01  0.24057138371E+01  0.13307775766E+03  0.12500429667E+03 0.  0.
          5    1    3    3  502    0 -0.87690310231E+02 -0.63131573693E+01  0.93231081044E+01  0.88535059774E+02  0.47000000000E+01 0.  1.
         -5    1    3    3    0  502  0.42347690820E+02  0.10990208082E+02 -0.69173942673E+01  0.44542697886E+02  0.47000000000E+01 0.  1.
        -11    1    1    2    0    0  0.65826188105E+02 -0.13744744713E+01  0.80148099820E+02  0.10372412509E+03  0.00000000000E+00 0.  1.
         11    1    1    2    0    0 -0.20483568694E+02 -0.33025762415E+01 -0.91022090454E+01  0.22656871050E+02  0.00000000000E+00 0. -1.
<mgrwt>
<rscale>  0 0.12526414E+03</rscale>
<asrwt>0</asrwt>
<pdfrwt beam="2">  1        2 0.14308242E-01 0.13305601E+03</pdfrwt>
<pdfrwt beam="1">  1       -2 0.25608489E-01 0.13305601E+03</pdfrwt>
<totfact> 0.53357498E+03</totfact>
</mgrwt>
</event>
<event>
 7    1  0.6008063E-006  0.3579928E+03  0.7546771E-02  0.1060363E+00
          2   -1    0    0  501    0  0.00000000000E+00  0.00000000000E+00  0.57637233670E+03  0.57637233670E+03  0.00000000000E+00 0. -1.
         -2   -1    0    0    0  501 -0.00000000000E+00 -0.00000000000E+00 -0.21940530344E+03  0.21940530344E+03  0.00000000000E+00 0.  1.
         23    2    1    2    0    0 -0.32689212164E+03  0.75338971749E+02  0.22769439727E+03  0.42426831164E+03  0.12499776741E+03 0.  0.
          5    1    3    3  502    0 -0.31904733906E+03  0.65547611080E+02  0.17475682262E+03  0.36966164385E+03  0.47000000000E+01 0. -1.
         -5    1    3    3    0  502 -0.78447825795E+01  0.97913606695E+01  0.52937574646E+02  0.54606667788E+02  0.47000000000E+01 0. -1.
        -11    1    1    2    0    0  0.23650404319E+02 -0.14550006998E+02 -0.13494113709E+02  0.30872891553E+02  0.00000000000E+00 0.  1.
         11    1    1    2    0    0  0.30324171732E+03 -0.60788964752E+02  0.14276674970E+03  0.34063643696E+03  0.00000000000E+00 0. -1.
<mgrwt>
<rscale>  0 0.35554274E+03</rscale>
<asrwt>0</asrwt>
<pdfrwt beam="1">  1        2 0.88672666E-01 0.35799282E+03</pdfrwt>
<pdfrwt beam="2">  1       -2 0.33754662E-01 0.35799282E+03</pdfrwt>
<totfact> 0.43565344E+02</totfact>
</mgrwt>
</event>
<event>
 7    1  0.6008063E-006  0.1965937E+03  0.7546771E-02  0.1157197E+00
         -1   -1    0    0    0  501 -0.00000000000E+00  0.00000000000E+00  0.89668983394E+02  0.89668983394E+02  0.00000000000E+00 0.  1.
          1   -1    0    0  501    0  0.00000000000E+00 -0.00000000000E+00 -0.52234639084E+03  0.52234639084E+03  0.00000000000E+00 0. -1.
         23    2    1    2    0    0  0.11025788327E+03  0.10425810397E+03 -0.37971248229E+03  0.42758701466E+03  0.12499013094E+03 0.  0.
          5    1    3    3  502    0  0.12844728563E+03  0.10494694137E+03 -0.27487840600E+03  0.32108066553E+03  0.47000000000E+01 0. -1.
         -5    1    3    3    0  502 -0.18189402354E+02 -0.68883740170E+00 -0.10483407628E+03  0.10650634913E+03  0.47000000000E+01 0. -1.
        -11    1    1    2    0    0 -0.47769386031E+02 -0.91098276796E+02 -0.22613756174E+01  0.10288792007E+03  0.00000000000E+00 0.  1.
         11    1    1    2    0    0 -0.62488497242E+02 -0.13159827171E+02 -0.50703549545E+02  0.81540439508E+02  0.00000000000E+00 0. -1.
<mgrwt>
<rscale>  0 0.19140857E+03</rscale>
<asrwt>0</asrwt>
<pdfrwt beam="2">  1        1 0.80360985E-01 0.19659371E+03</pdfrwt>
<pdfrwt beam="1">  1       -1 0.13795228E-01 0.19659371E+03</pdfrwt>
<totfact> 0.15561184E+03</totfact>
</mgrwt>
</event>
<event>
 6    1  0.6008063E-006  0.1374606E+03  0.7546771E-02  0.1236269E+00
         -1   -1    0    0    0  501 -0.00000000000E+00  0.00000000000E+00  0.68194561765E+02  0.68194561765E+02  0.00000000000E+00 0.  1.
          1   -1    0    0  501    0  0.00000000000E+00 -0.00000000000E+00 -0.20200222458E+03  0.20200222458E+03  0.00000000000E+00 0. -1.
          5    1    1    2  502    0 -0.96362857997E+01 -0.72640956693E+02 -0.70681659652E+02  0.10191934853E+03  0.47000000000E+01 0. -1.
         -5    1    1    2    0  502 -0.18118132706E+01  0.62450191510E+02 -0.37621598846E+02  0.73080666299E+02  0.47000000000E+01 0.  1.
        -11    1    1    2    0    0  0.20724710752E+02  0.28303691174E+02  0.23439786935E+02  0.42190475008E+02  0.00000000000E+00 0.  1.
         11    1    1    2    0    0 -0.92766116820E+01 -0.18112925991E+02 -0.48944191256E+02  0.53006296512E+02  0.00000000000E+00 0. -1.
<mgrwt>
<rscale>  0 0.12423550E+03</rscale>
<asrwt>0</asrwt>
<pdfrwt beam="2">  1        1 0.31077265E-01 0.13746057E+03</pdfrwt>
<pdfrwt beam="1">  1       -1 0.10491471E-01 0.13746057E+03</pdfrwt>
<totfact> 0.77678995E+03</totfact>
</mgrwt>
</event>
<event>
 6    1  0.6008063E-006  0.1319891E+03  0.7546771E-02  0.1295369E+00
          2   -1    0    0  501    0  0.00000000000E+00  0.00000000000E+00  0.16865320232E+02  0.16865320232E+02  0.00000000000E+00 0. -1.
         -2   -1    0    0    0  501 -0.00000000000E+00 -0.00000000000E+00 -0.40307298304E+03  0.40307298304E+03  0.00000000000E+00 0.  1.
          5    1    1    2  502    0 -0.45214815270E+02  0.53502560338E+02 -0.16543432173E+03  0.17971507529E+03  0.47000000000E+01 0. -1.
         -5    1    1    2    0  502  0.46477071997E+02 -0.40350387343E+02 -0.13661853466E+03  0.14991659679E+03  0.47000000000E+01 0.  1.
        -11    1    1    2    0    0 -0.13369139638E+02 -0.39305151546E+00 -0.22336397593E+02  0.26034650786E+02  0.00000000000E+00 0. -1.
         11    1    1    2    0    0  0.12106882910E+02 -0.12759121479E+02 -0.61818408825E+02  0.64271980399E+02  0.00000000000E+00 0.  1.
<mgrwt>
<rscale>  0 0.93162551E+02</rscale>
<asrwt>0</asrwt>
<pdfrwt beam="1">  1        2 0.25946648E-02 0.13198906E+03</pdfrwt>
<pdfrwt beam="2">  1       -2 0.62011225E-01 0.13198906E+03</pdfrwt>
<totfact> 0.88270687E+03</totfact>
</mgrwt>
</event>
<event>
 7    1  0.6008063E-006  0.1859640E+03  0.7546771E-02  0.1166786E+00
          2   -1    0    0  501    0  0.00000000000E+00  0.00000000000E+00  0.64131443635E+03  0.64131443635E+03  0.00000000000E+00 0.  1.
         -2   -1    0    0    0  501 -0.00000000000E+00 -0.00000000000E+00 -0.80981847994E+02  0.80981847994E+02  0.00000000000E+00 0. -1.
         23    2    1    2    0    0  0.84078803696E+02 -0.10904964869E+03  0.51735842584E+03  0.54976572678E+03  0.12498616901E+03 0.  0.
          5    1    3    3  502    0  0.32704352074E+01 -0.50891581359E+02  0.35911679472E+03  0.36275006692E+03  0.47000000000E+01 0. -1.
         -5    1    3    3    0  502  0.80808368489E+02 -0.58158067331E+02  0.15824163112E+03  0.18701565986E+03  0.47000000000E+01 0. -1.
        -11    1    1    2    0    0 -0.92040792797E+02  0.11945093203E+03  0.48367358247E+02  0.15836487630E+03  0.00000000000E+00 0.  1.
         11    1    1    2    0    0  0.79619891003E+01 -0.10401283338E+02 -0.53931957322E+01  0.14165681266E+02  0.00000000000E+00 0. -1.
<mgrwt>
<rscale>  0 0.18105526E+03</rscale>
<asrwt>0</asrwt>
<pdfrwt beam="1">  1        2 0.98663756E-01 0.18596401E+03</pdfrwt>
<pdfrwt beam="2">  1       -2 0.12458746E-01 0.18596401E+03</pdfrwt>
<totfact> 0.21494620E+03</totfact>
</mgrwt>
</event>
<event>
 7    1  0.6008063E-006  0.1370804E+03  0.7546771E-02  0.1228862E+00
          2   -1    0    0  501    0  0.00000000000E+00  0.00000000000E+00  0.29695644796E+03  0.29695644796E+03  0.00000000000E+00 0. -1.
         -2   -1    0    0    0  501 -0.00000000000E+00 -0.00000000000E+00 -0.51403163147E+02  0.51403163147E+02  0.00000000000E+00 0.  1.
         23    2    1    2    0    0  0.39131756586E+02 -0.40310826586E+02  0.16089900189E+03  0.21137533817E+03  0.12503914452E+03 0.  0.
          5    1    3    3  502    0  0.65754774761E+02 -0.66922782855E+02  0.85733934175E+02  0.12717997774E+03  0.47000000000E+01 0.  1.
         -5    1    3    3    0  502 -0.26623018175E+02  0.26611956269E+02  0.75165067715E+02  0.84195360429E+02  0.47000000000E+01 0.  1.
        -11    1    1    2    0    0 -0.17855149837E+02  0.51182642683E+02  0.96219984687E+02  0.11043891860E+03  0.00000000000E+00 0. -1.
         11    1    1    2    0    0 -0.21276606749E+02 -0.10871816097E+02 -0.11565701761E+02  0.26545354344E+02  0.00000000000E+00 0.  1.
<mgrwt>
<rscale>  0 0.12905686E+03</rscale>
<asrwt>0</asrwt>
<pdfrwt beam="1">  1        2 0.45685606E-01 0.13708043E+03</pdfrwt>
<pdfrwt beam="2">  1       -2 0.79081791E-02 0.13708043E+03</pdfrwt>
<totfact> 0.10077362E+04</totfact>
</mgrwt>
</event>
<event>
 7    1  0.6008063E-006  0.1629098E+03  0.7546771E-02  0.1192484E+00
          2   -1    0    0  501    0  0.00000000000E+00  0.00000000000E+00  0.14763897718E+04  0.14763897718E+04  0.00000000000E+00 0. -1.
         -2   -1    0    0    0  501 -0.00000000000E+00 -0.00000000000E+00 -0.17765097355E+02  0.17765097355E+02  0.00000000000E+00 0.  1.
         23    2    1    2    0    0 -0.98835713193E+02 -0.33861127632E+02  0.10460269886E+04  0.10586368903E+04  0.12499812175E+03 0.  0.
          5    1    3    3  502    0 -0.64621114203E+02  0.43373825420E+02  0.53567474831E+03  0.54131940951E+03  0.47000000000E+01 0.  1.
         -5    1    3    3    0  502 -0.34214598990E+02 -0.77234953052E+02  0.51035224032E+03  0.51731748082E+03  0.47000000000E+01 0.  1.
        -11    1    1    2    0    0  0.80195400689E+02  0.16201385893E+02  0.39728382046E+03  0.40562078496E+03  0.00000000000E+00 0. -1.
         11    1    1    2    0    0  0.18640312504E+02  0.17659741739E+02  0.15313865338E+02  0.29897193850E+02  0.00000000000E+00 0.  1.
<mgrwt>
<rscale>  0 0.15669128E+03</rscale>
<asrwt>0</asrwt>
<pdfrwt beam="1">  1        2 0.22713679E+00 0.16290981E+03</pdfrwt>
<pdfrwt beam="2">  1       -2 0.27330931E-02 0.16290981E+03</pdfrwt>
<totfact> 0.67454737E+03</totfact>
</mgrwt>
</event>
<event>
 6    1  0.6008063E-006  0.2245019E+03  0.7546771E-02  0.1134054E+00
         -1   -1    0    0    0  501 -0.00000000000E+00  0.00000000000E+00  0.47059680201E+02  0.47059680201E+02  0.00000000000E+00 0.  1.
          1   -1    0    0  501    0  0.00000000000E+00 -0.00000000000E+00 -0.99234826024E+03  0.99234826024E+03  0.00000000000E+00 0. -1.
          5    1    1    2  502    0  0.56283082171E+02  0.37366187889E+02 -0.23502680443E+03  0.24458885121E+03  0.47000000000E+01 0. -1.
         -5    1    1    2    0  502  0.12031578603E+03 -0.90407342495E+02 -0.30124229978E+03  0.33677646759E+03  0.47000000000E+01 0.  1.
        -11    1    1    2    0    0 -0.50851964977E+02 -0.25542688579E+02 -0.13430523603E+03  0.14586379848E+03  0.00000000000E+00 0.  1.
         11    1    1    2    0    0 -0.12574690323E+03  0.78583843185E+02 -0.27471423980E+03  0.31217882316E+03  0.00000000000E+00 0. -1.
<mgrwt>
<rscale>  0 0.21977150E+03</rscale>
<asrwt>0</asrwt>
<pdfrwt beam="2">  1        1 0.15266897E+00 0.22450185E+03</pdfrwt>
<pdfrwt beam="1">  1       -1 0.72399505E-02 0.22450185E+03</pdfrwt>
<totfact> 0.16252920E+03</totfact>
</mgrwt>
</event>
<event>
 7    1  0.6008063E-006  0.1688156E+03  0.7546771E-02  0.1185818E+00
         -1   -1    0    0    0  501 -0.00000000000E+00  0.00000000000E+00  0.39955706129E+03  0.39955706129E+03  0.00000000000E+00 0.  1.
          1   -1    0    0  501    0  0.00000000000E+00 -0.00000000000E+00 -0.65143716035E+02  0.65143716035E+02  0.00000000000E+00 0. -1.
         23    2    1    2    0    0 -0.10955428839E+03 -0.29389347319E+02  0.12583818050E+03  0.21055631730E+03  0.12503135304E+03 0.  0.
          5    1    3    3  502    0 -0.99938360718E+02 -0.53332644129E+02  0.39082738450E+02  0.11992329764E+03  0.47000000000E+01 0.  1.
         -5    1    3    3    0  502 -0.96159276683E+01  0.23943296810E+02  0.86755442046E+02  0.90633019654E+02  0.47000000000E+01 0.  1.
        -11    1    1    2    0    0  0.89628806638E+02  0.10480712028E+02  0.73730918460E+02  0.11653075406E+03  0.00000000000E+00 0. -1.
         11    1    1    2    0    0  0.19925481749E+02  0.18908635291E+02  0.13484424630E+03  0.13761370597E+03  0.00000000000E+00 0.  1.
<mgrwt>
<rscale>  0 0.16257668E+03</rscale>
<asrwt>0</asrwt>
<pdfrwt beam="2">  1        1 0.10022110E-01 0.16881562E+03</pdfrwt>
<pdfrwt beam="1">  1       -1 0.61470316E-01 0.16881562E+03</pdfrwt>
<totfact> 0.17435670E+03</totfact>
</mgrwt>
</event>
<event>
 7    1  0.6008064E-006  0.1471694E+03  0.7546771E-02  0.1215513E+00
         -1   -1    0    0    0  501 -0.00000000000E+00  0.00000000000E+00  0.10981179127E+03  0.10981179127E+03  0.00000000000E+00 0.  1.
          1   -1    0    0  501    0  0.00000000000E+00 -0.00000000000E+00 -0.16532245492E+03  0.16532245492E+03  0.00000000000E+00 0. -1.
         23    2    1    2    0    0 -0.64274564152E+02 -0.43615962089E+02 -0.62419459883E+02  0.15985940467E+03  0.12500107417E+03 0.  0.
          5    1    3    3  502    0 -0.20002979262E+02 -0.50637966875E+02  0.26073820713E+02  0.60549624236E+02  0.47000000000E+01 0.  1.
         -5    1    3    3    0  502 -0.44271584890E+02  0.70220047859E+01 -0.88493280596E+02  0.99309780438E+02  0.47000000000E+01 0.  1.
        -11    1    1    2    0    0  0.46911310263E+02  0.51693171292E+01 -0.32693627203E+02  0.57413118099E+02  0.00000000000E+00 0. -1.
         11    1    1    2    0    0  0.17363253890E+02  0.38446644959E+02  0.39602423433E+02  0.57861723411E+02  0.00000000000E+00 0.  1.
<mgrwt>
<rscale>  0 0.13838897E+03</rscale>
<asrwt>0</asrwt>
<pdfrwt beam="2">  1        1 0.25434224E-01 0.14716943E+03</pdfrwt>
<pdfrwt beam="1">  1       -1 0.16894122E-01 0.14716943E+03</pdfrwt>
<totfact> 0.47746530E+03</totfact>
</mgrwt>
</event>
<event>
 7    1  0.6008063E-006  0.1251926E+03  0.7546771E-02  0.1249874E+00
          3   -1    0    0  501    0  0.00000000000E+00  0.00000000000E+00  0.15252597831E+03  0.15252597831E+03  0.00000000000E+00 0. -1.
         -3   -1    0    0    0  501 -0.00000000000E+00 -0.00000000000E+00 -0.77644100502E+02  0.77644100502E+02  0.00000000000E+00 0.  1.
         23    2    1    2    0    0 -0.66769253758E+01  0.11313852820E+01  0.37856352393E+02  0.13079100259E+03  0.12500928597E+03 0.  0.
          5    1    3    3  502    0  0.35537170559E+02 -0.47909398939E+02  0.12456297048E+02  0.61118330590E+02  0.47000000000E+01 0.  1.
         -5    1    3    3    0  502 -0.42214095935E+02  0.49040784221E+02  0.25400055345E+02  0.69672672003E+02  0.47000000000E+01 0.  1.
        -11    1    1    2    0    0  0.34470352975E+02  0.11397975120E+02 -0.14836068332E+02  0.39220249803E+02  0.00000000000E+00 0.  1.
         11    1    1    2    0    0 -0.27793427599E+02 -0.12529360402E+02  0.51861593743E+02  0.60158826413E+02  0.00000000000E+00 0. -1.
<mgrwt>
<rscale>  0 0.11598324E+03</rscale>
<asrwt>0</asrwt>
<pdfrwt beam="1">  1        3 0.23465535E-01 0.12519258E+03</pdfrwt>
<pdfrwt beam="2">  1       -3 0.11945246E-01 0.12519258E+03</pdfrwt>
<totfact> 0.20844296E+03</totfact>
</mgrwt>
</event>
<event>
 7    1  0.6008063E-006  0.1365875E+03  0.7546771E-02  0.1239544E+00
         -2   -1    0    0    0  501 -0.00000000000E+00  0.00000000000E+00  0.48444290822E+02  0.48444290822E+02  0.00000000000E+00 0.  1.
          2   -1    0    0  501    0  0.00000000000E+00 -0.00000000000E+00 -0.26002181656E+03  0.26002181656E+03  0.00000000000E+00 0. -1.
         23    2    1    2    0    0 -0.24403543870E+02  0.49360094373E+02 -0.13822575961E+03  0.19432574814E+03  0.12499673556E+03 0.  0.
          5    1    3    3  502    0 -0.95639211494E+01 -0.21853612237E+02 -0.11541031558E+03  0.11794354539E+03  0.47000000000E+01 0. -1.
         -5    1    3    3    0  502 -0.14839622721E+02  0.71213706610E+02 -0.22815444025E+02  0.76382202755E+02  0.47000000000E+01 0. -1.
        -11    1    1    2    0    0  0.46997410592E+02 -0.30363597898E+02 -0.36003869118E+02  0.66535578987E+02  0.00000000000E+00 0. -1.
         11    1    1    2    0    0 -0.22593866722E+02 -0.18996496475E+02 -0.37347897015E+02  0.47604780256E+02  0.00000000000E+00 0.  1.
<mgrwt>
<rscale>  0 0.12217950E+03</rscale>
<asrwt>0</asrwt>
<pdfrwt beam="2">  1        2 0.40003356E-01 0.13658747E+03</pdfrwt>
<pdfrwt beam="1">  1       -2 0.74529679E-02 0.13658747E+03</pdfrwt>
<totfact> 0.12707667E+04</totfact>
</mgrwt>
</event>
<event>
 7    1  0.6008063E-006  0.1328577E+03  0.7546771E-02  0.1235078E+00
          2   -1    0    0  501    0  0.00000000000E+00  0.00000000000E+00  0.41260057540E+03  0.41260057540E+03  0.00000000000E+00 0.  1.
         -2   -1    0    0    0  501 -0.00000000000E+00 -0.00000000000E+00 -0.34696098311E+02  0.34696098311E+02  0.00000000000E+00 0. -1.
         23    2    1    2    0    0 -0.26475447678E+02 -0.36334343285E+02  0.24248642714E+03  0.27649745799E+03  0.12502017076E+03 0.  0.
          5    1    3    3  502    0  0.43581061192E+02 -0.16801444841E+02  0.15846405433E+03  0.16527112258E+03  0.47000000000E+01 0.  1.
         -5    1    3    3    0  502 -0.70056508871E+02 -0.19532898444E+02  0.84022372812E+02  0.11122633541E+03  0.47000000000E+01 0.  1.
        -11    1    1    2    0    0 -0.85932319737E+00  0.43875048704E+02  0.13551501167E+03  0.14244324036E+03  0.00000000000E+00 0.  1.
         11    1    1    2    0    0  0.27334770876E+02 -0.75407054192E+01 -0.96961725093E-01  0.28355975360E+02  0.00000000000E+00 0. -1.
<mgrwt>
<rscale>  0 0.12499434E+03</rscale>
<asrwt>0</asrwt>
<pdfrwt beam="1">  1        2 0.63477008E-01 0.13285773E+03</pdfrwt>
<pdfrwt beam="2">  1       -2 0.53378616E-02 0.13285773E+03</pdfrwt>
<totfact> 0.12900256E+04</totfact>
</mgrwt>
</event>
<event>
 7    1  0.6008063E-006  0.2787396E+03  0.7546771E-02  0.1098232E+00
         -2   -1    0    0    0  501 -0.00000000000E+00  0.00000000000E+00  0.24632635384E+03  0.24632635384E+03  0.00000000000E+00 0.  1.
          2   -1    0    0  501    0  0.00000000000E+00 -0.00000000000E+00 -0.56600432875E+03  0.56600432875E+03  0.00000000000E+00 0. -1.
         23    2    1    2    0    0 -0.24453286418E+03 -0.47692998388E+02 -0.43991576561E+03  0.52078945297E+03  0.12499931892E+03 0.  0.
          5    1    3    3  502    0 -0.12267042383E+03 -0.79570411440E+02 -0.29088227549E+03  0.32559802127E+03  0.47000000000E+01 0.  1.
         -5    1    3    3    0  502 -0.12186244036E+03  0.31877413051E+02 -0.14903349012E+03  0.19519143170E+03  0.47000000000E+01 0.  1.
        -11    1    1    2    0    0  0.70001007398E+02 -0.26379699177E+02  0.46656973339E+02  0.88164067094E+02  0.00000000000E+00 0.  1.
         11    1    1    2    0    0  0.17453185678E+03  0.74072697566E+02  0.73580817361E+02  0.20337716254E+03  0.00000000000E+00 0. -1.
<mgrwt>
<rscale>  0 0.27539294E+03</rscale>
<asrwt>0</asrwt>
<pdfrwt beam="2">  1        2 0.87077589E-01 0.27873962E+03</pdfrwt>
<pdfrwt beam="1">  1       -2 0.37896362E-01 0.27873962E+03</pdfrwt>
<totfact> 0.35925364E+02</totfact>
</mgrwt>
</event>
<event>
 7    1  0.6008063E-006  0.1455969E+03  0.7546771E-02  0.1215175E+00
          1   -1    0    0  501    0  0.00000000000E+00  0.00000000000E+00  0.69209602350E+02  0.69209602350E+02  0.00000000000E+00 0. -1.
         -1   -1    0    0    0  501 -0.00000000000E+00 -0.00000000000E+00 -0.25452365389E+03  0.25452365389E+03  0.00000000000E+00 0.  1.
         23    2    1    2    0    0 -0.46835085515E+01 -0.74521043880E+02 -0.96103554528E+02  0.17445444606E+03  0.12499255708E+03 0.  0.
          5    1    3    3  502    0  0.27021338841E+02 -0.63271180798E+01 -0.95014503329E+02  0.99096069643E+02  0.47000000000E+01 0. -1.
         -5    1    3    3    0  502 -0.31704847393E+02 -0.68193925800E+02 -0.10890511992E+01  0.75358376420E+02  0.47000000000E+01 0. -1.
        -11    1    1    2    0    0  0.11509655813E+02  0.82716306638E+01  0.18095039039E+02  0.22985266773E+02  0.00000000000E+00 0. -1.
         11    1    1    2    0    0 -0.68261472618E+01  0.66249413216E+02 -0.10730553605E+03  0.12629354340E+03  0.00000000000E+00 0.  1.
<mgrwt>
<rscale>  0 0.13863676E+03</rscale>
<asrwt>0</asrwt>
<pdfrwt beam="1">  1        1 0.10647631E-01 0.14559691E+03</pdfrwt>
<pdfrwt beam="2">  1       -1 0.39157485E-01 0.14559691E+03</pdfrwt>
<totfact> 0.36448225E+03</totfact>
</mgrwt>
</event>
<event>
 7    1  0.6008063E-006  0.2700541E+03  0.7546771E-02  0.1103095E+00
          2   -1    0    0  501    0  0.00000000000E+00  0.00000000000E+00  0.11495952834E+04  0.11495952834E+04  0.00000000000E+00 0. -1.
         -2   -1    0    0    0  501 -0.00000000000E+00 -0.00000000000E+00 -0.68004677115E+02  0.68004677115E+02  0.00000000000E+00 0.  1.
         23    2    1    2    0    0 -0.58665669618E+02 -0.23208391567E+03  0.75423167035E+03  0.80112084531E+03  0.12499836606E+03 0.  0.
          5    1    3    3  502    0 -0.91989846243E+02 -0.13033331982E+03  0.38832141755E+03  0.41983868258E+03  0.47000000000E+01 0.  1.
         -5    1    3    3    0  502  0.33324176625E+02 -0.10175059585E+03  0.36591025281E+03  0.38128216272E+03  0.47000000000E+01 0.  1.
        -11    1    1    2    0    0  0.42436615326E+02  0.52345034775E+02  0.14511964074E+03  0.16000180972E+03  0.00000000000E+00 0. -1.
         11    1    1    2    0    0  0.16229054293E+02  0.17973888090E+03  0.18223929515E+03  0.25647730544E+03  0.00000000000E+00 0.  1.
<mgrwt>
<rscale>  0 0.26685162E+03</rscale>
<asrwt>0</asrwt>
<pdfrwt beam="1">  1        2 0.17686080E+00 0.27005406E+03</pdfrwt>
<pdfrwt beam="2">  1       -2 0.10462259E-01 0.27005406E+03</pdfrwt>
<totfact> 0.13197237E+03</totfact>
</mgrwt>
</event>
<event>
 7    1  0.6008063E-006  0.1445966E+03  0.7546771E-02  0.1217653E+00
          1   -1    0    0  501    0  0.00000000000E+00  0.00000000000E+00  0.19450586592E+03  0.19450586592E+03  0.00000000000E+00 0. -1.
         -1   -1    0    0    0  501 -0.00000000000E+00 -0.00000000000E+00 -0.95613323900E+02  0.95613323900E+02  0.00000000000E+00 0.  1.
         23    2    1    2    0    0  0.39928787223E+02  0.60736876816E+02  0.97046648799E+02  0.17414426261E+03  0.12499958361E+03 0.  0.
          5    1    3    3  502    0 -0.32645853492E+02  0.29612557813E+02  0.82582051472E+02  0.93725879861E+02  0.47000000000E+01 0.  1.
         -5    1    3    3    0  502  0.72574640715E+02  0.31124319002E+02  0.14464597327E+02  0.80418382750E+02  0.47000000000E+01 0.  1.
        -11    1    1    2    0    0 -0.41074817056E+01 -0.53832385264E+02 -0.34827055588E+02  0.64247341658E+02  0.00000000000E+00 0.  1.
         11    1    1    2    0    0 -0.35821305517E+02 -0.69044915513E+01  0.36672948807E+02  0.51727585549E+02  0.00000000000E+00 0. -1.
<mgrwt>
<rscale>  0 0.13683456E+03</rscale>
<asrwt>0</asrwt>
<pdfrwt beam="1">  1        1 0.29923979E-01 0.14459658E+03</pdfrwt>
<pdfrwt beam="2">  1       -1 0.14709742E-01 0.14459658E+03</pdfrwt>
<totfact> 0.48407488E+03</totfact>
</mgrwt>
</event>
<event>
 7    1  0.6008063E-006  0.1299893E+03  0.7546771E-02  0.1244438E+00
          3   -1    0    0  501    0  0.00000000000E+00  0.00000000000E+00  0.21192672789E+03  0.21192672789E+03  0.00000000000E+00 0. -1.
         -3   -1    0    0    0  501 -0.00000000000E+00 -0.00000000000E+00 -0.59483767657E+02  0.59483767657E+02  0.00000000000E+00 0.  1.
         23    2    1    2    0    0 -0.29857537461E+02  0.19497934643E+02  0.10960062472E+03  0.17002797604E+03  0.12500229477E+03 0.  0.
          5    1    3    3  502    0 -0.67372863621E+02 -0.20182944778E+02  0.38701766134E+02  0.80413747048E+02  0.47000000000E+01 0.  1.
         -5    1    3    3    0  502  0.37515326160E+02  0.39680879420E+02  0.70898858587E+02  0.89614228989E+02  0.47000000000E+01 0.  1.
        -11    1    1    2    0    0  0.29643030688E+02  0.28718763620E+02  0.83788722298E+01  0.42115105985E+02  0.00000000000E+00 0.  1.
         11    1    1    2    0    0  0.21450677282E+00 -0.48216698263E+02  0.34463463281E+02  0.59267413524E+02  0.00000000000E+00 0. -1.
<mgrwt>
<rscale>  0 0.11919072E+03</rscale>
<asrwt>0</asrwt>
<pdfrwt beam="1">  1        3 0.32604112E-01 0.12998929E+03</pdfrwt>
<pdfrwt beam="2">  1       -3 0.91513490E-02 0.12998929E+03</pdfrwt>
<totfact> 0.17885976E+03</totfact>
</mgrwt>
</event>
<event>
 7    1  0.6008063E-006  0.1285507E+03  0.7546771E-02  0.1281233E+00
          2   -1    0    0  501    0  0.00000000000E+00  0.00000000000E+00  0.74661428331E+03  0.74661428331E+03  0.00000000000E+00 0. -1.
         -2   -1    0    0    0  501 -0.00000000000E+00 -0.00000000000E+00 -0.13173970189E+02  0.13173970189E+02  0.00000000000E+00 0.  1.
         23    2    1    2    0    0  0.27266028936E+02 -0.12435132985E+02  0.66420282722E+03  0.67652839604E+03  0.12500882409E+03 0.  0.
          5    1    3    3  502    0 -0.39979390043E+02 -0.92820898907E+01  0.45129317273E+03  0.45318001564E+03  0.47000000000E+01 0.  1.
         -5    1    3    3    0  502  0.67245418979E+02 -0.31530430946E+01  0.21290965448E+03  0.22334838040E+03  0.47000000000E+01 0.  1.
        -11    1    1    2    0    0 -0.27179343835E+02 -0.58092646540E+01  0.45564056856E+02  0.53371786220E+02  0.00000000000E+00 0. -1.
         11    1    1    2    0    0 -0.86685100818E-01  0.18244397639E+02  0.23673429049E+02  0.29888071240E+02  0.00000000000E+00 0.  1.
<mgrwt>
<rscale>  0 0.99555723E+02</rscale>
<asrwt>0</asrwt>
<pdfrwt beam="1">  1        2 0.11486370E+00 0.12855067E+03</pdfrwt>
<pdfrwt beam="2">  1       -2 0.20267652E-02 0.12855067E+03</pdfrwt>
<totfact> 0.27535141E+04</totfact>
</mgrwt>
</event>
<event>
 7    1  0.6008063E-006  0.1540743E+03  0.7546771E-02  0.1204656E+00
          1   -1    0    0  501    0  0.00000000000E+00  0.00000000000E+00  0.61740118729E+03  0.61740118729E+03  0.00000000000E+00 0. -1.
         -1   -1    0    0    0  501 -0.00000000000E+00 -0.00000000000E+00 -0.35733378242E+02  0.35733378242E+02  0.00000000000E+00 0.  1.
         23    2    1    2    0    0  0.17851928577E+02 -0.88262149805E+02  0.42339331911E+03  0.45055607639E+03  0.12501990588E+03 0.  0.
          5    1    3    3  502    0  0.12719761068E+02 -0.89136627289E+02  0.43092971531E+03  0.44026087742E+03  0.47000000000E+01 0.  1.
         -5    1    3    3    0  502  0.51321675087E+01  0.87447748375E+00 -0.75363962028E+01  0.10295198975E+02  0.47000000000E+01 0.  1.
        -11    1    1    2    0    0  0.28406065750E+02  0.25283677324E+01  0.43771459112E+02  0.52242107993E+02  0.00000000000E+00 0.  1.
         11    1    1    2    0    0 -0.46257994327E+02  0.85733782073E+02  0.11450303083E+03  0.15033638115E+03  0.00000000000E+00 0. -1.
<mgrwt>
<rscale>  0 0.14664566E+03</rscale>
<asrwt>0</asrwt>
<pdfrwt beam="1">  1        1 0.94984790E-01 0.15407425E+03</pdfrwt>
<pdfrwt beam="2">  1       -1 0.54974433E-02 0.15407425E+03</pdfrwt>
<totfact> 0.50155189E+03</totfact>
</mgrwt>
</event>
<event>
 7    1  0.6008063E-006  0.1287282E+03  0.7546771E-02  0.1243134E+00
         -2   -1    0    0    0  501 -0.00000000000E+00  0.00000000000E+00  0.36747741677E+02  0.36747741677E+02  0.00000000000E+00 0.  1.
          2   -1    0    0  501    0  0.00000000000E+00 -0.00000000000E+00 -0.34710642460E+03  0.34710642460E+03  0.00000000000E+00 0. -1.
         23    2    1    2    0    0 -0.19849081636E+02 -0.23502038392E+02 -0.17913324102E+03  0.22058935629E+03  0.12499845687E+03 0.  0.
          5    1    3    3  502    0  0.48851354415E+02  0.12040978467E+02 -0.82165067981E+02  0.96460501693E+02  0.47000000000E+01 0. -1.
         -5    1    3    3    0  502 -0.68700436051E+02 -0.35543016859E+02 -0.96968173035E+02  0.12412885459E+03  0.47000000000E+01 0. -1.
        -11    1    1    2    0    0  0.42606547703E+02 -0.72091694975E+00 -0.12131655228E+03  0.12858282733E+03  0.00000000000E+00 0. -1.
         11    1    1    2    0    0 -0.22757466066E+02  0.24222955342E+02 -0.99088896296E+01  0.34681982656E+02  0.00000000000E+00 0.  1.
<mgrwt>
<rscale>  0 0.11997744E+03</rscale>
<asrwt>0</asrwt>
<pdfrwt beam="2">  1        2 0.53400986E-01 0.12872819E+03</pdfrwt>
<pdfrwt beam="1">  1       -2 0.56534990E-02 0.12872819E+03</pdfrwt>
<totfact> 0.14182963E+04</totfact>
</mgrwt>
</event>
<event>
 7    1  0.6008063E-006  0.1472441E+03  0.7546771E-02  0.1220610E+00
         -3   -1    0    0    0  501 -0.00000000000E+00  0.00000000000E+00  0.19392742067E+02  0.19392742067E+02  0.00000000000E+00 0.  1.
          3   -1    0    0  501    0  0.00000000000E+00 -0.00000000000E+00 -0.90548034199E+03  0.90548034199E+03  0.00000000000E+00 0. -1.
         23    2    1    2    0    0  0.77287930682E+02 -0.92172069790E+01 -0.66181786188E+03  0.67799978902E+03  0.12498980148E+03 0.  0.
          5    1    3    3  502    0  0.92036526463E+02  0.14099130410E+02 -0.27908118991E+03  0.29424124157E+03  0.47000000000E+01 0. -1.
         -5    1    3    3    0  502 -0.14748595781E+02 -0.23316337389E+02 -0.38273667197E+03  0.38375854745E+03  0.47000000000E+01 0. -1.
        -11    1    1    2    0    0 -0.58248866707E+02 -0.25416406796E+02 -0.14405436953E+03  0.15745026385E+03  0.00000000000E+00 0.  1.
         11    1    1    2    0    0 -0.19039063975E+02  0.34633613775E+02 -0.80215368515E+02  0.89423031184E+02  0.00000000000E+00 0. -1.
<mgrwt>
<rscale>  0 0.13472391E+03</rscale>
<asrwt>0</asrwt>
<pdfrwt beam="2">  1        3 0.13930465E+00 0.14724412E+03</pdfrwt>
<pdfrwt beam="1">  1       -3 0.29834991E-02 0.14724412E+03</pdfrwt>
<totfact> 0.49943436E+02</totfact>
</mgrwt>
</event>
<event>
 7    1  0.6008063E-006  0.1250836E+03  0.7546771E-02  0.1248594E+00
          1   -1    0    0  501    0  0.00000000000E+00  0.00000000000E+00  0.53601128637E+03  0.53601128637E+03  0.00000000000E+00 0. -1.
         -1   -1    0    0    0  501 -0.00000000000E+00 -0.00000000000E+00 -0.24822104614E+02  0.24822104614E+02  0.00000000000E+00 0.  1.
         23    2    1    2    0    0 -0.45885743444E+01 -0.76912723599E+00  0.37137145065E+03  0.39187072001E+03  0.12499704108E+03 0.  0.
          5    1    3    3  502    0 -0.18991664612E+02  0.38185033954E+02  0.33097009569E+03  0.33373953075E+03  0.47000000000E+01 0.  1.
         -5    1    3    3    0  502  0.14403090268E+02 -0.38954161190E+02  0.40401354959E+02  0.58131189269E+02  0.47000000000E+01 0.  1.
        -11    1    1    2    0    0 -0.39237425480E+02 -0.69050743174E-02  0.26194059627E+02  0.47177371331E+02  0.00000000000E+00 0.  1.
         11    1    1    2    0    0  0.43825999824E+02  0.77603231030E+00  0.11362367148E+03  0.12178529964E+03  0.00000000000E+00 0. -1.
<mgrwt>
<rscale>  0 0.11672850E+03</rscale>
<asrwt>0</asrwt>
<pdfrwt beam="1">  1        1 0.82463266E-01 0.12508360E+03</pdfrwt>
<pdfrwt beam="2">  1       -1 0.38187857E-02 0.12508360E+03</pdfrwt>
<totfact> 0.10262233E+04</totfact>
</mgrwt>
</event>
<event>
 7    1  0.6008063E-006  0.1309086E+03  0.7546771E-02  0.1239570E+00
         -2   -1    0    0    0  501 -0.00000000000E+00  0.00000000000E+00  0.24090714661E+02  0.24090714661E+02  0.00000000000E+00 0.  1.
          2   -1    0    0  501    0  0.00000000000E+00 -0.00000000000E+00 -0.10540152659E+04  0.10540152659E+04  0.00000000000E+00 0. -1.
         23    2    1    2    0    0 -0.26333668922E+02 -0.28612650829E+02 -0.92284301021E+03  0.93208168717E+03  0.12499961662E+03 0.  0.
          5    1    3    3  502    0 -0.15269328380E+02  0.88764047661E+01 -0.15726681637E+02  0.24111438490E+02  0.47000000000E+01 0. -1.
         -5    1    3    3    0  502 -0.11064340542E+02 -0.37489055596E+02 -0.90711632858E+03  0.90797024868E+03  0.47000000000E+01 0.  1.
        -11    1    1    2    0    0 -0.22217954404E+02  0.43165238956E+02 -0.50136223524E+02  0.69789084113E+02  0.00000000000E+00 0.  1.
         11    1    1    2    0    0  0.48551623325E+02 -0.14552588127E+02 -0.56945317514E+02  0.76235209290E+02  0.00000000000E+00 0. -1.
<mgrwt>
<rscale>  0 0.12216368E+03</rscale>
<asrwt>0</asrwt>
<pdfrwt beam="2">  1        2 0.16215616E+00 0.13090856E+03</pdfrwt>
<pdfrwt beam="1">  1       -2 0.37062647E-02 0.13090856E+03</pdfrwt>
<totfact> 0.72753586E+03</totfact>
</mgrwt>
</event>
<event>
 7    1  0.6008063E-006  0.2167684E+03  0.7546771E-02  0.1139688E+00
          3   -1    0    0  501    0  0.00000000000E+00  0.00000000000E+00  0.11756893464E+03  0.11756893464E+03  0.00000000000E+00 0. -1.
         -3   -1    0    0    0  501 -0.00000000000E+00 -0.00000000000E+00 -0.39832732707E+03  0.39832732707E+03  0.00000000000E+00 0.  1.
         23    2    1    2    0    0  0.17703746002E+03  0.45587475904E+01 -0.75684117846E+02  0.22960098219E+03  0.12500192358E+03 0.  0.
          5    1    3    3  502    0  0.57853102370E+02 -0.33061703458E+02 -0.80293261026E+02  0.10444690257E+03  0.47000000000E+01 0. -1.
         -5    1    3    3    0  502  0.11918435765E+03  0.37620451048E+02  0.46091431801E+01  0.12515407963E+03  0.47000000000E+01 0. -1.
        -11    1    1    2    0    0 -0.10279739296E+03  0.43187697127E+02 -0.11353323992E+03  0.15912975130E+03  0.00000000000E+00 0.  1.
         11    1    1    2    0    0 -0.74240067064E+02 -0.47746444717E+02 -0.91541034669E+02  0.12716552823E+03  0.00000000000E+00 0. -1.
<mgrwt>
<rscale>  0 0.21238875E+03</rscale>
<asrwt>0</asrwt>
<pdfrwt beam="1">  1        3 0.18087529E-01 0.21676837E+03</pdfrwt>
<pdfrwt beam="2">  1       -3 0.61281126E-01 0.21676837E+03</pdfrwt>
<totfact> 0.17376698E+02</totfact>
</mgrwt>
</event>
<event>
 7    1  0.6008063E-006  0.1923902E+03  0.7546771E-02  0.1161253E+00
         -2   -1    0    0    0  501 -0.00000000000E+00  0.00000000000E+00  0.28204714099E+02  0.28204714099E+02  0.00000000000E+00 0.  1.
          2   -1    0    0  501    0  0.00000000000E+00 -0.00000000000E+00 -0.12231980903E+04  0.12231980903E+04  0.00000000000E+00 0. -1.
         23    2    1    2    0    0  0.63158385477E+02  0.13191248689E+03 -0.75618409724E+03  0.78027455518E+03  0.12499642666E+03 0.  0.
          5    1    3    3  502    0  0.43678196470E+02  0.73191089839E+02 -0.16434563065E+03  0.18519259378E+03  0.47000000000E+01 0. -1.
         -5    1    3    3    0  502  0.19480189008E+02  0.58721397052E+02 -0.59183846659E+03  0.59508196139E+03  0.47000000000E+01 0. -1.
        -11    1    1    2    0    0  0.16025726214E+01 -0.87899285643E+02 -0.28919815435E+03  0.30226548783E+03  0.00000000000E+00 0.  1.
         11    1    1    2    0    0 -0.64760958099E+02 -0.44013201247E+02 -0.14961112461E+03  0.16886276139E+03  0.00000000000E+00 0. -1.
<mgrwt>
<rscale>  0 0.18693726E+03</rscale>
<asrwt>0</asrwt>
<pdfrwt beam="2">  1        2 0.18818429E+00 0.19239021E+03</pdfrwt>
<pdfrwt beam="1">  1       -2 0.43391874E-02 0.19239021E+03</pdfrwt>
<totfact> 0.46693722E+03</totfact>
</mgrwt>
</event>
<event>
 7    1  0.6242338E-006  0.3637105E+03  0.7546771E-02  0.1058139E+00
          2   -1    0    0  501    0  0.00000000000E+00  0.00000000000E+00  0.21610508523E+04  0.21610508523E+04  0.00000000000E+00 0. -1.
         -2   -1    0    0    0  501 -0.00000000000E+00 -0.00000000000E+00 -0.67449678609E+02  0.67449678609E+02  0.00000000000E+00 0.  1.
         23    2    1    2    0    0  0.28767434150E+03 -0.18412929875E+03  0.14423594747E+04  0.14875100660E+04  0.12500086670E+03 0.  0.
          5    1    3    3  502    0  0.19716650845E+03 -0.17527348027E+03  0.91243090132E+03  0.94981454223E+03  0.47000000000E+01 0.  1.
         -5    1    3    3    0  502  0.90507833044E+02 -0.88558184840E+01  0.52992857340E+03  0.53769552376E+03  0.47000000000E+01 0.  1.
        -11    1    1    2    0    0 -0.68651792092E+02  0.27815349116E+01  0.14153066951E+03  0.15732684420E+03  0.00000000000E+00 0.  1.
         11    1    1    2    0    0 -0.21902254941E+03  0.18134776384E+03  0.50971102941E+03  0.58366362068E+03  0.00000000000E+00 0. -1.
<mgrwt>
<rscale>  0 0.36112655E+03</rscale>
<asrwt>0</asrwt>
<pdfrwt beam="1">  1        2 0.33246931E+00 0.36371052E+03</pdfrwt>
<pdfrwt beam="2">  1       -2 0.10376875E-01 0.36371052E+03</pdfrwt>
<totfact> 0.37635853E+02</totfact>
</mgrwt>
</event>
<event>
 7    1  0.6008063E-006  0.2303697E+03  0.7546771E-02  0.1129161E+00
          3   -1    0    0  501    0  0.00000000000E+00  0.00000000000E+00  0.83539104326E+02  0.83539104326E+02  0.00000000000E+00 0. -1.
         -3   -1    0    0    0  501 -0.00000000000E+00 -0.00000000000E+00 -0.61269706921E+03  0.61269706921E+03  0.00000000000E+00 0.  1.
         23    2    1    2    0    0 -0.15802586605E+03  0.11166120181E+03 -0.21236241105E+03  0.31331773224E+03  0.12501923605E+03 0.  0.
          5    1    3    3  502    0 -0.12307066988E+02  0.50329122392E+02 -0.46403634050E+01  0.52231287856E+02  0.47000000000E+01 0. -1.
         -5    1    3    3    0  502 -0.14571879906E+03  0.61332079420E+02 -0.20772204764E+03  0.26108644439E+03  0.47000000000E+01 0. -1.
        -11    1    1    2    0    0  0.13403281645E+03 -0.50795669920E+02 -0.17107636988E+03  0.22318629057E+03  0.00000000000E+00 0.  1.
         11    1    1    2    0    0  0.23993049598E+02 -0.60865531891E+02 -0.14571918395E+03  0.15973215072E+03  0.00000000000E+00 0. -1.
<mgrwt>
<rscale>  0 0.22645301E+03</rscale>
<asrwt>0</asrwt>
<pdfrwt beam="1">  1        3 0.12852169E-01 0.23036972E+03</pdfrwt>
<pdfrwt beam="2">  1       -3 0.94261091E-01 0.23036972E+03</pdfrwt>
<totfact> 0.12385303E+02</totfact>
</mgrwt>
</event>
<event>
 7    1  0.6008063E-006  0.1526862E+03  0.7546771E-02  0.1206061E+00
          2   -1    0    0  501    0  0.00000000000E+00  0.00000000000E+00  0.10186111803E+03  0.10186111803E+03  0.00000000000E+00 0. -1.
         -2   -1    0    0    0  501 -0.00000000000E+00 -0.00000000000E+00 -0.19237648929E+03  0.19237648929E+03  0.00000000000E+00 0.  1.
         23    2    1    2    0    0 -0.87567334334E+02  0.44749120650E+01 -0.35829134640E+02  0.15683365229E+03  0.12500001888E+03 0.  0.
          5    1    3    3  502    0 -0.92224925798E+02 -0.19980564095E+02  0.19055442648E+02  0.96383918651E+02  0.47000000000E+01 0. -1.
         -5    1    3    3    0  502  0.46575914633E+01  0.24455476160E+02 -0.54884577288E+02  0.60449733635E+02  0.47000000000E+01 0. -1.
        -11    1    1    2    0    0 -0.42629455016E+00  0.10162143196E+02  0.19099761585E+02  0.21639125998E+02  0.00000000000E+00 0. -1.
         11    1    1    2    0    0  0.87993628885E+02 -0.14637055261E+02 -0.73785998206E+02  0.11576482904E+03  0.00000000000E+00 0.  1.
<mgrwt>
<rscale>  0 0.14554180E+03</rscale>
<asrwt>0</asrwt>
<pdfrwt beam="1">  1        2 0.15670941E-01 0.15268617E+03</pdfrwt>
<pdfrwt beam="2">  1       -2 0.29596383E-01 0.15268617E+03</pdfrwt>
<totfact> 0.37414803E+03</totfact>
</mgrwt>
</event>
<event>
 7    1  0.6008063E-006  0.2127134E+03  0.7546771E-02  0.1143062E+00
          2   -1    0    0  501    0  0.00000000000E+00  0.00000000000E+00  0.32869839953E+03  0.32869839953E+03  0.00000000000E+00 0. -1.
         -2   -1    0    0    0  501 -0.00000000000E+00 -0.00000000000E+00 -0.16030904440E+03  0.16030904440E+03  0.00000000000E+00 0.  1.
         23    2    1    2    0    0  0.70607566239E+02 -0.15696033768E+03  0.19947326775E+03  0.29161033879E+03  0.12500011649E+03 0.  0.
          5    1    3    3  502    0  0.30831260591E+02 -0.10595387414E+03  0.19802190244E+03  0.22674116063E+03  0.47000000000E+01 0.  1.
         -5    1    3    3    0  502  0.39776305649E+02 -0.51006463543E+02  0.14513653127E+01  0.64869178163E+02  0.47000000000E+01 0.  1.
        -11    1    1    2    0    0 -0.17428367315E+02  0.61733713210E+02 -0.56414615703E+02  0.85424868738E+02  0.00000000000E+00 0.  1.
         11    1    1    2    0    0 -0.53179198924E+02  0.95226624473E+02  0.25330703086E+02  0.11197223641E+03  0.00000000000E+00 0. -1.
<mgrwt>
<rscale>  0 0.20812214E+03</rscale>
<asrwt>0</asrwt>
<pdfrwt beam="1">  1        2 0.50568984E-01 0.21271343E+03</pdfrwt>
<pdfrwt beam="2">  1       -2 0.24662930E-01 0.21271343E+03</pdfrwt>
<totfact> 0.14338420E+03</totfact>
</mgrwt>
</event>
<event>
 7    1  0.6008063E-006  0.1930511E+03  0.7546771E-02  0.1160487E+00
         -1   -1    0    0    0  501 -0.00000000000E+00  0.00000000000E+00  0.21442495583E+02  0.21442495583E+02  0.00000000000E+00 0.  1.
          1   -1    0    0  501    0  0.00000000000E+00 -0.00000000000E+00 -0.25587119357E+04  0.25587119357E+04  0.00000000000E+00 0. -1.
         23    2    1    2    0    0  0.23374695296E+02  0.14524420505E+03 -0.21165655433E+04  0.21253513673E+04  0.12500591937E+03 0.  0.
          5    1    3    3  502    0  0.40093572164E+02  0.94419878916E+02 -0.67318819877E+03  0.68097507225E+03  0.47000000000E+01 0. -1.
         -5    1    3    3    0  502 -0.16718876868E+02  0.50824326138E+02 -0.14433773445E+04  0.14443762950E+04  0.47000000000E+01 0. -1.
        -11    1    1    2    0    0 -0.29622308441E+01 -0.23869583639E+02 -0.99914800708E+01  0.26045374036E+02  0.00000000000E+00 0.  1.
         11    1    1    2    0    0 -0.20412464452E+02 -0.12137462142E+03 -0.41071241680E+03  0.42875769001E+03  0.00000000000E+00 0. -1.
<mgrwt>
<rscale>  0 0.18777150E+03</rscale>
<asrwt>0</asrwt>
<pdfrwt beam="2">  1        1 0.39364759E+00 0.19305112E+03</pdfrwt>
<pdfrwt beam="1">  1       -1 0.32988488E-02 0.19305112E+03</pdfrwt>
<totfact> 0.48193344E+02</totfact>
</mgrwt>
</event>
<event>
 7    1  0.6008063E-006  0.1348301E+03  0.7546771E-02  0.1232209E+00
          2   -1    0    0  501    0  0.00000000000E+00  0.00000000000E+00  0.96820566015E+03  0.96820566015E+03  0.00000000000E+00 0.  1.
         -2   -1    0    0    0  501 -0.00000000000E+00 -0.00000000000E+00 -0.21038014433E+02  0.21038014433E+02  0.00000000000E+00 0. -1.
         23    2    1    2    0    0  0.49910282286E+02  0.79024750746E+01  0.77952751401E+03  0.79110195647E+03  0.12500270015E+03 0.  0.
          5    1    3    3  502    0 -0.23176985694E+02 -0.25245502386E+02  0.47115222427E+03  0.47242038112E+03  0.47000000000E+01 0.  1.
         -5    1    3    3    0  502  0.73087267980E+02  0.33147977460E+02  0.30837528974E+03  0.31868157536E+03  0.47000000000E+01 0.  1.
        -11    1    1    2    0    0  0.22830146923E+01 -0.42479131219E+02  0.58719913230E+02  0.72510116225E+02  0.00000000000E+00 0. -1.
         11    1    1    2    0    0 -0.52193296978E+02  0.34576656145E+02  0.10892021848E+03  0.12563160189E+03  0.00000000000E+00 0.  1.
<mgrwt>
<rscale>  0 0.12684789E+03</rscale>
<asrwt>0</asrwt>
<pdfrwt beam="1">  1        2 0.14895468E+00 0.13483012E+03</pdfrwt>
<pdfrwt beam="2">  1       -2 0.32366184E-02 0.13483012E+03</pdfrwt>
<totfact> 0.10008384E+04</totfact>
</mgrwt>
</event>
<event>
 7    1  0.6008063E-006  0.1314335E+03  0.7546771E-02  0.1248863E+00
          1   -1    0    0  501    0  0.00000000000E+00  0.00000000000E+00  0.11585173499E+03  0.11585173499E+03  0.00000000000E+00 0. -1.
         -1   -1    0    0    0  501 -0.00000000000E+00 -0.00000000000E+00 -0.97752170872E+02  0.97752170872E+02  0.00000000000E+00 0.  1.
         23    2    1    2    0    0 -0.27207974040E+02  0.30178076855E+02  0.13891196559E+02  0.13216550211E+03  0.12499505763E+03 0.  0.
          5    1    3    3  502    0 -0.54438917751E+02 -0.21127796805E+02 -0.23285941995E+02  0.63042086405E+02  0.47000000000E+01 0.  1.
         -5    1    3    3    0  502  0.27230943712E+02  0.51305873660E+02  0.37177138554E+02  0.69123415703E+02  0.47000000000E+01 0.  1.
        -11    1    1    2    0    0  0.24677279576E+02  0.25983176620E+01  0.30517916994E+02  0.39332717165E+02  0.00000000000E+00 0.  1.
         11    1    1    2    0    0  0.25306944635E+01 -0.32776394517E+02 -0.26309549431E+02  0.42105686591E+02  0.00000000000E+00 0. -1.
<mgrwt>
<rscale>  0 0.11657129E+03</rscale>
<asrwt>0</asrwt>
<pdfrwt beam="1">  1        1 0.17823344E-01 0.13143346E+03</pdfrwt>
<pdfrwt beam="2">  1       -1 0.15038795E-01 0.13143346E+03</pdfrwt>
<totfact> 0.89319715E+03</totfact>
</mgrwt>
</event>
<event>
 6    1  0.6008063E-006  0.1568505E+03  0.7546771E-02  0.1211271E+00
         -2   -1    0    0    0  501 -0.00000000000E+00  0.00000000000E+00  0.28299281124E+03  0.28299281124E+03  0.00000000000E+00 0.  1.
          2   -1    0    0  501    0  0.00000000000E+00 -0.00000000000E+00 -0.82894487849E+02  0.82894487849E+02  0.00000000000E+00 0. -1.
          5    1    1    2  502    0  0.33319973204E+02  0.38752063557E+02 -0.22306117194E+02  0.55960663938E+02  0.47000000000E+01 0. -1.
         -5    1    1    2    0  502 -0.29149041695E+02 -0.88082855149E+02  0.42585849500E+02  0.10219540391E+03  0.47000000000E+01 0.  1.
        -11    1    1    2    0    0  0.10008716645E+02  0.35351073890E+02  0.18379044293E+03  0.18742678503E+03  0.00000000000E+00 0.  1.
         11    1    1    2    0    0 -0.14179648154E+02  0.13979717702E+02 -0.39718518444E+01  0.20304446209E+02  0.00000000000E+00 0. -1.
<mgrwt>
<rscale>  0 0.14154041E+03</rscale>
<asrwt>0</asrwt>
<pdfrwt beam="2">  1        2 0.12752998E-01 0.15685048E+03</pdfrwt>
<pdfrwt beam="1">  1       -2 0.43537355E-01 0.15685048E+03</pdfrwt>
<totfact> 0.23313183E+03</totfact>
</mgrwt>
</event>
<event>
 7    1  0.6008063E-006  0.1922359E+03  0.7546771E-02  0.1161048E+00
          2   -1    0    0  501    0  0.00000000000E+00  0.00000000000E+00  0.69795923676E+03  0.69795923676E+03  0.00000000000E+00 0. -1.
         -2   -1    0    0    0  501 -0.00000000000E+00 -0.00000000000E+00 -0.51581867774E+02  0.51581867774E+02  0.00000000000E+00 0.  1.
         23    2    1    2    0    0 -0.14013450521E+03 -0.41128466056E+02  0.44173122534E+03  0.48174797826E+03  0.12500163535E+03 0.  0.
          5    1    3    3  502    0  0.17217367661E+02  0.11005308019E+02  0.21740820730E+02  0.30204434108E+02  0.47000000000E+01 0. -1.
         -5    1    3    3    0  502 -0.15735187287E+03 -0.52133774075E+02  0.41999040461E+03  0.45154354415E+03  0.47000000000E+01 0. -1.
        -11    1    1    2    0    0  0.41054583952E+02 -0.28087669453E+02  0.41661996286E+02  0.64885421886E+02  0.00000000000E+00 0.  1.
         11    1    1    2    0    0  0.99079921258E+02  0.69216135509E+02  0.16298414735E+03  0.20290770439E+03  0.00000000000E+00 0. -1.
<mgrwt>
<rscale>  0 0.18716006E+03</rscale>
<asrwt>0</asrwt>
<pdfrwt beam="1">  1        2 0.10737834E+00 0.19223589E+03</pdfrwt>
<pdfrwt beam="2">  1       -2 0.79356725E-02 0.19223589E+03</pdfrwt>
<totfact> 0.39749166E+03</totfact>
</mgrwt>
</event>
<event>
 7    1  0.6008063E-006  0.1741161E+03  0.7546771E-02  0.1179576E+00
         -2   -1    0    0    0  501 -0.00000000000E+00  0.00000000000E+00  0.12853742160E+03  0.12853742160E+03  0.00000000000E+00 0.  1.
          2   -1    0    0  501    0  0.00000000000E+00 -0.00000000000E+00 -0.20984008686E+03  0.20984008686E+03  0.00000000000E+00 0. -1.
         23    2    1    2    0    0 -0.21031102140E+02  0.11937012983E+03 -0.62687643246E+02  0.18505717119E+03  0.12499952336E+03 0.  0.
          5    1    3    3  502    0  0.32596186534E+02 -0.72044840725E+01 -0.26359087693E+02  0.42793778418E+02  0.47000000000E+01 0. -1.
         -5    1    3    3    0  502 -0.53627288674E+02  0.12657461390E+03 -0.36328555553E+02  0.14226339277E+03  0.47000000000E+01 0. -1.
        -11    1    1    2    0    0 -0.10199633428E+02 -0.96086716469E+01 -0.35308731262E+02  0.37987703223E+02  0.00000000000E+00 0. -1.
         11    1    1    2    0    0  0.31230735568E+02 -0.10976145818E+03  0.16693709244E+02  0.11533263404E+03  0.00000000000E+00 0.  1.
<mgrwt>
<rscale>  0 0.16835381E+03</rscale>
<asrwt>0</asrwt>
<pdfrwt beam="2">  1        2 0.32283090E-01 0.17411610E+03</pdfrwt>
<pdfrwt beam="1">  1       -2 0.19774988E-01 0.17411610E+03</pdfrwt>
<totfact> 0.33823060E+03</totfact>
</mgrwt>
</event>
<event>
 7    1  0.6008063E-006  0.2242421E+03  0.7546771E-02  0.1133960E+00
          2   -1    0    0  501    0  0.00000000000E+00  0.00000000000E+00  0.66818060289E+03  0.66818060289E+03  0.00000000000E+00 0. -1.
         -2   -1    0    0    0  501 -0.00000000000E+00 -0.00000000000E+00 -0.70946759942E+02  0.70946759942E+02  0.00000000000E+00 0.  1.
         23    2    1    2    0    0 -0.18584983635E+03 -0.10935253729E+02  0.35912168642E+03  0.42338267104E+03  0.12499903612E+03 0.  0.
          5    1    3    3  502    0 -0.86070409601E+02 -0.15576553989E+02  0.28705435592E+03  0.30012170481E+03  0.47000000000E+01 0.  1.
         -5    1    3    3    0  502 -0.99779426752E+02  0.46413002601E+01  0.72067330501E+02  0.12326096623E+03  0.47000000000E+01 0.  1.
        -11    1    1    2    0    0  0.90917055470E+02 -0.32978724606E+02  0.76841677248E+02  0.12352388682E+03  0.00000000000E+00 0.  1.
         11    1    1    2    0    0  0.94932780883E+02  0.43913978334E+02  0.16127047928E+03  0.19222080498E+03  0.00000000000E+00 0. -1.
<mgrwt>
<rscale>  0 0.21989632E+03</rscale>
<asrwt>0</asrwt>
<pdfrwt beam="1">  1        2 0.10279701E+00 0.22424206E+03</pdfrwt>
<pdfrwt beam="2">  1       -2 0.10914887E-01 0.22424206E+03</pdfrwt>
<totfact> 0.25431832E+03</totfact>
</mgrwt>
</event>
<event>
 7    1  0.6008063E-006  0.1247141E+03  0.7546771E-02  0.1246445E+00
         -4   -1    0    0    0  501 -0.00000000000E+00  0.00000000000E+00  0.21822871545E+03  0.21822871545E+03  0.00000000000E+00 0.  1.
          4   -1    0    0  501    0  0.00000000000E+00 -0.00000000000E+00 -0.58692043740E+02  0.58692043740E+02  0.00000000000E+00 0. -1.
         23    2    1    2    0    0  0.23542716849E+02  0.32384258229E+02  0.71569664732E+02  0.14379089703E+03  0.11811268121E+03 0.  0.
          5    1    3    3  502    0  0.17501215440E+02  0.77142473076E+02  0.43275440390E+02  0.90289021676E+02  0.47000000000E+01 0. -1.
         -5    1    3    3    0  502  0.60415014089E+01 -0.44758214847E+02  0.28294224342E+02  0.53501875357E+02  0.47000000000E+01 0.  1.
        -11    1    1    2    0    0 -0.16685578181E+02 -0.44378347746E+02  0.10258799288E+03  0.11301390424E+03  0.00000000000E+00 0.  1.
         11    1    1    2    0    0 -0.68571386679E+01  0.11994089517E+02 -0.14620985906E+02  0.20115957917E+02  0.00000000000E+00 0. -1.
<mgrwt>
<rscale>  0 0.11799325E+03</rscale>
<asrwt>0</asrwt>
<pdfrwt beam="2">  1        4 0.90295453E-02 0.12471409E+03</pdfrwt>
<pdfrwt beam="1">  1       -4 0.33573648E-01 0.12471409E+03</pdfrwt>
<totfact> 0.12501970E+03</totfact>
</mgrwt>
</event>
<event>
 7    1  0.6008063E-006  0.1390725E+03  0.7546771E-02  0.1224994E+00
         -2   -1    0    0    0  501 -0.00000000000E+00  0.00000000000E+00  0.61719873409E+02  0.61719873409E+02  0.00000000000E+00 0.  1.
          2   -1    0    0  501    0  0.00000000000E+00 -0.00000000000E+00 -0.38107902278E+03  0.38107902278E+03  0.00000000000E+00 0. -1.
         23    2    1    2    0    0  0.59717668987E+02  0.12563825562E+02 -0.29823355773E+03  0.32906599098E+03  0.12496848307E+03 0.  0.
          5    1    3    3  502    0  0.84475714271E+02 -0.12999269555E+02 -0.27045216509E+03  0.28367515033E+03  0.47000000000E+01 0.  1.
         -5    1    3    3    0  502 -0.24758045284E+02  0.25563095117E+02 -0.27781392638E+02  0.45390840653E+02  0.47000000000E+01 0.  1.
        -11    1    1    2    0    0 -0.18720476310E+02 -0.46468396080E+01  0.37257998232E+02  0.41954830280E+02  0.00000000000E+00 0.  1.
         11    1    1    2    0    0 -0.40997192676E+02 -0.79169859539E+01 -0.58383589876E+02  0.71778074931E+02  0.00000000000E+00 0. -1.
<mgrwt>
<rscale>  0 0.13167293E+03</rscale>
<asrwt>0</asrwt>
<pdfrwt beam="2">  1        2 0.58627542E-01 0.13907254E+03</pdfrwt>
<pdfrwt beam="1">  1       -2 0.94953652E-02 0.13907254E+03</pdfrwt>
<totfact> 0.58243268E+03</totfact>
</mgrwt>
</event>
<event>
 7    1  0.6008063E-006  0.3981710E+03  0.7546771E-02  0.1045239E+00
          2   -1    0    0  501    0  0.00000000000E+00  0.00000000000E+00  0.64355056494E+03  0.64355056494E+03  0.00000000000E+00 0.  1.
         -2   -1    0    0    0  501 -0.00000000000E+00 -0.00000000000E+00 -0.24377507721E+03  0.24377507721E+03  0.00000000000E+00 0. -1.
         23    2    1    2    0    0 -0.21716891122E+03  0.30944405585E+03  0.25280873208E+03  0.47164855901E+03  0.12498859351E+03 0.  0.
          5    1    3    3  502    0 -0.70535005685E+01  0.43501485230E+02 -0.66057632963E+01  0.44809119566E+02  0.47000000000E+01 0. -1.
         -5    1    3    3    0  502 -0.21011541065E+03  0.26594257062E+03  0.25941449537E+03  0.42683943945E+03  0.47000000000E+01 0. -1.
        -11    1    1    2    0    0  0.14548698076E+03 -0.21391952650E+03  0.53879569401E+02  0.26425562130E+03  0.00000000000E+00 0. -1.
         11    1    1    2    0    0  0.71681930464E+02 -0.95524529347E+02  0.93087186254E+02  0.15142146184E+03  0.00000000000E+00 0.  1.
<mgrwt>
<rscale>  0 0.39581470E+03</rscale>
<asrwt>0</asrwt>
<pdfrwt beam="1">  1        2 0.99007778E-01 0.39817095E+03</pdfrwt>
<pdfrwt beam="2">  1       -2 0.37503858E-01 0.39817095E+03</pdfrwt>
<totfact> 0.31263754E+02</totfact>
</mgrwt>
</event>
<event>
 7    1  0.6008063E-006  0.1536809E+03  0.7546771E-02  0.1204795E+00
          2   -1    0    0  501    0  0.00000000000E+00  0.00000000000E+00  0.23607200123E+04  0.23607200123E+04  0.00000000000E+00 0. -1.
         -2   -1    0    0    0  501 -0.00000000000E+00 -0.00000000000E+00 -0.19095907339E+02  0.19095907339E+02  0.00000000000E+00 0.  1.
         23    2    1    2    0    0  0.85036916704E+02  0.27540747412E+02  0.21104399023E+04  0.21160279773E+04  0.12501219778E+03 0.  0.
          5    1    3    3  502    0  0.76002459512E+02  0.71901194473E+02  0.12473846965E+04  0.12517734726E+04  0.47000000000E+01 0. -1.
         -5    1    3    3    0  502  0.90344571920E+01 -0.44360447061E+02  0.86305520576E+03  0.86425450469E+03  0.47000000000E+01 0. -1.
        -11    1    1    2    0    0 -0.35881926481E+02  0.21658619292E+02  0.15529473318E+03  0.16085105716E+03  0.00000000000E+00 0. -1.
         11    1    1    2    0    0 -0.49154990223E+02 -0.49199366704E+02  0.75889469483E+02  0.10293688516E+03  0.00000000000E+00 0.  1.
<mgrwt>
<rscale>  0 0.14653654E+03</rscale>
<asrwt>0</asrwt>
<pdfrwt beam="1">  1        2 0.36318746E+00 0.15368090E+03</pdfrwt>
<pdfrwt beam="2">  1       -2 0.29378338E-02 0.15368090E+03</pdfrwt>
<totfact> 0.21093355E+03</totfact>
</mgrwt>
</event>
<event>
 7    1  0.6008063E-006  0.1419862E+03  0.7546771E-02  0.1220871E+00
         -1   -1    0    0    0  501 -0.00000000000E+00  0.00000000000E+00  0.15397507668E+02  0.15397507668E+02  0.00000000000E+00 0.  1.
          1   -1    0    0  501    0  0.00000000000E+00 -0.00000000000E+00 -0.10817448448E+04  0.10817448448E+04  0.00000000000E+00 0. -1.
         23    2    1    2    0    0 -0.52309399050E+02  0.42414493236E+02 -0.65160292100E+03  0.66689312361E+03  0.12499923683E+03 0.  0.
          5    1    3    3  502    0  0.32190196305E+02  0.47055707502E+02 -0.25674487755E+03  0.26304081526E+03  0.47000000000E+01 0.  1.
         -5    1    3    3    0  502 -0.84499595355E+02 -0.46412142665E+01 -0.39485804345E+03  0.40385230835E+03  0.47000000000E+01 0.  1.
        -11    1    1    2    0    0 -0.19206580630E+02  0.19321019895E+00 -0.24020938726E+02  0.30756065531E+02  0.00000000000E+00 0.  1.
         11    1    1    2    0    0  0.71515979680E+02 -0.42607703435E+02 -0.39072347738E+03  0.39949316330E+03  0.00000000000E+00 0. -1.
<mgrwt>
<rscale>  0 0.13453941E+03</rscale>
<asrwt>0</asrwt>
<pdfrwt beam="2">  1        1 0.16642231E+00 0.14198617E+03</pdfrwt>
<pdfrwt beam="1">  1       -1 0.23688469E-02 0.14198617E+03</pdfrwt>
<totfact> 0.72401202E+03</totfact>
</mgrwt>
</event>
<event>
 7    1  0.1368641E-005  0.2810916E+03  0.7546771E-02  0.1096909E+00
          1   -1    0    0  501    0  0.00000000000E+00  0.00000000000E+00  0.65688290296E+03  0.65688290296E+03  0.00000000000E+00 0. -1.
         -1   -1    0    0    0  501 -0.00000000000E+00 -0.00000000000E+00 -0.11586058049E+03  0.11586058049E+03  0.00000000000E+00 0.  1.
         23    2    1    2    0    0 -0.25176611487E+03 -0.14963075476E+01  0.31422101231E+03  0.42160091201E+03  0.12499627554E+03 0.  0.
          5    1    3    3  502    0 -0.15339623285E+03  0.58737463005E+02  0.16417106067E+03  0.23228155539E+03  0.47000000000E+01 0. -1.
         -5    1    3    3    0  502 -0.98369882011E+02 -0.60233770553E+02  0.15004995164E+03  0.18931935661E+03  0.47000000000E+01 0. -1.
        -11    1    1    2    0    0  0.14648173131E+03  0.44533938294E+02  0.14658195493E+03  0.21195857798E+03  0.00000000000E+00 0.  1.
         11    1    1    2    0    0  0.10528438355E+03 -0.43037630746E+02  0.80219355234E+02  0.13918399346E+03  0.00000000000E+00 0. -1.
<mgrwt>
<rscale>  0 0.27777843E+03</rscale>
<asrwt>0</asrwt>
<pdfrwt beam="1">  1        1 0.10105891E+00 0.28109159E+03</pdfrwt>
<pdfrwt beam="2">  1       -1 0.17824705E-01 0.28109159E+03</pdfrwt>
<totfact> 0.75478333E+02</totfact>
</mgrwt>
</event>
<event>
 7    1  0.6008063E-006  0.1383612E+03  0.7546771E-02  0.1227569E+00
          3   -1    0    0  501    0  0.00000000000E+00  0.00000000000E+00  0.97613430654E+02  0.97613430654E+02  0.00000000000E+00 0. -1.
         -3   -1    0    0    0  501 -0.00000000000E+00 -0.00000000000E+00 -0.15533347367E+03  0.15533347367E+03  0.00000000000E+00 0.  1.
         23    2    1    2    0    0 -0.47066581963E+02 -0.36098427624E+02 -0.25888741616E+02  0.14076241798E+03  0.12500188702E+03 0.  0.
          5    1    3    3  502    0 -0.75776085917E+02  0.13121774026E+01  0.15898683015E+02  0.77579605104E+02  0.47000000000E+01 0. -1.
         -5    1    3    3    0  502  0.28709503955E+02 -0.37410605027E+02 -0.41787424630E+02  0.63182812877E+02  0.47000000000E+01 0. -1.
        -11    1    1    2    0    0  0.51105860914E+02  0.25144001775E+01 -0.51876629532E+02  0.72865052801E+02  0.00000000000E+00 0.  1.
         11    1    1    2    0    0 -0.40392789517E+01  0.33584027447E+02  0.20045328133E+02  0.39319433541E+02  0.00000000000E+00 0. -1.
<mgrwt>
<rscale>  0 0.12992343E+03</rscale>
<asrwt>0</asrwt>
<pdfrwt beam="1">  1        3 0.15017451E-01 0.13836124E+03</pdfrwt>
<pdfrwt beam="2">  1       -3 0.23897457E-01 0.13836124E+03</pdfrwt>
<totfact> 0.13933990E+03</totfact>
</mgrwt>
</event>
<event>
 7    1  0.6008063E-006  0.1382273E+03  0.7546771E-02  0.1228382E+00
          4   -1    0    0  501    0  0.00000000000E+00  0.00000000000E+00  0.47045484121E+02  0.47045484121E+02  0.00000000000E+00 0. -1.
         -4   -1    0    0    0  501 -0.00000000000E+00 -0.00000000000E+00 -0.31839393571E+03  0.31839393571E+03  0.00000000000E+00 0.  1.
         23    2    1    2    0    0  0.22555345565E+02 -0.54538481614E+02 -0.14230685628E+03  0.19838860789E+03  0.12499443511E+03 0.  0.
          5    1    3    3  502    0  0.17956857989E+02 -0.81596192912E+02 -0.14795168295E+03  0.16997699237E+03  0.47000000000E+01 0.  1.
         -5    1    3    3    0  502  0.45984875756E+01  0.27057711298E+02  0.56448266699E+01  0.28411615526E+02  0.47000000000E+01 0.  1.
        -11    1    1    2    0    0 -0.20466785338E+02  0.18968743034E+01 -0.10862085898E+03  0.11054853432E+03  0.00000000000E+00 0.  1.
         11    1    1    2    0    0 -0.20885602269E+01  0.52641607311E+02 -0.20420736331E+02  0.56502277621E+02  0.00000000000E+00 0. -1.
<mgrwt>
<rscale>  0 0.12937787E+03</rscale>
<asrwt>0</asrwt>
<pdfrwt beam="1">  1        4 0.72377668E-02 0.13822734E+03</pdfrwt>
<pdfrwt beam="2">  1       -4 0.48983682E-01 0.13822734E+03</pdfrwt>
<totfact> 0.87556583E+02</totfact>
</mgrwt>
</event>
<event>
 7    1  0.6008063E-006  0.1510702E+03  0.7546771E-02  0.1208408E+00
          1   -1    0    0  501    0  0.00000000000E+00  0.00000000000E+00  0.17574445171E+03  0.17574445171E+03  0.00000000000E+00 0. -1.
         -1   -1    0    0    0  501 -0.00000000000E+00 -0.00000000000E+00 -0.12589563173E+03  0.12589563173E+03  0.00000000000E+00 0.  1.
         23    2    1    2    0    0 -0.99484922092E+01 -0.84255166593E+02  0.84543571436E+02  0.17311795146E+03  0.12499721617E+03 0.  0.
          5    1    3    3  502    0 -0.45159840496E+02 -0.54403413513E+02 -0.62692446671E+01  0.71137444600E+02  0.47000000000E+01 0. -1.
         -5    1    3    3    0  502  0.35211348287E+02 -0.29851753080E+02  0.90812816103E+02  0.10198050686E+03  0.47000000000E+01 0. -1.
        -11    1    1    2    0    0 -0.10006444338E+02 -0.19352985348E+01  0.21444524326E+02  0.23743250247E+02  0.00000000000E+00 0. -1.
         11    1    1    2    0    0  0.19954936547E+02  0.86190465128E+02 -0.56139275783E+02  0.10477888173E+03  0.00000000000E+00 0.  1.
<mgrwt>
<rscale>  0 0.14372124E+03</rscale>
<asrwt>0</asrwt>
<pdfrwt beam="1">  1        1 0.27037608E-01 0.15107021E+03</pdfrwt>
<pdfrwt beam="2">  1       -1 0.19368559E-01 0.15107021E+03</pdfrwt>
<totfact> 0.35608733E+03</totfact>
</mgrwt>
</event>
<event>
 7    1  0.6008063E-006  0.1333470E+03  0.7546771E-02  0.1235198E+00
         -1   -1    0    0    0  501 -0.00000000000E+00  0.00000000000E+00  0.25030649290E+02  0.25030649290E+02  0.00000000000E+00 0.  1.
          1   -1    0    0  501    0  0.00000000000E+00 -0.00000000000E+00 -0.55962640466E+03  0.55962640466E+03  0.00000000000E+00 0. -1.
         23    2    1    2    0    0  0.13216670298E+01  0.46422071205E+02 -0.32359128459E+03  0.34998963214E+03  0.12499867059E+03 0.  0.
          5    1    3    3  502    0  0.53812274795E+02  0.15718709550E+02 -0.24004154727E+03  0.24654588451E+03  0.47000000000E+01 0. -1.
         -5    1    3    3    0  502 -0.52490607765E+02  0.30703361655E+02 -0.83549737312E+02  0.10344374764E+03  0.47000000000E+01 0. -1.
        -11    1    1    2    0    0 -0.30965074194E+02 -0.45534879867E+02 -0.19128466037E+03  0.19905296379E+03  0.00000000000E+00 0.  1.
         11    1    1    2    0    0  0.29643407164E+02 -0.88719133814E+00 -0.19719810422E+02  0.35614458017E+02  0.00000000000E+00 0. -1.
<mgrwt>
<rscale>  0 0.12491741E+03</rscale>
<asrwt>0</asrwt>
<pdfrwt beam="2">  1        1 0.86096367E-01 0.13334700E+03</pdfrwt>
<pdfrwt beam="1">  1       -1 0.38508693E-02 0.13334700E+03</pdfrwt>
<totfact> 0.96167103E+03</totfact>
</mgrwt>
</event>
<event>
 7    1  0.6008063E-006  0.1293868E+03  0.7546771E-02  0.1242505E+00
         -1   -1    0    0    0  501 -0.00000000000E+00  0.00000000000E+00  0.14484880951E+02  0.14484880951E+02  0.00000000000E+00 0.  1.
          1   -1    0    0  501    0  0.00000000000E+00 -0.00000000000E+00 -0.11239136784E+04  0.11239136784E+04  0.00000000000E+00 0. -1.
         23    2    1    2    0    0 -0.22024072617E+02 -0.25090897988E+02 -0.87838912923E+03  0.88786733518E+03  0.12500531822E+03 0.  0.
          5    1    3    3  502    0 -0.62031959460E+02 -0.50033606896E+02 -0.62593819245E+03  0.63100874525E+03  0.47000000000E+01 0. -1.
         -5    1    3    3    0  502  0.40007886844E+02  0.24942708908E+02 -0.25245093678E+03  0.25685858993E+03  0.47000000000E+01 0. -1.
        -11    1    1    2    0    0 -0.23282308881E+02  0.39663547228E+02 -0.81266140378E+02  0.93377987007E+02  0.00000000000E+00 0.  1.
         11    1    1    2    0    0  0.45306381497E+02 -0.14572649241E+02 -0.14977352779E+03  0.15715323712E+03  0.00000000000E+00 0. -1.
<mgrwt>
<rscale>  0 0.12035962E+03</rscale>
<asrwt>0</asrwt>
<pdfrwt beam="2">  1        1 0.17290977E+00 0.12938679E+03</pdfrwt>
<pdfrwt beam="1">  1       -1 0.22284436E-02 0.12938679E+03</pdfrwt>
<totfact> 0.73543816E+03</totfact>
</mgrwt>
</event>
<event>
 7    1  0.6008063E-006  0.1689264E+03  0.7546771E-02  0.1185697E+00
          2   -1    0    0  501    0  0.00000000000E+00  0.00000000000E+00  0.14921189194E+04  0.14921189194E+04  0.00000000000E+00 0. -1.
         -2   -1    0    0    0  501 -0.00000000000E+00 -0.00000000000E+00 -0.20081233894E+02  0.20081233894E+02  0.00000000000E+00 0.  1.
         23    2    1    2    0    0  0.10240853566E+03 -0.49364268940E+02  0.10981299388E+04  0.11110470291E+04  0.12494718591E+03 0.  0.
          5    1    3    3  502    0  0.16317552537E+02  0.18651573789E+02  0.61814985612E+03  0.61866426949E+03  0.47000000000E+01 0. -1.
         -5    1    3    3    0  502  0.86090983118E+02 -0.68015842729E+02  0.47998008266E+03  0.49238275964E+03  0.47000000000E+01 0. -1.
        -11    1    1    2    0    0 -0.35464287049E+02  0.47049032731E+02  0.77959630344E+02  0.97719143980E+02  0.00000000000E+00 0.  1.
         11    1    1    2    0    0 -0.66944248606E+02  0.23152362087E+01  0.29594811635E+03  0.30343398015E+03  0.00000000000E+00 0. -1.
<mgrwt>
<rscale>  0 0.16268660E+03</rscale>
<asrwt>0</asrwt>
<pdfrwt beam="1">  1        2 0.22955667E+00 0.16892643E+03</pdfrwt>
<pdfrwt beam="2">  1       -2 0.30894218E-02 0.16892643E+03</pdfrwt>
<totfact> 0.55286380E+03</totfact>
</mgrwt>
</event>
<event>
 7    1  0.6008063E-006  0.1300515E+03  0.7546771E-02  0.1240485E+00
         -2   -1    0    0    0  501 -0.00000000000E+00  0.00000000000E+00  0.66349065809E+02  0.66349065809E+02  0.00000000000E+00 0.  1.
          2   -1    0    0  501    0  0.00000000000E+00 -0.00000000000E+00 -0.19955762173E+03  0.19955762173E+03  0.00000000000E+00 0. -1.
         23    2    1    2    0    0 -0.26589038591E+02  0.24111904173E+02 -0.85652308284E+02  0.15572321125E+03  0.12500015885E+03 0.  0.
          5    1    3    3  502    0 -0.54873717783E+02  0.25533730888E+02 -0.10487265348E+03  0.12117532655E+03  0.47000000000E+01 0. -1.
         -5    1    3    3    0  502  0.28284679193E+02 -0.14218267151E+01  0.19220345194E+02  0.34547884705E+02  0.47000000000E+01 0. -1.
        -11    1    1    2    0    0 -0.30138433541E+02 -0.19096291898E+02 -0.38549744534E+02  0.52526910667E+02  0.00000000000E+00 0. -1.
         11    1    1    2    0    0  0.56727472132E+02 -0.50156122743E+01 -0.90065031047E+01  0.57656565621E+02  0.00000000000E+00 0.  1.
<mgrwt>
<rscale>  0 0.12159750E+03</rscale>
<asrwt>0</asrwt>
<pdfrwt beam="2">  1        2 0.30701173E-01 0.13005153E+03</pdfrwt>
<pdfrwt beam="1">  1       -2 0.10207549E-01 0.13005153E+03</pdfrwt>
<totfact> 0.10308497E+04</totfact>
</mgrwt>
</event>
<event>
 7    1  0.6008063E-006  0.1535692E+03  0.7546771E-02  0.1202837E+00
         -1   -1    0    0    0  501 -0.00000000000E+00  0.00000000000E+00  0.35473920685E+02  0.35473920685E+02  0.00000000000E+00 0.  1.
          1   -1    0    0  501    0  0.00000000000E+00 -0.00000000000E+00 -0.68051896832E+03  0.68051896832E+03  0.00000000000E+00 0. -1.
         23    2    1    2    0    0 -0.40554043880E+02 -0.79459362083E+02 -0.48104351428E+03  0.50496174924E+03  0.12500033949E+03 0.  0.
          5    1    3    3  502    0  0.39764644965E+02 -0.38642711244E+02 -0.26603603621E+03  0.27179357734E+03  0.47000000000E+01 0. -1.
         -5    1    3    3    0  502 -0.80318688845E+02 -0.40816650839E+02 -0.21500747807E+03  0.23316817190E+03  0.47000000000E+01 0. -1.
        -11    1    1    2    0    0  0.33465548925E+02  0.21727397983E+02 -0.31944944371E+01  0.40027835099E+02  0.00000000000E+00 0.  1.
         11    1    1    2    0    0  0.70884949547E+01  0.57731964099E+02 -0.16080703892E+03  0.17100330467E+03  0.00000000000E+00 0. -1.
<mgrwt>
<rscale>  0 0.14809254E+03</rscale>
<asrwt>0</asrwt>
<pdfrwt beam="2">  1        1 0.10469523E+00 0.15356922E+03</pdfrwt>
<pdfrwt beam="1">  1       -1 0.54575263E-02 0.15356922E+03</pdfrwt>
<totfact> 0.44237644E+03</totfact>
</mgrwt>
</event>
<event>
 7    1  0.6008063E-006  0.1737791E+03  0.7546771E-02  0.1180239E+00
          2   -1    0    0  501    0  0.00000000000E+00  0.00000000000E+00  0.49961391629E+03  0.49961391629E+03  0.00000000000E+00 0. -1.
         -2   -1    0    0    0  501 -0.00000000000E+00 -0.00000000000E+00 -0.53266793478E+02  0.53266793478E+02  0.00000000000E+00 0.  1.
         23    2    1    2    0    0 -0.84288121863E+02 -0.86427841183E+02  0.21083756986E+03  0.27322456109E+03  0.12499968280E+03 0.  0.
          5    1    3    3  502    0 -0.54127518768E+02 -0.11173912032E+03  0.19347809681E+03  0.22993756379E+03  0.47000000000E+01 0.  1.
         -5    1    3    3    0  502 -0.30160603095E+02  0.25311279138E+02  0.17359473050E+02  0.43286997300E+02  0.47000000000E+01 0.  1.
        -11    1    1    2    0    0  0.70715840058E+02  0.97281351610E+01  0.92848557723E+02  0.11711627265E+03  0.00000000000E+00 0.  1.
         11    1    1    2    0    0  0.13572281805E+02  0.76699706022E+02  0.14266099523E+03  0.16253987602E+03  0.00000000000E+00 0. -1.
<mgrwt>
<rscale>  0 0.16772728E+03</rscale>
<asrwt>0</asrwt>
<pdfrwt beam="1">  1        2 0.76863676E-01 0.17377911E+03</pdfrwt>
<pdfrwt beam="2">  1       -2 0.81948916E-02 0.17377911E+03</pdfrwt>
<totfact> 0.55297532E+03</totfact>
</mgrwt>
</event>
<event>
 6    1  0.6008063E-006  0.1584635E+03  0.7546771E-02  0.1203067E+00
          2   -1    0    0  501    0  0.00000000000E+00  0.00000000000E+00  0.90032263704E+03  0.90032263704E+03  0.00000000000E+00 0. -1.
         -2   -1    0    0    0  501 -0.00000000000E+00 -0.00000000000E+00 -0.22008892972E+02  0.22008892972E+02  0.00000000000E+00 0.  1.
          5    1    1    2  502    0 -0.99962346638E+02 -0.49189416580E+01  0.38502092598E+03  0.39784402744E+03  0.47000000000E+01 0. -1.
         -5    1    1    2    0  502  0.36800307970E+02 -0.43876381917E+02  0.17729514038E+03  0.18637343254E+03  0.47000000000E+01 0.  1.
        -11    1    1    2    0    0  0.46419269794E+02 -0.62875333882E+01  0.62185524382E+02  0.77854486877E+02  0.00000000000E+00 0.  1.
         11    1    1    2    0    0  0.16742768874E+02  0.55082856964E+02  0.25381215333E+03  0.26025958315E+03  0.00000000000E+00 0. -1.
<mgrwt>
<rscale>  0 0.14790836E+03</rscale>
<asrwt>0</asrwt>
<pdfrwt beam="1">  1        2 0.13851115E+00 0.15846350E+03</pdfrwt>
<pdfrwt beam="2">  1       -2 0.33859842E-02 0.15846350E+03</pdfrwt>
<totfact> 0.10409270E+04</totfact>
</mgrwt>
</event>
<event>
 7    1  0.6008063E-006  0.1252587E+03  0.7546771E-02  0.1249624E+00
         -1   -1    0    0    0  501 -0.00000000000E+00  0.00000000000E+00  0.21368247990E+03  0.21368247990E+03  0.00000000000E+00 0.  1.
          1   -1    0    0  501    0  0.00000000000E+00 -0.00000000000E+00 -0.56032168967E+02  0.56032168967E+02  0.00000000000E+00 0. -1.
         23    2    1    2    0    0  0.80857385777E+01  0.17036120625E+00  0.77545532847E+02  0.14731951530E+03  0.12499728690E+03 0.  0.
          5    1    3    3  502    0  0.22900656487E+02 -0.49220764903E+02  0.78467982843E+02  0.95532392918E+02  0.47000000000E+01 0.  1.
         -5    1    3    3    0  502 -0.14814917910E+02  0.49391126109E+02 -0.92244999579E+00  0.51787122386E+02  0.47000000000E+01 0.  1.
        -11    1    1    2    0    0  0.10852071513E+02  0.18538750929E+02  0.91095960545E+02  0.93594480444E+02  0.00000000000E+00 0.  1.
         11    1    1    2    0    0 -0.18937810091E+02 -0.18709112135E+02 -0.10991182463E+02  0.28800653115E+02  0.00000000000E+00 0. -1.
<mgrwt>
<rscale>  0 0.11612857E+03</rscale>
<asrwt>0</asrwt>
<pdfrwt beam="2">  1        1 0.86203338E-02 0.12525865E+03</pdfrwt>
<pdfrwt beam="1">  1       -1 0.32874227E-01 0.12525865E+03</pdfrwt>
<totfact> 0.64580890E+03</totfact>
</mgrwt>
</event>
<event>
 7    1  0.6008063E-006  0.1453777E+03  0.7546771E-02  0.1215758E+00
         -2   -1    0    0    0  501 -0.00000000000E+00  0.00000000000E+00  0.43403331851E+02  0.43403331851E+02  0.00000000000E+00 0.  1.
          2   -1    0    0  501    0  0.00000000000E+00 -0.00000000000E+00 -0.42221452432E+03  0.42221452432E+03  0.00000000000E+00 0. -1.
         23    2    1    2    0    0  0.46613289312E+02  0.57776192277E+02 -0.25844254354E+03  0.29652527241E+03  0.12499520683E+03 0.  0.
          5    1    3    3  502    0 -0.14588424069E+02 -0.30822283506E+02 -0.92022927691E+02  0.98250417293E+02  0.47000000000E+01 0.  1.
         -5    1    3    3    0  502  0.61201713381E+02  0.88598475782E+02 -0.16641961585E+03  0.19827485511E+03  0.47000000000E+01 0.  1.
        -11    1    1    2    0    0  0.23021445386E+02 -0.18457230690E+02 -0.69461046238E+01  0.30313440614E+02  0.00000000000E+00 0.  1.
         11    1    1    2    0    0 -0.69634734698E+02 -0.39318961587E+02 -0.11342254431E+03  0.13877914315E+03  0.00000000000E+00 0. -1.
<mgrwt>
<rscale>  0 0.13821018E+03</rscale>
<asrwt>0</asrwt>
<pdfrwt beam="2">  1        2 0.64956079E-01 0.14537775E+03</pdfrwt>
<pdfrwt beam="1">  1       -2 0.66774358E-02 0.14537775E+03</pdfrwt>
<totfact> 0.90190467E+03</totfact>
</mgrwt>
</event>
<event>
 6    1  0.6008063E-006  0.1420256E+03  0.7546771E-02  0.1230247E+00
          2   -1    0    0  501    0  0.00000000000E+00  0.00000000000E+00  0.27983390326E+04  0.27983390326E+04  0.00000000000E+00 0. -1.
         -2   -1    0    0    0  501 -0.00000000000E+00 -0.00000000000E+00 -0.96097332538E+02  0.96097332538E+02  0.00000000000E+00 0.  1.
          5    1    1    2  502    0 -0.56908507838E+02  0.75658118087E+01  0.22649283510E+04  0.22656606862E+04  0.47000000000E+01 0. -1.
         -5    1    1    2    0  502  0.52502475906E+02  0.13387767259E+02  0.50811310319E+03  0.51101541848E+03  0.47000000000E+01 0.  1.
        -11    1    1    2    0    0  0.29141208322E+02 -0.18995838605E+01  0.10214167060E+02  0.30937802929E+02  0.00000000000E+00 0. -1.
         11    1    1    2    0    0 -0.24735176390E+02 -0.19053995207E+02 -0.81013921258E+02  0.86822457475E+02  0.00000000000E+00 0.  1.
<mgrwt>
<rscale>  0 0.12813650E+03</rscale>
<asrwt>0</asrwt>
<pdfrwt beam="1">  1        2 0.43051364E+00 0.14202564E+03</pdfrwt>
<pdfrwt beam="2">  1       -2 0.14784207E-01 0.14202564E+03</pdfrwt>
<totfact> 0.10252940E+02</totfact>
</mgrwt>
</event>
<event>
 7    1  0.6008063E-006  0.1506323E+03  0.7546771E-02  0.1208815E+00
         -2   -1    0    0    0  501 -0.00000000000E+00  0.00000000000E+00  0.56252935553E+02  0.56252935553E+02  0.00000000000E+00 0.  1.
          2   -1    0    0  501    0  0.00000000000E+00 -0.00000000000E+00 -0.34646171813E+03  0.34646171813E+03  0.00000000000E+00 0. -1.
         23    2    1    2    0    0 -0.48206301921E+02  0.68857224277E+02 -0.19593731693E+03  0.24714673810E+03  0.12499965244E+03 0.  0.
          5    1    3    3  502    0 -0.14696668391E+02 -0.34155513350E+02 -0.80361352647E+02  0.88671461888E+02  0.47000000000E+01 0.  1.
         -5    1    3    3    0  502 -0.33509633530E+02  0.10301273763E+03 -0.11557596428E+03  0.15847527622E+03  0.47000000000E+01 0.  1.
        -11    1    1    2    0    0  0.46124351492E+02  0.45190144370E+01 -0.56303208429E+02  0.72924128870E+02  0.00000000000E+00 0. -1.
         11    1    1    2    0    0  0.20819504296E+01 -0.73376238714E+02 -0.37968257225E+02  0.82643786712E+02  0.00000000000E+00 0.  1.
<mgrwt>
<rscale>  0 0.14340871E+03</rscale>
<asrwt>0</asrwt>
<pdfrwt beam="2">  1        2 0.53301802E-01 0.15063226E+03</pdfrwt>
<pdfrwt beam="1">  1       -2 0.86542979E-02 0.15063226E+03</pdfrwt>
<totfact> 0.74875336E+03</totfact>
</mgrwt>
</event>
<event>
 7    1  0.6008063E-006  0.1107983E+03  0.7546771E-02  0.1268785E+00
          2   -1    0    0  501    0  0.00000000000E+00  0.00000000000E+00  0.66718312807E+03  0.66718312807E+03  0.00000000000E+00 0. -1.
         -2   -1    0    0    0  501 -0.00000000000E+00 -0.00000000000E+00 -0.16190879760E+02  0.16190879760E+02  0.00000000000E+00 0.  1.
         23    2    1    2    0    0  0.16104184536E+01  0.91177866598E+01  0.43145348261E+03  0.44545300625E+03  0.11041080401E+03 0.  0.
          5    1    3    3  502    0 -0.33482065751E+02 -0.34002393478E+02  0.27943290459E+03  0.28351728282E+03  0.47000000000E+01 0. -1.
         -5    1    3    3    0  502  0.35092484205E+02  0.43120180137E+02  0.15202057802E+03  0.16193572344E+03  0.47000000000E+01 0.  1.
        -11    1    1    2    0    0 -0.34081699768E+02 -0.33971045546E+02  0.14668155209E+03  0.15437315803E+03  0.00000000000E+00 0. -1.
         11    1    1    2    0    0  0.32471281314E+02  0.24853258886E+02  0.72857213601E+02  0.83547843546E+02  0.00000000000E+00 0.  1.
<mgrwt>
<rscale>  0 0.10568026E+03</rscale>
<asrwt>0</asrwt>
<pdfrwt beam="1">  1        2 0.10264354E+00 0.11079834E+03</pdfrwt>
<pdfrwt beam="2">  1       -2 0.24909051E-02 0.11079834E+03</pdfrwt>
<totfact> 0.23009005E+04</totfact>
</mgrwt>
</event>
<event>
 7    1  0.6008063E-006  0.1311769E+03  0.7546771E-02  0.1239594E+00
         -1   -1    0    0    0  501 -0.00000000000E+00  0.00000000000E+00  0.20835666693E+02  0.20835666693E+02  0.00000000000E+00 0.  1.
          1   -1    0    0  501    0  0.00000000000E+00 -0.00000000000E+00 -0.69700498941E+03  0.69700498941E+03  0.00000000000E+00 0. -1.
         23    2    1    2    0    0  0.32810916239E+02 -0.22501017529E+02 -0.48886168064E+03  0.50615524757E+03  0.12499815931E+03 0.  0.
          5    1    3    3  502    0  0.71563523528E+02 -0.79632888653E+01 -0.17136555060E+03  0.18593814510E+03  0.47000000000E+01 0. -1.
         -5    1    3    3    0  502 -0.38752607289E+02 -0.14537728664E+02 -0.31749613004E+03  0.32021710247E+03  0.47000000000E+01 0. -1.
        -11    1    1    2    0    0 -0.20146582580E+02  0.54538251272E+02 -0.79389982623E+02  0.98402616745E+02  0.00000000000E+00 0.  1.
         11    1    1    2    0    0 -0.12664333659E+02 -0.32037233743E+02 -0.10791765945E+03  0.11328279179E+03  0.00000000000E+00 0. -1.
<mgrwt>
<rscale>  0 0.12214847E+03</rscale>
<asrwt>0</asrwt>
<pdfrwt beam="2">  1        1 0.10723153E+00 0.13117695E+03</pdfrwt>
<pdfrwt beam="1">  1       -1 0.32054874E-02 0.13117695E+03</pdfrwt>
<totfact> 0.92827164E+03</totfact>
</mgrwt>
</event>
<event>
 7    1  0.6008063E-006  0.1458701E+03  0.7546771E-02  0.1215381E+00
          1   -1    0    0  501    0  0.00000000000E+00  0.00000000000E+00  0.34710083386E+03  0.34710083386E+03  0.00000000000E+00 0. -1.
         -1   -1    0    0    0  501 -0.00000000000E+00 -0.00000000000E+00 -0.50344806199E+02  0.50344806199E+02  0.00000000000E+00 0.  1.
         23    2    1    2    0    0  0.49040975442E+02  0.56996308465E+02  0.16181625797E+03  0.21785913261E+03  0.12499801547E+03 0.  0.
          5    1    3    3  502    0 -0.25663041403E+02 -0.10443063258E+02  0.10383711223E+01  0.28121477181E+02  0.47000000000E+01 0.  1.
         -5    1    3    3    0  502  0.74704016846E+02  0.67439371723E+02  0.16077788684E+03  0.18973765543E+03  0.47000000000E+01 0.  1.
        -11    1    1    2    0    0 -0.37630490550E+02 -0.41485463140E+02  0.14669649427E+03  0.15702534477E+03  0.00000000000E+00 0. -1.
         11    1    1    2    0    0 -0.11410484892E+02 -0.15510845326E+02 -0.11756724575E+02  0.22561162668E+02  0.00000000000E+00 0.  1.
<mgrwt>
<rscale>  0 0.13848593E+03</rscale>
<asrwt>0</asrwt>
<pdfrwt beam="1">  1        1 0.53400127E-01 0.14587015E+03</pdfrwt>
<pdfrwt beam="2">  1       -1 0.77453550E-02 0.14587015E+03</pdfrwt>
<totfact> 0.63188363E+03</totfact>
</mgrwt>
</event>
<event>
 7    1  0.6008063E-006  0.1605984E+03  0.7546771E-02  0.1195642E+00
          2   -1    0    0  501    0  0.00000000000E+00  0.00000000000E+00  0.20825405999E+03  0.20825405999E+03  0.00000000000E+00 0. -1.
         -2   -1    0    0    0  501 -0.00000000000E+00 -0.00000000000E+00 -0.11196019055E+03  0.11196019055E+03  0.00000000000E+00 0.  1.
         23    2    1    2    0    0 -0.92684257581E+02 -0.39717587151E+02  0.90411692295E+02  0.18429895408E+03  0.12499588809E+03 0.  0.
          5    1    3    3  502    0 -0.74311792348E+02  0.66687548766E+00  0.11218924633E+03  0.13465216002E+03  0.47000000000E+01 0. -1.
         -5    1    3    3    0  502 -0.18372465233E+02 -0.40384462639E+02 -0.21777554036E+02  0.49646794067E+02  0.47000000000E+01 0. -1.
        -11    1    1    2    0    0  0.26734356093E+02 -0.21744161971E+02 -0.22791303839E+02  0.41315589143E+02  0.00000000000E+00 0.  1.
         11    1    1    2    0    0  0.65949901488E+02  0.61461749122E+02  0.28673480985E+02  0.94599707311E+02  0.00000000000E+00 0. -1.
<mgrwt>
<rscale>  0 0.15400014E+03</rscale>
<asrwt>0</asrwt>
<pdfrwt beam="1">  1        2 0.32039086E-01 0.16059835E+03</pdfrwt>
<pdfrwt beam="2">  1       -2 0.17224645E-01 0.16059835E+03</pdfrwt>
<totfact> 0.42849966E+03</totfact>
</mgrwt>
</event>
<event>
 7    1  0.6008063E-006  0.1569684E+03  0.7546771E-02  0.1200542E+00
         -1   -1    0    0    0  501 -0.00000000000E+00  0.00000000000E+00  0.61576755183E+02  0.61576755183E+02  0.00000000000E+00 0.  1.
          1   -1    0    0  501    0  0.00000000000E+00 -0.00000000000E+00 -0.35580284159E+03  0.35580284159E+03  0.00000000000E+00 0. -1.
         23    2    1    2    0    0 -0.87336958149E+02  0.37239119820E+02 -0.20886769574E+03  0.26127534268E+03  0.12499837626E+03 0.  0.
          5    1    3    3  502    0 -0.72948432487E+02  0.53644993106E+02 -0.21879996203E+03  0.23684335007E+03  0.47000000000E+01 0.  1.
         -5    1    3    3    0  502 -0.14388525662E+02 -0.16405873286E+02  0.99322662996E+01  0.24431992609E+02  0.47000000000E+01 0.  1.
        -11    1    1    2    0    0  0.38853592917E+02 -0.48241141714E+02 -0.56987688620E+01  0.62203580306E+02  0.00000000000E+00 0.  1.
         11    1    1    2    0    0  0.48483365232E+02  0.11002021894E+02 -0.79659621809E+02  0.93900673782E+02  0.00000000000E+00 0. -1.
<mgrwt>
<rscale>  0 0.14994367E+03</rscale>
<asrwt>0</asrwt>
<pdfrwt beam="2">  1        1 0.54738898E-01 0.15696844E+03</pdfrwt>
<pdfrwt beam="1">  1       -1 0.94733471E-02 0.15696844E+03</pdfrwt>
<totfact> 0.45309896E+03</totfact>
</mgrwt>
</event>
<event>
 7    1  0.6008063E-006  0.1441355E+03  0.7546771E-02  0.1210710E+00
         -1   -1    0    0    0  501 -0.00000000000E+00  0.00000000000E+00  0.12941522450E+03  0.12941522450E+03  0.00000000000E+00 0.  1.
          1   -1    0    0  501    0  0.00000000000E+00 -0.00000000000E+00 -0.15122006463E+03  0.15122006463E+03  0.00000000000E+00 0. -1.
         23    2    1    2    0    0 -0.76829415278E+01 -0.71357675057E+02 -0.12069033006E+02  0.14463991551E+03  0.12499639284E+03 0.  0.
          5    1    3    3  502    0 -0.25916047791E+02  0.26364857305E+02 -0.24122068054E+02  0.44392695357E+02  0.47000000000E+01 0. -1.
         -5    1    3    3    0  502  0.18233106264E+02 -0.97722532362E+02  0.12053035048E+02  0.10024722016E+03  0.47000000000E+01 0. -1.
        -11    1    1    2    0    0 -0.34490271077E+02  0.84384756279E+02 -0.11102743867E+02  0.91834834418E+02  0.00000000000E+00 0. -1.
         11    1    1    2    0    0  0.42173212604E+02 -0.13027081223E+02  0.13669367438E+01  0.44160539202E+02  0.00000000000E+00 0.  1.
<mgrwt>
<rscale>  0 0.14196469E+03</rscale>
<asrwt>0</asrwt>
<pdfrwt beam="2">  1        1 0.23264625E-01 0.14413550E+03</pdfrwt>
<pdfrwt beam="1">  1       -1 0.19910035E-01 0.14413550E+03</pdfrwt>
<totfact> 0.41054590E+03</totfact>
</mgrwt>
</event>
<event>
 6    1  0.6008063E-006  0.2022358E+03  0.7546771E-02  0.1169944E+00
          2   -1    0    0  501    0  0.00000000000E+00  0.00000000000E+00  0.21495283717E+04  0.21495283717E+04  0.00000000000E+00 0. -1.
         -2   -1    0    0    0  501 -0.00000000000E+00 -0.00000000000E+00 -0.38097153699E+02  0.38097153699E+02  0.00000000000E+00 0.  1.
          5    1    1    2  502    0 -0.36562558392E+02 -0.36676328881E+02  0.25522370327E+03  0.26046727719E+03  0.47000000000E+01 0. -1.
         -5    1    1    2    0  502  0.88823412169E+02  0.95576926480E+02  0.17789459904E+04  0.17837307740E+04  0.47000000000E+01 0.  1.
        -11    1    1    2    0    0 -0.65395860496E+02 -0.99772222900E+01  0.61635308035E+02  0.90416119864E+02  0.00000000000E+00 0. -1.
         11    1    1    2    0    0  0.13135006719E+02 -0.48923375308E+02  0.15626216314E+02  0.53011354344E+02  0.00000000000E+00 0.  1.
<mgrwt>
<rscale>  0 0.17780562E+03</rscale>
<asrwt>0</asrwt>
<pdfrwt beam="1">  1        2 0.33069658E+00 0.20223583E+03</pdfrwt>
<pdfrwt beam="2">  1       -2 0.58611023E-02 0.20223583E+03</pdfrwt>
<totfact> 0.96046615E+02</totfact>
</mgrwt>
</event>
<event>
 7    1  0.6008063E-006  0.1560145E+03  0.7546771E-02  0.1201668E+00
          2   -1    0    0  501    0  0.00000000000E+00  0.00000000000E+00  0.36233167681E+03  0.36233167681E+03  0.00000000000E+00 0. -1.
         -2   -1    0    0    0  501 -0.00000000000E+00 -0.00000000000E+00 -0.57513823330E+02  0.57513823330E+02  0.00000000000E+00 0.  1.
         23    2    1    2    0    0  0.86070621357E+02  0.36127539434E+02  0.13702273293E+03  0.20764329792E+03  0.12500863517E+03 0.  0.
          5    1    3    3  502    0  0.74487416777E+02 -0.64258872204E+01  0.14440718469E+03  0.16268125975E+03  0.47000000000E+01 0. -1.
         -5    1    3    3    0  502  0.11583204580E+02  0.42553426654E+02 -0.73844517649E+01  0.44962038168E+02  0.47000000000E+01 0. -1.
        -11    1    1    2    0    0 -0.22460900487E+02 -0.17970257330E+02 -0.31186814273E+01  0.28933516430E+02  0.00000000000E+00 0.  1.
         11    1    1    2    0    0 -0.63609720870E+02 -0.18157282104E+02  0.17091380198E+03  0.18326868579E+03  0.00000000000E+00 0. -1.
<mgrwt>
<rscale>  0 0.14903138E+03</rscale>
<asrwt>0</asrwt>
<pdfrwt beam="1">  1        2 0.55743334E-01 0.15601445E+03</pdfrwt>
<pdfrwt beam="2">  1       -2 0.88482807E-02 0.15601445E+03</pdfrwt>
<totfact> 0.69107468E+03</totfact>
</mgrwt>
</event>
<event>
 7    1  0.6008063E-006  0.2968808E+03  0.7546771E-02  0.1087695E+00
         -1   -1    0    0    0  501 -0.00000000000E+00  0.00000000000E+00  0.17106393196E+03  0.17106393196E+03  0.00000000000E+00 0.  1.
          1   -1    0    0  501    0  0.00000000000E+00 -0.00000000000E+00 -0.51096081625E+03  0.51096081625E+03  0.00000000000E+00 0. -1.
         23    2    1    2    0    0  0.85153288227E+02 -0.24741664941E+03 -0.12633660635E+03  0.31631145294E+03  0.12500366496E+03 0.  0.
          5    1    3    3  502    0  0.57283892515E+02 -0.25270207500E+03 -0.10152379766E+03  0.27833245327E+03  0.47000000000E+01 0.  1.
         -5    1    3    3    0  502  0.27869395712E+02  0.52854255870E+01 -0.24812808689E+02  0.37978999671E+02  0.47000000000E+01 0.  1.
        -11    1    1    2    0    0 -0.58932404087E+02  0.17265014655E+03 -0.22049387982E+03  0.28617940595E+03  0.00000000000E+00 0. -1.
         11    1    1    2    0    0 -0.26220884141E+02  0.74766502861E+02  0.69336018828E+01  0.79533889319E+02  0.00000000000E+00 0.  1.
<mgrwt>
<rscale>  0 0.29514195E+03</rscale>
<asrwt>0</asrwt>
<pdfrwt beam="2">  1        1 0.78609355E-01 0.29688082E+03</pdfrwt>
<pdfrwt beam="1">  1       -1 0.26317528E-01 0.29688082E+03</pdfrwt>
<totfact> 0.56221441E+02</totfact>
</mgrwt>
</event>
<event>
 7    1  0.6008063E-006  0.1363081E+03  0.7546771E-02  0.1230896E+00
         -1   -1    0    0    0  501 -0.00000000000E+00  0.00000000000E+00  0.28848144496E+02  0.28848144496E+02  0.00000000000E+00 0.  1.
          1   -1    0    0  501    0  0.00000000000E+00 -0.00000000000E+00 -0.67950746007E+03  0.67950746007E+03  0.00000000000E+00 0. -1.
         23    2    1    2    0    0 -0.79541511564E+01  0.53782561666E+02 -0.53514260122E+03  0.55222956447E+03  0.12499622305E+03 0.  0.
          5    1    3    3  502    0  0.22703890114E+01 -0.38170668353E+02 -0.96399239473E+02  0.10381260983E+03  0.47000000000E+01 0.  1.
         -5    1    3    3    0  502 -0.10224540168E+02  0.91953230020E+02 -0.43874336174E+03  0.44841695464E+03  0.47000000000E+01 0.  1.
        -11    1    1    2    0    0  0.29561626401E+02 -0.39924217778E+02 -0.14284910671E+02  0.51690343329E+02  0.00000000000E+00 0.  1.
         11    1    1    2    0    0 -0.21607475244E+02 -0.13858343888E+02 -0.10123180369E+03  0.10443569677E+03  0.00000000000E+00 0. -1.
<mgrwt>
<rscale>  0 0.12770831E+03</rscale>
<asrwt>0</asrwt>
<pdfrwt beam="2">  1        1 0.10453961E+00 0.13630806E+03</pdfrwt>
<pdfrwt beam="1">  1       -1 0.44381762E-02 0.13630806E+03</pdfrwt>
<totfact> 0.59878928E+03</totfact>
</mgrwt>
</event>
<event>
 7    1  0.6008063E-006  0.1700770E+03  0.7546771E-02  0.1184945E+00
         -2   -1    0    0    0  501 -0.00000000000E+00  0.00000000000E+00  0.18751511284E+02  0.18751511284E+02  0.00000000000E+00 0. -1.
          2   -1    0    0  501    0  0.00000000000E+00 -0.00000000000E+00 -0.13307032427E+04  0.13307032427E+04  0.00000000000E+00 0.  1.
         23    2    1    2    0    0 -0.27845186110E+02 -0.11192099755E+03 -0.76341810034E+03  0.78213386920E+03  0.12499811737E+03 0.  0.
          5    1    3    3  502    0 -0.42382827847E+02 -0.17658234640E+02 -0.82334463508E+02  0.94388406216E+02  0.47000000000E+01 0. -1.
         -5    1    3    3    0  502  0.14537641737E+02 -0.94262762905E+02 -0.68108363683E+03  0.68774546299E+03  0.47000000000E+01 0. -1.
        -11    1    1    2    0    0  0.92462960649E+01  0.98662207045E+02 -0.52593726324E+03  0.53519130221E+03  0.00000000000E+00 0.  1.
         11    1    1    2    0    0  0.18598890045E+02  0.13258790500E+02 -0.22596367791E+02  0.32129582533E+02  0.00000000000E+00 0. -1.
<mgrwt>
<rscale>  0 0.16336841E+03</rscale>
<asrwt>0</asrwt>
<pdfrwt beam="2">  1        2 0.20472353E+00 0.17007702E+03</pdfrwt>
<pdfrwt beam="1">  1       -2 0.28848485E-02 0.17007702E+03</pdfrwt>
<totfact> 0.74595464E+03</totfact>
</mgrwt>
</event>
<event>
 7    1  0.6008063E-006  0.1838749E+03  0.7546771E-02  0.1169648E+00
          3   -1    0    0  501    0  0.00000000000E+00  0.00000000000E+00  0.49891101399E+02  0.49891101399E+02  0.00000000000E+00 0. -1.
         -3   -1    0    0    0  501 -0.00000000000E+00 -0.00000000000E+00 -0.62120470049E+03  0.62120470049E+03  0.00000000000E+00 0.  1.
         23    2    1    2    0    0  0.12434986075E+03  0.52180745568E+02 -0.23985867297E+03  0.30222867715E+03  0.12499708883E+03 0.  0.
          5    1    3    3  502    0  0.14879560766E+03  0.42681011342E+02 -0.18517706319E+03  0.24140098657E+03  0.47000000000E+01 0.  1.
         -5    1    3    3    0  502 -0.24445746910E+02  0.94997342260E+01 -0.54681609781E+02  0.60827690574E+02  0.47000000000E+01 0.  1.
        -11    1    1    2    0    0 -0.37901870050E+02  0.18512566884E+02 -0.14985642363E+03  0.15567984645E+03  0.00000000000E+00 0.  1.
         11    1    1    2    0    0 -0.86447990696E+02 -0.70693312452E+02 -0.18159850249E+03  0.21318727829E+03  0.00000000000E+00 0. -1.
<mgrwt>
<rscale>  0 0.17810691E+03</rscale>
<asrwt>0</asrwt>
<pdfrwt beam="1">  1        3 0.76755544E-02 0.18387493E+03</pdfrwt>
<pdfrwt beam="2">  1       -3 0.95569949E-01 0.18387493E+03</pdfrwt>
<totfact> 0.27714796E+02</totfact>
</mgrwt>
</event>
<event>
 7    1  0.6008063E-006  0.1279748E+03  0.7546771E-02  0.1244909E+00
          2   -1    0    0  501    0  0.00000000000E+00  0.00000000000E+00  0.13065180799E+04  0.13065180799E+04  0.00000000000E+00 0. -1.
         -2   -1    0    0    0  501 -0.00000000000E+00 -0.00000000000E+00 -0.11727219415E+02  0.11727219415E+02  0.00000000000E+00 0.  1.
         23    2    1    2    0    0  0.27866690893E+02 -0.10393749045E+02  0.10060715380E+04  0.10141782321E+04  0.12447073739E+03 0.  0.
          5    1    3    3  502    0  0.37661681037E+02 -0.52193114992E+02  0.84359232824E+03  0.84605710784E+03  0.47000000000E+01 0. -1.
         -5    1    3    3    0  502 -0.97949901434E+01  0.41799365947E+02  0.16247920975E+03  0.16812112427E+03  0.47000000000E+01 0.  1.
        -11    1    1    2    0    0 -0.80720470219E+01 -0.33553948702E+02  0.20133162691E+03  0.20426808221E+03  0.00000000000E+00 0. -1.
         11    1    1    2    0    0 -0.19794643871E+02  0.43947697747E+02  0.87387695548E+02  0.99798984947E+02  0.00000000000E+00 0.  1.
<mgrwt>
<rscale>  0 0.11890803E+03</rscale>
<asrwt>0</asrwt>
<pdfrwt beam="1">  1        2 0.20100267E+00 0.12797479E+03</pdfrwt>
<pdfrwt beam="2">  1       -2 0.18041886E-02 0.12797479E+03</pdfrwt>
<totfact> 0.15054392E+04</totfact>
</mgrwt>
</event>
<event>
 7    1  0.6008063E-006  0.1348997E+03  0.7546771E-02  0.1233016E+00
          2   -1    0    0  501    0  0.00000000000E+00  0.00000000000E+00  0.41999107706E+03  0.41999107706E+03  0.00000000000E+00 0. -1.
         -2   -1    0    0    0  501 -0.00000000000E+00 -0.00000000000E+00 -0.33927463150E+02  0.33927463150E+02  0.00000000000E+00 0.  1.
         23    2    1    2    0    0  0.22244316662E+01 -0.50702321875E+02  0.21131960589E+03  0.25070680330E+03  0.12498900691E+03 0.  0.
          5    1    3    3  502    0 -0.28747673781E+02  0.33491668211E+02  0.58412151195E+02  0.73363410462E+02  0.47000000000E+01 0.  1.
         -5    1    3    3    0  502  0.30972105447E+02 -0.84193990085E+02  0.15290745470E+03  0.17734339284E+03  0.47000000000E+01 0.  1.
        -11    1    1    2    0    0  0.63005671245E+01  0.92079636689E+01 -0.91949724371E+01  0.14457913374E+02  0.00000000000E+00 0.  1.
         11    1    1    2    0    0 -0.85249987907E+01  0.41494358206E+02  0.18393898045E+03  0.18875382353E+03  0.00000000000E+00 0. -1.
<mgrwt>
<rscale>  0 0.12632300E+03</rscale>
<asrwt>0</asrwt>
<pdfrwt beam="1">  1        2 0.64614008E-01 0.13489969E+03</pdfrwt>
<pdfrwt beam="2">  1       -2 0.52196100E-02 0.13489969E+03</pdfrwt>
<totfact> 0.13106415E+04</totfact>
</mgrwt>
</event>
<event>
 7    1  0.6008063E-006  0.1212965E+03  0.7546771E-02  0.1247768E+00
          1   -1    0    0  501    0  0.00000000000E+00  0.00000000000E+00  0.14812980907E+03  0.14812980907E+03  0.00000000000E+00 0. -1.
         -1   -1    0    0    0  501 -0.00000000000E+00 -0.00000000000E+00 -0.10088502986E+03  0.10088502986E+03  0.00000000000E+00 0.  1.
         23    2    1    2    0    0  0.39664135371E+01  0.43388843272E+02  0.71088546365E+02  0.14059312867E+03  0.11320124668E+03 0.  0.
          5    1    3    3  502    0 -0.46402293599E+02 -0.94952465861E+01  0.21743311035E+02  0.52327756820E+02  0.47000000000E+01 0. -1.
         -5    1    3    3    0  502  0.50368707136E+02  0.52884089858E+02  0.49345235329E+02  0.88265371853E+02  0.47000000000E+01 0.  1.
        -11    1    1    2    0    0 -0.33965519464E+02 -0.60655840571E+02 -0.24760274886E+02  0.73796061686E+02  0.00000000000E+00 0. -1.
         11    1    1    2    0    0  0.29999105927E+02  0.17266997300E+02  0.91650773145E+00  0.34625648566E+02  0.00000000000E+00 0.  1.
<mgrwt>
<rscale>  0 0.11721258E+03</rscale>
<asrwt>0</asrwt>
<pdfrwt beam="1">  1        1 0.22789202E-01 0.12129652E+03</pdfrwt>
<pdfrwt beam="2">  1       -1 0.15520774E-01 0.12129652E+03</pdfrwt>
<totfact> 0.61875710E+03</totfact>
</mgrwt>
</event>
<event>
 7    1  0.6008063E-006  0.1644067E+03  0.7546771E-02  0.1190997E+00
          1   -1    0    0  501    0  0.00000000000E+00  0.00000000000E+00  0.63817078494E+02  0.63817078494E+02  0.00000000000E+00 0. -1.
         -1   -1    0    0    0  501 -0.00000000000E+00 -0.00000000000E+00 -0.45389321337E+03  0.45389321337E+03  0.00000000000E+00 0.  1.
         23    2    1    2    0    0 -0.10306612828E+03  0.27976299826E+02 -0.92177457669E+02  0.18848405676E+03  0.12499702317E+03 0.  0.
          5    1    3    3  502    0 -0.82729664020E+02  0.84526631984E+01  0.85966550673E+01  0.83735519956E+02  0.47000000000E+01 0.  1.
         -5    1    3    3    0  502 -0.20336464259E+02  0.19523636627E+02 -0.10077411274E+03  0.10474853681E+03  0.47000000000E+01 0.  1.
        -11    1    1    2    0    0  0.22411765224E+02  0.27795213459E+02 -0.12975694020E+03  0.13457980771E+03  0.00000000000E+00 0.  1.
         11    1    1    2    0    0  0.80654363054E+02 -0.55771513284E+02 -0.16814173701E+03  0.19464642740E+03  0.00000000000E+00 0. -1.
<mgrwt>
<rscale>  0 0.15797911E+03</rscale>
<asrwt>0</asrwt>
<pdfrwt beam="1">  1        1 0.98180125E-02 0.16440668E+03</pdfrwt>
<pdfrwt beam="2">  1       -1 0.69829722E-01 0.16440668E+03</pdfrwt>
<totfact> 0.13963841E+03</totfact>
</mgrwt>
</event>
<event>
 7    1  0.6008063E-006  0.1927656E+03  0.7546771E-02  0.1160693E+00
          2   -1    0    0  501    0  0.00000000000E+00  0.00000000000E+00  0.14389582335E+04  0.14389582335E+04  0.00000000000E+00 0. -1.
         -2   -1    0    0    0  501 -0.00000000000E+00 -0.00000000000E+00 -0.25918093286E+02  0.25918093286E+02  0.00000000000E+00 0.  1.
         23    2    1    2    0    0 -0.11919732350E+03 -0.85578098411E+02  0.97774975144E+03  0.99657070242E+03  0.12500790227E+03 0.  0.
          5    1    3    3  502    0 -0.11284803913E+03 -0.55014950430E+02  0.93514072355E+03  0.94354204334E+03  0.47000000000E+01 0. -1.
         -5    1    3    3    0  502 -0.63492843696E+01 -0.30563147981E+02  0.42609027885E+02  0.53028659080E+02  0.47000000000E+01 0. -1.
        -11    1    1    2    0    0  0.55183188217E+01 -0.12259088914E+02  0.84441223694E+01  0.15875777342E+02  0.00000000000E+00 0.  1.
         11    1    1    2    0    0  0.11367900468E+03  0.97837187325E+02  0.42684626638E+03  0.45242984699E+03  0.00000000000E+00 0. -1.
<mgrwt>
<rscale>  0 0.18754621E+03</rscale>
<asrwt>0</asrwt>
<pdfrwt beam="1">  1        2 0.22137813E+00 0.19276563E+03</pdfrwt>
<pdfrwt beam="2">  1       -2 0.39874001E-02 0.19276563E+03</pdfrwt>
<totfact> 0.40450828E+03</totfact>
</mgrwt>
</event>
<event>
 7    1  0.6008063E-006  0.2109507E+03  0.7546771E-02  0.1145035E+00
         -2   -1    0    0    0  501 -0.00000000000E+00  0.00000000000E+00  0.43145315992E+02  0.43145315992E+02  0.00000000000E+00 0.  1.
          2   -1    0    0  501    0  0.00000000000E+00 -0.00000000000E+00 -0.10433111224E+04  0.10433111224E+04  0.00000000000E+00 0. -1.
         23    2    1    2    0    0  0.16463597966E+03 -0.42080248434E+02 -0.34749059548E+03  0.40650944721E+03  0.12499785446E+03 0.  0.
          5    1    3    3  502    0  0.32347386476E+02 -0.58086481346E+02 -0.60322413703E+02  0.89895919384E+02  0.47000000000E+01 0. -1.
         -5    1    3    3    0  502  0.13228859319E+03  0.16006232911E+02 -0.28716818177E+03  0.31661352783E+03  0.47000000000E+01 0. -1.
        -11    1    1    2    0    0 -0.10060253465E+03 -0.12936115893E+02 -0.43011700938E+03  0.44191498597E+03  0.00000000000E+00 0.  1.
         11    1    1    2    0    0 -0.64033445009E+02  0.55016364328E+02 -0.22255820155E+03  0.23803200520E+03  0.00000000000E+00 0. -1.
<mgrwt>
<rscale>  0 0.20567825E+03</rscale>
<asrwt>0</asrwt>
<pdfrwt beam="2">  1        2 0.16050941E+00 0.21095074E+03</pdfrwt>
<pdfrwt beam="1">  1       -2 0.66377405E-02 0.21095074E+03</pdfrwt>
<totfact> 0.31097027E+03</totfact>
</mgrwt>
</event>
<event>
 7    1  0.6008063E-006  0.1348710E+03  0.7546771E-02  0.1235048E+00
         -2   -1    0    0    0  501 -0.00000000000E+00  0.00000000000E+00  0.60822492013E+03  0.60822492013E+03  0.00000000000E+00 0.  1.
          2   -1    0    0  501    0  0.00000000000E+00 -0.00000000000E+00 -0.23543519672E+02  0.23543519672E+02  0.00000000000E+00 0. -1.
         23    2    1    2    0    0 -0.57598547638E+00 -0.50647821271E+02  0.27167988269E+03  0.30331526262E+03  0.12499862528E+03 0.  0.
          5    1    3    3  502    0  0.26774254505E+02  0.30237545377E+02  0.43048588977E+02  0.59215208077E+02  0.47000000000E+01 0.  1.
         -5    1    3    3    0  502 -0.27350239981E+02 -0.80885366648E+02  0.22863129371E+03  0.24410005454E+03  0.47000000000E+01 0.  1.
        -11    1    1    2    0    0 -0.13030532211E+02 -0.19460931647E+02  0.40854516724E+02  0.47091550909E+02  0.00000000000E+00 0. -1.
         11    1    1    2    0    0  0.13606517687E+02  0.70108752918E+02  0.27214700104E+03  0.28136162627E+03  0.00000000000E+00 0.  1.
<mgrwt>
<rscale>  0 0.12501341E+03</rscale>
<asrwt>0</asrwt>
<pdfrwt beam="2">  1        2 0.36220804E-02 0.13487101E+03</pdfrwt>
<pdfrwt beam="1">  1       -2 0.93573053E-01 0.13487101E+03</pdfrwt>
<totfact> 0.23203036E+03</totfact>
</mgrwt>
</event>
<event>
 7    1  0.9111183E-006  0.2503238E+03  0.7546771E-02  0.1115555E+00
          2   -1    0    0  501    0  0.00000000000E+00  0.00000000000E+00  0.72639544626E+03  0.72639544626E+03  0.00000000000E+00 0. -1.
         -2   -1    0    0    0  501 -0.00000000000E+00 -0.00000000000E+00 -0.83958487064E+02  0.83958487064E+02  0.00000000000E+00 0.  1.
         23    2    1    2    0    0 -0.15358240774E+02  0.21633515174E+03  0.40486456444E+03  0.47600136329E+03  0.12500083553E+03 0.  0.
          5    1    3    3  502    0 -0.28149527030E-01  0.11703395837E+03  0.96865635079E+02  0.15199338625E+03  0.47000000000E+01 0.  1.
         -5    1    3    3    0  502 -0.15330091247E+02  0.99301193364E+02  0.30799892936E+03  0.32400797704E+03  0.47000000000E+01 0.  1.
        -11    1    1    2    0    0  0.16955308254E+02 -0.15382621320E+03  0.22076176198E+03  0.26960293377E+03  0.00000000000E+00 0.  1.
         11    1    1    2    0    0 -0.15970674799E+01 -0.62508938537E+02  0.16810632779E+02  0.64749636262E+02  0.00000000000E+00 0. -1.
<mgrwt>
<rscale>  0 0.24647180E+03</rscale>
<asrwt>0</asrwt>
<pdfrwt beam="1">  1        2 0.11175314E+00 0.25032376E+03</pdfrwt>
<pdfrwt beam="2">  1       -2 0.12916691E-01 0.25032376E+03</pdfrwt>
<totfact> 0.17539209E+03</totfact>
</mgrwt>
</event>
<event>
 7    1  0.6008063E-006  0.1353253E+03  0.7546771E-02  0.1231819E+00
         -4   -1    0    0    0  501 -0.00000000000E+00  0.00000000000E+00  0.10198364034E+02  0.10198364034E+02  0.00000000000E+00 0. -1.
          4   -1    0    0  501    0  0.00000000000E+00 -0.00000000000E+00 -0.20098272020E+04  0.20098272020E+04  0.00000000000E+00 0.  1.
         23    2    1    2    0    0  0.16612860185E+02 -0.49112659145E+02 -0.16322547553E+04  0.16378548551E+04  0.12499959932E+03 0.  0.
          5    1    3    3  502    0 -0.40920607016E+02  0.19559174090E+02 -0.53787198695E+03  0.53980127984E+03  0.47000000000E+01 0. -1.
         -5    1    3    3    0  502  0.57533467201E+02 -0.68671833235E+02 -0.10943827683E+04  0.10980535753E+04  0.47000000000E+01 0. -1.
        -11    1    1    2    0    0  0.20686528258E+01  0.66605420461E+02 -0.33133006509E+03  0.33796475170E+03  0.00000000000E+00 0.  1.
         11    1    1    2    0    0 -0.18681513011E+02 -0.17492761316E+02 -0.36044017563E+02  0.44205959202E+02  0.00000000000E+00 0. -1.
<mgrwt>
<rscale>  0 0.12710257E+03</rscale>
<asrwt>0</asrwt>
<pdfrwt beam="2">  1        4 0.30920380E+00 0.13532531E+03</pdfrwt>
<pdfrwt beam="1">  1       -4 0.15689810E-02 0.13532531E+03</pdfrwt>
<totfact> 0.82966696E+01</totfact>
</mgrwt>
</event>
<event>
 7    1  0.6008063E-006  0.1155387E+03  0.7546771E-02  0.1263184E+00
         -1   -1    0    0    0  501 -0.00000000000E+00  0.00000000000E+00  0.15396534506E+03  0.15396534506E+03  0.00000000000E+00 0.  1.
          1   -1    0    0  501    0  0.00000000000E+00 -0.00000000000E+00 -0.20310856831E+03  0.20310856831E+03  0.00000000000E+00 0. -1.
         23    2    1    2    0    0 -0.13315900378E+02  0.11189274420E+02 -0.17044817956E+03  0.20591692470E+03  0.11422208586E+03 0.  0.
          5    1    3    3  502    0 -0.27121665717E+02  0.51713675439E+02 -0.14378845377E+03  0.15526460774E+03  0.47000000000E+01 0. -1.
         -5    1    3    3    0  502  0.13805765339E+02 -0.40524401019E+02 -0.26659725789E+02  0.50652316963E+02  0.47000000000E+01 0.  1.
        -11    1    1    2    0    0 -0.37143156423E+01  0.24056987164E+02  0.69317366463E+00  0.24351904686E+02  0.00000000000E+00 0. -1.
         11    1    1    2    0    0  0.17030216020E+02 -0.35246261584E+02  0.12061178264E+03  0.12680508399E+03  0.00000000000E+00 0.  1.
<mgrwt>
<rscale>  0 0.10860021E+03</rscale>
<asrwt>0</asrwt>
<pdfrwt beam="2">  1        1 0.31247472E-01 0.11553873E+03</pdfrwt>
<pdfrwt beam="1">  1       -1 0.23686976E-01 0.11553873E+03</pdfrwt>
<totfact> 0.21223931E+03</totfact>
</mgrwt>
</event>
<event>
 7    1  0.6008063E-006  0.1521706E+03  0.7546771E-02  0.1206621E+00
         -2   -1    0    0    0  501 -0.00000000000E+00  0.00000000000E+00  0.15458034274E+03  0.15458034274E+03  0.00000000000E+00 0.  1.
          2   -1    0    0  501    0  0.00000000000E+00 -0.00000000000E+00 -0.15316056201E+03  0.15316056201E+03  0.00000000000E+00 0. -1.
         23    2    1    2    0    0 -0.45498462068E+02  0.73890239299E+02 -0.64997802638E+02  0.16547088395E+03  0.12500408622E+03 0.  0.
          5    1    3    3  502    0 -0.33801434182E+02 -0.44466653960E+01  0.27175215316E+02  0.43850793760E+02  0.47000000000E+01 0. -1.
         -5    1    3    3    0  502 -0.11697027886E+02  0.78336904695E+02 -0.92173017953E+02  0.12162009019E+03  0.47000000000E+01 0. -1.
        -11    1    1    2    0    0  0.70740423847E+02 -0.68958608336E+02  0.60617097750E+02  0.11590483066E+03  0.00000000000E+00 0.  1.
         11    1    1    2    0    0 -0.25241961779E+02 -0.49316309628E+01  0.58004856152E+01  0.26365190152E+02  0.00000000000E+00 0. -1.
<mgrwt>
<rscale>  0 0.14510467E+03</rscale>
<asrwt>0</asrwt>
<pdfrwt beam="2">  1        2 0.23563163E-01 0.15217062E+03</pdfrwt>
<pdfrwt beam="1">  1       -2 0.23781591E-01 0.15217062E+03</pdfrwt>
<totfact> 0.34582072E+03</totfact>
</mgrwt>
</event>
<event>
 7    1  0.6008063E-006  0.1858697E+03  0.7546771E-02  0.1166875E+00
         -2   -1    0    0    0  501 -0.00000000000E+00  0.00000000000E+00  0.24656937002E+03  0.24656937002E+03  0.00000000000E+00 0.  1.
          2   -1    0    0  501    0  0.00000000000E+00 -0.00000000000E+00 -0.13043936094E+03  0.13043936094E+03  0.00000000000E+00 0. -1.
         23    2    1    2    0    0  0.13633183516E+03  0.18446051629E+02  0.27345629317E+02  0.18787049242E+03  0.12498364844E+03 0.  0.
          5    1    3    3  502    0  0.83733554213E+01 -0.11917019614E+02 -0.37983832653E+02  0.40951068124E+02  0.47000000000E+01 0. -1.
         -5    1    3    3    0  502  0.12795847974E+03  0.30363071243E+02  0.65329461969E+02  0.14691942429E+03  0.47000000000E+01 0. -1.
        -11    1    1    2    0    0 -0.11407732223E+03 -0.38175724346E+02  0.10091488175E+03  0.15701858086E+03  0.00000000000E+00 0.  1.
         11    1    1    2    0    0 -0.22254512936E+02  0.19729672717E+02 -0.12130501984E+02  0.32119657687E+02  0.00000000000E+00 0. -1.
<mgrwt>
<rscale>  0 0.18096253E+03</rscale>
<asrwt>0</asrwt>
<pdfrwt beam="2">  1        2 0.20067594E-01 0.18586968E+03</pdfrwt>
<pdfrwt beam="1">  1       -2 0.37933749E-01 0.18586968E+03</pdfrwt>
<totfact> 0.17972669E+03</totfact>
</mgrwt>
</event>
<event>
 7    1  0.6008063E-006  0.1333166E+03  0.7546771E-02  0.1234043E+00
          1   -1    0    0  501    0  0.00000000000E+00  0.00000000000E+00  0.14294184570E+03  0.14294184570E+03  0.00000000000E+00 0. -1.
         -1   -1    0    0    0  501 -0.00000000000E+00 -0.00000000000E+00 -0.10515334645E+03  0.10515334645E+03  0.00000000000E+00 0.  1.
         23    2    1    2    0    0 -0.48094980113E+01 -0.46101372571E+02  0.49522174588E+02  0.14221732547E+03  0.12499941626E+03 0.  0.
          5    1    3    3  502    0 -0.48077530613E+02  0.16958227356E+02  0.39253024641E+00  0.51198383811E+02  0.47000000000E+01 0.  1.
         -5    1    3    3    0  502  0.43268032601E+02 -0.63059599927E+02  0.49129644341E+02  0.91018941662E+02  0.47000000000E+01 0.  1.
        -11    1    1    2    0    0  0.19969345988E+02  0.70526706182E+02 -0.19975156888E+02  0.75972349949E+02  0.00000000000E+00 0.  1.
         11    1    1    2    0    0 -0.15159847977E+02 -0.24425333611E+02  0.82414815422E+01  0.29905516727E+02  0.00000000000E+00 0. -1.
<mgrwt>
<rscale>  0 0.12565902E+03</rscale>
<asrwt>0</asrwt>
<pdfrwt beam="1">  1        1 0.21991053E-01 0.13331662E+03</pdfrwt>
<pdfrwt beam="2">  1       -1 0.16177438E-01 0.13331662E+03</pdfrwt>
<totfact> 0.61041523E+03</totfact>
</mgrwt>
</event>
<event>
 6    1  0.6008063E-006  0.3457655E+03  0.7546771E-02  0.1064367E+00
         -1   -1    0    0    0  501 -0.00000000000E+00  0.00000000000E+00  0.24004523772E+03  0.24004523772E+03  0.00000000000E+00 0.  1.
          1   -1    0    0  501    0  0.00000000000E+00 -0.00000000000E+00 -0.12451168568E+03  0.12451168568E+03  0.00000000000E+00 0. -1.
          5    1    1    2  502    0 -0.19593970109E+02  0.25041429170E+02  0.12463212848E+02  0.34473446506E+02  0.47000000000E+01 0. -1.
         -5    1    1    2    0  502  0.43553249189E+02 -0.10941124313E+03 -0.39645348474E+02  0.12434447834E+03  0.47000000000E+01 0.  1.
        -11    1    1    2    0    0  0.30141470345E+02  0.15246482332E+02  0.10482411367E+03  0.11013200382E+03  0.00000000000E+00 0.  1.
         11    1    1    2    0    0 -0.54100749425E+02  0.69123331629E+02  0.37891573993E+02  0.95606994741E+02  0.00000000000E+00 0. -1.
<mgrwt>
<rscale>  0 0.34576545E+03</rscale>
<asrwt>0</asrwt>
<pdfrwt beam="2">  1        1 0.19155644E-01 0.34576545E+03</pdfrwt>
<pdfrwt beam="1">  1       -1 0.36930037E-01 0.34576545E+03</pdfrwt>
<totfact> 0.19286294E+03</totfact>
</mgrwt>
</event>
<event>
 6    1  0.6008063E-006  0.2120448E+03  0.7546771E-02  0.1169783E+00
         -2   -1    0    0    0  501 -0.00000000000E+00  0.00000000000E+00  0.28446892791E+02  0.28446892791E+02  0.00000000000E+00 0.  1.
          2   -1    0    0  501    0  0.00000000000E+00 -0.00000000000E+00 -0.15991158784E+04  0.15991158784E+04  0.00000000000E+00 0. -1.
          5    1    1    2  502    0  0.85494721462E+01  0.28057377671E+02 -0.12260629468E+04  0.12264227450E+04  0.47000000000E+01 0. -1.
         -5    1    1    2    0  502 -0.77564974209E+01 -0.84240643110E+02 -0.23218026496E+03  0.24715666012E+03  0.47000000000E+01 0.  1.
        -11    1    1    2    0    0  0.24040494177E+02  0.33514289625E+02 -0.11306513259E+03  0.12035313530E+03  0.00000000000E+00 0. -1.
         11    1    1    2    0    0 -0.24833468902E+02  0.22668975814E+02  0.63935874844E+00  0.33630230772E+02  0.00000000000E+00 0.  1.
<mgrwt>
<rscale>  0 0.17796953E+03</rscale>
<asrwt>0</asrwt>
<pdfrwt beam="2">  1        2 0.24601777E+00 0.21204480E+03</pdfrwt>
<pdfrwt beam="1">  1       -2 0.43764461E-02 0.21204480E+03</pdfrwt>
<totfact> 0.28958409E+03</totfact>
</mgrwt>
</event>
<event>
 7    1  0.6008063E-006  0.1325086E+03  0.7546771E-02  0.1236857E+00
         -2   -1    0    0    0  501 -0.00000000000E+00  0.00000000000E+00  0.15275442161E+02  0.15275442161E+02  0.00000000000E+00 0.  1.
          2   -1    0    0  501    0  0.00000000000E+00 -0.00000000000E+00 -0.94203479247E+03  0.94203479247E+03  0.00000000000E+00 0. -1.
         23    2    1    2    0    0  0.10548871906E+02  0.42648162338E+02 -0.62989258028E+03  0.64367940839E+03  0.12501349383E+03 0.  0.
          5    1    3    3  502    0 -0.24848329349E+02 -0.20471208788E+01 -0.51211640409E+03  0.51274450901E+03  0.47000000000E+01 0. -1.
         -5    1    3    3    0  502  0.35397201255E+02  0.44695283217E+02 -0.11777617619E+03  0.13093489938E+03  0.47000000000E+01 0. -1.
        -11    1    1    2    0    0 -0.16231728261E+02  0.24722279011E+02 -0.54460977217E+02  0.61973043505E+02  0.00000000000E+00 0.  1.
         11    1    1    2    0    0  0.56828563546E+01 -0.67370441349E+02 -0.24240579281E+03  0.25165778274E+03  0.00000000000E+00 0. -1.
<mgrwt>
<rscale>  0 0.12386278E+03</rscale>
<asrwt>0</asrwt>
<pdfrwt beam="2">  1        2 0.14492843E+00 0.13250856E+03</pdfrwt>
<pdfrwt beam="1">  1       -2 0.23500680E-02 0.13250856E+03</pdfrwt>
<totfact> 0.16578354E+04</totfact>
</mgrwt>
</event>
<event>
 7    1  0.6008063E-006  0.1309892E+03  0.7546771E-02  0.1239572E+00
          2   -1    0    0  501    0  0.00000000000E+00  0.00000000000E+00  0.56863927606E+03  0.56863927606E+03  0.00000000000E+00 0. -1.
         -2   -1    0    0    0  501 -0.00000000000E+00 -0.00000000000E+00 -0.23337776754E+02  0.23337776754E+02  0.00000000000E+00 0.  1.
         23    2    1    2    0    0 -0.22031014050E+01 -0.39094732004E+02  0.32566116999E+03  0.35101760715E+03  0.12499964464E+03 0.  0.
          5    1    3    3  502    0  0.40480515581E+01 -0.16963033655E+02 -0.56123821098E+01  0.18913488973E+02  0.47000000000E+01 0.  1.
         -5    1    3    3    0  502 -0.62511529631E+01 -0.22131698350E+02  0.33127355210E+03  0.33210411817E+03  0.47000000000E+01 0.  1.
        -11    1    1    2    0    0  0.18759741640E+02  0.56235707603E+02  0.81508936443E+02  0.10078734760E+03  0.00000000000E+00 0.  1.
         11    1    1    2    0    0 -0.16556640235E+02 -0.17140975598E+02  0.13813139287E+03  0.14017209807E+03  0.00000000000E+00 0. -1.
<mgrwt>
<rscale>  0 0.12216257E+03</rscale>
<asrwt>0</asrwt>
<pdfrwt beam="1">  1        2 0.87482956E-01 0.13098917E+03</pdfrwt>
<pdfrwt beam="2">  1       -2 0.35904276E-02 0.13098917E+03</pdfrwt>
<totfact> 0.16392082E+04</totfact>
</mgrwt>
</event>
<event>
 7    1  0.6008063E-006  0.1403073E+03  0.7546771E-02  0.1224079E+00
         -3   -1    0    0    0  501 -0.00000000000E+00  0.00000000000E+00  0.56447303013E+02  0.56447303013E+02  0.00000000000E+00 0.  1.
          3   -1    0    0  501    0  0.00000000000E+00 -0.00000000000E+00 -0.32223232616E+03  0.32223232616E+03  0.00000000000E+00 0. -1.
         23    2    1    2    0    0 -0.55611476385E+02 -0.30150127329E+02 -0.21488341345E+03  0.25663403269E+03  0.12523768951E+03 0.  0.
          5    1    3    3  502    0 -0.50344227264E+02 -0.17819748752E+02 -0.22983699737E+03  0.23600682199E+03  0.47000000000E+01 0. -1.
         -5    1    3    3    0  502 -0.52672491208E+01 -0.12330378577E+02  0.14953583921E+02  0.20627210700E+02  0.47000000000E+01 0. -1.
        -11    1    1    2    0    0  0.63265558347E+02  0.54590957780E+02 -0.29330865756E+02  0.88560731875E+02  0.00000000000E+00 0.  1.
         11    1    1    2    0    0 -0.76540819623E+01 -0.24440830450E+02 -0.21570743942E+02  0.33484864611E+02  0.00000000000E+00 0. -1.
<mgrwt>
<rscale>  0 0.13230210E+03</rscale>
<asrwt>0</asrwt>
<pdfrwt beam="2">  1        3 0.49574205E-01 0.14030732E+03</pdfrwt>
<pdfrwt beam="1">  1       -3 0.86842003E-02 0.14030732E+03</pdfrwt>
<totfact> 0.87964303E+02</totfact>
</mgrwt>
</event>
<event>
 7    1  0.6008063E-006  0.3945475E+03  0.7546771E-02  0.1046518E+00
          2   -1    0    0  501    0  0.00000000000E+00  0.00000000000E+00  0.83992190497E+03  0.83992190497E+03  0.00000000000E+00 0. -1.
         -2   -1    0    0    0  501 -0.00000000000E+00 -0.00000000000E+00 -0.18130324348E+03  0.18130324348E+03  0.00000000000E+00 0.  1.
         23    2    1    2    0    0 -0.35028054672E+03 -0.13169389415E+03  0.31145502104E+03  0.50266487119E+03  0.12501199715E+03 0.  0.
          5    1    3    3  502    0 -0.19333546765E+03 -0.14714323060E+02  0.19407013680E+03  0.27437277990E+03  0.47000000000E+01 0. -1.
         -5    1    3    3    0  502 -0.15694507908E+03 -0.11697957109E+03  0.11738488424E+03  0.22829209129E+03  0.47000000000E+01 0. -1.
        -11    1    1    2    0    0  0.10881046757E+03  0.77715545163E+02  0.87005414234E+02  0.15952857399E+03  0.00000000000E+00 0.  1.
         11    1    1    2    0    0  0.24147007916E+03  0.53978348990E+02  0.26015822622E+03  0.35903170328E+03  0.00000000000E+00 0. -1.
<mgrwt>
<rscale>  0 0.39219062E+03</rscale>
<asrwt>0</asrwt>
<pdfrwt beam="1">  1        2 0.12921875E+00 0.39454752E+03</pdfrwt>
<pdfrwt beam="2">  1       -2 0.27892807E-01 0.39454752E+03</pdfrwt>
<totfact> 0.38782635E+02</totfact>
</mgrwt>
</event>
<event>
 7    1  0.6008063E-006  0.1325601E+03  0.7546771E-02  0.1235404E+00
          2   -1    0    0  501    0  0.00000000000E+00  0.00000000000E+00  0.18430795361E+03  0.18430795361E+03  0.00000000000E+00 0. -1.
         -2   -1    0    0    0  501 -0.00000000000E+00 -0.00000000000E+00 -0.83986788059E+02  0.83986788059E+02  0.00000000000E+00 0.  1.
         23    2    1    2    0    0  0.37464654659E+02 -0.23356139797E+02  0.96798708175E+02  0.16414069735E+03  0.12499227579E+03 0.  0.
          5    1    3    3  502    0 -0.20987438642E+02 -0.44705998431E+02  0.77126995089E+00  0.49616365584E+02  0.47000000000E+01 0. -1.
         -5    1    3    3    0  502  0.58452093301E+02  0.21349858634E+02  0.96027438225E+02  0.11452433177E+03  0.47000000000E+01 0. -1.
        -11    1    1    2    0    0 -0.21671232393E+02 -0.36227918779E+02 -0.20232738662E+01  0.42263436321E+02  0.00000000000E+00 0.  1.
         11    1    1    2    0    0 -0.15793422266E+02  0.59584058576E+02  0.55457312428E+01  0.61890607998E+02  0.00000000000E+00 0. -1.
<mgrwt>
<rscale>  0 0.12478619E+03</rscale>
<asrwt>0</asrwt>
<pdfrwt beam="1">  1        2 0.28355070E-01 0.13256009E+03</pdfrwt>
<pdfrwt beam="2">  1       -2 0.12921044E-01 0.13256009E+03</pdfrwt>
<totfact> 0.77367110E+03</totfact>
</mgrwt>
</event>
<event>
 6    1  0.6008063E-006  0.1890792E+03  0.7546771E-02  0.1186108E+00
          3   -1    0    0  501    0  0.00000000000E+00  0.00000000000E+00  0.26576747554E+02  0.26576747554E+02  0.00000000000E+00 0. -1.
         -3   -1    0    0    0  501 -0.00000000000E+00 -0.00000000000E+00 -0.80228179666E+03  0.80228179666E+03  0.00000000000E+00 0.  1.
          5    1    1    2  502    0 -0.16518060830E+02 -0.26805839721E+02 -0.28163146923E+01  0.31959677802E+02  0.47000000000E+01 0. -1.
         -5    1    1    2    0  502  0.63228229370E+02  0.17884894157E+02 -0.51693508939E+03  0.52111577895E+03  0.47000000000E+01 0.  1.
        -11    1    1    2    0    0  0.14086063407E+02 -0.25213470190E+02 -0.43791083156E+02  0.52457556418E+02  0.00000000000E+00 0. -1.
         11    1    1    2    0    0 -0.60796231947E+02  0.34134415754E+02 -0.21216256186E+03  0.22332553104E+03  0.00000000000E+00 0.  1.
<mgrwt>
<rscale>  0 0.16231501E+03</rscale>
<asrwt>0</asrwt>
<pdfrwt beam="1">  1        3 0.40887303E-02 0.18907919E+03</pdfrwt>
<pdfrwt beam="2">  1       -3 0.12342797E+00 0.18907919E+03</pdfrwt>
<totfact> 0.42091937E+02</totfact>
</mgrwt>
</event>
<event>
 7    1  0.6008063E-006  0.1747084E+03  0.7546771E-02  0.1180253E+00
          3   -1    0    0  501    0  0.00000000000E+00  0.00000000000E+00  0.46318490159E+03  0.46318490159E+03  0.00000000000E+00 0. -1.
         -3   -1    0    0    0  501 -0.00000000000E+00 -0.00000000000E+00 -0.62721586230E+02  0.62721586230E+02  0.00000000000E+00 0.  1.
         23    2    1    2    0    0  0.10434374335E+03  0.63325350620E+02  0.29854619808E+03  0.34590875721E+03  0.12500127645E+03 0.  0.
          5    1    3    3  502    0  0.73427226690E+02  0.71355148015E+02  0.94781507845E+02  0.13960207376E+03  0.47000000000E+01 0. -1.
         -5    1    3    3    0  502  0.30916516663E+02 -0.80297973957E+01  0.20376469024E+03  0.20630668345E+03  0.47000000000E+01 0. -1.
        -11    1    1    2    0    0 -0.85016042756E+02 -0.56146902751E+02  0.31526199301E+02  0.10664944190E+03  0.00000000000E+00 0.  1.
         11    1    1    2    0    0 -0.19327700597E+02 -0.71784478686E+01  0.70390917974E+02  0.73348288715E+02  0.00000000000E+00 0. -1.
<mgrwt>
<rscale>  0 0.16771351E+03</rscale>
<asrwt>0</asrwt>
<pdfrwt beam="1">  1        3 0.71259213E-01 0.17470843E+03</pdfrwt>
<pdfrwt beam="2">  1       -3 0.96494751E-02 0.17470843E+03</pdfrwt>
<totfact> 0.36073788E+02</totfact>
</mgrwt>
</event>
<event>
 7    1  0.6008063E-006  0.1218856E+03  0.7546771E-02  0.1248984E+00
          1   -1    0    0  501    0  0.00000000000E+00  0.00000000000E+00  0.42163744824E+03  0.42163744824E+03  0.00000000000E+00 0. -1.
         -1   -1    0    0    0  501 -0.00000000000E+00 -0.00000000000E+00 -0.31891538049E+02  0.31891538049E+02  0.00000000000E+00 0.  1.
         23    2    1    2    0    0 -0.14428425971E+02 -0.45591670859E+02  0.27110438311E+03  0.29724348240E+03  0.11211298480E+03 0.  0.
          5    1    3    3  502    0  0.10855653107E+02  0.22268431063E+02  0.17505314789E+03  0.17685989600E+03  0.47000000000E+01 0. -1.
         -5    1    3    3    0  502 -0.25284079078E+02 -0.67860101922E+02  0.96051235217E+02  0.12038358640E+03  0.47000000000E+01 0.  1.
        -11    1    1    2    0    0 -0.29704322658E+02  0.25037265341E+02  0.94018287058E+02  0.10172831337E+03  0.00000000000E+00 0.  1.
         11    1    1    2    0    0  0.44132748629E+02  0.20554405518E+02  0.24623240023E+02  0.54557190516E+02  0.00000000000E+00 0. -1.
<mgrwt>
<rscale>  0 0.11650067E+03</rscale>
<asrwt>0</asrwt>
<pdfrwt beam="1">  1        1 0.64867296E-01 0.12188561E+03</pdfrwt>
<pdfrwt beam="2">  1       -1 0.49063908E-02 0.12188561E+03</pdfrwt>
<totfact> 0.96592476E+03</totfact>
</mgrwt>
</event>
<event>
 7    1  0.6008063E-006  0.1866866E+03  0.7546771E-02  0.1166719E+00
         -2   -1    0    0    0  501 -0.00000000000E+00  0.00000000000E+00  0.20950483688E+03  0.20950483688E+03  0.00000000000E+00 0.  1.
          2   -1    0    0  501    0  0.00000000000E+00 -0.00000000000E+00 -0.15083456329E+03  0.15083456329E+03  0.00000000000E+00 0. -1.
         23    2    1    2    0    0 -0.51604393008E+02  0.12870117197E+03  0.61484178692E+01  0.18678786190E+03  0.12499958907E+03 0.  0.
          5    1    3    3  502    0 -0.73974969931E+01  0.11317831717E+03  0.48511178017E+02  0.12344828404E+03  0.47000000000E+01 0. -1.
         -5    1    3    3    0  502 -0.44206896014E+02  0.15522854794E+02 -0.42362760148E+02  0.63339577860E+02  0.47000000000E+01 0. -1.
        -11    1    1    2    0    0  0.14782541742E+02 -0.30402851414E+02 -0.25847058027E+02  0.42554991754E+02  0.00000000000E+00 0. -1.
         11    1    1    2    0    0  0.36821851265E+02 -0.98298320554E+02  0.78368913748E+02  0.13099654651E+03  0.00000000000E+00 0.  1.
<mgrwt>
<rscale>  0 0.18112467E+03</rscale>
<asrwt>0</asrwt>
<pdfrwt beam="2">  1        2 0.23205317E-01 0.18668664E+03</pdfrwt>
<pdfrwt beam="1">  1       -2 0.32231513E-01 0.18668664E+03</pdfrwt>
<totfact> 0.20643446E+03</totfact>
</mgrwt>
</event>
<event>
 7    1  0.6008063E-006  0.1259197E+03  0.7546771E-02  0.1248999E+00
         -2   -1    0    0    0  501 -0.00000000000E+00  0.00000000000E+00  0.16724979987E+03  0.16724979987E+03  0.00000000000E+00 0.  1.
          2   -1    0    0  501    0  0.00000000000E+00 -0.00000000000E+00 -0.82725141957E+02  0.82725141957E+02  0.00000000000E+00 0. -1.
         23    2    1    2    0    0  0.13828334878E+02 -0.64733862779E+01  0.15814292222E+01  0.12592959777E+03  0.12499054005E+03 0.  0.
          5    1    3    3  502    0 -0.23599734424E+02 -0.47292993024E+02  0.32602415902E+02  0.62278264079E+02  0.47000000000E+01 0. -1.
         -5    1    3    3    0  502  0.37428069302E+02  0.40819606746E+02 -0.31020986680E+02  0.63651333695E+02  0.47000000000E+01 0. -1.
        -11    1    1    2    0    0 -0.42570911460E+02  0.61866001033E+01  0.79690727604E+01  0.43750001646E+02  0.00000000000E+00 0. -1.
         11    1    1    2    0    0  0.28742576582E+02  0.28678617461E+00  0.74974155931E+02  0.80295342408E+02  0.00000000000E+00 0.  1.
<mgrwt>
<rscale>  0 0.11649211E+03</rscale>
<asrwt>0</asrwt>
<pdfrwt beam="2">  1        2 0.12726945E-01 0.12591967E+03</pdfrwt>
<pdfrwt beam="1">  1       -2 0.25730738E-01 0.12591967E+03</pdfrwt>
<totfact> 0.60539872E+03</totfact>
</mgrwt>
</event>
<event>
 6    1  0.6008063E-006  0.2537054E+03  0.7546771E-02  0.1152523E+00
         -2   -1    0    0    0  501 -0.00000000000E+00  0.00000000000E+00  0.62086926495E+02  0.62086926495E+02  0.00000000000E+00 0.  1.
          2   -1    0    0  501    0  0.00000000000E+00 -0.00000000000E+00 -0.50591041812E+03  0.50591041812E+03  0.00000000000E+00 0. -1.
          5    1    1    2  502    0 -0.85879154234E+02 -0.16578396048E+02 -0.33940682293E+03  0.35052696586E+03  0.47000000000E+01 0. -1.
         -5    1    1    2    0  502  0.94383562615E+02  0.21999812319E+02 -0.37946477243E+02  0.10418384601E+03  0.47000000000E+01 0.  1.
        -11    1    1    2    0    0  0.41226214505E+02  0.28377925456E+01 -0.30170880224E+02  0.51165768268E+02  0.00000000000E+00 0. -1.
         11    1    1    2    0    0 -0.49730622887E+02 -0.82592088163E+01 -0.36299311227E+02  0.62120764472E+02  0.00000000000E+00 0.  1.
<mgrwt>
<rscale>  0 0.19673542E+03</rscale>
<asrwt>0</asrwt>
<pdfrwt beam="2">  1        2 0.77832374E-01 0.25370536E+03</pdfrwt>
<pdfrwt beam="1">  1       -2 0.95518346E-02 0.25370536E+03</pdfrwt>
<totfact> 0.43548105E+03</totfact>
</mgrwt>
</event>
<event>
 7    1  0.6008063E-006  0.1259603E+03  0.7546771E-02  0.1252344E+00
          1   -1    0    0  501    0  0.00000000000E+00  0.00000000000E+00  0.71748073856E+02  0.71748073856E+02  0.00000000000E+00 0. -1.
         -1   -1    0    0    0  501 -0.00000000000E+00 -0.00000000000E+00 -0.15713288337E+03  0.15713288337E+03  0.00000000000E+00 0.  1.
         23    2    1    2    0    0 -0.10847313834E+02 -0.11130827844E+02 -0.55574042884E+02  0.13767521802E+03  0.12499772745E+03 0.  0.
          5    1    3    3  502    0 -0.32296798920E+01  0.48908231025E+02 -0.59034593824E+02  0.76874047390E+02  0.47000000000E+01 0.  1.
         -5    1    3    3    0  502 -0.76176339424E+01 -0.60039058869E+02  0.34605509403E+01  0.60801170626E+02  0.47000000000E+01 0.  1.
        -11    1    1    2    0    0  0.47095224951E+01 -0.18250494830E+02  0.23440030441E+02  0.30078151385E+02  0.00000000000E+00 0. -1.
         11    1    1    2    0    0  0.61377913392E+01  0.29381322674E+02 -0.53250797073E+02  0.61127587827E+02  0.00000000000E+00 0.  1.
<mgrwt>
<rscale>  0 0.11456379E+03</rscale>
<asrwt>0</asrwt>
<pdfrwt beam="1">  1        1 0.11038165E-01 0.12596028E+03</pdfrwt>
<pdfrwt beam="2">  1       -1 0.24174289E-01 0.12596028E+03</pdfrwt>
<totfact> 0.77661638E+03</totfact>
</mgrwt>
</event>
<event>
 7    1  0.6008063E-006  0.1321556E+03  0.7546771E-02  0.1237503E+00
          1   -1    0    0  501    0  0.00000000000E+00  0.00000000000E+00  0.45372964823E+03  0.45372964823E+03  0.00000000000E+00 0. -1.
         -1   -1    0    0    0  501 -0.00000000000E+00 -0.00000000000E+00 -0.30863930916E+02  0.30863930916E+02  0.00000000000E+00 0.  1.
         23    2    1    2    0    0 -0.29419023565E+02 -0.31128328087E+02  0.28240621834E+03  0.31179859951E+03  0.12502256894E+03 0.  0.
          5    1    3    3  502    0 -0.64456328413E+02 -0.17292816012E+02  0.73161222768E+02  0.99137854904E+02  0.47000000000E+01 0. -1.
         -5    1    3    3    0  502  0.35037304849E+02 -0.13835512075E+02  0.20924499557E+03  0.21266074461E+03  0.47000000000E+01 0. -1.
        -11    1    1    2    0    0  0.53525780336E+02  0.11667519851E+02  0.12831134154E+03  0.13951681099E+03  0.00000000000E+00 0. -1.
         11    1    1    2    0    0 -0.24106756772E+02  0.19460808236E+02  0.12148157430E+02  0.33278168642E+02  0.00000000000E+00 0.  1.
<mgrwt>
<rscale>  0 0.12345571E+03</rscale>
<asrwt>0</asrwt>
<pdfrwt beam="1">  1        1 0.69804557E-01 0.13215557E+03</pdfrwt>
<pdfrwt beam="2">  1       -1 0.47482974E-02 0.13215557E+03</pdfrwt>
<totfact> 0.92887181E+03</totfact>
</mgrwt>
</event>
<event>
 7    1  0.6008063E-006  0.1276183E+03  0.7546771E-02  0.1246143E+00
         -2   -1    0    0    0  501 -0.00000000000E+00  0.00000000000E+00  0.12439603897E+02  0.12439603897E+02  0.00000000000E+00 0.  1.
          2   -1    0    0  501    0  0.00000000000E+00 -0.00000000000E+00 -0.99321154959E+03  0.99321154959E+03  0.00000000000E+00 0. -1.
         23    2    1    2    0    0 -0.24745055156E+02 -0.70409084901E+01 -0.60836724160E+03  0.62160849696E+03  0.12499812275E+03 0.  0.
          5    1    3    3  502    0 -0.71210991845E+02  0.18630638729E+02 -0.32385628187E+03  0.33214919444E+03  0.47000000000E+01 0.  1.
         -5    1    3    3    0  502  0.46465936689E+02 -0.25671547219E+02 -0.28451095973E+03  0.28945930252E+03  0.47000000000E+01 0.  1.
        -11    1    1    2    0    0  0.54543036700E+02 -0.11480963059E+02 -0.17886391992E+03  0.18734742383E+03  0.00000000000E+00 0.  1.
         11    1    1    2    0    0 -0.29797981544E+02  0.18521871549E+02 -0.19354078416E+03  0.19669523269E+03  0.00000000000E+00 0. -1.
<mgrwt>
<rscale>  0 0.11817253E+03</rscale>
<asrwt>0</asrwt>
<pdfrwt beam="2">  1        2 0.15280177E+00 0.12761827E+03</pdfrwt>
<pdfrwt beam="1">  1       -2 0.19137854E-02 0.12761827E+03</pdfrwt>
<totfact> 0.20743244E+04</totfact>
</mgrwt>
</event>
<event>
 7    1  0.6008063E-006  0.1330516E+03  0.7546771E-02  0.1237386E+00
         -1   -1    0    0    0  501 -0.00000000000E+00  0.00000000000E+00  0.39944169389E+02  0.39944169389E+02  0.00000000000E+00 0.  1.
          1   -1    0    0  501    0  0.00000000000E+00 -0.00000000000E+00 -0.41476197269E+03  0.41476197269E+03  0.00000000000E+00 0. -1.
         23    2    1    2    0    0  0.71101647108E+01 -0.44859792772E+02 -0.30764699667E+03  0.33518562107E+03  0.12505906829E+03 0.  0.
          5    1    3    3  502    0 -0.33111070928E+02  0.30043661544E+02 -0.74949216047E+02  0.87398167046E+02  0.47000000000E+01 0.  1.
         -5    1    3    3    0  502  0.40221235639E+02 -0.74903454316E+02 -0.23269778063E+03  0.24778745403E+03  0.47000000000E+01 0.  1.
        -11    1    1    2    0    0  0.11985626329E+01 -0.26027206438E+02 -0.27421999119E+02  0.37826155805E+02  0.00000000000E+00 0.  1.
         11    1    1    2    0    0 -0.83087273437E+01  0.70886999210E+02 -0.39748807511E+02  0.81694365201E+02  0.00000000000E+00 0. -1.
<mgrwt>
<rscale>  0 0.12352927E+03</rscale>
<asrwt>0</asrwt>
<pdfrwt beam="2">  1        1 0.63809534E-01 0.13305159E+03</pdfrwt>
<pdfrwt beam="1">  1       -1 0.61452569E-02 0.13305159E+03</pdfrwt>
<totfact> 0.71075673E+03</totfact>
</mgrwt>
</event>
<event>
 7    1  0.6008063E-006  0.1768235E+03  0.7546771E-02  0.1179536E+00
         -2   -1    0    0    0  501 -0.00000000000E+00  0.00000000000E+00  0.10756183852E+03  0.10756183852E+03  0.00000000000E+00 0.  1.
          2   -1    0    0  501    0  0.00000000000E+00 -0.00000000000E+00 -0.26830261133E+03  0.26830261133E+03  0.00000000000E+00 0. -1.
         23    2    1    2    0    0 -0.10241037794E+03  0.71786199246E+02 -0.14670564855E+03  0.22975877256E+03  0.12500160936E+03 0.  0.
          5    1    3    3  502    0 -0.10646441942E+03  0.29858966858E+02 -0.15093708952E+03  0.18716390009E+03  0.47000000000E+01 0.  1.
         -5    1    3    3    0  502  0.40540414822E+01  0.41927232388E+02  0.42314409726E+01  0.42594872470E+02  0.47000000000E+01 0.  1.
        -11    1    1    2    0    0  0.36303286598E+02 -0.69381679790E+02 -0.16010082320E+02  0.79925395490E+02  0.00000000000E+00 0.  1.
         11    1    1    2    0    0  0.66107091341E+02 -0.24045194557E+01  0.19749580648E+01  0.66180281797E+02  0.00000000000E+00 0. -1.
<mgrwt>
<rscale>  0 0.16839084E+03</rscale>
<asrwt>0</asrwt>
<pdfrwt beam="2">  1        2 0.41277325E-01 0.17682349E+03</pdfrwt>
<pdfrwt beam="1">  1       -2 0.16547975E-01 0.17682349E+03</pdfrwt>
<totfact> 0.35037440E+03</totfact>
</mgrwt>
</event>
<event>
 7    1  0.6008063E-006  0.1852782E+03  0.7546771E-02  0.1167565E+00
         -2   -1    0    0    0  501 -0.00000000000E+00  0.00000000000E+00  0.44308852624E+02  0.44308852624E+02  0.00000000000E+00 0.  1.
          2   -1    0    0  501    0  0.00000000000E+00 -0.00000000000E+00 -0.76439173281E+03  0.76439173281E+03  0.00000000000E+00 0. -1.
         23    2    1    2    0    0 -0.84892740125E+01 -0.13649320968E+03 -0.49882127196E+03  0.53211905412E+03  0.12500224931E+03 0.  0.
          5    1    3    3  502    0 -0.37613191578E+02  0.23744217604E+01 -0.16590413864E+03  0.17019595553E+03  0.47000000000E+01 0.  1.
         -5    1    3    3    0  502  0.29123917566E+02 -0.13886763144E+03 -0.33291713332E+03  0.36192309859E+03  0.47000000000E+01 0.  1.
        -11    1    1    2    0    0  0.40126509066E+02  0.28983766482E+02 -0.40768600046E+02  0.64127016140E+02  0.00000000000E+00 0. -1.
         11    1    1    2    0    0 -0.31637235054E+02  0.10750944319E+03 -0.18049300818E+03  0.21245451518E+03  0.00000000000E+00 0.  1.
<mgrwt>
<rscale>  0 0.18024577E+03</rscale>
<asrwt>0</asrwt>
<pdfrwt beam="2">  1        2 0.11759873E+00 0.18527824E+03</pdfrwt>
<pdfrwt beam="1">  1       -2 0.68167465E-02 0.18527824E+03</pdfrwt>
<totfact> 0.44952244E+03</totfact>
</mgrwt>
</event>
<event>
 6    1  0.6008063E-006  0.1327911E+04  0.7546771E-02  0.9730658E-01
          2   -1    0    0  501    0  0.00000000000E+00  0.00000000000E+00  0.18765981464E+04  0.18765981464E+04  0.00000000000E+00 0. -1.
         -2   -1    0    0    0  501 -0.00000000000E+00 -0.00000000000E+00 -0.28243087175E+03  0.28243087175E+03  0.00000000000E+00 0.  1.
          5    1    1    2  502    0  0.10616155103E+03  0.79877042337E+02  0.17969120912E+04  0.18018229021E+04  0.47000000000E+01 0. -1.
         -5    1    1    2    0  502 -0.80837398355E+02 -0.97302431573E+02 -0.22361881067E+03  0.25696285850E+03  0.47000000000E+01 0.  1.
        -11    1    1    2    0    0 -0.42632739936E+02 -0.12208236175E+02  0.41053654700E+02  0.60431730980E+02  0.00000000000E+00 0.  1.
         11    1    1    2    0    0  0.17308587264E+02  0.29633625411E+02 -0.20179660602E+02  0.39811526599E+02  0.00000000000E+00 0. -1.
<mgrwt>
<rscale>  0 0.69220378E+03</rscale>
<asrwt>0</asrwt>
<pdfrwt beam="1">  1        2 0.28870740E+00 0.13279108E+04</pdfrwt>
<pdfrwt beam="2">  1       -2 0.43450905E-01 0.13279108E+04</pdfrwt>
<totfact> 0.38409254E+01</totfact>
</mgrwt>
</event>
<event>
 7    1  0.6008063E-006  0.1456939E+03  0.7546771E-02  0.1215788E+00
         -1   -1    0    0    0  501 -0.00000000000E+00  0.00000000000E+00  0.72154255586E+02  0.72154255586E+02  0.00000000000E+00 0.  1.
          1   -1    0    0  501    0  0.00000000000E+00 -0.00000000000E+00 -0.26818140029E+03  0.26818140029E+03  0.00000000000E+00 0. -1.
         23    2    1    2    0    0 -0.46644370095E+02 -0.58533175362E+02 -0.16142605835E+03  0.21745130892E+03  0.12499947823E+03 0.  0.
          5    1    3    3  502    0  0.30910996216E+02  0.75898402333E+01 -0.79231737515E+01  0.33135510319E+02  0.47000000000E+01 0.  1.
         -5    1    3    3    0  502 -0.77555366311E+02 -0.66123015595E+02 -0.15350288460E+03  0.18431579860E+03  0.47000000000E+01 0.  1.
        -11    1    1    2    0    0  0.25888147951E+02 -0.19354188562E+02  0.56087589120E+01  0.32806081688E+02  0.00000000000E+00 0.  1.
         11    1    1    2    0    0  0.20756222144E+02  0.77887363924E+02 -0.40209845267E+02  0.90078265264E+02  0.00000000000E+00 0. -1.
<mgrwt>
<rscale>  0 0.13818814E+03</rscale>
<asrwt>0</asrwt>
<pdfrwt beam="2">  1        1 0.41258677E-01 0.14569386E+03</pdfrwt>
<pdfrwt beam="1">  1       -1 0.11100655E-01 0.14569386E+03</pdfrwt>
<totfact> 0.50316806E+03</totfact>
</mgrwt>
</event>
<event>
 7    1  0.6008063E-006  0.1739449E+03  0.7546771E-02  0.1180656E+00
          2   -1    0    0  501    0  0.00000000000E+00  0.00000000000E+00  0.15561720478E+04  0.15561720478E+04  0.00000000000E+00 0. -1.
         -2   -1    0    0    0  501 -0.00000000000E+00 -0.00000000000E+00 -0.17198656474E+02  0.17198656474E+02  0.00000000000E+00 0.  1.
         23    2    1    2    0    0  0.11819813633E+03 -0.25848876694E+02  0.95386275764E+03  0.96959320538E+03  0.12497143531E+03 0.  0.
          5    1    3    3  502    0 -0.46528556675E+00 -0.19589759153E+02  0.50010205117E+03  0.50050786881E+03  0.47000000000E+01 0. -1.
         -5    1    3    3    0  502  0.11866342190E+03 -0.62591175408E+01  0.45376070647E+03  0.46908533657E+03  0.47000000000E+01 0. -1.
        -11    1    1    2    0    0 -0.29699205758E+02  0.48649960913E+02  0.25128408523E+03  0.25766752417E+03  0.00000000000E+00 0.  1.
         11    1    1    2    0    0 -0.88498930572E+02 -0.22801084219E+02  0.33382654845E+03  0.34610997473E+03  0.00000000000E+00 0. -1.
<mgrwt>
<rscale>  0 0.16733443E+03</rscale>
<asrwt>0</asrwt>
<pdfrwt beam="1">  1        2 0.23941097E+00 0.17394489E+03</pdfrwt>
<pdfrwt beam="2">  1       -2 0.26459484E-02 0.17394489E+03</pdfrwt>
<totfact> 0.64363154E+03</totfact>
</mgrwt>
</event>
<event>
 7    1  0.6008063E-006  0.1499166E+03  0.7546771E-02  0.1206210E+00
         -1   -1    0    0    0  501 -0.00000000000E+00  0.00000000000E+00  0.23868127239E+03  0.23868127239E+03  0.00000000000E+00 0.  1.
          1   -1    0    0  501    0  0.00000000000E+00 -0.00000000000E+00 -0.16361042746E+03  0.16361042746E+03  0.00000000000E+00 0. -1.
         23    2    1    2    0    0 -0.82765058191E+02  0.65539308160E+00 -0.10175294649E+03  0.18118674431E+03  0.12499795917E+03 0.  0.
          5    1    3    3  502    0 -0.46931430550E+02  0.58929916822E+02 -0.78192529259E+02  0.10868052218E+03  0.47000000000E+01 0.  1.
         -5    1    3    3    0  502 -0.35833627641E+02 -0.58274523740E+02 -0.23560417235E+02  0.72506222129E+02  0.47000000000E+01 0.  1.
        -11    1    1    2    0    0  0.76557170054E+01 -0.43326836053E+02  0.80353353531E+02  0.91610513310E+02  0.00000000000E+00 0. -1.
         11    1    1    2    0    0  0.75109341185E+02  0.42671442972E+02  0.96470437899E+02  0.12949444222E+03  0.00000000000E+00 0.  1.
<mgrwt>
<rscale>  0 0.14542539E+03</rscale>
<asrwt>0</asrwt>
<pdfrwt beam="2">  1        1 0.25170835E-01 0.14991656E+03</pdfrwt>
<pdfrwt beam="1">  1       -1 0.36720196E-01 0.14991656E+03</pdfrwt>
<totfact> 0.13445279E+03</totfact>
</mgrwt>
</event>
<event>
 7    1  0.6008063E-006  0.2379394E+03  0.7546771E-02  0.1123945E+00
          2   -1    0    0  501    0  0.00000000000E+00  0.00000000000E+00  0.47993313854E+03  0.47993313854E+03  0.00000000000E+00 0. -1.
         -2   -1    0    0    0  501 -0.00000000000E+00 -0.00000000000E+00 -0.11027344921E+03  0.11027344921E+03  0.00000000000E+00 0.  1.
         23    2    1    2    0    0 -0.18687266130E+03 -0.77903656667E+02  0.19698264224E+03  0.30889694374E+03  0.12499915698E+03 0.  0.
          5    1    3    3  502    0 -0.16074706110E+03 -0.25114914608E+02  0.88257780511E+02  0.18515372643E+03  0.47000000000E+01 0. -1.
         -5    1    3    3    0  502 -0.26125600194E+02 -0.52788742059E+02  0.10872486172E+03  0.12374321731E+03  0.47000000000E+01 0. -1.
        -11    1    1    2    0    0  0.11639427544E+03  0.12176030932E+02  0.13281816767E+03  0.17702132286E+03  0.00000000000E+00 0. -1.
         11    1    1    2    0    0  0.70478385863E+02  0.65727625735E+02  0.39858879429E+02  0.10428832115E+03  0.00000000000E+00 0.  1.
<mgrwt>
<rscale>  0 0.23387036E+03</rscale>
<asrwt>0</asrwt>
<pdfrwt beam="1">  1        2 0.73835867E-01 0.23793941E+03</pdfrwt>
<pdfrwt beam="2">  1       -2 0.16965146E-01 0.23793941E+03</pdfrwt>
<totfact> 0.18084882E+03</totfact>
</mgrwt>
</event>
<event>
 7    1  0.6008063E-006  0.1371166E+03  0.7546771E-02  0.1229825E+00
         -1   -1    0    0    0  501 -0.00000000000E+00  0.00000000000E+00  0.10766961591E+03  0.10766961591E+03  0.00000000000E+00 0.  1.
          1   -1    0    0  501    0  0.00000000000E+00 -0.00000000000E+00 -0.15601511012E+03  0.15601511012E+03  0.00000000000E+00 0. -1.
         23    2    1    2    0    0  0.56102933592E+02 -0.53480609891E+01 -0.73021372366E+02  0.15534828648E+03  0.12499931350E+03 0.  0.
          5    1    3    3  502    0  0.42921988585E+02  0.57576760093E+02 -0.30751028723E+02  0.78262993646E+02  0.47000000000E+01 0.  1.
         -5    1    3    3    0  502  0.13180945008E+02 -0.62924821082E+02 -0.42270343643E+02  0.77085292833E+02  0.47000000000E+01 0.  1.
        -11    1    1    2    0    0 -0.30048572754E+02 -0.30596516786E+02 -0.18228865605E+02  0.46597801507E+02  0.00000000000E+00 0. -1.
         11    1    1    2    0    0 -0.26054360838E+02  0.35944577775E+02  0.42904743759E+02  0.61738638041E+02  0.00000000000E+00 0.  1.
<mgrwt>
<rscale>  0 0.12841601E+03</rscale>
<asrwt>0</asrwt>
<pdfrwt beam="2">  1        1 0.24002325E-01 0.13711663E+03</pdfrwt>
<pdfrwt beam="1">  1       -1 0.16564556E-01 0.13711663E+03</pdfrwt>
<totfact> 0.52757588E+03</totfact>
</mgrwt>
</event>
<event>
 7    1  0.1639154E-005  0.2283592E+03  0.7546771E-02  0.1130877E+00
         -1   -1    0    0    0  501 -0.00000000000E+00  0.00000000000E+00  0.40711974304E+02  0.40711974304E+02  0.00000000000E+00 0.  1.
          1   -1    0    0  501    0  0.00000000000E+00 -0.00000000000E+00 -0.15277140080E+04  0.15277140080E+04  0.00000000000E+00 0. -1.
         23    2    1    2    0    0  0.18979721478E+03 -0.22368878421E+02 -0.11342893162E+04  0.11570480437E+04  0.12499829235E+03 0.  0.
          5    1    3    3  502    0  0.18987545394E+03  0.14297947529E+02 -0.90840879966E+03  0.92816257015E+03  0.47000000000E+01 0. -1.
         -5    1    3    3    0  502 -0.78239164607E-01 -0.36666825951E+02 -0.22588051654E+03  0.22888547355E+03  0.47000000000E+01 0. -1.
        -11    1    1    2    0    0 -0.10953769722E+03 -0.31104829922E+02 -0.21439561404E+03  0.24275810363E+03  0.00000000000E+00 0. -1.
         11    1    1    2    0    0 -0.80259517559E+02  0.53473708343E+02 -0.13831710342E+03  0.16861983496E+03  0.00000000000E+00 0.  1.
<mgrwt>
<rscale>  0 0.22408077E+03</rscale>
<asrwt>0</asrwt>
<pdfrwt beam="2">  1        1 0.23503295E+00 0.22835920E+03</pdfrwt>
<pdfrwt beam="1">  1       -1 0.62633799E-02 0.22835920E+03</pdfrwt>
<totfact> 0.86235247E+02</totfact>
</mgrwt>
</event>
<event>
 7    1  0.6008063E-006  0.1805904E+03  0.7546771E-02  0.1172144E+00
         -3   -1    0    0    0  501 -0.00000000000E+00  0.00000000000E+00  0.15988938490E+03  0.15988938490E+03  0.00000000000E+00 0.  1.
          3   -1    0    0  501    0  0.00000000000E+00 -0.00000000000E+00 -0.18301771862E+03  0.18301771862E+03  0.00000000000E+00 0. -1.
         23    2    1    2    0    0  0.12696589134E+03  0.29428135932E+02 -0.17204352976E+02  0.18140804026E+03  0.12500613810E+03 0.  0.
          5    1    3    3  502    0  0.50525905865E+02 -0.21894466478E+01 -0.67506096606E+02  0.84479724899E+02  0.47000000000E+01 0.  1.
         -5    1    3    3    0  502  0.76439985471E+02  0.31617582580E+02  0.50301743630E+02  0.96928315363E+02  0.47000000000E+01 0.  1.
        -11    1    1    2    0    0 -0.14306431161E+02 -0.10828805510E+02 -0.38739326048E+02  0.42692767350E+02  0.00000000000E+00 0. -1.
         11    1    1    2    0    0 -0.11265946017E+03 -0.18599330422E+02  0.32815345305E+02  0.11880629590E+03  0.00000000000E+00 0.  1.
<mgrwt>
<rscale>  0 0.17558620E+03</rscale>
<asrwt>0</asrwt>
<pdfrwt beam="2">  1        3 0.28156572E-01 0.18059039E+03</pdfrwt>
<pdfrwt beam="1">  1       -3 0.24598367E-01 0.18059039E+03</pdfrwt>
<totfact> 0.45063128E+02</totfact>
</mgrwt>
</event>
<event>
 7    1  0.6008063E-006  0.1284582E+03  0.7546771E-02  0.1244879E+00
         -3   -1    0    0    0  501 -0.00000000000E+00  0.00000000000E+00  0.11431307712E+03  0.11431307712E+03  0.00000000000E+00 0.  1.
          3   -1    0    0  501    0  0.00000000000E+00 -0.00000000000E+00 -0.11586637890E+03  0.11586637890E+03  0.00000000000E+00 0. -1.
         23    2    1    2    0    0 -0.14547070286E+02  0.26179115211E+02 -0.29419152732E+02  0.13178388087E+03  0.12491813873E+03 0.  0.
          5    1    3    3  502    0 -0.48391480057E+02 -0.24941949827E+02 -0.42124879478E+02  0.68995881575E+02  0.47000000000E+01 0.  1.
         -5    1    3    3    0  502  0.33844409772E+02  0.51121065038E+02  0.12705726746E+02  0.62787999295E+02  0.47000000000E+01 0.  1.
        -11    1    1    2    0    0  0.35929841033E+02  0.14168022353E+02 -0.90597016364E+01  0.39670701126E+02  0.00000000000E+00 0. -1.
         11    1    1    2    0    0 -0.21382770748E+02 -0.40347137564E+02  0.36925552591E+02  0.58724874019E+02  0.00000000000E+00 0.  1.
<mgrwt>
<rscale>  0 0.11892597E+03</rscale>
<asrwt>0</asrwt>
<pdfrwt beam="2">  1        3 0.17825597E-01 0.12845818E+03</pdfrwt>
<pdfrwt beam="1">  1       -3 0.17586627E-01 0.12845818E+03</pdfrwt>
<totfact> 0.17595318E+03</totfact>
</mgrwt>
</event>
<event>
 7    1  0.6008063E-006  0.1251360E+03  0.7546771E-02  0.1249892E+00
         -2   -1    0    0    0  501 -0.00000000000E+00  0.00000000000E+00  0.27341578519E+02  0.27341578519E+02  0.00000000000E+00 0.  1.
          2   -1    0    0  501    0  0.00000000000E+00 -0.00000000000E+00 -0.47404123017E+03  0.47404123017E+03  0.00000000000E+00 0. -1.
         23    2    1    2    0    0  0.54306345547E+01 -0.23293994561E+01 -0.32765567677E+03  0.35073816861E+03  0.12499640998E+03 0.  0.
          5    1    3    3  502    0 -0.49245726751E+02 -0.34451575898E+02 -0.18440190847E+03  0.19400568685E+03  0.47000000000E+01 0. -1.
         -5    1    3    3    0  502  0.54676361305E+02  0.32122176442E+02 -0.14325376830E+03  0.15673248175E+03  0.47000000000E+01 0. -1.
        -11    1    1    2    0    0  0.30103704595E+02 -0.27484366009E+02 -0.80903975216E+02  0.90592917002E+02  0.00000000000E+00 0. -1.
         11    1    1    2    0    0 -0.35534339149E+02  0.29813765465E+02 -0.38139999664E+02  0.60051723076E+02  0.00000000000E+00 0.  1.
<mgrwt>
<rscale>  0 0.11597292E+03</rscale>
<asrwt>0</asrwt>
<pdfrwt beam="2">  1        2 0.72929426E-01 0.12513601E+03</pdfrwt>
<pdfrwt beam="1">  1       -2 0.42063963E-02 0.12513601E+03</pdfrwt>
<totfact> 0.15784741E+04</totfact>
</mgrwt>
</event>
<event>
 7    1  0.6008063E-006  0.1430651E+03  0.7546771E-02  0.1219645E+00
          1   -1    0    0  501    0  0.00000000000E+00  0.00000000000E+00  0.38956533431E+03  0.38956533431E+03  0.00000000000E+00 0. -1.
         -1   -1    0    0    0  501 -0.00000000000E+00 -0.00000000000E+00 -0.47392226966E+02  0.47392226966E+02  0.00000000000E+00 0.  1.
         23    2    1    2    0    0  0.28986391195E+01 -0.69657829517E+02  0.25652027109E+03  0.29371803625E+03  0.12492805936E+03 0.  0.
          5    1    3    3  502    0 -0.52178001154E+02 -0.29082510312E+02  0.18575675309E+03  0.19518196005E+03  0.47000000000E+01 0.  1.
         -5    1    3    3    0  502  0.55076640274E+02 -0.40575319205E+02  0.70763518004E+02  0.98536076199E+02  0.47000000000E+01 0.  1.
        -11    1    1    2    0    0 -0.70143899633E+01  0.22186099824E+02  0.92246282195E+02  0.95135699244E+02  0.00000000000E+00 0. -1.
         11    1    1    2    0    0  0.41157508438E+01  0.47471729693E+02 -0.65934459478E+01  0.48103825778E+02  0.00000000000E+00 0.  1.
<mgrwt>
<rscale>  0 0.13540807E+03</rscale>
<asrwt>0</asrwt>
<pdfrwt beam="1">  1        1 0.59933126E-01 0.14306514E+03</pdfrwt>
<pdfrwt beam="2">  1       -1 0.72911121E-02 0.14306514E+03</pdfrwt>
<totfact> 0.59814747E+03</totfact>
</mgrwt>
</event>
<event>
 7    1  0.6008063E-006  0.1271342E+03  0.7546771E-02  0.1246555E+00
          1   -1    0    0  501    0  0.00000000000E+00  0.00000000000E+00  0.28088060268E+02  0.28088060268E+02  0.00000000000E+00 0. -1.
         -1   -1    0    0    0  501 -0.00000000000E+00 -0.00000000000E+00 -0.45609277299E+03  0.45609277299E+03  0.00000000000E+00 0.  1.
         23    2    1    2    0    0  0.98421368364E+01  0.21014813599E+02 -0.19387590460E+03  0.23184255128E+03  0.12499844861E+03 0.  0.
          5    1    3    3  502    0 -0.18256464582E+02  0.24426670354E+02  0.46940463774E+01  0.31210331543E+02  0.47000000000E+01 0.  1.
         -5    1    3    3    0  502  0.28098601419E+02 -0.34118567546E+01 -0.19856995098E+03  0.20063221974E+03  0.47000000000E+01 0.  1.
        -11    1    1    2    0    0 -0.46194198069E+02  0.81744480094E+01 -0.10336655872E+03  0.11351374805E+03  0.00000000000E+00 0.  1.
         11    1    1    2    0    0  0.36352061232E+02 -0.29189261609E+02 -0.13076224941E+03  0.13882453392E+03  0.00000000000E+00 0. -1.
<mgrwt>
<rscale>  0 0.11792765E+03</rscale>
<asrwt>0</asrwt>
<pdfrwt beam="1">  1        1 0.43212406E-02 0.12713419E+03</pdfrwt>
<pdfrwt beam="2">  1       -1 0.70168110E-01 0.12713419E+03</pdfrwt>
<totfact> 0.41522297E+03</totfact>
</mgrwt>
</event>
<event>
 7    1  0.6008063E-006  0.1415887E+03  0.7546771E-02  0.1223359E+00
         -2   -1    0    0    0  501 -0.00000000000E+00  0.00000000000E+00  0.10003354334E+02  0.10003354334E+02  0.00000000000E+00 0.  1.
          2   -1    0    0  501    0  0.00000000000E+00 -0.00000000000E+00 -0.25634809623E+04  0.25634809623E+04  0.00000000000E+00 0. -1.
         23    2    1    2    0    0 -0.61842328942E+02 -0.24438417715E+02 -0.21712241437E+04  0.21758358510E+04  0.12500263505E+03 0.  0.
          5    1    3    3  502    0  0.37373971831E+02 -0.16035177310E+02 -0.52279366889E+03  0.52439417513E+03  0.47000000000E+01 0. -1.
         -5    1    3    3    0  502 -0.99216300773E+02 -0.84032404054E+01 -0.16484304748E+04  0.16514416759E+04  0.47000000000E+01 0. -1.
        -11    1    1    2    0    0  0.81818538398E+02  0.18433843160E+02 -0.34401172215E+03  0.35408776423E+03  0.00000000000E+00 0. -1.
         11    1    1    2    0    0 -0.19976209456E+02  0.60045745556E+01 -0.38241742144E+02  0.43560701349E+02  0.00000000000E+00 0.  1.
<mgrwt>
<rscale>  0 0.13280028E+03</rscale>
<asrwt>0</asrwt>
<pdfrwt beam="2">  1        2 0.39438198E+00 0.14158873E+03</pdfrwt>
<pdfrwt beam="1">  1       -2 0.15389765E-02 0.14158873E+03</pdfrwt>
<totfact> 0.42235655E+03</totfact>
</mgrwt>
</event>
<event>
 7    1  0.6008063E-006  0.1341238E+03  0.7546771E-02  0.1234413E+00
          2   -1    0    0  501    0  0.00000000000E+00  0.00000000000E+00  0.11839031647E+03  0.11839031647E+03  0.00000000000E+00 0. -1.
         -2   -1    0    0    0  501 -0.00000000000E+00 -0.00000000000E+00 -0.13430595058E+03  0.13430595058E+03  0.00000000000E+00 0.  1.
         23    2    1    2    0    0  0.24361373057E+02  0.42069414708E+02  0.34395437200E+02  0.13846382689E+03  0.12500349238E+03 0.  0.
          5    1    3    3  502    0  0.31613411489E+02  0.93057317426E+01  0.77082501479E+02  0.83963125618E+02  0.47000000000E+01 0.  1.
         -5    1    3    3    0  502 -0.72520384324E+01  0.32763682965E+02 -0.42687064279E+02  0.54500701276E+02  0.47000000000E+01 0.  1.
        -11    1    1    2    0    0 -0.34539444472E+02  0.10218799686E+01 -0.59692438771E+02  0.68972492411E+02  0.00000000000E+00 0.  1.
         11    1    1    2    0    0  0.10178071415E+02 -0.43091294677E+02  0.93813674661E+01  0.45259947748E+02  0.00000000000E+00 0. -1.
<mgrwt>
<rscale>  0 0.12542097E+03</rscale>
<asrwt>0</asrwt>
<pdfrwt beam="1">  1        2 0.18213895E-01 0.13412377E+03</pdfrwt>
<pdfrwt beam="2">  1       -2 0.20662454E-01 0.13412377E+03</pdfrwt>
<totfact> 0.58425863E+03</totfact>
</mgrwt>
</event>
<event>
 7    1  0.6008063E-006  0.1369339E+03  0.7546771E-02  0.1229754E+00
          1   -1    0    0  501    0  0.00000000000E+00  0.00000000000E+00  0.79920609709E+03  0.79920609709E+03  0.00000000000E+00 0. -1.
         -1   -1    0    0    0  501 -0.00000000000E+00 -0.00000000000E+00 -0.19285485705E+02  0.19285485705E+02  0.00000000000E+00 0.  1.
         23    2    1    2    0    0 -0.11828888406E+02  0.54648110166E+02  0.52082685650E+03  0.53852717160E+03  0.12499824619E+03 0.  0.
          5    1    3    3  502    0 -0.39278614382E+02  0.10486076780E+02  0.49097139925E+02  0.63917028270E+02  0.47000000000E+01 0.  1.
         -5    1    3    3    0  502  0.27449725976E+02  0.44162033387E+02  0.47172971657E+03  0.47461014333E+03  0.47000000000E+01 0.  1.
        -11    1    1    2    0    0  0.35016016034E+01  0.24652071880E+02  0.83103852823E+02  0.86753883001E+02  0.00000000000E+00 0. -1.
         11    1    1    2    0    0  0.83272868028E+01 -0.79300182047E+02  0.17598990207E+03  0.19321052820E+03  0.00000000000E+00 0.  1.
<mgrwt>
<rscale>  0 0.12846350E+03</rscale>
<asrwt>0</asrwt>
<pdfrwt beam="1">  1        1 0.12295476E+00 0.13693393E+03</pdfrwt>
<pdfrwt beam="2">  1       -1 0.29669984E-02 0.13693393E+03</pdfrwt>
<totfact> 0.85256830E+03</totfact>
</mgrwt>
</event>
<event>
 7    1  0.6008063E-006  0.1356335E+03  0.7546771E-02  0.1253261E+00
         -2   -1    0    0    0  501 -0.00000000000E+00  0.00000000000E+00  0.15399591161E+02  0.15399591161E+02  0.00000000000E+00 0.  1.
          2   -1    0    0  501    0  0.00000000000E+00 -0.00000000000E+00 -0.67725493722E+03  0.67725493722E+03  0.00000000000E+00 0. -1.
         23    2    1    2    0    0 -0.64576789969E+01  0.52239244060E+02 -0.46973292817E+03  0.48892275643E+03  0.12500319081E+03 0.  0.
          5    1    3    3  502    0 -0.22551784082E+01 -0.41180900505E+02 -0.16412708066E+03  0.16929483454E+03  0.47000000000E+01 0. -1.
         -5    1    3    3    0  502 -0.42025005887E+01  0.93420144564E+02 -0.30560584751E+03  0.31962792189E+03  0.47000000000E+01 0. -1.
        -11    1    1    2    0    0  0.23434700115E+02 -0.31866497390E+02 -0.13641601308E+03  0.14203516273E+03  0.00000000000E+00 0.  1.
         11    1    1    2    0    0 -0.16977021119E+02 -0.20372746669E+02 -0.55706404811E+02  0.61696609225E+02  0.00000000000E+00 0. -1.
<mgrwt>
<rscale>  0 0.11404285E+03</rscale>
<asrwt>0</asrwt>
<pdfrwt beam="2">  1        2 0.10419307E+00 0.13563347E+03</pdfrwt>
<pdfrwt beam="1">  1       -2 0.23691679E-02 0.13563347E+03</pdfrwt>
<totfact> 0.24763812E+04</totfact>
</mgrwt>
</event>
<event>
 7    1  0.1140716E-005  0.3958325E+03  0.7546771E-02  0.1046074E+00
         -1   -1    0    0    0  501 -0.00000000000E+00  0.00000000000E+00  0.11448252402E+03  0.11448252402E+03  0.00000000000E+00 0.  1.
          1   -1    0    0  501    0  0.00000000000E+00 -0.00000000000E+00 -0.13360755033E+04  0.13360755033E+04  0.00000000000E+00 0. -1.
         23    2    1    2    0    0 -0.13780294718E+03  0.34938404019E+03 -0.61630888565E+03  0.73247528192E+03  0.12499814521E+03 0.  0.
          5    1    3    3  502    0 -0.70056956904E+02  0.64107669220E+02 -0.21825571584E+03  0.23806599497E+03  0.47000000000E+01 0. -1.
         -5    1    3    3    0  502 -0.67745990277E+02  0.28527637097E+03 -0.39805316981E+03  0.49440928695E+03  0.47000000000E+01 0. -1.
        -11    1    1    2    0    0  0.38551186452E+02 -0.24327641036E+02 -0.88559053440E+02  0.99602881693E+02  0.00000000000E+00 0.  1.
         11    1    1    2    0    0  0.99251760729E+02 -0.32505639915E+03 -0.51672504019E+03  0.61847986369E+03  0.00000000000E+00 0. -1.
<mgrwt>
<rscale>  0 0.39344283E+03</rscale>
<asrwt>0</asrwt>
<pdfrwt beam="2">  1        1 0.20555009E+00 0.39583254E+03</pdfrwt>
<pdfrwt beam="1">  1       -1 0.17612695E-01 0.39583254E+03</pdfrwt>
<totfact> 0.22609501E+02</totfact>
</mgrwt>
</event>
<event>
 7    1  0.6008063E-006  0.1258638E+03  0.7546771E-02  0.1248482E+00
          2   -1    0    0  501    0  0.00000000000E+00  0.00000000000E+00  0.13197277649E+04  0.13197277649E+04  0.00000000000E+00 0.  1.
         -2   -1    0    0    0  501 -0.00000000000E+00 -0.00000000000E+00 -0.11546729575E+02  0.11546729575E+02  0.00000000000E+00 0. -1.
         23    2    1    2    0    0 -0.64422813055E+01  0.13280474322E+02  0.10343300978E+04  0.10419599065E+04  0.12499528608E+03 0.  0.
          5    1    3    3  502    0 -0.68545070766E+01  0.43765294855E+02  0.13619758974E+03  0.14329779745E+03  0.47000000000E+01 0.  1.
         -5    1    3    3    0  502  0.41222577109E+00 -0.30484820533E+02  0.89813250809E+03  0.89866210908E+03  0.47000000000E+01 0.  1.
        -11    1    1    2    0    0 -0.42473129515E+02 -0.91286985173E+01  0.11001263337E+03  0.11827966591E+03  0.00000000000E+00 0. -1.
         11    1    1    2    0    0  0.48915410820E+02 -0.41517758050E+01  0.16383830417E+03  0.17103492208E+03  0.00000000000E+00 0.  1.
<mgrwt>
<rscale>  0 0.11679362E+03</rscale>
<asrwt>0</asrwt>
<pdfrwt beam="1">  1        2 0.20303492E+00 0.12586380E+03</pdfrwt>
<pdfrwt beam="2">  1       -2 0.17764210E-02 0.12586380E+03</pdfrwt>
<totfact> 0.15131770E+04</totfact>
</mgrwt>
</event>
<event>
 7    1  0.6008063E-006  0.2298539E+03  0.7546771E-02  0.1127823E+00
         -2   -1    0    0    0  501 -0.00000000000E+00  0.00000000000E+00  0.29762576709E+03  0.29762576709E+03  0.00000000000E+00 0.  1.
          2   -1    0    0  501    0  0.00000000000E+00 -0.00000000000E+00 -0.20226340432E+03  0.20226340432E+03  0.00000000000E+00 0. -1.
         23    2    1    2    0    0 -0.18431576925E+03  0.56894691176E+02 -0.47039942029E+02  0.23461788524E+03  0.12499394885E+03 0.  0.
          5    1    3    3  502    0 -0.46058567746E+02  0.64816826879E+02 -0.53418470136E+02  0.95907432773E+02  0.47000000000E+01 0. -1.
         -5    1    3    3    0  502 -0.13825720150E+03 -0.79221357029E+01  0.63785281070E+01  0.13871045246E+03  0.47000000000E+01 0. -1.
        -11    1    1    2    0    0  0.11510031680E+03 -0.90889765272E+02  0.95588899887E+02  0.17506076128E+03  0.00000000000E+00 0. -1.
         11    1    1    2    0    0  0.69215452447E+02  0.33995074096E+02  0.46813404912E+02  0.90210524883E+02  0.00000000000E+00 0.  1.
<mgrwt>
<rscale>  0 0.22832749E+03</rscale>
<asrwt>0</asrwt>
<pdfrwt beam="2">  1        2 0.31117447E-01 0.22985386E+03</pdfrwt>
<pdfrwt beam="1">  1       -2 0.45788579E-01 0.22985386E+03</pdfrwt>
<totfact> 0.77073129E+02</totfact>
</mgrwt>
</event>
<event>
 7    1  0.6008063E-006  0.1858315E+03  0.7546771E-02  0.1167432E+00
         -1   -1    0    0    0  501 -0.00000000000E+00  0.00000000000E+00  0.64228676784E+02  0.64228676784E+02  0.00000000000E+00 0.  1.
          1   -1    0    0  501    0  0.00000000000E+00 -0.00000000000E+00 -0.50205289859E+03  0.50205289859E+03  0.00000000000E+00 0. -1.
         23    2    1    2    0    0  0.94937011500E+02  0.99478635070E+02 -0.29185674808E+03  0.34599666150E+03  0.12499717351E+03 0.  0.
          5    1    3    3  502    0  0.60909584161E+00 -0.13371712394E+02 -0.11523394968E+03  0.11610394847E+03  0.47000000000E+01 0.  1.
         -5    1    3    3    0  502  0.94327915658E+02  0.11285034746E+03 -0.17662279839E+03  0.22989271304E+03  0.47000000000E+01 0.  1.
        -11    1    1    2    0    0 -0.92777876431E+02 -0.61601609805E+02 -0.60416302041E+02  0.12669894332E+03  0.00000000000E+00 0. -1.
         11    1    1    2    0    0 -0.21591350689E+01 -0.37877025265E+02 -0.85551171692E+02  0.93585970557E+02  0.00000000000E+00 0.  1.
<mgrwt>
<rscale>  0 0.18038413E+03</rscale>
<asrwt>0</asrwt>
<pdfrwt beam="2">  1        1 0.77238909E-01 0.18583145E+03</pdfrwt>
<pdfrwt beam="1">  1       -1 0.98813347E-02 0.18583145E+03</pdfrwt>
<totfact> 0.27506896E+03</totfact>
</mgrwt>
</event>
<event>
 7    1  0.6008063E-006  0.1398215E+03  0.7546771E-02  0.1225017E+00
          1   -1    0    0  501    0  0.00000000000E+00  0.00000000000E+00  0.37052304073E+03  0.37052304073E+03  0.00000000000E+00 0. -1.
         -1   -1    0    0    0  501 -0.00000000000E+00 -0.00000000000E+00 -0.43105334548E+02  0.43105334548E+02  0.00000000000E+00 0.  1.
         23    2    1    2    0    0  0.60798473859E+02 -0.15070217362E+02  0.15120146941E+03  0.20594156901E+03  0.12500591834E+03 0.  0.
          5    1    3    3  502    0  0.44343531902E+02  0.19820607480E+02  0.15898728099E+03  0.16630769922E+03  0.47000000000E+01 0.  1.
         -5    1    3    3    0  502  0.16454941957E+02 -0.34890824842E+02 -0.77858115797E+01  0.39633869795E+02  0.47000000000E+01 0.  1.
        -11    1    1    2    0    0  0.52269651474E+00 -0.18511688829E+02  0.44834924020E+00  0.18524493299E+02  0.00000000000E+00 0.  1.
         11    1    1    2    0    0 -0.61321170374E+02  0.33581906190E+02  0.17576788753E+03  0.18916231296E+03  0.00000000000E+00 0. -1.
<mgrwt>
<rscale>  0 0.13165768E+03</rscale>
<asrwt>0</asrwt>
<pdfrwt beam="1">  1        1 0.57003543E-01 0.13982148E+03</pdfrwt>
<pdfrwt beam="2">  1       -1 0.66315902E-02 0.13982148E+03</pdfrwt>
<totfact> 0.73336860E+03</totfact>
</mgrwt>
</event>
<event>
 7    1  0.6008063E-006  0.2453487E+03  0.7546771E-02  0.1118962E+00
         -2   -1    0    0    0  501 -0.00000000000E+00  0.00000000000E+00  0.76720604071E+02  0.76720604071E+02  0.00000000000E+00 0. -1.
          2   -1    0    0  501    0  0.00000000000E+00 -0.00000000000E+00 -0.82635332397E+03  0.82635332397E+03  0.00000000000E+00 0.  1.
         23    2    1    2    0    0 -0.12022353320E+03  0.17354361847E+03 -0.53662798878E+03  0.59005558294E+03  0.12499962868E+03 0.  0.
          5    1    3    3  502    0 -0.70523730610E+02  0.61704211595E+02 -0.37898928433E+03  0.39043049822E+03  0.47000000000E+01 0. -1.
         -5    1    3    3    0  502 -0.49699802586E+02  0.11183940687E+03 -0.15763870445E+03  0.19962508472E+03  0.47000000000E+01 0. -1.
        -11    1    1    2    0    0  0.93837564919E+02 -0.56983121091E+02 -0.10595070295E+03  0.15257167540E+03  0.00000000000E+00 0.  1.
         11    1    1    2    0    0  0.26385968278E+02 -0.11656049738E+03 -0.10705402817E+03  0.16044666970E+03  0.00000000000E+00 0. -1.
<mgrwt>
<rscale>  0 0.24125195E+03</rscale>
<asrwt>0</asrwt>
<pdfrwt beam="2">  1        2 0.12713128E+00 0.24534872E+03</pdfrwt>
<pdfrwt beam="1">  1       -2 0.11803170E-01 0.24534872E+03</pdfrwt>
<totfact> 0.17256552E+03</totfact>
</mgrwt>
</event>
<event>
 7    1  0.6008063E-006  0.1304437E+03  0.7546771E-02  0.1239578E+00
         -3   -1    0    0    0  501 -0.00000000000E+00  0.00000000000E+00  0.11178962881E+03  0.11178962881E+03  0.00000000000E+00 0.  1.
          3   -1    0    0  501    0  0.00000000000E+00 -0.00000000000E+00 -0.11913762330E+03  0.11913762330E+03  0.00000000000E+00 0. -1.
         23    2    1    2    0    0 -0.18800949532E+02  0.32190259463E+02 -0.62334018646E+01  0.13059256848E+03  0.12500350049E+03 0.  0.
          5    1    3    3  502    0 -0.56881265332E+02 -0.21034181230E+02  0.13035702724E+02  0.62208798986E+02  0.47000000000E+01 0.  1.
         -5    1    3    3    0  502  0.38080315799E+02  0.53224440694E+02 -0.19269104589E+02  0.68383769494E+02  0.47000000000E+01 0.  1.
        -11    1    1    2    0    0 -0.33057451699E+02 -0.17188091595E+02  0.20095572252E+02  0.42332701658E+02  0.00000000000E+00 0.  1.
         11    1    1    2    0    0  0.51858401232E+02 -0.15002167868E+02 -0.21210164877E+02  0.58001981976E+02  0.00000000000E+00 0. -1.
<mgrwt>
<rscale>  0 0.12215843E+03</rscale>
<asrwt>0</asrwt>
<pdfrwt beam="2">  1        3 0.18328865E-01 0.13044372E+03</pdfrwt>
<pdfrwt beam="1">  1       -3 0.17198404E-01 0.13044372E+03</pdfrwt>
<totfact> 0.17471839E+03</totfact>
</mgrwt>
</event>
<event>
 7    1  0.6008063E-006  0.1874165E+03  0.7546771E-02  0.1165377E+00
         -2   -1    0    0    0  501 -0.00000000000E+00  0.00000000000E+00  0.21544598789E+02  0.21544598789E+02  0.00000000000E+00 0. -1.
          2   -1    0    0  501    0  0.00000000000E+00 -0.00000000000E+00 -0.20158278242E+04  0.20158278242E+04  0.00000000000E+00 0.  1.
         23    2    1    2    0    0 -0.70177616785E+02  0.12072486128E+03 -0.15646434252E+04  0.15758280373E+04  0.12500226067E+03 0.  0.
          5    1    3    3  502    0 -0.54068410751E+02  0.73753325200E+02 -0.40971732155E+03  0.41982534416E+03  0.47000000000E+01 0. -1.
         -5    1    3    3    0  502 -0.16109206034E+02  0.46971536084E+02 -0.11549261036E+04  0.11560026932E+04  0.47000000000E+01 0. -1.
        -11    1    1    2    0    0 -0.50283018314E+00 -0.70899315081E+02 -0.11380088113E+03  0.13408059615E+03  0.00000000000E+00 0. -1.
         11    1    1    2    0    0  0.70680446969E+02 -0.49825546204E+02 -0.31583891907E+03  0.32746378950E+03  0.00000000000E+00 0.  1.
<mgrwt>
<rscale>  0 0.18252968E+03</rscale>
<asrwt>0</asrwt>
<pdfrwt beam="2">  1        2 0.31012745E+00 0.18741653E+03</pdfrwt>
<pdfrwt beam="1">  1       -2 0.33145526E-02 0.18741653E+03</pdfrwt>
<totfact> 0.26657122E+03</totfact>
</mgrwt>
</event>
<event>
 7    1  0.1315128E-005  0.3646874E+03  0.7546771E-02  0.1057750E+00
          2   -1    0    0  501    0  0.00000000000E+00  0.00000000000E+00  0.31643906733E+04  0.31643906733E+04  0.00000000000E+00 0. -1.
         -2   -1    0    0    0  501 -0.00000000000E+00 -0.00000000000E+00 -0.41083615470E+02  0.41083615470E+02  0.00000000000E+00 0.  1.
         23    2    1    2    0    0 -0.29079467531E+03  0.18113614560E+03  0.17010232957E+04  0.17396773209E+04  0.12500032733E+03 0.  0.
          5    1    3    3  502    0 -0.10232725801E+03 -0.11251235926E+01  0.46921036067E+03  0.48026303854E+03  0.47000000000E+01 0. -1.
         -5    1    3    3    0  502 -0.18846741730E+03  0.18226126919E+03  0.12318129350E+04  0.12594142823E+04  0.47000000000E+01 0. -1.
        -11    1    1    2    0    0  0.64344973230E+02 -0.13209532351E+01  0.21928856711E+03  0.22853773466E+03  0.00000000000E+00 0.  1.
         11    1    1    2    0    0  0.22644970208E+03 -0.17981519237E+03  0.12029951950E+04  0.12372592332E+04  0.00000000000E+00 0. -1.
<mgrwt>
<rscale>  0 0.36211324E+03</rscale>
<asrwt>0</asrwt>
<pdfrwt beam="1">  1        2 0.48682914E+00 0.36468744E+03</pdfrwt>
<pdfrwt beam="2">  1       -2 0.63205587E-02 0.36468744E+03</pdfrwt>
<totfact> 0.22100699E+02</totfact>
</mgrwt>
</event>
<event>
 7    1  0.6008063E-006  0.1825866E+03  0.7546771E-02  0.1170693E+00
         -2   -1    0    0    0  501 -0.00000000000E+00  0.00000000000E+00  0.33920114703E+03  0.33920114703E+03  0.00000000000E+00 0.  1.
          2   -1    0    0  501    0  0.00000000000E+00 -0.00000000000E+00 -0.87721815356E+02  0.87721815356E+02  0.00000000000E+00 0. -1.
         23    2    1    2    0    0 -0.11846365477E+03 -0.60657135265E+02  0.11725442111E+03  0.21699416901E+03  0.12499977820E+03 0.  0.
          5    1    3    3  502    0 -0.11052186515E+02 -0.61274554644E+02  0.67308016864E+01  0.62802193950E+02  0.47000000000E+01 0.  1.
         -5    1    3    3    0  502 -0.10741146826E+03  0.61741937860E+00  0.11052361943E+03  0.15419197506E+03  0.47000000000E+01 0.  1.
        -11    1    1    2    0    0  0.35281876435E+02 -0.84933313666E+01  0.82289108445E+02  0.89935781818E+02  0.00000000000E+00 0. -1.
         11    1    1    2    0    0  0.83181778338E+02  0.69150466632E+02  0.51935802117E+02  0.11999301157E+03  0.00000000000E+00 0.  1.
<mgrwt>
<rscale>  0 0.17704576E+03</rscale>
<asrwt>0</asrwt>
<pdfrwt beam="2">  1        2 0.13495664E-01 0.18258661E+03</pdfrwt>
<pdfrwt beam="1">  1       -2 0.52184791E-01 0.18258661E+03</pdfrwt>
<totfact> 0.15355195E+03</totfact>
</mgrwt>
</event>
<event>
 7    1  0.6008063E-006  0.1265047E+03  0.7546771E-02  0.1247882E+00
         -1   -1    0    0    0  501 -0.00000000000E+00  0.00000000000E+00  0.63976491961E+02  0.63976491961E+02  0.00000000000E+00 0.  1.
          1   -1    0    0  501    0  0.00000000000E+00 -0.00000000000E+00 -0.26531838513E+03  0.26531838513E+03  0.00000000000E+00 0. -1.
         23    2    1    2    0    0 -0.10302457161E+01  0.19438776866E+02 -0.19953358846E+03  0.23625639060E+03  0.12499800687E+03 0.  0.
          5    1    3    3  502    0  0.58182857792E+02  0.29489629852E+02 -0.90046005280E+02  0.11128906629E+03  0.47000000000E+01 0. -1.
         -5    1    3    3    0  502 -0.59213103508E+02 -0.10050852986E+02 -0.10948758318E+03  0.12496732431E+03  0.47000000000E+01 0. -1.
        -11    1    1    2    0    0 -0.40207750463E+02 -0.27176988006E+02 -0.11719710558E+02  0.49925980110E+02  0.00000000000E+00 0. -1.
         11    1    1    2    0    0  0.41237996179E+02  0.77382111402E+01  0.99114058511E+01  0.43112506381E+02  0.00000000000E+00 0.  1.
<mgrwt>
<rscale>  0 0.11714535E+03</rscale>
<asrwt>0</asrwt>
<pdfrwt beam="2">  1        1 0.40818213E-01 0.12650466E+03</pdfrwt>
<pdfrwt beam="1">  1       -1 0.98425373E-02 0.12650466E+03</pdfrwt>
<totfact> 0.60767906E+03</totfact>
</mgrwt>
</event>
<event>
 7    1  0.6008063E-006  0.1131833E+03  0.7546771E-02  0.1264925E+00
          2   -1    0    0  501    0  0.00000000000E+00  0.00000000000E+00  0.51662404903E+03  0.51662404903E+03  0.00000000000E+00 0. -1.
         -2   -1    0    0    0  501 -0.00000000000E+00 -0.00000000000E+00 -0.23328711646E+02  0.23328711646E+02  0.00000000000E+00 0.  1.
         23    2    1    2    0    0 -0.12640829657E+02  0.45465355186E+01  0.36150667133E+03  0.37881067896E+03  0.11238325286E+03 0.  0.
          5    1    3    3  502    0  0.42757625730E+01  0.34488058582E+02  0.33023439895E+03  0.33209118715E+03  0.47000000000E+01 0. -1.
         -5    1    3    3    0  502 -0.16916592230E+02 -0.29941523063E+02  0.31272272375E+02  0.46719491815E+02  0.47000000000E+01 0.  1.
        -11    1    1    2    0    0  0.29842994293E+02  0.35410657948E+02  0.47786760268E+02  0.66543921297E+02  0.00000000000E+00 0. -1.
         11    1    1    2    0    0 -0.17202164636E+02 -0.39957193466E+02  0.84001905794E+02  0.94598160421E+02  0.00000000000E+00 0.  1.
<mgrwt>
<rscale>  0 0.10768115E+03</rscale>
<asrwt>0</asrwt>
<pdfrwt beam="1">  1        2 0.79480614E-01 0.11318329E+03</pdfrwt>
<pdfrwt beam="2">  1       -2 0.35890330E-02 0.11318329E+03</pdfrwt>
<totfact> 0.18017920E+04</totfact>
</mgrwt>
</event>
<event>
 7    1  0.6008063E-006  0.1465172E+03  0.7546771E-02  0.1214699E+00
         -3   -1    0    0    0  501 -0.00000000000E+00  0.00000000000E+00  0.13970712425E+03  0.13970712425E+03  0.00000000000E+00 0.  1.
          3   -1    0    0  501    0  0.00000000000E+00 -0.00000000000E+00 -0.12948185227E+03  0.12948185227E+03  0.00000000000E+00 0. -1.
         23    2    1    2    0    0 -0.56101273438E+02  0.51908311722E+02 -0.16898274480E+02  0.14748846616E+03  0.12500188104E+03 0.  0.
          5    1    3    3  502    0 -0.57827728114E+02  0.15448129654E+02  0.45303886210E+02  0.75214512924E+02  0.47000000000E+01 0. -1.
         -5    1    3    3    0  502  0.17264546754E+01  0.36460182068E+02 -0.62202160690E+02  0.72273953239E+02  0.47000000000E+01 0. -1.
        -11    1    1    2    0    0  0.13140716828E+02 -0.65292275364E+02  0.36190255324E+02  0.75799038526E+02  0.00000000000E+00 0.  1.
         11    1    1    2    0    0  0.42960556610E+02  0.13383963642E+02 -0.90667088684E+01  0.45901471837E+02  0.00000000000E+00 0. -1.
<mgrwt>
<rscale>  0 0.13898688E+03</rscale>
<asrwt>0</asrwt>
<pdfrwt beam="2">  1        3 0.19920285E-01 0.14651722E+03</pdfrwt>
<pdfrwt beam="1">  1       -3 0.21493404E-01 0.14651722E+03</pdfrwt>
<totfact> 0.10406335E+03</totfact>
</mgrwt>
</event>
<event>
 7    1  0.6008063E-006  0.1352354E+03  0.7546771E-02  0.1231439E+00
          2   -1    0    0  501    0  0.00000000000E+00  0.00000000000E+00  0.58684469532E+03  0.58684469532E+03  0.00000000000E+00 0. -1.
         -2   -1    0    0    0  501 -0.00000000000E+00 -0.00000000000E+00 -0.36345994899E+02  0.36345994899E+02  0.00000000000E+00 0.  1.
         23    2    1    2    0    0  0.16370266511E+02  0.48880624966E+02  0.47203601131E+03  0.49102608820E+03  0.12502528621E+03 0.  0.
          5    1    3    3  502    0  0.14286912795E+01 -0.42312482157E+02  0.15815760406E+03  0.16379348286E+03  0.47000000000E+01 0. -1.
         -5    1    3    3    0  502  0.14941575232E+02  0.91193107123E+02  0.31387840725E+03  0.32723260534E+03  0.47000000000E+01 0. -1.
        -11    1    1    2    0    0 -0.38259611197E+02 -0.82115714955E+01 -0.22243811590E+01  0.39194076427E+02  0.00000000000E+00 0.  1.
         11    1    1    2    0    0  0.21889344686E+02 -0.40669053470E+02  0.80687070261E+02  0.92970525589E+02  0.00000000000E+00 0. -1.
<mgrwt>
<rscale>  0 0.12735205E+03</rscale>
<asrwt>0</asrwt>
<pdfrwt beam="1">  1        2 0.90283793E-01 0.13523544E+03</pdfrwt>
<pdfrwt beam="2">  1       -2 0.55916919E-02 0.13523544E+03</pdfrwt>
<totfact> 0.81826258E+03</totfact>
</mgrwt>
</event>
<event>
 7    1  0.6008063E-006  0.1301817E+03  0.7546771E-02  0.1239530E+00
         -2   -1    0    0    0  501 -0.00000000000E+00  0.00000000000E+00  0.99263551893E+01  0.99263551893E+01  0.00000000000E+00 0.  1.
          2   -1    0    0  501    0  0.00000000000E+00 -0.00000000000E+00 -0.18412459837E+04  0.18412459837E+04  0.00000000000E+00 0. -1.
         23    2    1    2    0    0  0.28484274194E+02 -0.21879652085E+02 -0.14770890341E+04  0.14828146524E+04  0.12512875633E+03 0.  0.
          5    1    3    3  502    0  0.66216082320E+02 -0.32425163455E+02 -0.55677413556E+03  0.56165424311E+03  0.47000000000E+01 0. -1.
         -5    1    3    3    0  502 -0.37731808126E+02  0.10545511371E+02 -0.92031489856E+03  0.92116040930E+03  0.47000000000E+01 0. -1.
        -11    1    1    2    0    0  0.56532472101E+01 -0.29238603777E+02 -0.51859922073E+02  0.59802229659E+02  0.00000000000E+00 0.  1.
         11    1    1    2    0    0 -0.34137521404E+02  0.51118255862E+02 -0.30237067235E+03  0.30855545685E+03  0.00000000000E+00 0. -1.
<mgrwt>
<rscale>  0 0.12218853E+03</rscale>
<asrwt>0</asrwt>
<pdfrwt beam="2">  1        2 0.28326900E+00 0.13018171E+03</pdfrwt>
<pdfrwt beam="1">  1       -2 0.15271295E-02 0.13018171E+03</pdfrwt>
<totfact> 0.10127267E+04</totfact>
</mgrwt>
</event>
<event>
 7    1  0.6008063E-006  0.1298934E+03  0.7546771E-02  0.1240624E+00
          2   -1    0    0  501    0  0.00000000000E+00  0.00000000000E+00  0.39672288424E+02  0.39672288424E+02  0.00000000000E+00 0. -1.
         -2   -1    0    0    0  501 -0.00000000000E+00 -0.00000000000E+00 -0.34049684378E+03  0.34049684378E+03  0.00000000000E+00 0.  1.
         23    2    1    2    0    0  0.13691533440E+02 -0.32259829059E+02 -0.13924682032E+03  0.19042575596E+03  0.12507652420E+03 0.  0.
          5    1    3    3  502    0 -0.16482120240E+02  0.11473784655E+02 -0.13538387066E+03  0.13694593991E+03  0.47000000000E+01 0.  1.
         -5    1    3    3    0  502  0.30173653679E+02 -0.43733613714E+02 -0.38629496551E+01  0.53479816052E+02  0.47000000000E+01 0.  1.
        -11    1    1    2    0    0 -0.39844989156E+02 -0.16516851604E+02 -0.84259210360E+02  0.94657509360E+02  0.00000000000E+00 0.  1.
         11    1    1    2    0    0  0.26153455717E+02  0.48776680663E+02 -0.77318524677E+02  0.95085866881E+02  0.00000000000E+00 0. -1.
<mgrwt>
<rscale>  0 0.12151175E+03</rscale>
<asrwt>0</asrwt>
<pdfrwt beam="1">  1        2 0.61034289E-02 0.12989339E+03</pdfrwt>
<pdfrwt beam="2">  1       -2 0.52384130E-01 0.12989339E+03</pdfrwt>
<totfact> 0.40096205E+03</totfact>
</mgrwt>
</event>
<event>
 7    1  0.6008063E-006  0.2034514E+03  0.7546771E-02  0.1153330E+00
         -1   -1    0    0    0  501 -0.00000000000E+00  0.00000000000E+00  0.11515246474E+03  0.11515246474E+03  0.00000000000E+00 0.  1.
          1   -1    0    0  501    0  0.00000000000E+00 -0.00000000000E+00 -0.37140440123E+03  0.37140440123E+03  0.00000000000E+00 0. -1.
         23    2    1    2    0    0  0.15125086233E+03 -0.53773849573E+02 -0.23483715490E+03  0.31071040340E+03  0.12499606075E+03 0.  0.
          5    1    3    3  502    0  0.16813976796E+03 -0.58958786203E+02 -0.18174665886E+03  0.25456051941E+03  0.47000000000E+01 0. -1.
         -5    1    3    3    0  502 -0.16888905626E+02  0.51849366301E+01 -0.53090496044E+02  0.56149883982E+02  0.47000000000E+01 0. -1.
        -11    1    1    2    0    0 -0.13731744504E+02  0.25426187089E+02 -0.20504863394E+02  0.35433052646E+02  0.00000000000E+00 0. -1.
         11    1    1    2    0    0 -0.13751911783E+03  0.28347662485E+02 -0.90991819575E+00  0.14041340993E+03  0.00000000000E+00 0.  1.
<mgrwt>
<rscale>  0 0.19580229E+03</rscale>
<asrwt>0</asrwt>
<pdfrwt beam="2">  1        1 0.57139140E-01 0.20345138E+03</pdfrwt>
<pdfrwt beam="1">  1       -1 0.17715763E-01 0.20345138E+03</pdfrwt>
<totfact> 0.16284138E+03</totfact>
</mgrwt>
</event>
<event>
 7    1  0.6008063E-006  0.1447039E+03  0.7546771E-02  0.1216991E+00
          2   -1    0    0  501    0  0.00000000000E+00  0.00000000000E+00  0.27951160037E+03  0.27951160037E+03  0.00000000000E+00 0. -1.
         -2   -1    0    0    0  501 -0.00000000000E+00 -0.00000000000E+00 -0.61454922777E+02  0.61454922777E+02  0.00000000000E+00 0.  1.
         23    2    1    2    0    0  0.24891508528E+02 -0.68517739343E+02  0.11589942368E+03  0.18539657145E+03  0.12499977798E+03 0.  0.
          5    1    3    3  502    0 -0.13519854500E+02  0.13886393178E+02 -0.15696943764E+02  0.25379173050E+02  0.47000000000E+01 0.  1.
         -5    1    3    3    0  502  0.38411363028E+02 -0.82404132521E+02  0.13159636745E+03  0.16001739840E+03  0.47000000000E+01 0.  1.
        -11    1    1    2    0    0  0.98198242503E+01  0.62202960985E+02  0.19862874500E+02  0.66031591584E+02  0.00000000000E+00 0.  1.
         11    1    1    2    0    0 -0.34711332778E+02  0.63147783575E+01  0.82294379411E+02  0.89538360112E+02  0.00000000000E+00 0. -1.
<mgrwt>
<rscale>  0 0.13731271E+03</rscale>
<asrwt>0</asrwt>
<pdfrwt beam="1">  1        2 0.43001784E-01 0.14470388E+03</pdfrwt>
<pdfrwt beam="2">  1       -2 0.94546036E-02 0.14470388E+03</pdfrwt>
<totfact> 0.81718282E+03</totfact>
</mgrwt>
</event>
<event>
 7    1  0.6008063E-006  0.1283520E+03  0.7546771E-02  0.1244233E+00
         -1   -1    0    0    0  501 -0.00000000000E+00  0.00000000000E+00  0.20802846761E+02  0.20802846761E+02  0.00000000000E+00 0.  1.
          1   -1    0    0  501    0  0.00000000000E+00 -0.00000000000E+00 -0.61383117489E+03  0.61383117489E+03  0.00000000000E+00 0. -1.
         23    2    1    2    0    0 -0.22372581028E+02 -0.18676106226E+02 -0.37848423860E+03  0.39965555521E+03  0.12499965847E+03 0.  0.
          5    1    3    3  502    0 -0.40034620740E+02  0.44925858407E+02 -0.21425964183E+03  0.22259916381E+03  0.47000000000E+01 0.  1.
         -5    1    3    3    0  502  0.17662039712E+02 -0.63601964634E+02 -0.16422459677E+03  0.17705639140E+03  0.47000000000E+01 0.  1.
        -11    1    1    2    0    0 -0.21139840303E+02 -0.23464923661E+02 -0.10682585498E+03  0.11139685266E+03  0.00000000000E+00 0. -1.
         11    1    1    2    0    0  0.43512421331E+02  0.42141029888E+02 -0.10771823455E+03  0.12358161379E+03  0.00000000000E+00 0.  1.
<mgrwt>
<rscale>  0 0.11931394E+03</rscale>
<asrwt>0</asrwt>
<pdfrwt beam="2">  1        1 0.94435572E-01 0.12835203E+03</pdfrwt>
<pdfrwt beam="1">  1       -1 0.32004377E-02 0.12835203E+03</pdfrwt>
<totfact> 0.11092210E+04</totfact>
</mgrwt>
</event>
<event>
 6    1  0.6008063E-006  0.1494994E+03  0.7546771E-02  0.1214989E+00
          1   -1    0    0  501    0  0.00000000000E+00  0.00000000000E+00  0.30313760361E+03  0.30313760361E+03  0.00000000000E+00 0. -1.
         -1   -1    0    0    0  501 -0.00000000000E+00 -0.00000000000E+00 -0.81621634860E+02  0.81621634860E+02  0.00000000000E+00 0.  1.
          5    1    1    2  502    0 -0.28421128431E+01 -0.32523487609E+02  0.19750767039E+01  0.33043089742E+02  0.47000000000E+01 0. -1.
         -5    1    1    2    0  502  0.64190091669E+02  0.46099295370E+02  0.22705930605E+03  0.24046523941E+03  0.47000000000E+01 0.  1.
        -11    1    1    2    0    0 -0.21843785195E+02  0.38053895872E+02 -0.13653197857E+02  0.45952799201E+02  0.00000000000E+00 0.  1.
         11    1    1    2    0    0 -0.39504193631E+02 -0.51629703632E+02  0.61347838530E+01  0.65298110115E+02  0.00000000000E+00 0. -1.
<mgrwt>
<rscale>  0 0.13877361E+03</rscale>
<asrwt>0</asrwt>
<pdfrwt beam="1">  1        1 0.46636554E-01 0.14949936E+03</pdfrwt>
<pdfrwt beam="2">  1       -1 0.12557175E-01 0.14949936E+03</pdfrwt>
<totfact> 0.35778982E+03</totfact>
</mgrwt>
</event>
<event>
 7    1  0.6008063E-006  0.1367092E+03  0.7546771E-02  0.1229962E+00
          2   -1    0    0  501    0  0.00000000000E+00  0.00000000000E+00  0.10347405265E+03  0.10347405265E+03  0.00000000000E+00 0. -1.
         -2   -1    0    0    0  501 -0.00000000000E+00 -0.00000000000E+00 -0.14257253686E+03  0.14257253686E+03  0.00000000000E+00 0.  1.
         23    2    1    2    0    0  0.55109808601E+02  0.52689148986E+01 -0.18961310965E+02  0.13801790298E+03  0.12499823104E+03 0.  0.
          5    1    3    3  502    0 -0.48820717592E+01  0.22642300799E+02  0.43535592873E+02  0.49537321859E+02  0.47000000000E+01 0.  1.
         -5    1    3    3    0  502  0.59991880360E+02 -0.17373385900E+02 -0.62496903838E+02  0.88480581125E+02  0.47000000000E+01 0.  1.
        -11    1    1    2    0    0 -0.75837389088E+02 -0.17988710918E+02 -0.24903264338E+01  0.77981440292E+02  0.00000000000E+00 0. -1.
         11    1    1    2    0    0  0.20727580487E+02  0.12719796020E+02 -0.17646846813E+02  0.30047246231E+02  0.00000000000E+00 0.  1.
<mgrwt>
<rscale>  0 0.12832559E+03</rscale>
<asrwt>0</asrwt>
<pdfrwt beam="1">  1        2 0.15919085E-01 0.13670922E+03</pdfrwt>
<pdfrwt beam="2">  1       -2 0.21934236E-01 0.13670922E+03</pdfrwt>
<totfact> 0.61707126E+03</totfact>
</mgrwt>
</event>
<event>
 7    1  0.6008063E-006  0.4558439E+03  0.7546771E-02  0.1025994E+00
         -1   -1    0    0    0  501 -0.00000000000E+00  0.00000000000E+00  0.34097098831E+03  0.34097098831E+03  0.00000000000E+00 0.  1.
          1   -1    0    0  501    0  0.00000000000E+00 -0.00000000000E+00 -0.15235438476E+03  0.15235438476E+03  0.00000000000E+00 0. -1.
         23    2    1    2    0    0  0.71835393033E+02  0.15862764627E+02  0.36730786598E+02  0.14962706576E+03  0.12500862822E+03 0.  0.
          5    1    3    3  502    0  0.10058005779E+03 -0.15580493531E+02  0.30216689284E+02  0.10627435305E+03  0.47000000000E+01 0.  1.
         -5    1    3    3    0  502 -0.28744664759E+02  0.31443258158E+02  0.65140973142E+01  0.43352712712E+02  0.47000000000E+01 0.  1.
        -11    1    1    2    0    0 -0.15946311810E+03 -0.89421947587E+02  0.47665809465E+02  0.18893596835E+03  0.00000000000E+00 0. -1.
         11    1    1    2    0    0  0.87627725067E+02  0.73559182961E+02  0.10422000749E+03  0.15476233896E+03  0.00000000000E+00 0.  1.
<mgrwt>
<rscale>  0 0.45584394E+03</rscale>
<asrwt>0</asrwt>
<pdfrwt beam="2">  1        1 0.23439136E-01 0.45584394E+03</pdfrwt>
<pdfrwt beam="1">  1       -1 0.52457075E-01 0.45584394E+03</pdfrwt>
<totfact> 0.78300687E+02</totfact>
</mgrwt>
</event>
<event>
 7    1  0.6008063E-006  0.1334154E+03  0.7546771E-02  0.1234352E+00
          1   -1    0    0  501    0  0.00000000000E+00  0.00000000000E+00  0.42478677267E+02  0.42478677267E+02  0.00000000000E+00 0. -1.
         -1   -1    0    0    0  501 -0.00000000000E+00 -0.00000000000E+00 -0.34274687324E+03  0.34274687324E+03  0.00000000000E+00 0.  1.
         23    2    1    2    0    0 -0.11678056026E+02 -0.45172803098E+02 -0.13514759561E+03  0.18990668493E+03  0.12499086867E+03 0.  0.
          5    1    3    3  502    0  0.23022358711E+02 -0.75969124745E+02 -0.53376391031E+02  0.95772992198E+02  0.47000000000E+01 0.  1.
         -5    1    3    3    0  502 -0.34700414737E+02  0.30796321647E+02 -0.81771204575E+02  0.94133692733E+02  0.47000000000E+01 0.  1.
        -11    1    1    2    0    0  0.22826378450E+02  0.98806579598E+01  0.12273022840E+01  0.24903357721E+02  0.00000000000E+00 0. -1.
         11    1    1    2    0    0 -0.11148322425E+02  0.35292145138E+02 -0.16634790265E+03  0.17041550785E+03  0.00000000000E+00 0.  1.
<mgrwt>
<rscale>  0 0.12546030E+03</rscale>
<asrwt>0</asrwt>
<pdfrwt beam="1">  1        1 0.65351813E-02 0.13341543E+03</pdfrwt>
<pdfrwt beam="2">  1       -1 0.52730286E-01 0.13341543E+03</pdfrwt>
<totfact> 0.40862527E+03</totfact>
</mgrwt>
</event>
<event>
 7    1  0.6008063E-006  0.1295072E+03  0.7546771E-02  0.1254453E+00
         -2   -1    0    0    0  501 -0.00000000000E+00  0.00000000000E+00  0.69466483788E+02  0.69466483788E+02  0.00000000000E+00 0.  1.
          2   -1    0    0  501    0  0.00000000000E+00 -0.00000000000E+00 -0.18543683163E+03  0.18543683163E+03  0.00000000000E+00 0. -1.
         23    2    1    2    0    0 -0.10884126655E+01 -0.34014472968E+02 -0.12289387166E+03  0.17853578845E+03  0.12495581240E+03 0.  0.
          5    1    3    3  502    0 -0.56280769745E+01  0.42144318845E+02 -0.80419636423E+02  0.91089114519E+02  0.47000000000E+01 0. -1.
         -5    1    3    3    0  502  0.45396643089E+01 -0.76158791812E+02 -0.42474235236E+02  0.87446673929E+02  0.47000000000E+01 0. -1.
        -11    1    1    2    0    0  0.33687060070E+02  0.13987241176E+02  0.10459007562E+02  0.37945378784E+02  0.00000000000E+00 0.  1.
         11    1    1    2    0    0 -0.32598647404E+02  0.20027231792E+02 -0.35354837426E+01  0.38422148184E+02  0.00000000000E+00 0. -1.
<mgrwt>
<rscale>  0 0.11337040E+03</rscale>
<asrwt>0</asrwt>
<pdfrwt beam="2">  1        2 0.28528743E-01 0.12950724E+03</pdfrwt>
<pdfrwt beam="1">  1       -2 0.10687151E-01 0.12950724E+03</pdfrwt>
<totfact> 0.10378799E+04</totfact>
</mgrwt>
</event>
<event>
 7    1  0.6008063E-006  0.1365199E+03  0.7546771E-02  0.1230518E+00
          2   -1    0    0  501    0  0.00000000000E+00  0.00000000000E+00  0.44371671091E+03  0.44371671091E+03  0.00000000000E+00 0.  1.
         -2   -1    0    0    0  501 -0.00000000000E+00 -0.00000000000E+00 -0.33878655647E+02  0.33878655647E+02  0.00000000000E+00 0. -1.
         23    2    1    2    0    0  0.41252872771E+02 -0.36226793394E+02  0.26952924989E+03  0.30213194504E+03  0.12499406226E+03 0.  0.
          5    1    3    3  502    0  0.14617779358E+02 -0.19433046704E+02  0.26915638293E+03  0.27029349095E+03  0.47000000000E+01 0. -1.
         -5    1    3    3    0  502  0.26635093413E+02 -0.16793746690E+02  0.37286695187E+00  0.31838454089E+02  0.47000000000E+01 0. -1.
        -11    1    1    2    0    0  0.23837631098E+02 -0.32207364942E+01  0.13545257811E+02  0.27605793035E+02  0.00000000000E+00 0.  1.
         11    1    1    2    0    0 -0.65090503869E+02  0.39447529889E+02  0.12676354757E+03  0.14785762848E+03  0.00000000000E+00 0. -1.
<mgrwt>
<rscale>  0 0.12795776E+03</rscale>
<asrwt>0</asrwt>
<pdfrwt beam="1">  1        2 0.68264105E-01 0.13651995E+03</pdfrwt>
<pdfrwt beam="2">  1       -2 0.52121012E-02 0.13651995E+03</pdfrwt>
<totfact> 0.12391488E+04</totfact>
</mgrwt>
</event>
<event>
 7    1  0.6008063E-006  0.1299830E+03  0.7546771E-02  0.1241872E+00
          2   -1    0    0  501    0  0.00000000000E+00  0.00000000000E+00  0.18518815119E+04  0.18518815119E+04  0.00000000000E+00 0.  1.
         -2   -1    0    0    0  501 -0.00000000000E+00 -0.00000000000E+00 -0.13470269050E+02  0.13470269050E+02  0.00000000000E+00 0. -1.
         23    2    1    2    0    0 -0.22851029497E+02 -0.27360774396E+02  0.16342337881E+04  0.16393949075E+04  0.12499922854E+03 0.  0.
          5    1    3    3  502    0  0.32184289101E+02 -0.22013784045E+02  0.12994157817E+04  0.13000091918E+04  0.47000000000E+01 0. -1.
         -5    1    3    3    0  502 -0.55035318598E+02 -0.53469903511E+01  0.33481800639E+03  0.33938571567E+03  0.47000000000E+01 0. -1.
        -11    1    1    2    0    0 -0.96206338832E+01 -0.15850807977E+02  0.44827300090E+01  0.19076152080E+02  0.00000000000E+00 0. -1.
         11    1    1    2    0    0  0.32471663380E+02  0.43211582373E+02  0.19969472475E+03  0.20688072135E+03  0.00000000000E+00 0.  1.
<mgrwt>
<rscale>  0 0.12074560E+03</rscale>
<asrwt>0</asrwt>
<pdfrwt beam="1">  1        2 0.28490465E+00 0.12998303E+03</pdfrwt>
<pdfrwt beam="2">  1       -2 0.20723506E-02 0.12998303E+03</pdfrwt>
<totfact> 0.64317617E+03</totfact>
</mgrwt>
</event>
<event>
 7    1  0.6008063E-006  0.1638828E+03  0.7546771E-02  0.1190647E+00
          2   -1    0    0  501    0  0.00000000000E+00  0.00000000000E+00  0.19688135745E+03  0.19688135745E+03  0.00000000000E+00 0. -1.
         -2   -1    0    0    0  501 -0.00000000000E+00 -0.00000000000E+00 -0.11932462134E+03  0.11932462134E+03  0.00000000000E+00 0.  1.
         23    2    1    2    0    0  0.17681605599E+02 -0.10449232155E+03  0.38588407497E+02  0.16836463010E+03  0.12500519604E+03 0.  0.
          5    1    3    3  502    0  0.38230613356E+02 -0.92532550046E+02 -0.22430571502E+02  0.10270868100E+03  0.47000000000E+01 0.  1.
         -5    1    3    3    0  502 -0.20549007757E+02 -0.11959771506E+02  0.61018979000E+02  0.65655949101E+02  0.47000000000E+01 0.  1.
        -11    1    1    2    0    0  0.62399474111E+01  0.57824468288E+02  0.66718811073E+02  0.88509919373E+02  0.00000000000E+00 0.  1.
         11    1    1    2    0    0 -0.23921553010E+02  0.46667853264E+02 -0.27750482462E+02  0.59331429306E+02  0.00000000000E+00 0. -1.
<mgrwt>
<rscale>  0 0.15828511E+03</rscale>
<asrwt>0</asrwt>
<pdfrwt beam="1">  1        2 0.30289440E-01 0.16388283E+03</pdfrwt>
<pdfrwt beam="2">  1       -2 0.18357634E-01 0.16388283E+03</pdfrwt>
<totfact> 0.40981751E+03</totfact>
</mgrwt>
</event>
<event>
 7    1  0.6008063E-006  0.1458315E+03  0.7546771E-02  0.1215147E+00
         -1   -1    0    0    0  501 -0.00000000000E+00  0.00000000000E+00  0.17679109720E+03  0.17679109720E+03  0.00000000000E+00 0.  1.
          1   -1    0    0  501    0  0.00000000000E+00 -0.00000000000E+00 -0.10093618725E+03  0.10093618725E+03  0.00000000000E+00 0. -1.
         23    2    1    2    0    0 -0.72641079713E+02 -0.19122981358E+02  0.24176196055E+02  0.14782193181E+03  0.12499768073E+03 0.  0.
          5    1    3    3  502    0 -0.21630461290E+02 -0.56953075904E+02 -0.26338597483E+02  0.66538270401E+02  0.47000000000E+01 0. -1.
         -5    1    3    3    0  502 -0.51010618423E+02  0.37830094546E+02  0.50514793537E+02  0.81283661405E+02  0.47000000000E+01 0. -1.
        -11    1    1    2    0    0  0.66662266910E+02  0.26833148261E+01 -0.84817290622E+01  0.67253235877E+02  0.00000000000E+00 0. -1.
         11    1    1    2    0    0  0.59788128027E+01  0.16439666532E+02  0.60160442955E+02  0.62652116762E+02  0.00000000000E+00 0.  1.
<mgrwt>
<rscale>  0 0.13865726E+03</rscale>
<asrwt>0</asrwt>
<pdfrwt beam="2">  1        1 0.15528644E-01 0.14583153E+03</pdfrwt>
<pdfrwt beam="1">  1       -1 0.27198630E-01 0.14583153E+03</pdfrwt>
<totfact> 0.41372721E+03</totfact>
</mgrwt>
</event>
<event>
 7    1  0.6008063E-006  0.1258761E+03  0.7546771E-02  0.1249225E+00
         -2   -1    0    0    0  501 -0.00000000000E+00  0.00000000000E+00  0.24104865313E+02  0.24104865313E+02  0.00000000000E+00 0.  1.
          2   -1    0    0  501    0  0.00000000000E+00 -0.00000000000E+00 -0.50794749938E+03  0.50794749938E+03  0.00000000000E+00 0. -1.
         23    2    1    2    0    0 -0.38412031011E+01 -0.14456806563E+02 -0.32511555618E+03  0.34863294072E+03  0.12498419256E+03 0.  0.
          5    1    3    3  502    0  0.15917551059E+02 -0.89484394254E-01 -0.32325997109E+03  0.32368576637E+03  0.47000000000E+01 0.  1.
         -5    1    3    3    0  502 -0.19758754161E+02 -0.14367322169E+02 -0.18555850889E+01  0.24947174355E+02  0.47000000000E+01 0.  1.
        -11    1    1    2    0    0 -0.25077699571E+02 -0.16906936340E+02 -0.12619697547E+03  0.12977061351E+03  0.00000000000E+00 0. -1.
         11    1    1    2    0    0  0.28918902672E+02  0.31363742903E+02 -0.32530102414E+02  0.53648810459E+02  0.00000000000E+00 0.  1.
<mgrwt>
<rscale>  0 0.11636018E+03</rscale>
<asrwt>0</asrwt>
<pdfrwt beam="2">  1        2 0.78145767E-01 0.12587614E+03</pdfrwt>
<pdfrwt beam="1">  1       -2 0.37084409E-02 0.12587614E+03</pdfrwt>
<totfact> 0.17652545E+04</totfact>
</mgrwt>
</event>
<event>
 7    1  0.6008063E-006  0.1391616E+03  0.7546771E-02  0.1224025E+00
         -2   -1    0    0    0  501 -0.00000000000E+00  0.00000000000E+00  0.71799041869E+02  0.71799041869E+02  0.00000000000E+00 0.  1.
          2   -1    0    0  501    0  0.00000000000E+00 -0.00000000000E+00 -0.22494366543E+03  0.22494366543E+03  0.00000000000E+00 0. -1.
         23    2    1    2    0    0  0.57808604896E+02 -0.19982163050E+02 -0.98463249828E+02  0.17047275081E+03  0.12499930225E+03 0.  0.
          5    1    3    3  502    0  0.46436992891E+02  0.43705397356E+02 -0.16667733059E+02  0.66079190311E+02  0.47000000000E+01 0. -1.
         -5    1    3    3    0  502  0.11371612005E+02 -0.63687560407E+02 -0.81795516768E+02  0.10439356050E+03  0.47000000000E+01 0. -1.
        -11    1    1    2    0    0 -0.24294046230E+02 -0.35564588303E+02 -0.27276993234E+01  0.43156470743E+02  0.00000000000E+00 0.  1.
         11    1    1    2    0    0 -0.33514558665E+02  0.55546751354E+02 -0.51953674414E+02  0.83113485750E+02  0.00000000000E+00 0. -1.
<mgrwt>
<rscale>  0 0.13233972E+03</rscale>
<asrwt>0</asrwt>
<pdfrwt beam="2">  1        2 0.34606717E-01 0.13916159E+03</pdfrwt>
<pdfrwt beam="1">  1       -2 0.11046007E-01 0.13916159E+03</pdfrwt>
<totfact> 0.80409531E+03</totfact>
</mgrwt>
</event>
<event>
 7    1  0.6008063E-006  0.3351398E+03  0.7546771E-02  0.1070197E+00
         -2   -1    0    0    0  501 -0.00000000000E+00  0.00000000000E+00  0.33965013695E+03  0.33965013695E+03  0.00000000000E+00 0.  1.
          2   -1    0    0  501    0  0.00000000000E+00 -0.00000000000E+00 -0.33629008925E+03  0.33629008925E+03  0.00000000000E+00 0. -1.
         23    2    1    2    0    0  0.30792306916E+03 -0.43339954503E+02 -0.74724471478E+02  0.34336927663E+03  0.12499498119E+03 0.  0.
          5    1    3    3  502    0  0.54612406973E+02  0.19871302526E+02 -0.57173191345E+02  0.81659337910E+02  0.47000000000E+01 0. -1.
         -5    1    3    3    0  502  0.25331066219E+03 -0.63211257029E+02 -0.17551280133E+02  0.26170993872E+03  0.47000000000E+01 0. -1.
        -11    1    1    2    0    0 -0.19266137294E+03 -0.87527600873E+01  0.21670265202E+02  0.19407373811E+03  0.00000000000E+00 0.  1.
         11    1    1    2    0    0 -0.11526169622E+03  0.52092714590E+02  0.56414253978E+02  0.13849721146E+03  0.00000000000E+00 0. -1.
<mgrwt>
<rscale>  0 0.33213323E+03</rscale>
<asrwt>0</asrwt>
<pdfrwt beam="2">  1        2 0.51736937E-01 0.33513984E+03</pdfrwt>
<pdfrwt beam="1">  1       -2 0.52253867E-01 0.33513984E+03</pdfrwt>
<totfact> 0.34056198E+02</totfact>
</mgrwt>
</event>
<event>
 7    1  0.6008063E-006  0.2257343E+03  0.7546771E-02  0.1132795E+00
         -2   -1    0    0    0  501 -0.00000000000E+00  0.00000000000E+00  0.88677653937E+03  0.88677653937E+03  0.00000000000E+00 0.  1.
          2   -1    0    0  501    0  0.00000000000E+00 -0.00000000000E+00 -0.67738164301E+02  0.67738164301E+02  0.00000000000E+00 0. -1.
         23    2    1    2    0    0 -0.16941302498E+03  0.81422587318E+02  0.20172054555E+03  0.30273279048E+03  0.12500221270E+03 0.  0.
          5    1    3    3  502    0  0.66108339007E+01  0.33889551321E+02  0.62813261580E+01  0.35408330544E+02  0.47000000000E+01 0. -1.
         -5    1    3    3    0  502 -0.17602385888E+03  0.47533035997E+02  0.19543921939E+03  0.26732445994E+03  0.47000000000E+01 0. -1.
        -11    1    1    2    0    0  0.10372499700E+03 -0.41701419651E+02  0.21629109786E+03  0.24347427465E+03  0.00000000000E+00 0. -1.
         11    1    1    2    0    0  0.65688027983E+02 -0.39721167668E+02  0.40102673166E+03  0.40830763853E+03  0.00000000000E+00 0.  1.
<mgrwt>
<rscale>  0 0.22146543E+03</rscale>
<asrwt>0</asrwt>
<pdfrwt beam="2">  1        2 0.10421257E-01 0.22573428E+03</pdfrwt>
<pdfrwt beam="1">  1       -2 0.13642715E+00 0.22573428E+03</pdfrwt>
<totfact> 0.24602539E+02</totfact>
</mgrwt>
</event>
<event>
 7    1  0.6008063E-006  0.3133183E+03  0.7546771E-02  0.1080194E+00
         -2   -1    0    0    0  501 -0.00000000000E+00  0.00000000000E+00  0.18265990309E+03  0.18265990309E+03  0.00000000000E+00 0. -1.
          2   -1    0    0  501    0  0.00000000000E+00 -0.00000000000E+00 -0.64212547447E+03  0.64212547447E+03  0.00000000000E+00 0.  1.
         23    2    1    2    0    0 -0.13920309351E+03  0.25132447563E+03 -0.41506973725E+03  0.52004928813E+03  0.12500752780E+03 0.  0.
          5    1    3    3  502    0 -0.15445881964E+03  0.24584877083E+03 -0.36036393464E+03  0.46279952515E+03  0.47000000000E+01 0.  1.
         -5    1    3    3    0  502  0.15255726123E+02  0.54757047999E+01 -0.54705802610E+02  0.57249762985E+02  0.47000000000E+01 0.  1.
        -11    1    1    2    0    0  0.24737200436E+02 -0.59595569352E+02 -0.49584626138E+02  0.81376877066E+02  0.00000000000E+00 0.  1.
         11    1    1    2    0    0  0.11446589308E+03 -0.19172890628E+03  0.51887920124E+01  0.22335921236E+03  0.00000000000E+00 0. -1.
<mgrwt>
<rscale>  0 0.31031710E+03</rscale>
<asrwt>0</asrwt>
<pdfrwt beam="2">  1        2 0.98788537E-01 0.31331833E+03</pdfrwt>
<pdfrwt beam="1">  1       -2 0.28101523E-01 0.31331833E+03</pdfrwt>
<totfact> 0.53820099E+02</totfact>
</mgrwt>
</event>
<event>
 7    1  0.6008063E-006  0.2006509E+03  0.7546771E-02  0.1154854E+00
          1   -1    0    0  501    0  0.00000000000E+00  0.00000000000E+00  0.31690368126E+03  0.31690368126E+03  0.00000000000E+00 0. -1.
         -1   -1    0    0    0  501 -0.00000000000E+00 -0.00000000000E+00 -0.12497036364E+03  0.12497036364E+03  0.00000000000E+00 0.  1.
         23    2    1    2    0    0 -0.11651295814E+03 -0.10517172876E+03  0.17369952930E+03  0.26539085302E+03  0.12499766574E+03 0.  0.
          5    1    3    3  502    0 -0.15142294657E+02 -0.32089517923E+02  0.12692168730E+03  0.13187202491E+03  0.47000000000E+01 0. -1.
         -5    1    3    3    0  502 -0.10137066349E+03 -0.73082210837E+02  0.46777842009E+02  0.13351882811E+03  0.47000000000E+01 0. -1.
        -11    1    1    2    0    0  0.34124809070E+02  0.26397056448E+02 -0.30168411298E+02  0.52644470017E+02  0.00000000000E+00 0.  1.
         11    1    1    2    0    0  0.82388149074E+02  0.78774672312E+02  0.48402199607E+02  0.12383872186E+03  0.00000000000E+00 0. -1.
<mgrwt>
<rscale>  0 0.19405465E+03</rscale>
<asrwt>0</asrwt>
<pdfrwt beam="1">  1        1 0.48754412E-01 0.20065089E+03</pdfrwt>
<pdfrwt beam="2">  1       -1 0.19226210E-01 0.20065089E+03</pdfrwt>
<totfact> 0.17435049E+03</totfact>
</mgrwt>
</event>
<event>
 7    1  0.6008063E-006  0.1412202E+03  0.7546771E-02  0.1222160E+00
          2   -1    0    0  501    0  0.00000000000E+00  0.00000000000E+00  0.31664331232E+03  0.31664331232E+03  0.00000000000E+00 0. -1.
         -2   -1    0    0    0  501 -0.00000000000E+00 -0.00000000000E+00 -0.60313038507E+02  0.60313038507E+02  0.00000000000E+00 0.  1.
         23    2    1    2    0    0 -0.29476304343E+02  0.58720709699E+02  0.21331678672E+03  0.25582647123E+03  0.12500463040E+03 0.  0.
          5    1    3    3  502    0  0.37934093932E+02 -0.10956743623E+02  0.93664647261E+02  0.10175559867E+03  0.47000000000E+01 0.  1.
         -5    1    3    3    0  502 -0.67410398274E+02  0.69677453323E+02  0.11965213946E+03  0.15407087257E+03  0.47000000000E+01 0.  1.
        -11    1    1    2    0    0  0.44728874906E+02 -0.55246502485E+02 -0.43831867374E+01  0.71218400805E+02  0.00000000000E+00 0.  1.
         11    1    1    2    0    0 -0.15252570564E+02 -0.34742072143E+01  0.47396673828E+02  0.49911478785E+02  0.00000000000E+00 0. -1.
<mgrwt>
<rscale>  0 0.13363438E+03</rscale>
<asrwt>0</asrwt>
<pdfrwt beam="1">  1        2 0.48714355E-01 0.14122015E+03</pdfrwt>
<pdfrwt beam="2">  1       -2 0.92789292E-02 0.14122015E+03</pdfrwt>
<totfact> 0.73598329E+03</totfact>
</mgrwt>
</event>
<event>
 7    1  0.6008063E-006  0.1528321E+03  0.7546771E-02  0.1205750E+00
          1   -1    0    0  501    0  0.00000000000E+00  0.00000000000E+00  0.17716856044E+03  0.17716856044E+03  0.00000000000E+00 0. -1.
         -1   -1    0    0    0  501 -0.00000000000E+00 -0.00000000000E+00 -0.11066113310E+03  0.11066113310E+03  0.00000000000E+00 0.  1.
         23    2    1    2    0    0  0.31830917909E+01  0.87879124608E+02  0.46303566398E+02  0.15969238759E+03  0.12499906311E+03 0.  0.
          5    1    3    3  502    0  0.44422118432E+02 -0.10645235624E+02  0.14158416276E+02  0.48054098669E+02  0.47000000000E+01 0.  1.
         -5    1    3    3    0  502 -0.41239026641E+02  0.98524360232E+02  0.32145150122E+02  0.11163828892E+03  0.47000000000E+01 0.  1.
        -11    1    1    2    0    0  0.28325352696E+02 -0.36279455904E+01 -0.14124844745E+02  0.31859046339E+02  0.00000000000E+00 0.  1.
         11    1    1    2    0    0 -0.31508444487E+02 -0.84251179018E+02  0.34328705682E+02  0.96278259611E+02  0.00000000000E+00 0. -1.
<mgrwt>
<rscale>  0 0.14578508E+03</rscale>
<asrwt>0</asrwt>
<pdfrwt beam="1">  1        1 0.27256702E-01 0.15283206E+03</pdfrwt>
<pdfrwt beam="2">  1       -1 0.17024790E-01 0.15283206E+03</pdfrwt>
<totfact> 0.43334317E+03</totfact>
</mgrwt>
</event>
<event>
 7    1  0.6008063E-006  0.1660536E+03  0.7546771E-02  0.1188953E+00
         -1   -1    0    0    0  501 -0.00000000000E+00  0.00000000000E+00  0.24194479835E+03  0.24194479835E+03  0.00000000000E+00 0.  1.
          1   -1    0    0  501    0  0.00000000000E+00 -0.00000000000E+00 -0.14815699570E+03  0.14815699570E+03  0.00000000000E+00 0. -1.
         23    2    1    2    0    0  0.10820832838E+03 -0.15508238940E+02 -0.63682664528E+02  0.17784624206E+03  0.12499702495E+03 0.  0.
          5    1    3    3  502    0  0.34243706069E+02  0.15355793251E+00  0.37792530322E+02  0.51215430619E+02  0.47000000000E+01 0. -1.
         -5    1    3    3    0  502  0.73964622312E+02 -0.15661796872E+02 -0.10147519485E+03  0.12663081144E+03  0.47000000000E+01 0. -1.
        -11    1    1    2    0    0 -0.51171965108E+02  0.31500241762E+02  0.13697186505E+03  0.14957314952E+03  0.00000000000E+00 0. -1.
         11    1    1    2    0    0 -0.57036363273E+02 -0.15992002822E+02  0.20498602136E+02  0.62682402468E+02  0.00000000000E+00 0.  1.
<mgrwt>
<rscale>  0 0.15977324E+03</rscale>
<asrwt>0</asrwt>
<pdfrwt beam="2">  1        1 0.22793384E-01 0.16605362E+03</pdfrwt>
<pdfrwt beam="1">  1       -1 0.37222277E-01 0.16605362E+03</pdfrwt>
<totfact> 0.14927039E+03</totfact>
</mgrwt>
</event>
<event>
 7    1  0.6008063E-006  0.1375691E+03  0.7546771E-02  0.1228959E+00
          2   -1    0    0  501    0  0.00000000000E+00  0.00000000000E+00  0.24308505920E+03  0.24308505920E+03  0.00000000000E+00 0. -1.
         -2   -1    0    0    0  501 -0.00000000000E+00 -0.00000000000E+00 -0.13464576671E+03  0.13464576671E+03  0.00000000000E+00 0.  1.
         23    2    1    2    0    0 -0.26815765614E+02  0.50814155682E+02  0.19635909520E+03  0.23975435222E+03  0.12499636569E+03 0.  0.
          5    1    3    3  502    0  0.35468651875E+02  0.39767373160E+01  0.13707931536E+03  0.14172744408E+03  0.47000000000E+01 0.  1.
         -5    1    3    3    0  502 -0.62284417489E+02  0.46837418366E+02  0.59279779841E+02  0.98026908138E+02  0.47000000000E+01 0.  1.
        -11    1    1    2    0    0 -0.31960815248E+02 -0.24418716577E+02 -0.22200793589E+02  0.45941731210E+02  0.00000000000E+00 0.  1.
         11    1    1    2    0    0  0.58776580862E+02 -0.26395439105E+02 -0.65719009127E+02  0.92034742483E+02  0.00000000000E+00 0. -1.
<mgrwt>
<rscale>  0 0.12899178E+03</rscale>
<asrwt>0</asrwt>
<pdfrwt beam="1">  1        2 0.37397701E-01 0.13756909E+03</pdfrwt>
<pdfrwt beam="2">  1       -2 0.20714733E-01 0.13756909E+03</pdfrwt>
<totfact> 0.26398384E+03</totfact>
</mgrwt>
</event>
<event>
 7    1  0.6008063E-006  0.1270495E+03  0.7546771E-02  0.1245802E+00
          1   -1    0    0  501    0  0.00000000000E+00  0.00000000000E+00  0.46065173025E+03  0.46065173025E+03  0.00000000000E+00 0. -1.
         -1   -1    0    0    0  501 -0.00000000000E+00 -0.00000000000E+00 -0.27016643754E+02  0.27016643754E+02  0.00000000000E+00 0.  1.
         23    2    1    2    0    0 -0.21637310761E+01  0.22657878384E+02  0.26012533103E+03  0.28949395768E+03  0.12499400987E+03 0.  0.
          5    1    3    3  502    0  0.50220346217E+02 -0.15744893732E+02  0.17189332741E+03  0.17983156247E+03  0.47000000000E+01 0. -1.
         -5    1    3    3    0  502 -0.52384077293E+02  0.38402772116E+02  0.88232003624E+02  0.10966239521E+03  0.47000000000E+01 0. -1.
        -11    1    1    2    0    0  0.26957036969E+02 -0.12531799144E+02  0.16828194022E+03  0.17088750462E+03  0.00000000000E+00 0. -1.
         11    1    1    2    0    0 -0.24793305892E+02 -0.10126079240E+02  0.52278152429E+01  0.27286911699E+02  0.00000000000E+00 0.  1.
<mgrwt>
<rscale>  0 0.11837521E+03</rscale>
<asrwt>0</asrwt>
<pdfrwt beam="1">  1        1 0.70869491E-01 0.12704945E+03</pdfrwt>
<pdfrwt beam="2">  1       -1 0.41564071E-02 0.12704945E+03</pdfrwt>
<totfact> 0.11049707E+04</totfact>
</mgrwt>
</event>
<event>
 7    1  0.6008063E-006  0.1777324E+03  0.7546771E-02  0.1176225E+00
          2   -1    0    0  501    0  0.00000000000E+00  0.00000000000E+00  0.99482658421E+03  0.99482658421E+03  0.00000000000E+00 0. -1.
         -2   -1    0    0    0  501 -0.00000000000E+00 -0.00000000000E+00 -0.27737675754E+02  0.27737675754E+02  0.00000000000E+00 0.  1.
         23    2    1    2    0    0  0.32789357620E+02  0.12202457655E+03  0.53426689310E+03  0.56305408385E+03  0.12499459595E+03 0.  0.
          5    1    3    3  502    0 -0.19131009545E+02  0.70867282848E+01  0.26336321665E+03  0.26419404068E+03  0.47000000000E+01 0.  1.
         -5    1    3    3    0  502  0.51920367165E+02  0.11493784826E+03  0.27090367645E+03  0.29886004317E+03  0.47000000000E+01 0.  1.
        -11    1    1    2    0    0 -0.87472153660E+01 -0.36269573881E+02  0.32748228665E+02  0.49643149043E+02  0.00000000000E+00 0.  1.
         11    1    1    2    0    0 -0.24042142254E+02 -0.85755002665E+02  0.40007378669E+03  0.40986702707E+03  0.00000000000E+00 0. -1.
<mgrwt>
<rscale>  0 0.17156572E+03</rscale>
<asrwt>0</asrwt>
<pdfrwt beam="1">  1        2 0.15305022E+00 0.17773235E+03</pdfrwt>
<pdfrwt beam="2">  1       -2 0.42673355E-02 0.17773235E+03</pdfrwt>
<totfact> 0.64775148E+03</totfact>
</mgrwt>
</event>
<event>
 7    1  0.6008063E-006  0.1669889E+03  0.7546771E-02  0.1187781E+00
          2   -1    0    0  501    0  0.00000000000E+00  0.00000000000E+00  0.65668068283E+02  0.65668068283E+02  0.00000000000E+00 0. -1.
         -2   -1    0    0    0  501 -0.00000000000E+00 -0.00000000000E+00 -0.41438584215E+03  0.41438584215E+03  0.00000000000E+00 0.  1.
         23    2    1    2    0    0 -0.10275179945E+03 -0.41256581397E+02 -0.10528108059E+03  0.19740666644E+03  0.12500099291E+03 0.  0.
          5    1    3    3  502    0 -0.21338194527E+02  0.37836992883E+02 -0.17885897661E+01  0.43729230835E+02  0.47000000000E+01 0.  1.
         -5    1    3    3    0  502 -0.81413604922E+02 -0.79093574280E+02 -0.10349249082E+03  0.15367743561E+03  0.47000000000E+01 0.  1.
        -11    1    1    2    0    0  0.51139167915E+02 -0.52450105244E+01 -0.18455064023E+03  0.19157678210E+03  0.00000000000E+00 0.  1.
         11    1    1    2    0    0  0.51612631534E+02  0.46501591922E+02 -0.58886053051E+02  0.91070461891E+02  0.00000000000E+00 0. -1.
<mgrwt>
<rscale>  0 0.16081365E+03</rscale>
<asrwt>0</asrwt>
<pdfrwt beam="1">  1        2 0.10102780E-01 0.16698888E+03</pdfrwt>
<pdfrwt beam="2">  1       -2 0.63751668E-01 0.16698888E+03</pdfrwt>
<totfact> 0.14437338E+03</totfact>
</mgrwt>
</event>
<event>
 7    1  0.6008063E-006  0.1293501E+03  0.7546771E-02  0.1242149E+00
          1   -1    0    0  501    0  0.00000000000E+00  0.00000000000E+00  0.43455699786E+02  0.43455699786E+02  0.00000000000E+00 0. -1.
         -1   -1    0    0    0  501 -0.00000000000E+00 -0.00000000000E+00 -0.30776717456E+03  0.30776717456E+03  0.00000000000E+00 0.  1.
         23    2    1    2    0    0  0.29896575302E+02 -0.14645251022E+02 -0.18321562519E+03  0.22427530390E+03  0.12499263192E+03 0.  0.
          5    1    3    3  502    0  0.11411611475E+02 -0.51172992924E+02 -0.20612573109E+02  0.56532010856E+02  0.47000000000E+01 0.  1.
         -5    1    3    3    0  502  0.18484963827E+02  0.36527741902E+02 -0.16260305208E+03  0.16774329305E+03  0.47000000000E+01 0.  1.
        -11    1    1    2    0    0 -0.34805979520E+02  0.30955317810E+02 -0.94444965000E+02  0.10530688166E+03  0.00000000000E+00 0.  1.
         11    1    1    2    0    0  0.49094042184E+01 -0.16310066788E+02  0.13349115419E+02  0.21640688780E+02  0.00000000000E+00 0. -1.
<mgrwt>
<rscale>  0 0.12057680E+03</rscale>
<asrwt>0</asrwt>
<pdfrwt beam="1">  1        1 0.66854922E-02 0.12935009E+03</pdfrwt>
<pdfrwt beam="2">  1       -1 0.47348796E-01 0.12935009E+03</pdfrwt>
<totfact> 0.48122855E+03</totfact>
</mgrwt>
</event>
<event>
 7    1  0.6008063E-006  0.4725352E+03  0.7546771E-02  0.1021728E+00
          2   -1    0    0  501    0  0.00000000000E+00  0.00000000000E+00  0.50942675692E+03  0.50942675692E+03  0.00000000000E+00 0. -1.
         -2   -1    0    0    0  501 -0.00000000000E+00 -0.00000000000E+00 -0.44034324354E+03  0.44034324354E+03  0.00000000000E+00 0.  1.
         23    2    1    2    0    0  0.17022704002E+03  0.42271532014E+03  0.10206056729E+03  0.48343134486E+03  0.12499607500E+03 0.  0.
          5    1    3    3  502    0 -0.13946630436E+02  0.45696535711E+01  0.58216055531E+01  0.16473351981E+02  0.47000000000E+01 0.  1.
         -5    1    3    3    0  502  0.18417367046E+03  0.41814566657E+03  0.96238961733E+02  0.46695799288E+03  0.47000000000E+01 0.  1.
        -11    1    1    2    0    0 -0.13335007896E+03 -0.22639047287E+03  0.59995180545E+01  0.26281340145E+03  0.00000000000E+00 0.  1.
         11    1    1    2    0    0 -0.36876961066E+02 -0.19632484727E+03 -0.38976571959E+02  0.20352525414E+03  0.00000000000E+00 0. -1.
<mgrwt>
<rscale>  0 0.47068334E+03</rscale>
<asrwt>0</asrwt>
<pdfrwt beam="1">  1        2 0.78373347E-01 0.47253519E+03</pdfrwt>
<pdfrwt beam="2">  1       -2 0.67745114E-01 0.47253519E+03</pdfrwt>
<totfact> 0.12365470E+02</totfact>
</mgrwt>
</event>
<event>
 7    1  0.6008063E-006  0.1345262E+03  0.7546771E-02  0.1232999E+00
         -2   -1    0    0    0  501 -0.00000000000E+00  0.00000000000E+00  0.60114480328E+02  0.60114480328E+02  0.00000000000E+00 0.  1.
          2   -1    0    0  501    0  0.00000000000E+00 -0.00000000000E+00 -0.32571699265E+03  0.32571699265E+03  0.00000000000E+00 0. -1.
         23    2    1    2    0    0 -0.10173999107E+02  0.48676327695E+02 -0.24454270781E+03  0.27910291850E+03  0.12499763213E+03 0.  0.
          5    1    3    3  502    0  0.11471750161E+02  0.16397715067E+02 -0.23862704917E+03  0.23951084465E+03  0.47000000000E+01 0. -1.
         -5    1    3    3    0  502 -0.21645749268E+02  0.32278612628E+02 -0.59156586407E+01  0.39592073849E+02  0.47000000000E+01 0. -1.
        -11    1    1    2    0    0 -0.26085638331E+02 -0.48182864915E+02  0.13720142543E+02  0.56482663800E+02  0.00000000000E+00 0.  1.
         11    1    1    2    0    0  0.36259637438E+02 -0.49346278019E+00 -0.34779947059E+02  0.50245890678E+02  0.00000000000E+00 0. -1.
<mgrwt>
<rscale>  0 0.12633376E+03</rscale>
<asrwt>0</asrwt>
<pdfrwt beam="2">  1        2 0.50110305E-01 0.13452622E+03</pdfrwt>
<pdfrwt beam="1">  1       -2 0.92483818E-02 0.13452622E+03</pdfrwt>
<totfact> 0.71570107E+03</totfact>
</mgrwt>
</event>
<event>
 7    1  0.6008063E-006  0.1610527E+03  0.7546771E-02  0.1195593E+00
          2   -1    0    0  501    0  0.00000000000E+00  0.00000000000E+00  0.62024183358E+03  0.62024183358E+03  0.00000000000E+00 0. -1.
         -2   -1    0    0    0  501 -0.00000000000E+00 -0.00000000000E+00 -0.35386980645E+02  0.35386980645E+02  0.00000000000E+00 0.  1.
         23    2    1    2    0    0 -0.17535077333E+01  0.10153607820E+03  0.33651839868E+03  0.37307186565E+03  0.12500133730E+03 0.  0.
          5    1    3    3  502    0 -0.39820754776E+01  0.91804142317E+02  0.34630662001E+03  0.35832139559E+03  0.47000000000E+01 0. -1.
         -5    1    3    3    0  502  0.22285677444E+01  0.97319358868E+01 -0.97882213329E+01  0.14750470066E+02  0.47000000000E+01 0. -1.
        -11    1    1    2    0    0  0.20134355240E+02  0.44042813653E+01  0.14547344912E+02  0.25227270944E+02  0.00000000000E+00 0. -1.
         11    1    1    2    0    0 -0.18380847507E+02 -0.10594035957E+03  0.23378910935E+03  0.25732967763E+03  0.00000000000E+00 0.  1.
<mgrwt>
<rscale>  0 0.15404152E+03</rscale>
<asrwt>0</asrwt>
<pdfrwt beam="1">  1        2 0.95421812E-01 0.16105274E+03</pdfrwt>
<pdfrwt beam="2">  1       -2 0.54441513E-02 0.16105274E+03</pdfrwt>
<totfact> 0.80804081E+03</totfact>
</mgrwt>
</event>
<event>
 7    1  0.6008063E-006  0.1945027E+03  0.7546771E-02  0.1159233E+00
          1   -1    0    0  501    0  0.00000000000E+00  0.00000000000E+00  0.11662316635E+03  0.11662316635E+03  0.00000000000E+00 0. -1.
         -1   -1    0    0    0  501 -0.00000000000E+00 -0.00000000000E+00 -0.38759494915E+03  0.38759494915E+03  0.00000000000E+00 0.  1.
         23    2    1    2    0    0 -0.14589045597E+03  0.30343524882E+02 -0.15460453146E+02  0.19511615167E+03  0.12500612938E+03 0.  0.
          5    1    3    3  502    0 -0.88614466144E+01  0.36915471040E+02  0.32002487548E+02  0.49875108496E+02  0.47000000000E+01 0. -1.
         -5    1    3    3    0  502 -0.13702900936E+03 -0.65719461573E+01 -0.47462940694E+02  0.14524104317E+03  0.47000000000E+01 0. -1.
        -11    1    1    2    0    0  0.39612973080E+02 -0.45111338734E+02 -0.13498892060E+03  0.14773702720E+03  0.00000000000E+00 0.  1.
         11    1    1    2    0    0  0.10627748289E+03  0.14767813852E+02 -0.12052240905E+03  0.16136493665E+03  0.00000000000E+00 0. -1.
<mgrwt>
<rscale>  0 0.18914687E+03</rscale>
<asrwt>0</asrwt>
<pdfrwt beam="1">  1        1 0.17942026E-01 0.19450267E+03</pdfrwt>
<pdfrwt beam="2">  1       -1 0.59629991E-01 0.19450267E+03</pdfrwt>
<totfact> 0.86290942E+02</totfact>
</mgrwt>
</event>
<event>
 7    1  0.6008063E-006  0.1620406E+03  0.7546771E-02  0.1193855E+00
          2   -1    0    0  501    0  0.00000000000E+00  0.00000000000E+00  0.68245710175E+03  0.68245710175E+03  0.00000000000E+00 0. -1.
         -2   -1    0    0    0  501 -0.00000000000E+00 -0.00000000000E+00 -0.33202938466E+02  0.33202938466E+02  0.00000000000E+00 0.  1.
         23    2    1    2    0    0  0.76543550979E+02 -0.69088097836E+02  0.31486024074E+03  0.35411035258E+03  0.12500036057E+03 0.  0.
          5    1    3    3  502    0  0.10444684362E+03 -0.72526931877E+02  0.28837378193E+03  0.31519966227E+03  0.47000000000E+01 0.  1.
         -5    1    3    3    0  502 -0.27903292643E+02  0.34388340416E+01  0.26486458815E+02  0.38910690310E+02  0.47000000000E+01 0.  1.
        -11    1    1    2    0    0  0.45864895652E+01  0.34016829248E+02  0.18343830505E+03  0.18662205743E+03  0.00000000000E+00 0.  1.
         11    1    1    2    0    0 -0.81130040545E+02  0.35071268588E+02  0.15095561749E+03  0.17492763021E+03  0.00000000000E+00 0. -1.
<mgrwt>
<rscale>  0 0.15551507E+03</rscale>
<asrwt>0</asrwt>
<pdfrwt beam="1">  1        2 0.10499339E+00 0.16204064E+03</pdfrwt>
<pdfrwt beam="2">  1       -2 0.51081449E-02 0.16204064E+03</pdfrwt>
<totfact> 0.79583413E+03</totfact>
</mgrwt>
</event>
<event>
 7    1  0.6008063E-006  0.1356094E+03  0.7546771E-02  0.1232206E+00
          2   -1    0    0  501    0  0.00000000000E+00  0.00000000000E+00  0.15832792125E+03  0.15832792125E+03  0.00000000000E+00 0. -1.
         -2   -1    0    0    0  501 -0.00000000000E+00 -0.00000000000E+00 -0.91658721407E+02  0.91658721407E+02  0.00000000000E+00 0.  1.
         23    2    1    2    0    0  0.52097231897E+02  0.69751005125E+01  0.51513114933E+02  0.14506382406E+03  0.12500855348E+03 0.  0.
          5    1    3    3  502    0  0.16197530048E+02 -0.28163275508E+02 -0.33056737121E+02  0.46587207859E+02  0.47000000000E+01 0.  1.
         -5    1    3    3    0  502  0.35899701849E+02  0.35138376020E+02  0.84569852055E+02  0.98476616203E+02  0.47000000000E+01 0.  1.
        -11    1    1    2    0    0  0.15997699048E+02 -0.28196154175E+02  0.66382932700E+01  0.33091032360E+02  0.00000000000E+00 0. -1.
         11    1    1    2    0    0 -0.68094930946E+02  0.21221053663E+02  0.85177916372E+01  0.71831786233E+02  0.00000000000E+00 0.  1.
<mgrwt>
<rscale>  0 0.12684990E+03</rscale>
<asrwt>0</asrwt>
<pdfrwt beam="1">  1        2 0.24358142E-01 0.13560941E+03</pdfrwt>
<pdfrwt beam="2">  1       -2 0.14101342E-01 0.13560941E+03</pdfrwt>
<totfact> 0.79491609E+03</totfact>
</mgrwt>
</event>
<event>
 7    1  0.6008063E-006  0.2422602E+03  0.7546771E-02  0.1120956E+00
         -2   -1    0    0    0  501 -0.00000000000E+00  0.00000000000E+00  0.28283883392E+02  0.28283883392E+02  0.00000000000E+00 0.  1.
          2   -1    0    0  501    0  0.00000000000E+00 -0.00000000000E+00 -0.20542920905E+04  0.20542920905E+04  0.00000000000E+00 0. -1.
         23    2    1    2    0    0  0.20671620052E+03  0.18234865140E+02 -0.12865236543E+04  0.13091344850E+04  0.12500355500E+03 0.  0.
          5    1    3    3  502    0  0.14354979272E+03  0.62324053285E+02 -0.10092112049E+04  0.10212835926E+04  0.47000000000E+01 0. -1.
         -5    1    3    3    0  502  0.63166407800E+02 -0.44089188145E+02 -0.27731244949E+03  0.28785089235E+03  0.47000000000E+01 0. -1.
        -11    1    1    2    0    0 -0.18247718621E+03 -0.47560472180E+02 -0.62063934388E+03  0.64865485212E+03  0.00000000000E+00 0. -1.
         11    1    1    2    0    0 -0.24239014315E+02  0.29325607040E+02 -0.11884520887E+03  0.12478663676E+03  0.00000000000E+00 0.  1.
<mgrwt>
<rscale>  0 0.23826200E+03</rscale>
<asrwt>0</asrwt>
<pdfrwt beam="2">  1        2 0.31604507E+00 0.24226016E+03</pdfrwt>
<pdfrwt beam="1">  1       -2 0.43513648E-02 0.24226016E+03</pdfrwt>
<totfact> 0.16863048E+03</totfact>
</mgrwt>
</event>
<event>
 7    1  0.6008063E-006  0.1392791E+03  0.7546771E-02  0.1225089E+00
          2   -1    0    0  501    0  0.00000000000E+00  0.00000000000E+00  0.20974491163E+03  0.20974491163E+03  0.00000000000E+00 0.  1.
         -2   -1    0    0    0  501 -0.00000000000E+00 -0.00000000000E+00 -0.74751385186E+02  0.74751385186E+02  0.00000000000E+00 0. -1.
         23    2    1    2    0    0  0.46545581846E+02 -0.40076355218E+02  0.79323709542E+02  0.16028384973E+03  0.12500422453E+03 0.  0.
          5    1    3    3  502    0  0.51480377143E+02 -0.54297797754E+01 -0.19364532008E+02  0.55468791577E+02  0.47000000000E+01 0. -1.
         -5    1    3    3    0  502 -0.49347952970E+01 -0.34646575443E+02  0.98688241550E+02  0.10481505815E+03  0.47000000000E+01 0. -1.
        -11    1    1    2    0    0 -0.60106177727E+02  0.40480932873E+02  0.59906237869E+01  0.72714139619E+02  0.00000000000E+00 0. -1.
         11    1    1    2    0    0  0.13560595881E+02 -0.40457765451E+00  0.49679193116E+02  0.51498307471E+02  0.00000000000E+00 0.  1.
<mgrwt>
<rscale>  0 0.13160823E+03</rscale>
<asrwt>0</asrwt>
<pdfrwt beam="1">  1        2 0.32268448E-01 0.13927908E+03</pdfrwt>
<pdfrwt beam="2">  1       -2 0.11500213E-01 0.13927908E+03</pdfrwt>
<totfact> 0.81320459E+03</totfact>
</mgrwt>
</event>
<event>
 7    1  0.6008063E-006  0.1312229E+03  0.7546771E-02  0.1239479E+00
          1   -1    0    0  501    0  0.00000000000E+00  0.00000000000E+00  0.17844955784E+03  0.17844955784E+03  0.00000000000E+00 0. -1.
         -1   -1    0    0    0  501 -0.00000000000E+00 -0.00000000000E+00 -0.10419473505E+03  0.10419473505E+03  0.00000000000E+00 0.  1.
         23    2    1    2    0    0 -0.15753222474E+02 -0.36720847844E+02  0.11627406692E+03  0.17532570329E+03  0.12499143535E+03 0.  0.
          5    1    3    3  502    0 -0.14763686238E+01  0.19898001564E+02 -0.18976477132E+02  0.27933972415E+02  0.47000000000E+01 0.  1.
         -5    1    3    3    0  502 -0.14276853851E+02 -0.56618849409E+02  0.13525054406E+03  0.14739173088E+03  0.47000000000E+01 0.  1.
        -11    1    1    2    0    0  0.35454672882E+02 -0.86341328201E+01  0.75919442096E+01  0.37272237599E+02  0.00000000000E+00 0. -1.
         11    1    1    2    0    0 -0.19701450408E+02  0.45354980665E+02 -0.49611188348E+02  0.70046352001E+02  0.00000000000E+00 0.  1.
<mgrwt>
<rscale>  0 0.12221992E+03</rscale>
<asrwt>0</asrwt>
<pdfrwt beam="1">  1        1 0.27453778E-01 0.13122288E+03</pdfrwt>
<pdfrwt beam="2">  1       -1 0.16029959E-01 0.13122288E+03</pdfrwt>
<totfact> 0.46825135E+03</totfact>
</mgrwt>
</event>
<event>
 7    1  0.6008063E-006  0.1434526E+03  0.7546771E-02  0.1219160E+00
          2   -1    0    0  501    0  0.00000000000E+00  0.00000000000E+00  0.88043301108E+03  0.88043301108E+03  0.00000000000E+00 0. -1.
         -2   -1    0    0    0  501 -0.00000000000E+00 -0.00000000000E+00 -0.25132234699E+02  0.25132234699E+02  0.00000000000E+00 0.  1.
         23    2    1    2    0    0  0.59671812910E+02  0.37329192177E+02  0.68622890116E+03  0.70106258127E+03  0.12499777693E+03 0.  0.
          5    1    3    3  502    0  0.21385396963E+02  0.75167195913E+01  0.61087376136E+03  0.61131225949E+03  0.47000000000E+01 0. -1.
         -5    1    3    3    0  502  0.38286415947E+02  0.29812472586E+02  0.75355139793E+02  0.89750321787E+02  0.47000000000E+01 0. -1.
        -11    1    1    2    0    0 -0.13946324831E+02 -0.32947550369E+02  0.75361276286E+01  0.36562744307E+02  0.00000000000E+00 0.  1.
         11    1    1    2    0    0 -0.45725488078E+02 -0.43816418085E+01  0.16153574760E+03  0.16793992020E+03  0.00000000000E+00 0. -1.
<mgrwt>
<rscale>  0 0.13575349E+03</rscale>
<asrwt>0</asrwt>
<pdfrwt beam="1">  1        2 0.13545121E+00 0.14345256E+03</pdfrwt>
<pdfrwt beam="2">  1       -2 0.38664983E-02 0.14345256E+03</pdfrwt>
<totfact> 0.87540047E+03</totfact>
</mgrwt>
</event>
<event>
 7    1  0.6008063E-006  0.1275727E+03  0.7546771E-02  0.1246369E+00
         -2   -1    0    0    0  501 -0.00000000000E+00  0.00000000000E+00  0.12975848972E+03  0.12975848972E+03  0.00000000000E+00 0.  1.
          2   -1    0    0  501    0  0.00000000000E+00 -0.00000000000E+00 -0.94191935813E+02  0.94191935813E+02  0.00000000000E+00 0. -1.
         23    2    1    2    0    0 -0.75240020789E+00 -0.25416416460E+02  0.18591847497E+02  0.12892028230E+03  0.12501288758E+03 0.  0.
          5    1    3    3  502    0  0.36876819351E+02  0.16167406294E+02  0.50080452181E+02  0.64431564644E+02  0.47000000000E+01 0. -1.
         -5    1    3    3    0  502 -0.37629219559E+02 -0.41583822754E+02 -0.31488604684E+02  0.64488717652E+02  0.47000000000E+01 0. -1.
        -11    1    1    2    0    0 -0.42749891853E+02  0.21921990208E+02 -0.43082581929E+00  0.48044901072E+02  0.00000000000E+00 0. -1.
         11    1    1    2    0    0  0.43502292061E+02  0.34944262516E+01  0.17405532234E+02  0.46985242169E+02  0.00000000000E+00 0.  1.
<mgrwt>
<rscale>  0 0.11803837E+03</rscale>
<asrwt>0</asrwt>
<pdfrwt beam="2">  1        2 0.14491067E-01 0.12757266E+03</pdfrwt>
<pdfrwt beam="1">  1       -2 0.19962845E-01 0.12757266E+03</pdfrwt>
<totfact> 0.80416633E+03</totfact>
</mgrwt>
</event>
<event>
 7    1  0.6008063E-006  0.1553462E+03  0.7546771E-02  0.1202396E+00
          1   -1    0    0  501    0  0.00000000000E+00  0.00000000000E+00  0.37830758788E+03  0.37830758788E+03  0.00000000000E+00 0. -1.
         -1   -1    0    0    0  501 -0.00000000000E+00 -0.00000000000E+00 -0.53648704674E+02  0.53648704674E+02  0.00000000000E+00 0.  1.
         23    2    1    2    0    0  0.87032511712E+02 -0.30547679793E+02  0.17294243854E+03  0.23246833115E+03  0.12499847642E+03 0.  0.
          5    1    3    3  502    0  0.15958317095E+02 -0.29365253069E+02 -0.10770032967E+02  0.35426961236E+02  0.47000000000E+01 0. -1.
         -5    1    3    3    0  502  0.71074194616E+02 -0.11824267245E+01  0.18371247150E+03  0.19704136992E+03  0.47000000000E+01 0. -1.
        -11    1    1    2    0    0 -0.79178858096E+01 -0.29278541079E+02  0.36571694278E+02  0.47512258479E+02  0.00000000000E+00 0. -1.
         11    1    1    2    0    0 -0.79114625902E+02  0.59826220872E+02  0.11514475039E+03  0.15197570292E+03  0.00000000000E+00 0.  1.
<mgrwt>
<rscale>  0 0.14844534E+03</rscale>
<asrwt>0</asrwt>
<pdfrwt beam="1">  1        1 0.58201166E-01 0.15534619E+03</pdfrwt>
<pdfrwt beam="2">  1       -1 0.82536471E-02 0.15534619E+03</pdfrwt>
<totfact> 0.51705948E+03</totfact>
</mgrwt>
</event>
<event>
 6    1  0.6008063E-006  0.1720120E+03  0.7546771E-02  0.1189223E+00
          2   -1    0    0  501    0  0.00000000000E+00  0.00000000000E+00  0.87510536476E+03  0.87510536476E+03  0.00000000000E+00 0. -1.
         -2   -1    0    0    0  501 -0.00000000000E+00 -0.00000000000E+00 -0.47047754695E+02  0.47047754695E+02  0.00000000000E+00 0.  1.
          5    1    1    2  502    0 -0.19456434011E+02 -0.35093953153E+02  0.56805684851E+03  0.56949171329E+03  0.47000000000E+01 0. -1.
         -5    1    1    2    0  502  0.78233086679E+02 -0.30512553193E+02  0.18912352919E+03  0.20698123356E+03  0.47000000000E+01 0.  1.
        -11    1    1    2    0    0 -0.90450489626E+01  0.74725785160E+02  0.52973089003E+02  0.92042946699E+02  0.00000000000E+00 0.  1.
         11    1    1    2    0    0 -0.49731603705E+02 -0.91192788131E+01  0.17904143369E+02  0.53637225907E+02  0.00000000000E+00 0. -1.
<mgrwt>
<rscale>  0 0.15953480E+03</rscale>
<asrwt>0</asrwt>
<pdfrwt beam="1">  1        2 0.13463158E+00 0.17201196E+03</pdfrwt>
<pdfrwt beam="2">  1       -2 0.72381168E-02 0.17201196E+03</pdfrwt>
<totfact> 0.34435017E+03</totfact>
</mgrwt>
</event>
<event>
 7    1  0.6008063E-006  0.1738435E+03  0.7546771E-02  0.1180259E+00
          1   -1    0    0  501    0  0.00000000000E+00  0.00000000000E+00  0.74271529776E+02  0.74271529776E+02  0.00000000000E+00 0. -1.
         -1   -1    0    0    0  501 -0.00000000000E+00 -0.00000000000E+00 -0.36009990672E+03  0.36009990672E+03  0.00000000000E+00 0.  1.
         23    2    1    2    0    0  0.11707948714E+03  0.29820038789E+02 -0.18060047690E+03  0.25067528213E+03  0.12499889516E+03 0.  0.
          5    1    3    3  502    0  0.67189880251E+02 -0.25492272284E+01 -0.77819654213E+01  0.67850037239E+02  0.47000000000E+01 0. -1.
         -5    1    3    3    0  502  0.49889606888E+02  0.32369266018E+02 -0.17281851148E+03  0.18282524489E+03  0.47000000000E+01 0. -1.
        -11    1    1    2    0    0 -0.90705589874E+02  0.19170010278E+02 -0.50136835027E+02  0.10539779673E+03  0.00000000000E+00 0.  1.
         11    1    1    2    0    0 -0.26373897264E+02 -0.48990049067E+02 -0.55091065009E+02  0.78298357635E+02  0.00000000000E+00 0. -1.
<mgrwt>
<rscale>  0 0.16770792E+03</rscale>
<asrwt>0</asrwt>
<pdfrwt beam="1">  1        1 0.11426389E-01 0.17384351E+03</pdfrwt>
<pdfrwt beam="2">  1       -1 0.55399986E-01 0.17384351E+03</pdfrwt>
<totfact> 0.17859626E+03</totfact>
</mgrwt>
</event>
<event>
 7    1  0.6008063E-006  0.2140106E+03  0.7546771E-02  0.1142029E+00
         -1   -1    0    0    0  501 -0.00000000000E+00  0.00000000000E+00  0.22434781700E+02  0.22434781700E+02  0.00000000000E+00 0.  1.
          1   -1    0    0  501    0  0.00000000000E+00 -0.00000000000E+00 -0.22905374608E+04  0.22905374608E+04  0.00000000000E+00 0. -1.
         23    2    1    2    0    0  0.17340424532E+03 -0.10321923234E+02 -0.16663366399E+04  0.16800233113E+04  0.12499981855E+03 0.  0.
          5    1    3    3  502    0  0.10713381959E+01 -0.44303080418E+01 -0.58321290481E+03  0.58324965301E+03  0.47000000000E+01 0. -1.
         -5    1    3    3    0  502  0.17233290713E+03 -0.58916151920E+01 -0.10831237351E+04  0.10967736583E+04  0.47000000000E+01 0. -1.
        -11    1    1    2    0    0 -0.18120903900E+03 -0.17762016584E+01 -0.56896495781E+03  0.59712728452E+03  0.00000000000E+00 0.  1.
         11    1    1    2    0    0  0.78047936786E+01  0.12098124892E+02 -0.32801081391E+02  0.35821646678E+02  0.00000000000E+00 0. -1.
<mgrwt>
<rscale>  0 0.20941695E+03</rscale>
<asrwt>0</asrwt>
<pdfrwt beam="2">  1        1 0.35239039E+00 0.21401058E+03</pdfrwt>
<pdfrwt beam="1">  1       -1 0.34515048E-02 0.21401058E+03</pdfrwt>
<totfact> 0.67346134E+02</totfact>
</mgrwt>
</event>
<event>
 7    1  0.6008063E-006  0.1255467E+03  0.7546771E-02  0.1249661E+00
         -3   -1    0    0    0  501 -0.00000000000E+00  0.00000000000E+00  0.24958115832E+02  0.24958115832E+02  0.00000000000E+00 0.  1.
          3   -1    0    0  501    0  0.00000000000E+00 -0.00000000000E+00 -0.48767074891E+03  0.48767074891E+03  0.00000000000E+00 0. -1.
         23    2    1    2    0    0 -0.27470860585E+01  0.10909237626E+02 -0.30959055521E+03  0.33407827744E+03  0.12504169560E+03 0.  0.
          5    1    3    3  502    0  0.43568694850E+02 -0.26534889256E+02 -0.67580469396E+02  0.84802956096E+02  0.47000000000E+01 0.  1.
         -5    1    3    3    0  502 -0.46315780909E+02  0.37444126882E+02 -0.24201008581E+03  0.24927532135E+03  0.47000000000E+01 0.  1.
        -11    1    1    2    0    0 -0.27723674453E+02  0.24398081691E+00 -0.14133430677E+03  0.14402794146E+03  0.00000000000E+00 0. -1.
         11    1    1    2    0    0  0.30470760512E+02 -0.11153218443E+02 -0.11787771098E+02  0.34522645832E+02  0.00000000000E+00 0.  1.
<mgrwt>
<rscale>  0 0.11610687E+03</rscale>
<asrwt>0</asrwt>
<pdfrwt beam="2">  1        3 0.75026269E-01 0.12554674E+03</pdfrwt>
<pdfrwt beam="1">  1       -3 0.38397102E-02 0.12554674E+03</pdfrwt>
<totfact> 0.13502713E+03</totfact>
</mgrwt>
</event>
<event>
 7    1  0.6008063E-006  0.1352293E+03  0.7546771E-02  0.1232061E+00
         -4   -1    0    0    0  501 -0.00000000000E+00  0.00000000000E+00  0.39834812235E+02  0.39834812235E+02  0.00000000000E+00 0.  1.
          4   -1    0    0  501    0  0.00000000000E+00 -0.00000000000E+00 -0.38130303002E+03  0.38130303002E+03  0.00000000000E+00 0. -1.
         23    2    1    2    0    0  0.26366460651E+02  0.44349987093E+02 -0.23787671632E+03  0.27362801718E+03  0.12499939207E+03 0.  0.
          5    1    3    3  502    0 -0.37649226016E+00  0.72306538984E+02 -0.21830677576E+03  0.23001807683E+03  0.47000000000E+01 0. -1.
         -5    1    3    3    0  502  0.26742952911E+02 -0.27956551891E+02 -0.19569940561E+02  0.43609940353E+02  0.47000000000E+01 0. -1.
        -11    1    1    2    0    0  0.79623551261E+01 -0.24969912314E+02  0.93964663625E+01  0.27842219743E+02  0.00000000000E+00 0.  1.
         11    1    1    2    0    0 -0.34328815777E+02 -0.19380074780E+02 -0.11298796783E+03  0.11966760533E+03  0.00000000000E+00 0. -1.
<mgrwt>
<rscale>  0 0.12694480E+03</rscale>
<asrwt>0</asrwt>
<pdfrwt beam="2">  1        4 0.58662005E-01 0.13522929E+03</pdfrwt>
<pdfrwt beam="1">  1       -4 0.61284326E-02 0.13522929E+03</pdfrwt>
<totfact> 0.78929698E+02</totfact>
</mgrwt>
</event>
<event>
 6    1  0.6008063E-006  0.2679838E+03  0.7546771E-02  0.1136055E+00
         -1   -1    0    0    0  501 -0.00000000000E+00  0.00000000000E+00  0.10667997701E+03  0.10667997701E+03  0.00000000000E+00 0.  1.
          1   -1    0    0  501    0  0.00000000000E+00 -0.00000000000E+00 -0.37821587980E+03  0.37821587980E+03  0.00000000000E+00 0. -1.
          5    1    1    2  502    0 -0.44127884014E+02  0.10061862107E+03 -0.28454090823E+03  0.30505244715E+03  0.47000000000E+01 0. -1.
         -5    1    1    2    0  502 -0.82660503530E+01 -0.52717412535E+02  0.32647070687E+02  0.62732562495E+02  0.47000000000E+01 0.  1.
        -11    1    1    2    0    0  0.31636277827E+02 -0.64996819473E+01 -0.51576713574E+02  0.60854394444E+02  0.00000000000E+00 0. -1.
         11    1    1    2    0    0  0.20757656541E+02 -0.41401526589E+02  0.31934648330E+02  0.56256452722E+02  0.00000000000E+00 0.  1.
<mgrwt>
<rscale>  0 0.21711091E+03</rscale>
<asrwt>0</asrwt>
<pdfrwt beam="2">  1        1 0.58187057E-01 0.26798378E+03</pdfrwt>
<pdfrwt beam="1">  1       -1 0.16412305E-01 0.26798378E+03</pdfrwt>
<totfact> 0.18082854E+03</totfact>
</mgrwt>
</event>
<event>
 6    1  0.6008063E-006  0.3406080E+03  0.7546771E-02  0.1103698E+00
         -2   -1    0    0    0  501 -0.00000000000E+00  0.00000000000E+00  0.17577352336E+03  0.17577352336E+03  0.00000000000E+00 0.  1.
          2   -1    0    0  501    0  0.00000000000E+00 -0.00000000000E+00 -0.64308115495E+03  0.64308115495E+03  0.00000000000E+00 0. -1.
          5    1    1    2  502    0  0.18692122778E+03 -0.68158546632E+02 -0.44293193224E+03  0.48558822007E+03  0.47000000000E+01 0. -1.
         -5    1    1    2    0  502 -0.98701750877E+02  0.75085367975E+02 -0.12167103490E+03  0.17379809793E+03  0.47000000000E+01 0.  1.
        -11    1    1    2    0    0 -0.18728648335E+02 -0.32776748408E+02  0.71701803089E+02  0.81032253275E+02  0.00000000000E+00 0.  1.
         11    1    1    2    0    0 -0.69490828568E+02  0.25849927065E+02  0.25593532460E+02  0.78436107044E+02  0.00000000000E+00 0. -1.
<mgrwt>
<rscale>  0 0.26581720E+03</rscale>
<asrwt>0</asrwt>
<pdfrwt beam="2">  1        2 0.98935561E-01 0.34060799E+03</pdfrwt>
<pdfrwt beam="1">  1       -2 0.27042081E-01 0.34060799E+03</pdfrwt>
<totfact> 0.57523554E+02</totfact>
</mgrwt>
</event>
<event>
 7    1  0.6008063E-006  0.1324771E+03  0.7546771E-02  0.1237983E+00
          2   -1    0    0  501    0  0.00000000000E+00  0.00000000000E+00  0.49679292999E+03  0.49679292999E+03  0.00000000000E+00 0. -1.
         -2   -1    0    0    0  501 -0.00000000000E+00 -0.00000000000E+00 -0.28564974771E+02  0.28564974771E+02  0.00000000000E+00 0.  1.
         23    2    1    2    0    0  0.40598761989E+02 -0.16635598379E+02  0.32796511968E+03  0.35371075540E+03  0.12500070461E+03 0.  0.
          5    1    3    3  502    0  0.17363922982E+02  0.51508828883E+02  0.91998667276E+02  0.10696032000E+03  0.47000000000E+01 0. -1.
         -5    1    3    3    0  502  0.23234839008E+02 -0.68144427262E+02  0.23596645240E+03  0.24675043540E+03  0.47000000000E+01 0. -1.
        -11    1    1    2    0    0  0.17343311312E+02  0.31869298450E+02  0.34350029046E+02  0.49963658057E+02  0.00000000000E+00 0.  1.
         11    1    1    2    0    0 -0.57942073301E+02 -0.15233700072E+02  0.10591280650E+03  0.12168349131E+03  0.00000000000E+00 0. -1.
<mgrwt>
<rscale>  0 0.12315394E+03</rscale>
<asrwt>0</asrwt>
<pdfrwt beam="1">  1        2 0.76429675E-01 0.13247709E+03</pdfrwt>
<pdfrwt beam="2">  1       -2 0.43946119E-02 0.13247709E+03</pdfrwt>
<totfact> 0.14117435E+04</totfact>
</mgrwt>
</event>
<event>
 7    1  0.6008063E-006  0.1470681E+03  0.7546771E-02  0.1223725E+00
          1   -1    0    0  501    0  0.00000000000E+00  0.00000000000E+00  0.48211798098E+03  0.48211798098E+03  0.00000000000E+00 0.  1.
         -1   -1    0    0    0  501 -0.00000000000E+00 -0.00000000000E+00 -0.31117149743E+02  0.31117149743E+02  0.00000000000E+00 0. -1.
         23    2    1    2    0    0 -0.24917065546E+02  0.73373768735E+02  0.29248112682E+03  0.32737475152E+03  0.12499779316E+03 0.  0.
          5    1    3    3  502    0  0.17963871061E+02  0.40483233327E+02  0.26075648469E+03  0.26453284702E+03  0.47000000000E+01 0.  1.
         -5    1    3    3    0  502 -0.42880936607E+02  0.32890535408E+02  0.31724642132E+02  0.62841904508E+02  0.47000000000E+01 0.  1.
        -11    1    1    2    0    0 -0.15569969630E+02 -0.43528911215E+02  0.85422797900E+02  0.97130038952E+02  0.00000000000E+00 0. -1.
         11    1    1    2    0    0  0.40487035176E+02 -0.29844857520E+02  0.73096906518E+02  0.88730340247E+02  0.00000000000E+00 0.  1.
<mgrwt>
<rscale>  0 0.13254694E+03</rscale>
<asrwt>0</asrwt>
<pdfrwt beam="1">  1        1 0.74171991E-01 0.14706807E+03</pdfrwt>
<pdfrwt beam="2">  1       -1 0.47872542E-02 0.14706807E+03</pdfrwt>
<totfact> 0.85469866E+03</totfact>
</mgrwt>
</event>
<event>
 7    1  0.6008063E-006  0.1919590E+03  0.7546771E-02  0.1161579E+00
         -2   -1    0    0    0  501 -0.00000000000E+00  0.00000000000E+00  0.77445024117E+02  0.77445024117E+02  0.00000000000E+00 0.  1.
          2   -1    0    0  501    0  0.00000000000E+00 -0.00000000000E+00 -0.42745288153E+03  0.42745288153E+03  0.00000000000E+00 0. -1.
         23    2    1    2    0    0  0.14567129874E+03 -0.60165487209E+00 -0.17057241792E+03  0.25679408315E+03  0.12501104798E+03 0.  0.
          5    1    3    3  502    0  0.94306168552E+01 -0.39577440313E+01  0.19708674865E+02  0.22696302277E+02  0.47000000000E+01 0.  1.
         -5    1    3    3    0  502  0.13624068189E+03  0.33560891592E+01 -0.19028109279E+03  0.23409778087E+03  0.47000000000E+01 0.  1.
        -11    1    1    2    0    0 -0.10087014913E+03 -0.37348660186E+02 -0.85839152634E+02  0.13761565873E+03  0.00000000000E+00 0. -1.
         11    1    1    2    0    0 -0.44801149611E+02  0.37950315058E+02 -0.93596286861E+02  0.11048816377E+03  0.00000000000E+00 0.  1.
<mgrwt>
<rscale>  0 0.18658337E+03</rscale>
<asrwt>0</asrwt>
<pdfrwt beam="2">  1        2 0.65761984E-01 0.19195898E+03</pdfrwt>
<pdfrwt beam="1">  1       -2 0.11914619E-01 0.19195898E+03</pdfrwt>
<totfact> 0.36472323E+03</totfact>
</mgrwt>
</event>
<event>
 7    1  0.6008063E-006  0.1268836E+03  0.7546771E-02  0.1246983E+00
          2   -1    0    0  501    0  0.00000000000E+00  0.00000000000E+00  0.35844129384E+03  0.35844129384E+03  0.00000000000E+00 0. -1.
         -2   -1    0    0    0  501 -0.00000000000E+00 -0.00000000000E+00 -0.37612959457E+02  0.37612959457E+02  0.00000000000E+00 0.  1.
         23    2    1    2    0    0  0.36646896153E+01 -0.21464093213E+02  0.24294095015E+03  0.27407982986E+03  0.12500124251E+03 0.  0.
          5    1    3    3  502    0  0.77830789711E+01  0.51876360665E+02  0.88280365428E+02  0.10279711102E+03  0.47000000000E+01 0. -1.
         -5    1    3    3    0  502 -0.41183893558E+01 -0.73340453879E+02  0.15466058472E+03  0.17128271884E+03  0.47000000000E+01 0. -1.
        -11    1    1    2    0    0 -0.42532927251E+02  0.32203358882E+02  0.48228113371E+02  0.71917015672E+02  0.00000000000E+00 0. -1.
         11    1    1    2    0    0  0.38868237636E+02 -0.10739265669E+02  0.29659270857E+02  0.50057407761E+02  0.00000000000E+00 0.  1.
<mgrwt>
<rscale>  0 0.11767500E+03</rscale>
<asrwt>0</asrwt>
<pdfrwt beam="1">  1        2 0.55144812E-01 0.12688360E+03</pdfrwt>
<pdfrwt beam="2">  1       -2 0.57866094E-02 0.12688360E+03</pdfrwt>
<totfact> 0.13218517E+04</totfact>
</mgrwt>
</event>
<event>
 7    1  0.6008063E-006  0.1477763E+03  0.7546771E-02  0.1212720E+00
          1   -1    0    0  501    0  0.00000000000E+00  0.00000000000E+00  0.70439726698E+03  0.70439726698E+03  0.00000000000E+00 0. -1.
         -1   -1    0    0    0  501 -0.00000000000E+00 -0.00000000000E+00 -0.27451688821E+02  0.27451688821E+02  0.00000000000E+00 0.  1.
         23    2    1    2    0    0  0.63950360154E+02 -0.46106042701E+02  0.46596854097E+03  0.48883996117E+03  0.12498964247E+03 0.  0.
          5    1    3    3  502    0  0.19652588751E+02 -0.33675448788E+02  0.27510958408E+02  0.47950004465E+02  0.47000000000E+01 0. -1.
         -5    1    3    3    0  502  0.44297771403E+02 -0.12430593913E+02  0.43845758256E+03  0.44088995671E+03  0.47000000000E+01 0. -1.
        -11    1    1    2    0    0  0.27045920583E+01  0.53407460948E+02  0.97453966349E+02  0.11116180666E+03  0.00000000000E+00 0.  1.
         11    1    1    2    0    0 -0.66654952213E+02 -0.73014182469E+01  0.11352307084E+03  0.13184718797E+03  0.00000000000E+00 0. -1.
<mgrwt>
<rscale>  0 0.14045324E+03</rscale>
<asrwt>0</asrwt>
<pdfrwt beam="1">  1        1 0.10836880E+00 0.14777627E+03</pdfrwt>
<pdfrwt beam="2">  1       -1 0.42233373E-02 0.14777627E+03</pdfrwt>
<totfact> 0.61451819E+03</totfact>
</mgrwt>
</event>
<event>
 7    1  0.6008063E-006  0.1299052E+03  0.7546771E-02  0.1239446E+00
          2   -1    0    0  501    0  0.00000000000E+00  0.00000000000E+00  0.21512524721E+02  0.21512524721E+02  0.00000000000E+00 0. -1.
         -2   -1    0    0    0  501 -0.00000000000E+00 -0.00000000000E+00 -0.63146710563E+03  0.63146710563E+03  0.00000000000E+00 0.  1.
         23    2    1    2    0    0 -0.33568563020E+02 -0.11104998743E+02 -0.37622000084E+03  0.39801614862E+03  0.12500078446E+03 0.  0.
          5    1    3    3  502    0  0.37457372607E+02 -0.24090029478E+02 -0.23617989625E+03  0.24038805643E+03  0.47000000000E+01 0.  1.
         -5    1    3    3    0  502 -0.71025935627E+02  0.12985030735E+02 -0.14004010459E+03  0.15762809219E+03  0.47000000000E+01 0.  1.
        -11    1    1    2    0    0 -0.14694844341E+02  0.40228550249E+02 -0.73062920274E+02  0.84690406920E+02  0.00000000000E+00 0.  1.
         11    1    1    2    0    0  0.48263407361E+02 -0.29123551506E+02 -0.16067165980E+03  0.17027307481E+03  0.00000000000E+00 0. -1.
<mgrwt>
<rscale>  0 0.12224074E+03</rscale>
<asrwt>0</asrwt>
<pdfrwt beam="1">  1        2 0.33096192E-02 0.12990522E+03</pdfrwt>
<pdfrwt beam="2">  1       -2 0.97148785E-01 0.12990522E+03</pdfrwt>
<totfact> 0.23967256E+03</totfact>
</mgrwt>
</event>
<event>
 7    1  0.6008063E-006  0.1345254E+03  0.7546771E-02  0.1233518E+00
          2   -1    0    0  501    0  0.00000000000E+00  0.00000000000E+00  0.51471241432E+03  0.51471241432E+03  0.00000000000E+00 0. -1.
         -2   -1    0    0    0  501 -0.00000000000E+00 -0.00000000000E+00 -0.28204328746E+02  0.28204328746E+02  0.00000000000E+00 0.  1.
         23    2    1    2    0    0  0.29608754112E+02 -0.39944056604E+02  0.31598303103E+03  0.34342737584E+03  0.12499952241E+03 0.  0.
          5    1    3    3  502    0 -0.42768540735E+02  0.20210801822E+01  0.58463048675E+02  0.72617152947E+02  0.47000000000E+01 0. -1.
         -5    1    3    3    0  502  0.72377294848E+02 -0.41965136786E+02  0.25751998235E+03  0.27081022290E+03  0.47000000000E+01 0. -1.
        -11    1    1    2    0    0 -0.52605408700E+02  0.27543750771E+02  0.16113234716E+03  0.17172542192E+03  0.00000000000E+00 0. -1.
         11    1    1    2    0    0  0.22996654587E+02  0.12400305833E+02  0.93927073877E+01  0.27763945307E+02  0.00000000000E+00 0.  1.
<mgrwt>
<rscale>  0 0.12599795E+03</rscale>
<asrwt>0</asrwt>
<pdfrwt beam="1">  1        2 0.79186519E-01 0.13452541E+03</pdfrwt>
<pdfrwt beam="2">  1       -2 0.43391279E-02 0.13452541E+03</pdfrwt>
<totfact> 0.13853948E+04</totfact>
</mgrwt>
</event>
<event>
 7    1  0.6008063E-006  0.1355302E+03  0.7546771E-02  0.1229696E+00
          1   -1    0    0  501    0  0.00000000000E+00  0.00000000000E+00  0.17877111167E+03  0.17877111167E+03  0.00000000000E+00 0. -1.
         -1   -1    0    0    0  501 -0.00000000000E+00 -0.00000000000E+00 -0.84052174250E+02  0.84052174250E+02  0.00000000000E+00 0.  1.
         23    2    1    2    0    0  0.51861135289E+02  0.77010693095E+01  0.56184466114E+02  0.14671448062E+03  0.12497824119E+03 0.  0.
          5    1    3    3  502    0  0.32049326104E+02  0.20735338168E+02  0.94151221180E+02  0.10170376592E+03  0.47000000000E+01 0. -1.
         -5    1    3    3    0  502  0.19811809184E+02 -0.13034268858E+02 -0.37966755066E+02  0.45010714702E+02  0.47000000000E+01 0. -1.
        -11    1    1    2    0    0 -0.50739311745E+02 -0.47183147501E+02  0.17977777339E+02  0.71581615255E+02  0.00000000000E+00 0. -1.
         11    1    1    2    0    0 -0.11218235435E+01  0.39482078191E+02  0.20556693970E+02  0.44527190045E+02  0.00000000000E+00 0.  1.
<mgrwt>
<rscale>  0 0.12850152E+03</rscale>
<asrwt>0</asrwt>
<pdfrwt beam="1">  1        1 0.27503248E-01 0.13553023E+03</pdfrwt>
<pdfrwt beam="2">  1       -1 0.12931104E-01 0.13553023E+03</pdfrwt>
<totfact> 0.65478858E+03</totfact>
</mgrwt>
</event>
<event>
 7    1  0.6008063E-006  0.1312000E+03  0.7546771E-02  0.1239339E+00
          2   -1    0    0  501    0  0.00000000000E+00  0.00000000000E+00  0.10201396533E+04  0.10201396533E+04  0.00000000000E+00 0. -1.
         -2   -1    0    0    0  501 -0.00000000000E+00 -0.00000000000E+00 -0.17461148835E+02  0.17461148835E+02  0.00000000000E+00 0.  1.
         23    2    1    2    0    0  0.20122987746E+02  0.34404132162E+02  0.81382376659E+03  0.82433158843E+03  0.12499946271E+03 0.  0.
          5    1    3    3  502    0  0.41832762472E+02  0.88694779322E+01  0.75679245389E+03  0.75801421882E+03  0.47000000000E+01 0. -1.
         -5    1    3    3    0  502 -0.21709774727E+02  0.25534654229E+02  0.57031312693E+02  0.66317369616E+02  0.47000000000E+01 0. -1.
        -11    1    1    2    0    0  0.22389450443E+02 -0.21818603015E+02  0.16592283111E+02  0.35392693985E+02  0.00000000000E+00 0.  1.
         11    1    1    2    0    0 -0.42512438189E+02 -0.12585529147E+02  0.17226245476E+03  0.17787651971E+03  0.00000000000E+00 0. -1.
<mgrwt>
<rscale>  0 0.12230701E+03</rscale>
<asrwt>0</asrwt>
<pdfrwt beam="1">  1        2 0.15694452E+00 0.13120002E+03</pdfrwt>
<pdfrwt beam="2">  1       -2 0.26863314E-02 0.13120002E+03</pdfrwt>
<totfact> 0.12229416E+04</totfact>
</mgrwt>
</event>
<event>
 7    1  0.6008063E-006  0.1346407E+03  0.7546771E-02  0.1235241E+00
          4   -1    0    0  501    0  0.00000000000E+00  0.00000000000E+00  0.87965817412E+02  0.87965817412E+02  0.00000000000E+00 0. -1.
         -4   -1    0    0    0  501 -0.00000000000E+00 -0.00000000000E+00 -0.15886367214E+03  0.15886367214E+03  0.00000000000E+00 0.  1.
         23    2    1    2    0    0 -0.50042957307E+02  0.18188302985E+00 -0.56923288703E+02  0.14617925857E+03  0.12499513664E+03 0.  0.
          5    1    3    3  502    0 -0.80965193440E+00  0.55023923537E+02 -0.40983854539E+01  0.55382077073E+02  0.47000000000E+01 0. -1.
         -5    1    3    3    0  502 -0.49233305373E+02 -0.54842040507E+02 -0.52824903250E+02  0.90797181499E+02  0.47000000000E+01 0. -1.
        -11    1    1    2    0    0  0.24560608485E+02 -0.34377228482E+01  0.36433725973E+02  0.44073323176E+02  0.00000000000E+00 0. -1.
         11    1    1    2    0    0  0.25482348823E+02  0.32558398183E+01 -0.50408291994E+02  0.56576907800E+02  0.00000000000E+00 0.  1.
<mgrwt>
<rscale>  0 0.12489044E+03</rscale>
<asrwt>0</asrwt>
<pdfrwt beam="1">  1        4 0.13533203E-01 0.13464069E+03</pdfrwt>
<pdfrwt beam="2">  1       -4 0.24440565E-01 0.13464069E+03</pdfrwt>
<totfact> 0.11608444E+03</totfact>
</mgrwt>
</event>
<event>
 7    1  0.6008063E-006  0.1795027E+03  0.7546771E-02  0.1173160E+00
         -2   -1    0    0    0  501 -0.00000000000E+00  0.00000000000E+00  0.57368779630E+02  0.57368779630E+02  0.00000000000E+00 0.  1.
          2   -1    0    0  501    0  0.00000000000E+00 -0.00000000000E+00 -0.57130122579E+03  0.57130122579E+03  0.00000000000E+00 0. -1.
         23    2    1    2    0    0  0.84852527484E+02 -0.96940681472E+02 -0.37730506437E+03  0.41782811356E+03  0.12499509483E+03 0.  0.
          5    1    3    3  502    0  0.52823737789E+02 -0.65130711047E+02 -0.35932582570E+03  0.36901151176E+03  0.47000000000E+01 0.  1.
         -5    1    3    3    0  502  0.32028789695E+02 -0.31809970425E+02 -0.17979238673E+02  0.48816601797E+02  0.47000000000E+01 0.  1.
        -11    1    1    2    0    0 -0.13770893210E+02 -0.11042714134E+02  0.57159368157E+01  0.18554001426E+02  0.00000000000E+00 0.  1.
         11    1    1    2    0    0 -0.71081634274E+02  0.10798339561E+03 -0.14234331860E+03  0.19228789043E+03  0.00000000000E+00 0. -1.
<mgrwt>
<rscale>  0 0.17457373E+03</rscale>
<asrwt>0</asrwt>
<pdfrwt beam="2">  1        2 0.87892492E-01 0.17950270E+03</pdfrwt>
<pdfrwt beam="1">  1       -2 0.88259665E-02 0.17950270E+03</pdfrwt>
<totfact> 0.42433259E+03</totfact>
</mgrwt>
</event>
<event>
 7    1  0.6008063E-006  0.1352784E+03  0.7546771E-02  0.1232345E+00
         -2   -1    0    0    0  501 -0.00000000000E+00  0.00000000000E+00  0.28293453360E+03  0.28293453360E+03  0.00000000000E+00 0.  1.
          2   -1    0    0  501    0  0.00000000000E+00 -0.00000000000E+00 -0.50781057888E+02  0.50781057888E+02  0.00000000000E+00 0. -1.
         23    2    1    2    0    0 -0.92421375928E+01 -0.50887556533E+02  0.13720209438E+03  0.19267759122E+03  0.12500111576E+03 0.  0.
          5    1    3    3  502    0 -0.13400163889E+02 -0.45603131912E+02 -0.69730002133E+01  0.48269273502E+02  0.47000000000E+01 0.  1.
         -5    1    3    3    0  502  0.41580262965E+01 -0.52844246213E+01  0.14417509459E+03  0.14440831772E+03  0.47000000000E+01 0.  1.
        -11    1    1    2    0    0 -0.35146622619E+01 -0.26050624286E+02  0.22989876107E+02  0.34921659181E+02  0.00000000000E+00 0. -1.
         11    1    1    2    0    0  0.12756799855E+02  0.76938180819E+02  0.71961505223E+02  0.10611634108E+03  0.00000000000E+00 0.  1.
<mgrwt>
<rscale>  0 0.12675926E+03</rscale>
<asrwt>0</asrwt>
<pdfrwt beam="2">  1        2 0.78124706E-02 0.13527838E+03</pdfrwt>
<pdfrwt beam="1">  1       -2 0.43528389E-01 0.13527838E+03</pdfrwt>
<totfact> 0.42224610E+03</totfact>
</mgrwt>
</event>
<event>
 7    1  0.6008063E-006  0.1553617E+03  0.7546771E-02  0.1199156E+00
          1   -1    0    0  501    0  0.00000000000E+00  0.00000000000E+00  0.11816773895E+03  0.11816773895E+03  0.00000000000E+00 0. -1.
         -1   -1    0    0    0  501 -0.00000000000E+00 -0.00000000000E+00 -0.29996562365E+03  0.29996562365E+03  0.00000000000E+00 0.  1.
         23    2    1    2    0    0  0.18333741187E+02  0.10183145515E+03  0.36304088766E+02  0.15954699883E+03  0.11589429084E+03 0.  0.
          5    1    3    3  502    0  0.31870013238E+01  0.39525388586E+02  0.74670414413E+02  0.84676880605E+02  0.47000000000E+01 0. -1.
         -5    1    3    3    0  502  0.15146739864E+02  0.62306066567E+02 -0.38366325647E+02  0.74870118226E+02  0.47000000000E+01 0.  1.
        -11    1    1    2    0    0 -0.24920204118E+02 -0.11122127965E+03 -0.21920202139E+03  0.24706419368E+03  0.00000000000E+00 0.  1.
         11    1    1    2    0    0  0.65864629302E+01  0.93898244944E+01  0.11000479176E+01  0.11522170081E+02  0.00000000000E+00 0. -1.
<mgrwt>
<rscale>  0 0.15107696E+03</rscale>
<asrwt>0</asrwt>
<pdfrwt beam="1">  1        1 0.18179653E-01 0.15536170E+03</pdfrwt>
<pdfrwt beam="2">  1       -1 0.46148556E-01 0.15536170E+03</pdfrwt>
<totfact> 0.13587951E+03</totfact>
</mgrwt>
</event>
<event>
 7    1  0.6008063E-006  0.1530733E+03  0.7546771E-02  0.1205137E+00
         -1   -1    0    0    0  501 -0.00000000000E+00  0.00000000000E+00  0.51076596788E+02  0.51076596788E+02  0.00000000000E+00 0.  1.
          1   -1    0    0  501    0  0.00000000000E+00 -0.00000000000E+00 -0.40693521098E+03  0.40693521098E+03  0.00000000000E+00 0. -1.
         23    2    1    2    0    0 -0.83303365056E+02 -0.29398876581E+02 -0.24544768427E+03  0.28926806764E+03  0.12501081821E+03 0.  0.
          5    1    3    3  502    0 -0.63003977127E+02 -0.77553664053E+02 -0.17259790417E+03  0.19948984552E+03  0.47000000000E+01 0.  1.
         -5    1    3    3    0  502 -0.20299387929E+02  0.48154787472E+02 -0.72849780094E+02  0.89778222117E+02  0.47000000000E+01 0.  1.
        -11    1    1    2    0    0  0.30446087769E+02 -0.28990831452E+02 -0.66204979063E+02  0.78425326403E+02  0.00000000000E+00 0.  1.
         11    1    1    2    0    0  0.52857277286E+02  0.58389708033E+02 -0.44205950862E+02  0.90318413726E+02  0.00000000000E+00 0. -1.
<mgrwt>
<rscale>  0 0.14626634E+03</rscale>
<asrwt>0</asrwt>
<pdfrwt beam="2">  1        1 0.62605416E-01 0.15307335E+03</pdfrwt>
<pdfrwt beam="1">  1       -1 0.78579381E-02 0.15307335E+03</pdfrwt>
<totfact> 0.50753573E+03</totfact>
</mgrwt>
</event>
<event>
 7    1  0.6008063E-006  0.2299927E+03  0.7546771E-02  0.1129619E+00
          2   -1    0    0  501    0  0.00000000000E+00  0.00000000000E+00  0.42203497597E+03  0.42203497597E+03  0.00000000000E+00 0. -1.
         -2   -1    0    0    0  501 -0.00000000000E+00 -0.00000000000E+00 -0.11670039985E+03  0.11670039985E+03  0.00000000000E+00 0.  1.
         23    2    1    2    0    0  0.19305999850E+03  0.11958701791E+01  0.16461306703E+03  0.28283229722E+03  0.12499221330E+03 0.  0.
          5    1    3    3  502    0  0.57058259375E+02 -0.37617041843E+02  0.37808543602E+01  0.68608101996E+02  0.47000000000E+01 0.  1.
         -5    1    3    3    0  502  0.13600173913E+03  0.38812912022E+02  0.16083221267E+03  0.21422419522E+03  0.47000000000E+01 0.  1.
        -11    1    1    2    0    0 -0.10926526206E+03  0.21494768193E+02  0.30235279421E+02  0.11539105110E+03  0.00000000000E+00 0. -1.
         11    1    1    2    0    0 -0.83794736448E+02 -0.22690638372E+02  0.11048622967E+03  0.14051202750E+03  0.00000000000E+00 0.  1.
<mgrwt>
<rscale>  0 0.22581661E+03</rscale>
<asrwt>0</asrwt>
<pdfrwt beam="1">  1        2 0.64928457E-01 0.22999271E+03</pdfrwt>
<pdfrwt beam="2">  1       -2 0.17953908E-01 0.22999271E+03</pdfrwt>
<totfact> 0.18932052E+03</totfact>
</mgrwt>
</event>
<event>
 7    1  0.6008063E-006  0.1577042E+03  0.7546771E-02  0.1198601E+00
         -2   -1    0    0    0  501 -0.00000000000E+00  0.00000000000E+00  0.82489797923E+02  0.82489797923E+02  0.00000000000E+00 0. -1.
          2   -1    0    0  501    0  0.00000000000E+00 -0.00000000000E+00 -0.26839543883E+03  0.26839543883E+03  0.00000000000E+00 0.  1.
         23    2    1    2    0    0  0.85184904797E+02  0.44584944020E+02 -0.13341821491E+03  0.20656970420E+03  0.12500534942E+03 0.  0.
          5    1    3    3  502    0  0.21880645905E+02  0.64889707714E+02 -0.12050551284E+03  0.13868347218E+03  0.47000000000E+01 0. -1.
         -5    1    3    3    0  502  0.63304258892E+02 -0.20304763694E+02 -0.12912702075E+02  0.67886232017E+02  0.47000000000E+01 0. -1.
        -11    1    1    2    0    0 -0.98144174942E+02 -0.19076503061E+02 -0.21743934470E+02  0.10231808604E+03  0.00000000000E+00 0. -1.
         11    1    1    2    0    0  0.12959270145E+02 -0.25508440959E+02 -0.30743491525E+02  0.41997446518E+02  0.00000000000E+00 0.  1.
<mgrwt>
<rscale>  0 0.15153341E+03</rscale>
<asrwt>0</asrwt>
<pdfrwt beam="2">  1        2 0.41291606E-01 0.15770423E+03</pdfrwt>
<pdfrwt beam="1">  1       -2 0.12690738E-01 0.15770423E+03</pdfrwt>
<totfact> 0.53756922E+03</totfact>
</mgrwt>
</event>
<event>
 7    1  0.6008063E-006  0.2540057E+03  0.7546771E-02  0.1113001E+00
          2   -1    0    0  501    0  0.00000000000E+00  0.00000000000E+00  0.10687208840E+04  0.10687208840E+04  0.00000000000E+00 0. -1.
         -2   -1    0    0    0  501 -0.00000000000E+00 -0.00000000000E+00 -0.64793573519E+02  0.64793573519E+02  0.00000000000E+00 0.  1.
         23    2    1    2    0    0  0.26917521474E+02  0.21947624269E+03  0.70914673577E+03  0.75326487985E+03  0.12499804918E+03 0.  0.
          5    1    3    3  502    0  0.74153405434E+02  0.11965103646E+03  0.34282948998E+03  0.37063357546E+03  0.47000000000E+01 0.  1.
         -5    1    3    3    0  502 -0.47235883960E+02  0.99825206221E+02  0.36631724579E+03  0.38263130438E+03  0.47000000000E+01 0.  1.
        -11    1    1    2    0    0 -0.27248682511E+02 -0.28479429796E+02  0.16500792134E+02  0.42729904764E+02  0.00000000000E+00 0.  1.
         11    1    1    2    0    0  0.33116103701E+00 -0.19099681289E+03  0.27827978254E+03  0.33751967287E+03  0.00000000000E+00 0. -1.
<mgrwt>
<rscale>  0 0.25048057E+03</rscale>
<asrwt>0</asrwt>
<pdfrwt beam="1">  1        2 0.16441858E+00 0.25400568E+03</pdfrwt>
<pdfrwt beam="2">  1       -2 0.99682428E-02 0.25400568E+03</pdfrwt>
<totfact> 0.15907844E+03</totfact>
</mgrwt>
</event>
<event>
 7    1  0.6008063E-006  0.1809076E+03  0.7546771E-02  0.1172232E+00
         -2   -1    0    0    0  501 -0.00000000000E+00  0.00000000000E+00  0.10719772516E+03  0.10719772516E+03  0.00000000000E+00 0.  1.
          2   -1    0    0  501    0  0.00000000000E+00 -0.00000000000E+00 -0.27459583344E+03  0.27459583344E+03  0.00000000000E+00 0. -1.
         23    2    1    2    0    0 -0.10857463337E+03 -0.72893135718E+02 -0.10929121877E+03  0.21135781101E+03  0.12500277408E+03 0.  0.
          5    1    3    3  502    0 -0.50656515985E+02  0.31375986968E+02 -0.22902223128E+02  0.64008882150E+02  0.47000000000E+01 0.  1.
         -5    1    3    3    0  502 -0.57918117387E+02 -0.10426912269E+03 -0.86388995639E+02  0.14734892886E+03  0.47000000000E+01 0.  1.
        -11    1    1    2    0    0  0.44500086611E+02  0.75102012644E+02 -0.60610642901E+02  0.10627426803E+03  0.00000000000E+00 0. -1.
         11    1    1    2    0    0  0.64074546761E+02 -0.22088769266E+01  0.25037533907E+01  0.64161479572E+02  0.00000000000E+00 0.  1.
<mgrwt>
<rscale>  0 0.17549910E+03</rscale>
<asrwt>0</asrwt>
<pdfrwt beam="2">  1        2 0.42245513E-01 0.18090758E+03</pdfrwt>
<pdfrwt beam="1">  1       -2 0.16491958E-01 0.18090758E+03</pdfrwt>
<totfact> 0.34407037E+03</totfact>
</mgrwt>
</event>
<event>
 7    1  0.6008063E-006  0.1306441E+03  0.7546771E-02  0.1237827E+00
          1   -1    0    0  501    0  0.00000000000E+00  0.00000000000E+00  0.77869361818E+03  0.77869361818E+03  0.00000000000E+00 0. -1.
         -1   -1    0    0    0  501 -0.00000000000E+00 -0.00000000000E+00 -0.44726763306E+02  0.44726763306E+02  0.00000000000E+00 0.  1.
         23    2    1    2    0    0 -0.36895741753E+02 -0.90318257590E+01  0.70351457294E+03  0.71554219182E+03  0.12500001719E+03 0.  0.
          5    1    3    3  502    0 -0.50003946442E+02 -0.42955559301E+02  0.19880139905E+03  0.20949859426E+03  0.47000000000E+01 0. -1.
         -5    1    3    3    0  502  0.13108204689E+02  0.33923733542E+02  0.50471317389E+03  0.50604359755E+03  0.47000000000E+01 0. -1.
        -11    1    1    2    0    0 -0.27261866104E+02 -0.92622200045E+01 -0.92522238006E+01  0.30242382646E+02  0.00000000000E+00 0.  1.
         11    1    1    2    0    0  0.64157607857E+02  0.18294045763E+02  0.39704505737E+02  0.77635807023E+02  0.00000000000E+00 0. -1.
<mgrwt>
<rscale>  0 0.12325167E+03</rscale>
<asrwt>0</asrwt>
<pdfrwt beam="1">  1        1 0.11979901E+00 0.13064407E+03</pdfrwt>
<pdfrwt beam="2">  1       -1 0.68810410E-02 0.13064407E+03</pdfrwt>
<totfact> 0.25590517E+03</totfact>
</mgrwt>
</event>
<event>
 7    1  0.6008063E-006  0.1209606E+03  0.7546771E-02  0.1253722E+00
          1   -1    0    0  501    0  0.00000000000E+00  0.00000000000E+00  0.23429354549E+03  0.23429354549E+03  0.00000000000E+00 0. -1.
         -1   -1    0    0    0  501 -0.00000000000E+00 -0.00000000000E+00 -0.11966687619E+03  0.11966687619E+03  0.00000000000E+00 0.  1.
         23    2    1    2    0    0  0.10848422322E+02  0.22178691209E+02  0.19518606655E+03  0.22962808199E+03  0.11841398926E+03 0.  0.
          5    1    3    3  502    0  0.36613533495E+02  0.25532635809E+01  0.19333957315E+03  0.19684854720E+03  0.47000000000E+01 0. -1.
         -5    1    3    3    0  502 -0.25765111173E+02  0.19625427628E+02  0.18464934065E+01  0.32779534793E+02  0.47000000000E+01 0.  1.
        -11    1    1    2    0    0 -0.44660966028E+02 -0.12762854235E+02 -0.75817357504E+02  0.88914363483E+02  0.00000000000E+00 0.  1.
         11    1    1    2    0    0  0.33812543706E+02 -0.94158369738E+01 -0.47420397430E+01  0.35417976209E+02  0.00000000000E+00 0. -1.
<mgrwt>
<rscale>  0 0.11378214E+03</rscale>
<asrwt>0</asrwt>
<pdfrwt beam="1">  1        1 0.36045161E-01 0.12096055E+03</pdfrwt>
<pdfrwt beam="2">  1       -1 0.18410289E-01 0.12096055E+03</pdfrwt>
<totfact> 0.26728965E+03</totfact>
</mgrwt>
</event>
<event>
 7    1  0.6008063E-006  0.2110140E+03  0.7546771E-02  0.1144438E+00
          3   -1    0    0  501    0  0.00000000000E+00  0.00000000000E+00  0.11051158756E+03  0.11051158756E+03  0.00000000000E+00 0. -1.
         -3   -1    0    0    0  501 -0.00000000000E+00 -0.00000000000E+00 -0.39182489382E+03  0.39182489382E+03  0.00000000000E+00 0.  1.
         23    2    1    2    0    0  0.14530684560E+03 -0.88237106701E+02 -0.86780953554E+02  0.22816188383E+03  0.12500817955E+03 0.  0.
          5    1    3    3  502    0  0.11356869266E+02 -0.13244117786E+02  0.30136266852E+02  0.35137867255E+02  0.47000000000E+01 0. -1.
         -5    1    3    3    0  502  0.13394997634E+03 -0.74992988915E+02 -0.11691722041E+03  0.19302401657E+03  0.47000000000E+01 0. -1.
        -11    1    1    2    0    0 -0.66596233697E+02  0.19639318311E+01 -0.31671752293E+02  0.73770016024E+02  0.00000000000E+00 0. -1.
         11    1    1    2    0    0 -0.78710611905E+02  0.86273174870E+02 -0.16286060041E+03  0.20040458152E+03  0.00000000000E+00 0.  1.
<mgrwt>
<rscale>  0 0.20641396E+03</rscale>
<asrwt>0</asrwt>
<pdfrwt beam="1">  1        3 0.17001783E-01 0.21101401E+03</pdfrwt>
<pdfrwt beam="2">  1       -3 0.60280753E-01 0.21101401E+03</pdfrwt>
<totfact> 0.19990883E+02</totfact>
</mgrwt>
</event>
<event>
 7    1  0.6008063E-006  0.1254226E+03  0.7546771E-02  0.1248780E+00
          3   -1    0    0  501    0  0.00000000000E+00  0.00000000000E+00  0.52864712942E+02  0.52864712942E+02  0.00000000000E+00 0. -1.
         -3   -1    0    0    0  501 -0.00000000000E+00 -0.00000000000E+00 -0.22718459159E+03  0.22718459159E+03  0.00000000000E+00 0.  1.
         23    2    1    2    0    0  0.10002009895E+02  0.26499800926E+01 -0.10111377888E+03  0.16110502779E+03  0.12499508432E+03 0.  0.
          5    1    3    3  502    0 -0.20854491146E+02 -0.54902641520E+02 -0.58241826193E+02  0.82845700945E+02  0.47000000000E+01 0. -1.
         -5    1    3    3    0  502  0.30856501040E+02  0.57552621613E+02 -0.42871952686E+02  0.78259326844E+02  0.47000000000E+01 0. -1.
        -11    1    1    2    0    0 -0.34084334422E+02  0.30747832750E+02 -0.16316575588E+02  0.48717570862E+02  0.00000000000E+00 0.  1.
         11    1    1    2    0    0  0.24082324528E+02 -0.33397812842E+02 -0.56889524180E+02  0.70226705880E+02  0.00000000000E+00 0. -1.
<mgrwt>
<rscale>  0 0.11661970E+03</rscale>
<asrwt>0</asrwt>
<pdfrwt beam="1">  1        3 0.81330326E-02 0.12542262E+03</pdfrwt>
<pdfrwt beam="2">  1       -3 0.34951477E-01 0.12542262E+03</pdfrwt>
<totfact> 0.18907880E+03</totfact>
</mgrwt>
</event>
<event>
 7    1  0.6008063E-006  0.3379966E+03  0.7546771E-02  0.1068778E+00
          1   -1    0    0  501    0  0.00000000000E+00  0.00000000000E+00  0.87004983059E+03  0.87004983059E+03  0.00000000000E+00 0. -1.
         -1   -1    0    0    0  501 -0.00000000000E+00 -0.00000000000E+00 -0.12880073680E+03  0.12880073680E+03  0.00000000000E+00 0.  1.
         23    2    1    2    0    0  0.31386230398E+03  0.10460862530E+02  0.42973805169E+03  0.54673257076E+03  0.12499094106E+03 0.  0.
          5    1    3    3  502    0  0.28962590651E+03 -0.19507953394E+02  0.41207676376E+03  0.50407645769E+03  0.47000000000E+01 0.  1.
         -5    1    3    3    0  502  0.24236397470E+02  0.29968815924E+02  0.17661287931E+02  0.42656113062E+02  0.47000000000E+01 0.  1.
        -11    1    1    2    0    0 -0.23688664012E+03  0.55019810501E+01  0.28154923409E+03  0.36798848253E+03  0.00000000000E+00 0. -1.
         11    1    1    2    0    0 -0.76975663869E+02 -0.15962843580E+02  0.29961808008E+02  0.84129514097E+02  0.00000000000E+00 0.  1.
<mgrwt>
<rscale>  0 0.33538638E+03</rscale>
<asrwt>0</asrwt>
<pdfrwt beam="1">  1        1 0.13385382E+00 0.33799661E+03</pdfrwt>
<pdfrwt beam="2">  1       -1 0.19815499E-01 0.33799661E+03</pdfrwt>
<totfact> 0.41316422E+02</totfact>
</mgrwt>
</event>
<event>
 7    1  0.6008063E-006  0.1461244E+03  0.7546771E-02  0.1219360E+00
         -1   -1    0    0    0  501 -0.00000000000E+00  0.00000000000E+00  0.27144605494E+02  0.27144605494E+02  0.00000000000E+00 0.  1.
          1   -1    0    0  501    0  0.00000000000E+00 -0.00000000000E+00 -0.83038620248E+03  0.83038620248E+03  0.00000000000E+00 0. -1.
         23    2    1    2    0    0 -0.27042804147E+02  0.70681914336E+02 -0.67008873394E+03  0.68583617299E+03  0.12500039423E+03 0.  0.
          5    1    3    3  502    0  0.24313762623E+02  0.74136344616E+02 -0.23431824057E+03  0.24701110200E+03  0.47000000000E+01 0.  1.
         -5    1    3    3    0  502 -0.51356566770E+02 -0.34544302809E+01 -0.43577049338E+03  0.43882507100E+03  0.47000000000E+01 0.  1.
        -11    1    1    2    0    0 -0.15090797920E+02  0.94659433366E+01 -0.20353984226E+02  0.27048492361E+02  0.00000000000E+00 0. -1.
         11    1    1    2    0    0  0.42133602067E+02 -0.80147857672E+02 -0.11279887881E+03  0.14464614262E+03  0.00000000000E+00 0.  1.
<mgrwt>
<rscale>  0 0.13561068E+03</rscale>
<asrwt>0</asrwt>
<pdfrwt beam="2">  1        1 0.12775169E+00 0.14612442E+03</pdfrwt>
<pdfrwt beam="1">  1       -1 0.41760942E-02 0.14612442E+03</pdfrwt>
<totfact> 0.48916929E+03</totfact>
</mgrwt>
</event>
<event>
 7    1  0.6008063E-006  0.1503113E+03  0.7546771E-02  0.1208924E+00
          2   -1    0    0  501    0  0.00000000000E+00  0.00000000000E+00  0.90987915575E+03  0.90987915575E+03  0.00000000000E+00 0. -1.
         -2   -1    0    0    0  501 -0.00000000000E+00 -0.00000000000E+00 -0.22456780890E+02  0.22456780890E+02  0.00000000000E+00 0.  1.
         23    2    1    2    0    0 -0.79517692819E+02 -0.25412694100E+02  0.61189817721E+03  0.63008957172E+03  0.12499848247E+03 0.  0.
          5    1    3    3  502    0 -0.60850119956E+02 -0.19920870134E+02  0.60575838858E+03  0.60915096117E+03  0.47000000000E+01 0. -1.
         -5    1    3    3    0  502 -0.18667572864E+02 -0.54918239669E+01  0.61397886340E+01  0.20938610545E+02  0.47000000000E+01 0. -1.
        -11    1    1    2    0    0  0.30116092117E+02  0.54423553826E+02  0.10158341739E+03  0.11911378133E+03  0.00000000000E+00 0.  1.
         11    1    1    2    0    0  0.49401600702E+02 -0.29010859726E+02  0.17394078026E+03  0.18313258359E+03  0.00000000000E+00 0. -1.
<mgrwt>
<rscale>  0 0.14332506E+03</rscale>
<asrwt>0</asrwt>
<pdfrwt beam="1">  1        2 0.13998138E+00 0.15031131E+03</pdfrwt>
<pdfrwt beam="2">  1       -2 0.34548901E-02 0.15031131E+03</pdfrwt>
<totfact> 0.99343939E+03</totfact>
</mgrwt>
</event>
<event>
 7    1  0.6008063E-006  0.1568068E+03  0.7546771E-02  0.1200859E+00
         -1   -1    0    0    0  501 -0.00000000000E+00  0.00000000000E+00  0.33644001029E+02  0.33644001029E+02  0.00000000000E+00 0.  1.
          1   -1    0    0  501    0  0.00000000000E+00 -0.00000000000E+00 -0.61382684683E+03  0.61382684683E+03  0.00000000000E+00 0. -1.
         23    2    1    2    0    0 -0.84143172939E+02 -0.43421000966E+02 -0.29990850025E+03  0.33842793648E+03  0.12499161086E+03 0.  0.
          5    1    3    3  502    0 -0.30025629444E+02 -0.69729297017E+02 -0.24603580938E+03  0.25752557695E+03  0.47000000000E+01 0. -1.
         -5    1    3    3    0  502 -0.54117543494E+02  0.26308296051E+02 -0.53872690876E+02  0.80902359528E+02  0.47000000000E+01 0. -1.
        -11    1    1    2    0    0 -0.56312755713E+01  0.17830328588E+02 -0.65082647798E+01  0.19798721993E+02  0.00000000000E+00 0.  1.
         11    1    1    2    0    0  0.89774448510E+02  0.25590672378E+02 -0.27376608077E+03  0.28924418939E+03  0.00000000000E+00 0. -1.
<mgrwt>
<rscale>  0 0.14968628E+03</rscale>
<asrwt>0</asrwt>
<pdfrwt beam="2">  1        1 0.94434900E-01 0.15680676E+03</pdfrwt>
<pdfrwt beam="1">  1       -1 0.51760002E-02 0.15680676E+03</pdfrwt>
<totfact> 0.55346777E+03</totfact>
</mgrwt>
</event>
<event>
 7    1  0.6008063E-006  0.1548002E+03  0.7546771E-02  0.1203490E+00
          2   -1    0    0  501    0  0.00000000000E+00  0.00000000000E+00  0.12505810039E+03  0.12505810039E+03  0.00000000000E+00 0. -1.
         -2   -1    0    0    0  501 -0.00000000000E+00 -0.00000000000E+00 -0.16100176999E+03  0.16100176999E+03  0.00000000000E+00 0.  1.
         23    2    1    2    0    0  0.19730438437E+02 -0.89167985953E+02 -0.68843439003E+01  0.15495317037E+03  0.12499148330E+03 0.  0.
          5    1    3    3  502    0  0.11060896500E+02 -0.21344899999E+02 -0.62218876535E+02  0.66867232518E+02  0.47000000000E+01 0. -1.
         -5    1    3    3    0  502  0.86695419371E+01 -0.67823085954E+02  0.55334532634E+02  0.88085937854E+02  0.47000000000E+01 0. -1.
        -11    1    1    2    0    0  0.53915676982E+01 -0.12139272869E+02 -0.22994267934E+02  0.26554986459E+02  0.00000000000E+00 0.  1.
         11    1    1    2    0    0 -0.25122006136E+02  0.10130725882E+03 -0.60650577654E+01  0.10455171356E+03  0.00000000000E+00 0. -1.
<mgrwt>
<rscale>  0 0.14757068E+03</rscale>
<asrwt>0</asrwt>
<pdfrwt beam="1">  1        2 0.19239708E-01 0.15480016E+03</pdfrwt>
<pdfrwt beam="2">  1       -2 0.24769503E-01 0.15480016E+03</pdfrwt>
<totfact> 0.40516300E+03</totfact>
</mgrwt>
</event>
<event>
 7    1  0.6008063E-006  0.1426692E+03  0.7546771E-02  0.1220426E+00
          2   -1    0    0  501    0  0.00000000000E+00  0.00000000000E+00  0.13016464954E+03  0.13016464954E+03  0.00000000000E+00 0. -1.
         -2   -1    0    0    0  501 -0.00000000000E+00 -0.00000000000E+00 -0.12701741173E+03  0.12701741173E+03  0.00000000000E+00 0.  1.
         23    2    1    2    0    0 -0.17689233585E+02  0.66457036676E+02  0.10537407815E+02  0.14305777809E+03  0.12500017680E+03 0.  0.
          5    1    3    3  502    0  0.15481169608E+02  0.80678087682E+02 -0.30910487089E+02  0.87898627160E+02  0.47000000000E+01 0. -1.
         -5    1    3    3    0  502 -0.33170403193E+02 -0.14221051006E+02  0.41447894905E+02  0.55159150934E+02  0.47000000000E+01 0. -1.
        -11    1    1    2    0    0  0.46076268542E+02 -0.36079886727E+02 -0.31090042671E+02  0.66267424141E+02  0.00000000000E+00 0.  1.
         11    1    1    2    0    0 -0.28387034957E+02 -0.30377149949E+02  0.23699872663E+02  0.47856859037E+02  0.00000000000E+00 0. -1.
<mgrwt>
<rscale>  0 0.13485405E+03</rscale>
<asrwt>0</asrwt>
<pdfrwt beam="1">  1        2 0.20025331E-01 0.14266917E+03</pdfrwt>
<pdfrwt beam="2">  1       -2 0.19541140E-01 0.14266917E+03</pdfrwt>
<totfact> 0.57889697E+03</totfact>
</mgrwt>
</event>
<event>
 7    1  0.6008063E-006  0.2879023E+03  0.7546771E-02  0.1093033E+00
         -2   -1    0    0    0  501 -0.00000000000E+00  0.00000000000E+00  0.11838194218E+03  0.11838194218E+03  0.00000000000E+00 0.  1.
          2   -1    0    0  501    0  0.00000000000E+00 -0.00000000000E+00 -0.16136596177E+04  0.16136596177E+04  0.00000000000E+00 0. -1.
         23    2    1    2    0    0  0.11923730253E+03  0.23034421990E+03 -0.14156664945E+04  0.14446450654E+04  0.12494697799E+03 0.  0.
          5    1    3    3  502    0 -0.20331685415E+02  0.58657311409E+02 -0.21860241438E+03  0.22729532152E+03  0.47000000000E+01 0. -1.
         -5    1    3    3    0  502  0.13956898795E+03  0.17168690849E+03 -0.11970640801E+04  0.12173497439E+04  0.47000000000E+01 0. -1.
        -11    1    1    2    0    0 -0.79505616800E+02 -0.11150747737E+03 -0.86372772355E+02  0.16191144622E+03  0.00000000000E+00 0. -1.
         11    1    1    2    0    0 -0.39731685733E+02 -0.11883674253E+03  0.67615913403E+01  0.12548504829E+03  0.00000000000E+00 0.  1.
<mgrwt>
<rscale>  0 0.28491815E+03</rscale>
<asrwt>0</asrwt>
<pdfrwt beam="2">  1        2 0.24825533E+00 0.28790231E+03</pdfrwt>
<pdfrwt beam="1">  1       -2 0.18212606E-01 0.28790231E+03</pdfrwt>
<totfact> 0.29382738E+02</totfact>
</mgrwt>
</event>
<event>
 7    1  0.6008063E-006  0.1346946E+03  0.7546771E-02  0.1233317E+00
          1   -1    0    0  501    0  0.00000000000E+00  0.00000000000E+00  0.23880427928E+03  0.23880427928E+03  0.00000000000E+00 0. -1.
         -1   -1    0    0    0  501 -0.00000000000E+00 -0.00000000000E+00 -0.12341420536E+03  0.12341420536E+03  0.00000000000E+00 0.  1.
         23    2    1    2    0    0  0.50271577886E+02  0.57010290915E+01  0.19119698856E+03  0.23387802863E+03  0.12483152873E+03 0.  0.
          5    1    3    3  502    0  0.89897563882E+02 -0.85942137064E+01  0.11104191839E+03  0.14320555206E+03  0.47000000000E+01 0. -1.
         -5    1    3    3    0  502 -0.39625985996E+02  0.14295242798E+02  0.80155070171E+02  0.90672476568E+02  0.47000000000E+01 0.  1.
        -11    1    1    2    0    0  0.18609257286E+02 -0.14911405273E+02  0.21047387477E+01  0.23939181045E+02  0.00000000000E+00 0. -1.
         11    1    1    2    0    0 -0.68880835172E+02  0.92103761813E+01 -0.77911653380E+02  0.10440127497E+03  0.00000000000E+00 0.  1.
<mgrwt>
<rscale>  0 0.12612764E+03</rscale>
<asrwt>0</asrwt>
<pdfrwt beam="1">  1        1 0.36739120E-01 0.13469463E+03</pdfrwt>
<pdfrwt beam="2">  1       -1 0.18986801E-01 0.13469463E+03</pdfrwt>
<totfact> 0.24973315E+03</totfact>
</mgrwt>
</event>
<event>
 7    1  0.6008063E-006  0.1345913E+03  0.7546771E-02  0.1233339E+00
          1   -1    0    0  501    0  0.00000000000E+00  0.00000000000E+00  0.19789593658E+03  0.19789593658E+03  0.00000000000E+00 0. -1.
         -1   -1    0    0    0  501 -0.00000000000E+00 -0.00000000000E+00 -0.72769878322E+02  0.72769878322E+02  0.00000000000E+00 0.  1.
         23    2    1    2    0    0  0.38226437822E+02  0.32045219847E+02  0.86319510600E+02  0.15989332539E+03  0.12500664354E+03 0.  0.
          5    1    3    3  502    0 -0.45908064876E+02  0.69877024847E+01  0.30583540287E+02  0.55801624915E+02  0.47000000000E+01 0.  1.
         -5    1    3    3    0  502  0.84134502698E+02  0.25057517363E+02  0.55735970312E+02  0.10409170047E+03  0.47000000000E+01 0.  1.
        -11    1    1    2    0    0 -0.10443443676E+02  0.26979436190E+02 -0.85412416226E+01  0.30164686331E+02  0.00000000000E+00 0.  1.
         11    1    1    2    0    0 -0.27782994146E+02 -0.59024656038E+02  0.47347789280E+02  0.80607803182E+02  0.00000000000E+00 0. -1.
<mgrwt>
<rscale>  0 0.12611375E+03</rscale>
<asrwt>0</asrwt>
<pdfrwt beam="1">  1        1 0.30445529E-01 0.13459130E+03</pdfrwt>
<pdfrwt beam="2">  1       -1 0.11195366E-01 0.13459130E+03</pdfrwt>
<totfact> 0.72029655E+03</totfact>
</mgrwt>
</event>
<event>
 6    1  0.6008063E-006  0.1448438E+03  0.7546771E-02  0.1228387E+00
          2   -1    0    0  501    0  0.00000000000E+00  0.00000000000E+00  0.24434974144E+04  0.24434974144E+04  0.00000000000E+00 0. -1.
         -2   -1    0    0    0  501 -0.00000000000E+00 -0.00000000000E+00 -0.72279724295E+01  0.72279724295E+01  0.00000000000E+00 0.  1.
          5    1    1    2  502    0 -0.30193679155E+02 -0.30765525003E+01  0.18099857476E+04  0.18102462871E+04  0.47000000000E+01 0. -1.
         -5    1    1    2    0  502  0.40208710300E+02 -0.81804586702E+01  0.16673322400E+03  0.17177228610E+03  0.47000000000E+01 0.  1.
        -11    1    1    2    0    0  0.21523239819E+02  0.42442448728E+02  0.22053022575E+03  0.22560627601E+03  0.00000000000E+00 0. -1.
         11    1    1    2    0    0 -0.31538270964E+02 -0.31185437558E+02  0.23902024465E+03  0.24310053764E+03  0.00000000000E+00 0.  1.
<mgrwt>
<rscale>  0 0.12937453E+03</rscale>
<asrwt>0</asrwt>
<pdfrwt beam="1">  1        2 0.37592202E+00 0.14484382E+03</pdfrwt>
<pdfrwt beam="2">  1       -2 0.11119977E-02 0.14484382E+03</pdfrwt>
<totfact> 0.78193889E+03</totfact>
</mgrwt>
</event>
<event>
 7    1  0.6008063E-006  0.1589705E+03  0.7546771E-02  0.1197622E+00
         -2   -1    0    0    0  501 -0.00000000000E+00  0.00000000000E+00  0.34211464479E+02  0.34211464479E+02  0.00000000000E+00 0.  1.
          2   -1    0    0  501    0  0.00000000000E+00 -0.00000000000E+00 -0.77124226480E+03  0.77124226480E+03  0.00000000000E+00 0. -1.
         23    2    1    2    0    0 -0.77013980778E+02 -0.60912853133E+02 -0.56731849827E+03  0.58917052225E+03  0.12502038594E+03 0.  0.
          5    1    3    3  502    0 -0.24323542673E+02 -0.61154470560E+02 -0.49602604416E+03  0.50039527424E+03  0.47000000000E+01 0. -1.
         -5    1    3    3    0  502 -0.52690438105E+02  0.24161742657E+00 -0.71292454109E+02  0.88775248012E+02  0.47000000000E+01 0. -1.
        -11    1    1    2    0    0  0.35995755122E+02 -0.41341690223E+01 -0.11843930860E+03  0.12385740011E+03  0.00000000000E+00 0. -1.
         11    1    1    2    0    0  0.41018225656E+02  0.65047022156E+02 -0.51272993457E+02  0.92425806923E+02  0.00000000000E+00 0.  1.
<mgrwt>
<rscale>  0 0.15234372E+03</rscale>
<asrwt>0</asrwt>
<pdfrwt beam="2">  1        2 0.11865265E+00 0.15897052E+03</pdfrwt>
<pdfrwt beam="1">  1       -2 0.52633026E-02 0.15897052E+03</pdfrwt>
<totfact> 0.65542321E+03</totfact>
</mgrwt>
</event>
<event>
 6    1  0.6008063E-006  0.1426526E+03  0.7546771E-02  0.1229696E+00
         -2   -1    0    0    0  501 -0.00000000000E+00  0.00000000000E+00  0.66847243481E+02  0.66847243481E+02  0.00000000000E+00 0.  1.
          2   -1    0    0  501    0  0.00000000000E+00 -0.00000000000E+00 -0.21681277937E+03  0.21681277937E+03  0.00000000000E+00 0. -1.
          5    1    1    2  502    0 -0.26835487993E+02  0.57687739817E+02 -0.10641583140E+03  0.12407432415E+03  0.47000000000E+01 0. -1.
         -5    1    1    2    0  502  0.37095471082E+01 -0.58571501636E+02 -0.92931640521E+01  0.59605657800E+02  0.47000000000E+01 0.  1.
        -11    1    1    2    0    0  0.40807643554E+02 -0.27138189448E+02 -0.43555840045E+02  0.65565664040E+02  0.00000000000E+00 0.  1.
         11    1    1    2    0    0 -0.17681702669E+02  0.28021951267E+02  0.92992996014E+01  0.34414376867E+02  0.00000000000E+00 0. -1.
<mgrwt>
<rscale>  0 0.12850165E+03</rscale>
<asrwt>0</asrwt>
<pdfrwt beam="2">  1        2 0.33355812E-01 0.14265260E+03</pdfrwt>
<pdfrwt beam="1">  1       -2 0.10284191E-01 0.14265260E+03</pdfrwt>
<totfact> 0.93827566E+03</totfact>
</mgrwt>
</event>
<event>
 7    1  0.6008063E-006  0.1518758E+03  0.7546771E-02  0.1207010E+00
         -1   -1    0    0    0  501 -0.00000000000E+00  0.00000000000E+00  0.68237730930E+02  0.68237730930E+02  0.00000000000E+00 0.  1.
          1   -1    0    0  501    0  0.00000000000E+00 -0.00000000000E+00 -0.28353780362E+03  0.28353780362E+03  0.00000000000E+00 0. -1.
         23    2    1    2    0    0 -0.32891227088E+02  0.79744883727E+02 -0.13126875522E+03  0.20074301193E+03  0.12500076577E+03 0.  0.
          5    1    3    3  502    0 -0.72399460449E+02  0.67641925005E+02 -0.53863988107E+02  0.11287396115E+03  0.47000000000E+01 0.  1.
         -5    1    3    3    0  502  0.39508233361E+02  0.12102958722E+02 -0.77404767112E+02  0.87869050779E+02  0.47000000000E+01 0.  1.
        -11    1    1    2    0    0  0.14777526283E+00  0.16141910136E+02 -0.34843135034E+02  0.38400874461E+02  0.00000000000E+00 0. -1.
         11    1    1    2    0    0  0.32743451825E+02 -0.95886793863E+02 -0.49188182437E+02  0.11263164816E+03  0.00000000000E+00 0.  1.
<mgrwt>
<rscale>  0 0.14480217E+03</rscale>
<asrwt>0</asrwt>
<pdfrwt beam="2">  1        1 0.43621200E-01 0.15187584E+03</pdfrwt>
<pdfrwt beam="1">  1       -1 0.10498113E-01 0.15187584E+03</pdfrwt>
<totfact> 0.51287492E+03</totfact>
</mgrwt>
</event>
<event>
 7    1  0.6008063E-006  0.1541449E+03  0.7546771E-02  0.1205529E+00
          1   -1    0    0  501    0  0.00000000000E+00  0.00000000000E+00  0.37962489082E+02  0.37962489082E+02  0.00000000000E+00 0. -1.
         -1   -1    0    0    0  501 -0.00000000000E+00 -0.00000000000E+00 -0.50926546116E+03  0.50926546116E+03  0.00000000000E+00 0.  1.
         23    2    1    2    0    0  0.77456801609E+02 -0.46215547978E+02 -0.26491091699E+03  0.30649377339E+03  0.12500082479E+03 0.  0.
          5    1    3    3  502    0  0.57563022711E+02  0.22711163288E+02 -0.20078282070E+03  0.21015501329E+03  0.47000000000E+01 0. -1.
         -5    1    3    3    0  502  0.19893778899E+02 -0.68926711266E+02 -0.64128096290E+02  0.96338760105E+02  0.47000000000E+01 0. -1.
        -11    1    1    2    0    0 -0.55170914187E+02 -0.14122625258E+02 -0.12187688622E+03  0.13452603358E+03  0.00000000000E+00 0. -1.
         11    1    1    2    0    0 -0.22285887422E+02  0.60338173236E+02 -0.84515168866E+02  0.10620814327E+03  0.00000000000E+00 0.  1.
<mgrwt>
<rscale>  0 0.14595835E+03</rscale>
<asrwt>0</asrwt>
<pdfrwt beam="1">  1        1 0.58403830E-02 0.15414486E+03</pdfrwt>
<pdfrwt beam="2">  1       -1 0.78348531E-01 0.15414486E+03</pdfrwt>
<totfact> 0.22285235E+03</totfact>
</mgrwt>
</event>
<event>
 7    1  0.6008063E-006  0.1433746E+03  0.7546771E-02  0.1219232E+00
         -4   -1    0    0    0  501 -0.00000000000E+00  0.00000000000E+00  0.25222995726E+02  0.25222995726E+02  0.00000000000E+00 0.  1.
          4   -1    0    0  501    0  0.00000000000E+00 -0.00000000000E+00 -0.66207655165E+03  0.66207655165E+03  0.00000000000E+00 0. -1.
         23    2    1    2    0    0 -0.35722025163E+02  0.60460099432E+02 -0.34933302938E+03  0.37761069240E+03  0.12499913156E+03 0.  0.
          5    1    3    3  502    0 -0.77883828960E+01 -0.16373166851E+02  0.79595930536E-01  0.18730612280E+02  0.47000000000E+01 0. -1.
         -5    1    3    3    0  502 -0.27933642267E+02  0.76833266284E+02 -0.34941262531E+03  0.35888008012E+03  0.47000000000E+01 0. -1.
        -11    1    1    2    0    0  0.42120003341E+02  0.83295604434E+01 -0.14637842826E+03  0.15254547033E+03  0.00000000000E+00 0. -1.
         11    1    1    2    0    0 -0.63979781779E+01 -0.68789659876E+02 -0.14114209829E+03  0.15714338465E+03  0.00000000000E+00 0.  1.
<mgrwt>
<rscale>  0 0.13570210E+03</rscale>
<asrwt>0</asrwt>
<pdfrwt beam="2">  1        4 0.10185793E+00 0.14337458E+03</pdfrwt>
<pdfrwt beam="1">  1       -4 0.38804610E-02 0.14337458E+03</pdfrwt>
<totfact> 0.49393044E+02</totfact>
</mgrwt>
</event>
<event>
 7    1  0.6008063E-006  0.1253621E+03  0.7546771E-02  0.1240006E+00
         -1   -1    0    0    0  501 -0.00000000000E+00  0.00000000000E+00  0.67224820600E+02  0.67224820600E+02  0.00000000000E+00 0.  1.
          1   -1    0    0  501    0  0.00000000000E+00 -0.00000000000E+00 -0.51447530905E+03  0.51447530905E+03  0.00000000000E+00 0. -1.
         23    2    1    2    0    0 -0.49439241386E+02 -0.32203023458E+02 -0.45248114246E+03  0.46952617409E+03  0.11060908899E+03 0.  0.
          5    1    3    3  502    0 -0.34861850423E+02 -0.45688867210E+02 -0.44349528066E+03  0.44722810195E+03  0.47000000000E+01 0. -1.
         -5    1    3    3    0  502 -0.14577390963E+02  0.13485843752E+02 -0.89858617925E+01  0.22298072139E+02  0.47000000000E+01 0.  1.
        -11    1    1    2    0    0  0.24460530073E+02  0.31135160496E+02  0.48250593769E+02  0.62416628791E+02  0.00000000000E+00 0.  1.
         11    1    1    2    0    0  0.24978711313E+02  0.10678629615E+01 -0.43019939766E+02  0.49757326773E+02  0.00000000000E+00 0. -1.
<mgrwt>
<rscale>  0 0.12189318E+03</rscale>
<asrwt>0</asrwt>
<pdfrwt beam="2">  1        1 0.79150047E-01 0.12536205E+03</pdfrwt>
<pdfrwt beam="1">  1       -1 0.10342280E-01 0.12536205E+03</pdfrwt>
<totfact> 0.24522085E+03</totfact>
</mgrwt>
</event>
<event>
 7    1  0.6008063E-006  0.1342054E+03  0.7546771E-02  0.1232479E+00
          2   -1    0    0  501    0  0.00000000000E+00  0.00000000000E+00  0.17083512071E+03  0.17083512071E+03  0.00000000000E+00 0. -1.
         -2   -1    0    0    0  501 -0.00000000000E+00 -0.00000000000E+00 -0.92534482287E+02  0.92534482287E+02  0.00000000000E+00 0.  1.
         23    2    1    2    0    0 -0.44098412356E+02  0.20998035760E+02  0.81121229101E+02  0.15681755674E+03  0.12500201923E+03 0.  0.
          5    1    3    3  502    0 -0.33699780020E+02  0.63997480034E+02  0.85531119610E+02  0.11211161869E+03  0.47000000000E+01 0. -1.
         -5    1    3    3    0  502 -0.10398632335E+02 -0.42999444274E+02 -0.44098905089E+01  0.44705938047E+02  0.47000000000E+01 0. -1.
        -11    1    1    2    0    0  0.12524402868E+02 -0.57029399659E+02 -0.49408539998E+01  0.58597142686E+02  0.00000000000E+00 0.  1.
         11    1    1    2    0    0  0.31574009488E+02  0.36031363899E+02  0.21202633167E+01  0.47954903567E+02  0.00000000000E+00 0. -1.
<mgrwt>
<rscale>  0 0.12667179E+03</rscale>
<asrwt>0</asrwt>
<pdfrwt beam="1">  1        2 0.26282326E-01 0.13420541E+03</pdfrwt>
<pdfrwt beam="2">  1       -2 0.14236074E-01 0.13420541E+03</pdfrwt>
<totfact> 0.71931782E+03</totfact>
</mgrwt>
</event>
<event>
 7    1  0.6008063E-006  0.1639295E+03  0.7546771E-02  0.1191528E+00
         -4   -1    0    0    0  501 -0.00000000000E+00  0.00000000000E+00  0.25110973529E+03  0.25110973529E+03  0.00000000000E+00 0.  1.
          4   -1    0    0  501    0  0.00000000000E+00 -0.00000000000E+00 -0.94289379526E+02  0.94289379526E+02  0.00000000000E+00 0. -1.
         23    2    1    2    0    0  0.63042391191E+02 -0.85277256932E+02  0.56590834736E+02  0.17342263422E+03  0.12500533528E+03 0.  0.
          5    1    3    3  502    0  0.14827650329E+02 -0.48616202215E+02 -0.36154595120E+02  0.62551091760E+02  0.47000000000E+01 0.  1.
         -5    1    3    3    0  502  0.48214740862E+02 -0.36661054717E+02  0.92745429856E+02  0.11087154246E+03  0.47000000000E+01 0.  1.
        -11    1    1    2    0    0 -0.52389072905E+02  0.16190687432E+02  0.83837329473E+02  0.10017709884E+03  0.00000000000E+00 0.  1.
         11    1    1    2    0    0 -0.10653318286E+02  0.69086569501E+02  0.16392191559E+02  0.71799381752E+02  0.00000000000E+00 0. -1.
<mgrwt>
<rscale>  0 0.15751812E+03</rscale>
<asrwt>0</asrwt>
<pdfrwt beam="2">  1        4 0.14506058E-01 0.16392952E+03</pdfrwt>
<pdfrwt beam="1">  1       -4 0.38632267E-01 0.16392952E+03</pdfrwt>
<totfact> 0.44787475E+02</totfact>
</mgrwt>
</event>
<event>
 7    1  0.6008063E-006  0.1387314E+03  0.7546771E-02  0.1226314E+00
          2   -1    0    0  501    0  0.00000000000E+00  0.00000000000E+00  0.13651882906E+03  0.13651882906E+03  0.00000000000E+00 0. -1.
         -2   -1    0    0    0  501 -0.00000000000E+00 -0.00000000000E+00 -0.12005978548E+03  0.12005978548E+03  0.00000000000E+00 0.  1.
         23    2    1    2    0    0 -0.18819925206E+02  0.57173660121E+02 -0.22051898861E+02  0.14047311853E+03  0.12499357500E+03 0.  0.
          5    1    3    3  502    0  0.35133036611E+02  0.73860000356E+02 -0.16096613729E+02  0.83491442002E+02  0.47000000000E+01 0.  1.
         -5    1    3    3    0  502 -0.53952961817E+02 -0.16686340235E+02 -0.59552851319E+01  0.56981676530E+02  0.47000000000E+01 0.  1.
        -11    1    1    2    0    0  0.49209506545E+02 -0.61371057748E+02  0.30755376663E+02  0.84462272390E+02  0.00000000000E+00 0. -1.
         11    1    1    2    0    0 -0.30389581339E+02  0.41973976275E+01  0.77555657736E+01  0.31643223624E+02  0.00000000000E+00 0.  1.
<mgrwt>
<rscale>  0 0.13077268E+03</rscale>
<asrwt>0</asrwt>
<pdfrwt beam="1">  1        2 0.21002897E-01 0.13873143E+03</pdfrwt>
<pdfrwt beam="2">  1       -2 0.18470736E-01 0.13873143E+03</pdfrwt>
<totfact> 0.60199617E+03</totfact>
</mgrwt>
</event>
<event>
 7    1  0.6008063E-006  0.1359578E+03  0.7546771E-02  0.1230950E+00
          1   -1    0    0  501    0  0.00000000000E+00  0.00000000000E+00  0.71603940582E+02  0.71603940582E+02  0.00000000000E+00 0. -1.
         -1   -1    0    0    0  501 -0.00000000000E+00 -0.00000000000E+00 -0.20979184458E+03  0.20979184458E+03  0.00000000000E+00 0.  1.
         23    2    1    2    0    0  0.48363400581E+02 -0.22809461170E+02 -0.54174063528E+02  0.14635355073E+03  0.12500097046E+03 0.  0.
          5    1    3    3  502    0 -0.13761279613E+02  0.30567880531E+02  0.16875322343E+02  0.37823731188E+02  0.47000000000E+01 0.  1.
         -5    1    3    3    0  502  0.62124680194E+02 -0.53377341702E+02 -0.71049385871E+02  0.10852981954E+03  0.47000000000E+01 0.  1.
        -11    1    1    2    0    0 -0.57631324715E+02  0.46944434019E+02 -0.41086431490E+02  0.84930820827E+02  0.00000000000E+00 0.  1.
         11    1    1    2    0    0  0.92679241342E+01 -0.24134972849E+02 -0.42927408984E+02  0.50111413613E+02  0.00000000000E+00 0. -1.
<mgrwt>
<rscale>  0 0.12767300E+03</rscale>
<asrwt>0</asrwt>
<pdfrwt beam="1">  1        1 0.11015991E-01 0.13595783E+03</pdfrwt>
<pdfrwt beam="2">  1       -1 0.32275668E-01 0.13595783E+03</pdfrwt>
<totfact> 0.48408871E+03</totfact>
</mgrwt>
</event>
<event>
 7    1  0.6008063E-006  0.1445357E+03  0.7546771E-02  0.1217404E+00
         -2   -1    0    0    0  501 -0.00000000000E+00  0.00000000000E+00  0.16773948014E+02  0.16773948014E+02  0.00000000000E+00 0.  1.
          2   -1    0    0  501    0  0.00000000000E+00 -0.00000000000E+00 -0.13150250198E+04  0.13150250198E+04  0.00000000000E+00 0. -1.
         23    2    1    2    0    0 -0.14365799364E+02  0.71138530241E+02 -0.10180745350E+04  0.10282831952E+04  0.12499401608E+03 0.  0.
          5    1    3    3  502    0 -0.37908874824E+02  0.82941069574E+02 -0.42944252908E+03  0.43904359646E+03  0.47000000000E+01 0.  1.
         -5    1    3    3    0  502  0.23543075460E+02 -0.11802539332E+02 -0.58863200592E+03  0.58923959874E+03  0.47000000000E+01 0.  1.
        -11    1    1    2    0    0 -0.26464473391E+02 -0.56973831357E+02 -0.98947088840E+02  0.11720457415E+03  0.00000000000E+00 0.  1.
         11    1    1    2    0    0  0.40830272755E+02 -0.14164698885E+02 -0.18122944795E+03  0.18631119846E+03  0.00000000000E+00 0. -1.
<mgrwt>
<rscale>  0 0.13701408E+03</rscale>
<asrwt>0</asrwt>
<pdfrwt beam="2">  1        2 0.20231155E+00 0.14453571E+03</pdfrwt>
<pdfrwt beam="1">  1       -2 0.25806072E-02 0.14453571E+03</pdfrwt>
<totfact> 0.89044793E+03</totfact>
</mgrwt>
</event>
<event>
 7    1  0.6008063E-006  0.4539389E+03  0.7546771E-02  0.1026554E+00
          1   -1    0    0  501    0  0.00000000000E+00  0.00000000000E+00  0.11605773511E+04  0.11605773511E+04  0.00000000000E+00 0. -1.
         -1   -1    0    0    0  501 -0.00000000000E+00 -0.00000000000E+00 -0.44387502976E+02  0.44387502976E+02  0.00000000000E+00 0.  1.
         23    2    1    2    0    0  0.61151576272E+02  0.31611963912E+02  0.53681160900E+03  0.55351671197E+03  0.11608279516E+03 0.  0.
          5    1    3    3  502    0  0.25853275674E+02  0.72501563599E+02  0.37547222061E+03  0.38330972729E+03  0.47000000000E+01 0.  1.
         -5    1    3    3    0  502  0.35298300598E+02 -0.40889599687E+02  0.16133938839E+03  0.17020698468E+03  0.47000000000E+01 0. -1.
        -11    1    1    2    0    0  0.27744933483E+02  0.11562748767E+03  0.17051651052E+03  0.20788308637E+03  0.00000000000E+00 0.  1.
         11    1    1    2    0    0 -0.88896509754E+02 -0.14723945159E+03  0.40886172863E+03  0.44356505575E+03  0.00000000000E+00 0. -1.
<mgrwt>
<rscale>  0 0.45393890E+03</rscale>
<asrwt>0</asrwt>
<pdfrwt beam="1">  1        1 0.17855034E+00 0.45393890E+03</pdfrwt>
<pdfrwt beam="2">  1       -1 0.68288475E-02 0.45393890E+03</pdfrwt>
<totfact> 0.13343244E+03</totfact>
</mgrwt>
</event>
<event>
 7    1  0.6008063E-006  0.1298227E+03  0.7546771E-02  0.1241171E+00
          2   -1    0    0  501    0  0.00000000000E+00  0.00000000000E+00  0.27499923385E+03  0.27499923385E+03  0.00000000000E+00 0. -1.
         -2   -1    0    0    0  501 -0.00000000000E+00 -0.00000000000E+00 -0.74752875688E+02  0.74752875688E+02  0.00000000000E+00 0.  1.
         23    2    1    2    0    0  0.34199169132E+02  0.77570293239E+01  0.21396022735E+03  0.25026567163E+03  0.12499669129E+03 0.  0.
          5    1    3    3  502    0 -0.15822517168E+02  0.55812925038E+02  0.12011007455E+03  0.13346892769E+03  0.47000000000E+01 0. -1.
         -5    1    3    3    0  502  0.50021686300E+02 -0.48055895714E+02  0.93850152802E+02  0.11679674394E+03  0.47000000000E+01 0. -1.
        -11    1    1    2    0    0  0.31762177851E+02  0.12708862765E+01 -0.16851916618E+01  0.31832231538E+02  0.00000000000E+00 0. -1.
         11    1    1    2    0    0 -0.65961346983E+02 -0.90279156004E+01 -0.12028677533E+02  0.67654206366E+02  0.00000000000E+00 0.  1.
<mgrwt>
<rscale>  0 0.12117483E+03</rscale>
<asrwt>0</asrwt>
<pdfrwt beam="1">  1        2 0.42307574E-01 0.12982268E+03</pdfrwt>
<pdfrwt beam="2">  1       -2 0.11500443E-01 0.12982268E+03</pdfrwt>
<totfact> 0.60607892E+03</totfact>
</mgrwt>
</event>
<event>
 7    1  0.6008063E-006  0.1313654E+03  0.7546771E-02  0.1238391E+00
         -1   -1    0    0    0  501 -0.00000000000E+00  0.00000000000E+00  0.43807184812E+02  0.43807184812E+02  0.00000000000E+00 0.  1.
          1   -1    0    0  501    0  0.00000000000E+00 -0.00000000000E+00 -0.31517657675E+03  0.31517657675E+03  0.00000000000E+00 0. -1.
         23    2    1    2    0    0  0.40122305287E+02 -0.51426542905E+01 -0.18158077897E+03  0.22411702027E+03  0.12498245161E+03 0.  0.
          5    1    3    3  502    0 -0.15636506236E+02  0.16743571827E+02  0.84091447813E+01  0.24852590222E+02  0.47000000000E+01 0.  1.
         -5    1    3    3    0  502  0.55758811523E+02 -0.21886226118E+02 -0.18998992375E+03  0.19926443005E+03  0.47000000000E+01 0.  1.
        -11    1    1    2    0    0 -0.68120183582E+01 -0.34682848400E+02 -0.53573181884E+01  0.35749187759E+02  0.00000000000E+00 0.  1.
         11    1    1    2    0    0 -0.33310286929E+02  0.39825502690E+02 -0.84431294780E+02  0.99117553531E+02  0.00000000000E+00 0. -1.
<mgrwt>
<rscale>  0 0.12289833E+03</rscale>
<asrwt>0</asrwt>
<pdfrwt beam="2">  1        1 0.48488706E-01 0.13136537E+03</pdfrwt>
<pdfrwt beam="1">  1       -1 0.67395666E-02 0.13136537E+03</pdfrwt>
<totfact> 0.87200853E+03</totfact>
</mgrwt>
</event>
<event>
 7    1  0.6008063E-006  0.1325130E+03  0.7546771E-02  0.1236799E+00
         -2   -1    0    0    0  501 -0.00000000000E+00  0.00000000000E+00  0.47084701242E+03  0.47084701242E+03  0.00000000000E+00 0.  1.
          2   -1    0    0  501    0  0.00000000000E+00 -0.00000000000E+00 -0.37757703206E+02  0.37757703206E+02  0.00000000000E+00 0. -1.
         23    2    1    2    0    0  0.26277475726E+02  0.35261517392E+02  0.11729564739E+03  0.17696881155E+03  0.12500324406E+03 0.  0.
          5    1    3    3  502    0  0.76361926582E+02  0.18440926820E+02  0.79300643051E+02  0.11172239526E+03  0.47000000000E+01 0.  1.
         -5    1    3    3    0  502 -0.50084450857E+02  0.16820590571E+02  0.37995004339E+02  0.65246416296E+02  0.47000000000E+01 0.  1.
        -11    1    1    2    0    0  0.15676876599E+02 -0.47704203050E+02  0.22892473725E+03  0.23436721352E+03  0.00000000000E+00 0.  1.
         11    1    1    2    0    0 -0.41954352325E+02  0.12442685658E+02  0.86868924575E+02  0.97268690555E+02  0.00000000000E+00 0. -1.
<mgrwt>
<rscale>  0 0.12389962E+03</rscale>
<asrwt>0</asrwt>
<pdfrwt beam="2">  1        2 0.58088778E-02 0.13251299E+03</pdfrwt>
<pdfrwt beam="1">  1       -2 0.72437998E-01 0.13251299E+03</pdfrwt>
<totfact> 0.21909990E+03</totfact>
</mgrwt>
</event>
<event>
 7    1  0.6008063E-006  0.1657758E+03  0.7546771E-02  0.1191015E+00
         -2   -1    0    0    0  501 -0.00000000000E+00  0.00000000000E+00  0.94928664009E+02  0.94928664009E+02  0.00000000000E+00 0.  1.
          2   -1    0    0  501    0  0.00000000000E+00 -0.00000000000E+00 -0.25450585207E+03  0.25450585207E+03  0.00000000000E+00 0. -1.
         23    2    1    2    0    0 -0.10677471904E+03  0.18408046718E+02 -0.12728265542E+03  0.20900357247E+03  0.12546681683E+03 0.  0.
          5    1    3    3  502    0 -0.40461606521E+02  0.25183557969E+02  0.16336281492E+02  0.50599577936E+02  0.47000000000E+01 0.  1.
         -5    1    3    3    0  502 -0.66313112516E+02 -0.67755112515E+01 -0.14361893691E+03  0.15840399453E+03  0.47000000000E+01 0.  1.
        -11    1    1    2    0    0  0.45123872028E+02  0.31894455123E+02 -0.20113674471E+01  0.55294354987E+02  0.00000000000E+00 0. -1.
         11    1    1    2    0    0  0.61650847009E+02 -0.50302501841E+02 -0.30283165194E+02  0.85136588624E+02  0.00000000000E+00 0.  1.
<mgrwt>
<rscale>  0 0.15796356E+03</rscale>
<asrwt>0</asrwt>
<pdfrwt beam="2">  1        2 0.39154746E-01 0.16577581E+03</pdfrwt>
<pdfrwt beam="1">  1       -2 0.14604410E-01 0.16577581E+03</pdfrwt>
<totfact> 0.45415938E+03</totfact>
</mgrwt>
</event>
<event>
 7    1  0.6008063E-006  0.1343873E+03  0.7546771E-02  0.1235029E+00
         -2   -1    0    0    0  501 -0.00000000000E+00  0.00000000000E+00  0.42076692231E+02  0.42076692231E+02  0.00000000000E+00 0.  1.
          2   -1    0    0  501    0  0.00000000000E+00 -0.00000000000E+00 -0.44428773382E+03  0.44428773382E+03  0.00000000000E+00 0. -1.
         23    2    1    2    0    0  0.34174937313E+02 -0.35604373885E+02 -0.34572478742E+03  0.37092528812E+03  0.12499737178E+03 0.  0.
          5    1    3    3  502    0 -0.46038410864E+02 -0.26708163598E+01 -0.14477554936E+03  0.15201551970E+03  0.47000000000E+01 0. -1.
         -5    1    3    3    0  502  0.80213348176E+02 -0.32933557526E+02 -0.20094923805E+03  0.21890976842E+03  0.47000000000E+01 0. -1.
        -11    1    1    2    0    0 -0.58645436606E+02  0.15000888141E+02 -0.57422071133E+02  0.83436251911E+02  0.00000000000E+00 0. -1.
         11    1    1    2    0    0  0.24470499294E+02  0.20603485744E+02  0.93581695845E+00  0.32002886024E+02  0.00000000000E+00 0.  1.
<mgrwt>
<rscale>  0 0.12502569E+03</rscale>
<asrwt>0</asrwt>
<pdfrwt beam="2">  1        2 0.68351964E-01 0.13438728E+03</pdfrwt>
<pdfrwt beam="1">  1       -2 0.64733368E-02 0.13438728E+03</pdfrwt>
<totfact> 0.89042929E+03</totfact>
</mgrwt>
</event>
<event>
 7    1  0.6008063E-006  0.1419165E+03  0.7546771E-02  0.1222178E+00
          4   -1    0    0  501    0  0.00000000000E+00  0.00000000000E+00  0.64037009263E+02  0.64037009263E+02  0.00000000000E+00 0.  1.
         -4   -1    0    0    0  501 -0.00000000000E+00 -0.00000000000E+00 -0.28378377915E+03  0.28378377915E+03  0.00000000000E+00 0. -1.
         23    2    1    2    0    0 -0.67164013555E+02 -0.20382940485E+01 -0.62587243362E+02  0.15510468461E+03  0.12500056319E+03 0.  0.
          5    1    3    3  502    0 -0.14585409417E+02  0.57611308435E+02 -0.12193815764E+02  0.60848797608E+02  0.47000000000E+01 0.  1.
         -5    1    3    3    0  502 -0.52578604139E+02 -0.59649602483E+02 -0.50393427597E+02  0.94255887002E+02  0.47000000000E+01 0.  1.
        -11    1    1    2    0    0 -0.15979503278E+02  0.12151626767E+02 -0.79216432989E+01  0.21581450152E+02  0.00000000000E+00 0.  1.
         11    1    1    2    0    0  0.83143516834E+02 -0.10113332718E+02 -0.14923788322E+03  0.17113465365E+03  0.00000000000E+00 0. -1.
<mgrwt>
<rscale>  0 0.13362230E+03</rscale>
<asrwt>0</asrwt>
<pdfrwt beam="1">  1        4 0.98518476E-02 0.14191653E+03</pdfrwt>
<pdfrwt beam="2">  1       -4 0.43659043E-01 0.14191653E+03</pdfrwt>
<totfact> 0.66416630E+02</totfact>
</mgrwt>
</event>
<event>
 7    1  0.6008063E-006  0.2172336E+03  0.7546771E-02  0.1138337E+00
          2   -1    0    0  501    0  0.00000000000E+00  0.00000000000E+00  0.31324659722E+02  0.31324659722E+02  0.00000000000E+00 0. -1.
         -2   -1    0    0    0  501 -0.00000000000E+00 -0.00000000000E+00 -0.14632278637E+04  0.14632278637E+04  0.00000000000E+00 0.  1.
         23    2    1    2    0    0  0.15630533404E+03 -0.84457600222E+02 -0.61276252369E+03  0.65012949506E+03  0.12500402484E+03 0.  0.
          5    1    3    3  502    0  0.75899425315E+02 -0.27743268033E+02 -0.46850817635E+03  0.47544969554E+03  0.47000000000E+01 0. -1.
         -5    1    3    3    0  502  0.80405908725E+02 -0.56714332189E+02 -0.14425434733E+03  0.17467979951E+03  0.47000000000E+01 0. -1.
        -11    1    1    2    0    0 -0.13992976525E+03  0.10560510610E+03 -0.75171515759E+03  0.77188629719E+03  0.00000000000E+00 0.  1.
         11    1    1    2    0    0 -0.16375568789E+02 -0.21147505880E+02 -0.67425522713E+02  0.72536731187E+02  0.00000000000E+00 0. -1.
<mgrwt>
<rscale>  0 0.21412994E+03</rscale>
<asrwt>0</asrwt>
<pdfrwt beam="1">  1        2 0.48191789E-02 0.21723363E+03</pdfrwt>
<pdfrwt beam="2">  1       -2 0.22511196E+00 0.21723363E+03</pdfrwt>
<totfact> 0.16644108E+02</totfact>
</mgrwt>
</event>
<event>
 7    1  0.6008063E-006  0.3100733E+03  0.7546771E-02  0.1082235E+00
         -1   -1    0    0    0  501 -0.00000000000E+00  0.00000000000E+00  0.89669641297E+03  0.89669641297E+03  0.00000000000E+00 0.  1.
          1   -1    0    0  501    0  0.00000000000E+00 -0.00000000000E+00 -0.10553591058E+03  0.10553591058E+03  0.00000000000E+00 0. -1.
         23    2    1    2    0    0 -0.25629365859E+03  0.12187270170E+03  0.49859460546E+03  0.58714738734E+03  0.12492429313E+03 0.  0.
          5    1    3    3  502    0 -0.21917470658E+02 -0.24689424252E+02  0.61420793386E+02  0.69889534625E+02  0.47000000000E+01 0. -1.
         -5    1    3    3    0  502 -0.23437618793E+03  0.14656212596E+03  0.43717381208E+03  0.51725785272E+03  0.47000000000E+01 0. -1.
        -11    1    1    2    0    0  0.14688900907E+03 -0.84447389200E+02  0.22327323486E+03  0.28028321379E+03  0.00000000000E+00 0.  1.
         11    1    1    2    0    0  0.10940464951E+03 -0.37425312504E+02  0.69292662067E+02  0.13480172242E+03  0.00000000000E+00 0. -1.
<mgrwt>
<rscale>  0 0.30609141E+03</rscale>
<asrwt>0</asrwt>
<pdfrwt beam="2">  1        1 0.16236295E-01 0.31007334E+03</pdfrwt>
<pdfrwt beam="1">  1       -1 0.13795329E+00 0.31007334E+03</pdfrwt>
<totfact> 0.15752102E+02</totfact>
</mgrwt>
</event>
<event>
 7    1  0.6008063E-006  0.1278531E+03  0.7546771E-02  0.1244786E+00
         -1   -1    0    0    0  501 -0.00000000000E+00  0.00000000000E+00  0.16737840400E+02  0.16737840400E+02  0.00000000000E+00 0.  1.
          1   -1    0    0  501    0  0.00000000000E+00 -0.00000000000E+00 -0.88600442750E+03  0.88600442750E+03  0.00000000000E+00 0. -1.
         23    2    1    2    0    0  0.22573794329E+02  0.14473606676E+02 -0.66378731971E+03  0.67598817792E+03  0.12500939725E+03 0.  0.
          5    1    3    3  502    0 -0.16940058360E+02 -0.23785191966E+02 -0.39917460097E+02  0.49680927474E+02  0.47000000000E+01 0.  1.
         -5    1    3    3    0  502  0.39513852690E+02  0.38258798643E+02 -0.62386985962E+03  0.62630725045E+03  0.47000000000E+01 0.  1.
        -11    1    1    2    0    0  0.24108535285E+02 -0.33615983566E+02 -0.12595864424E+03  0.13257765982E+03  0.00000000000E+00 0.  1.
         11    1    1    2    0    0 -0.46682329614E+02  0.19142376889E+02 -0.79520623150E+02  0.94176430158E+02  0.00000000000E+00 0. -1.
<mgrwt>
<rscale>  0 0.11898205E+03</rscale>
<asrwt>0</asrwt>
<pdfrwt beam="2">  1        1 0.13630840E+00 0.12785308E+03</pdfrwt>
<pdfrwt beam="1">  1       -1 0.25750518E-02 0.12785308E+03</pdfrwt>
<totfact> 0.88995624E+03</totfact>
</mgrwt>
</event>
<event>
 7    1  0.6008063E-006  0.1918242E+03  0.7546771E-02  0.1161541E+00
         -2   -1    0    0    0  501 -0.00000000000E+00  0.00000000000E+00  0.49081352980E+02  0.49081352980E+02  0.00000000000E+00 0.  1.
          2   -1    0    0  501    0  0.00000000000E+00 -0.00000000000E+00 -0.67510013557E+03  0.67510013557E+03  0.00000000000E+00 0. -1.
         23    2    1    2    0    0 -0.10349067498E+02  0.14512925455E+03 -0.31365929092E+03  0.36766654355E+03  0.12500773073E+03 0.  0.
          5    1    3    3  502    0 -0.42730455247E+02  0.15044964242E+03 -0.27777424124E+03  0.31881280684E+03  0.47000000000E+01 0. -1.
         -5    1    3    3    0  502  0.32381387749E+02 -0.53203878752E+01 -0.35885049677E+02  0.48853736704E+02  0.47000000000E+01 0. -1.
        -11    1    1    2    0    0 -0.34345402928E+02 -0.49441569635E+02 -0.16155724550E+03  0.17240887183E+03  0.00000000000E+00 0. -1.
         11    1    1    2    0    0  0.44694470427E+02 -0.95687684911E+02 -0.15080224617E+03  0.18410607318E+03  0.00000000000E+00 0.  1.
<mgrwt>
<rscale>  0 0.18662453E+03</rscale>
<asrwt>0</asrwt>
<pdfrwt beam="2">  1        2 0.10386155E+00 0.19182423E+03</pdfrwt>
<pdfrwt beam="1">  1       -2 0.75509778E-02 0.19182423E+03</pdfrwt>
<totfact> 0.44681661E+03</totfact>
</mgrwt>
</event>
<event>
 7    1  0.6008063E-006  0.1625061E+03  0.7546771E-02  0.1194462E+00
         -2   -1    0    0    0  501 -0.00000000000E+00  0.00000000000E+00  0.11509225872E+03  0.11509225872E+03  0.00000000000E+00 0.  1.
          2   -1    0    0  501    0  0.00000000000E+00 -0.00000000000E+00 -0.25995139740E+03  0.25995139740E+03  0.00000000000E+00 0. -1.
         23    2    1    2    0    0  0.12377775395E+02 -0.10308720993E+03 -0.17330408941E+03  0.23757640971E+03  0.12501224288E+03 0.  0.
          5    1    3    3  502    0  0.37625402302E+02 -0.15070634266E+02  0.79439150288E+00  0.40810733557E+02  0.47000000000E+01 0.  1.
         -5    1    3    3    0  502 -0.25247626907E+02 -0.88016575666E+02 -0.17409848091E+03  0.19676567615E+03  0.47000000000E+01 0.  1.
        -11    1    1    2    0    0  0.10019689887E+02  0.10088625253E+03  0.23872315851E+00  0.10138287392E+03  0.00000000000E+00 0. -1.
         11    1    1    2    0    0 -0.22397465282E+02  0.22009574028E+01  0.28206227572E+02  0.36084372495E+02  0.00000000000E+00 0.  1.
<mgrwt>
<rscale>  0 0.15499815E+03</rscale>
<asrwt>0</asrwt>
<pdfrwt beam="2">  1        2 0.39992522E-01 0.16250613E+03</pdfrwt>
<pdfrwt beam="1">  1       -2 0.17706502E-01 0.16250613E+03</pdfrwt>
<totfact> 0.32255141E+03</totfact>
</mgrwt>
</event>
<event>
 7    1  0.6008063E-006  0.1488073E+03  0.7546771E-02  0.1212349E+00
         -1   -1    0    0    0  501 -0.00000000000E+00  0.00000000000E+00  0.10919607844E+03  0.10919607844E+03  0.00000000000E+00 0.  1.
          1   -1    0    0  501    0  0.00000000000E+00 -0.00000000000E+00 -0.19898428987E+03  0.19898428987E+03  0.00000000000E+00 0. -1.
         23    2    1    2    0    0  0.60192186268E+02  0.52725223586E+02 -0.11306386781E+03  0.18688781949E+03  0.12546142984E+03 0.  0.
          5    1    3    3  502    0  0.97321358049E+02  0.47576279981E+02 -0.98208309374E+02  0.14629392051E+03  0.47000000000E+01 0.  1.
         -5    1    3    3    0  502 -0.37129171781E+02  0.51489436052E+01 -0.14855558439E+02  0.40593898974E+02  0.47000000000E+01 0.  1.
        -11    1    1    2    0    0  0.96713200840E+01 -0.26474600124E+02 -0.20423776045E+02  0.34807607097E+02  0.00000000000E+00 0. -1.
         11    1    1    2    0    0 -0.69863506352E+02 -0.26250623462E+02  0.43699432427E+02  0.86484941732E+02  0.00000000000E+00 0.  1.
<mgrwt>
<rscale>  0 0.14073105E+03</rscale>
<asrwt>0</asrwt>
<pdfrwt beam="2">  1        1 0.30612968E-01 0.14880732E+03</pdfrwt>
<pdfrwt beam="1">  1       -1 0.16799397E-01 0.14880732E+03</pdfrwt>
<totfact> 0.38226951E+03</totfact>
</mgrwt>
</event>
<event>
 7    1  0.6008063E-006  0.1530168E+03  0.7546771E-02  0.1205395E+00
         -1   -1    0    0    0  501 -0.00000000000E+00  0.00000000000E+00  0.95574408956E+02  0.95574408956E+02  0.00000000000E+00 0.  1.
          1   -1    0    0  501    0  0.00000000000E+00 -0.00000000000E+00 -0.20518044646E+03  0.20518044646E+03  0.00000000000E+00 0. -1.
         23    2    1    2    0    0 -0.31149762259E+02 -0.82428112702E+02 -0.61154164212E+02  0.16478459874E+03  0.12509768475E+03 0.  0.
          5    1    3    3  502    0 -0.67272881899E+02 -0.89613506002E+02 -0.60970464439E+02  0.12765464594E+03  0.47000000000E+01 0. -1.
         -5    1    3    3    0  502  0.36123119640E+02  0.71853932996E+01 -0.18369977298E+00  0.37129952801E+02  0.47000000000E+01 0. -1.
        -11    1    1    2    0    0  0.12470664389E+02  0.49358967798E+02  0.22369459474E+02  0.55607714299E+02  0.00000000000E+00 0.  1.
         11    1    1    2    0    0  0.18679097870E+02  0.33069144904E+02 -0.70821332767E+02  0.80362542374E+02  0.00000000000E+00 0. -1.
<mgrwt>
<rscale>  0 0.14606404E+03</rscale>
<asrwt>0</asrwt>
<pdfrwt beam="2">  1        1 0.31566223E-01 0.15301677E+03</pdfrwt>
<pdfrwt beam="1">  1       -1 0.14703755E-01 0.15301677E+03</pdfrwt>
<totfact> 0.45464665E+03</totfact>
</mgrwt>
</event>
<event>
 7    1  0.6008063E-006  0.1439193E+03  0.7546771E-02  0.1232436E+00
          1   -1    0    0  501    0  0.00000000000E+00  0.00000000000E+00  0.27545848568E+02  0.27545848568E+02  0.00000000000E+00 0.  1.
         -1   -1    0    0    0  501 -0.00000000000E+00 -0.00000000000E+00 -0.48172627271E+03  0.48172627271E+03  0.00000000000E+00 0. -1.
         23    2    1    2    0    0  0.66337617614E+02  0.26197864059E+02 -0.28710638288E+03  0.32115857023E+03  0.12500297818E+03 0.  0.
          5    1    3    3  502    0  0.67298895275E+02 -0.97355687709E+01 -0.27440775865E+03  0.28274658373E+03  0.47000000000E+01 0.  1.
         -5    1    3    3    0  502 -0.96127766082E+00  0.35933432830E+02 -0.12698624226E+02  0.38411986501E+02  0.47000000000E+01 0.  1.
        -11    1    1    2    0    0 -0.55060565399E+02 -0.63160008973E+01 -0.14900076562E+03  0.15897416735E+03  0.00000000000E+00 0.  1.
         11    1    1    2    0    0 -0.11277052216E+02 -0.19881863162E+02 -0.18073275641E+02  0.29139383690E+02  0.00000000000E+00 0. -1.
<mgrwt>
<rscale>  0 0.12669978E+03</rscale>
<asrwt>0</asrwt>
<pdfrwt beam="1">  1        1 0.42378229E-02 0.14391926E+03</pdfrwt>
<pdfrwt beam="2">  1       -1 0.74111734E-01 0.14391926E+03</pdfrwt>
<totfact> 0.38561607E+03</totfact>
</mgrwt>
</event>
<event>
 7    1  0.6008063E-006  0.1259989E+03  0.7546771E-02  0.1251316E+00
         -1   -1    0    0    0  501 -0.00000000000E+00  0.00000000000E+00  0.43114552327E+02  0.43114552327E+02  0.00000000000E+00 0.  1.
          1   -1    0    0  501    0  0.00000000000E+00 -0.00000000000E+00 -0.26530931262E+03  0.26530931262E+03  0.00000000000E+00 0. -1.
         23    2    1    2    0    0  0.15129968407E+02 -0.47190258601E+01 -0.13202510153E+03  0.18250030583E+03  0.12499819617E+03 0.  0.
          5    1    3    3  502    0  0.10662362140E+02 -0.53781533306E+02 -0.11933223451E+03  0.13140932800E+03  0.47000000000E+01 0. -1.
         -5    1    3    3    0  502  0.44676062674E+01  0.49062507446E+02 -0.12692867018E+02  0.51090977832E+02  0.47000000000E+01 0. -1.
        -11    1    1    2    0    0 -0.46818872316E+02 -0.86080533965E+01 -0.73864931901E+02  0.87875670995E+02  0.00000000000E+00 0.  1.
         11    1    1    2    0    0  0.31688903908E+02  0.13327079257E+02 -0.16304726862E+02  0.38047888121E+02  0.00000000000E+00 0. -1.
<mgrwt>
<rscale>  0 0.11515181E+03</rscale>
<asrwt>0</asrwt>
<pdfrwt beam="2">  1        1 0.40816817E-01 0.12599895E+03</pdfrwt>
<pdfrwt beam="1">  1       -1 0.66330080E-02 0.12599895E+03</pdfrwt>
<totfact> 0.11010807E+04</totfact>
</mgrwt>
</event>
<event>
 7    1  0.6008063E-006  0.2013915E+03  0.7546771E-02  0.1152921E+00
         -1   -1    0    0    0  501 -0.00000000000E+00  0.00000000000E+00  0.21624127402E+03  0.21624127402E+03  0.00000000000E+00 0.  1.
          1   -1    0    0  501    0  0.00000000000E+00 -0.00000000000E+00 -0.17337312208E+03  0.17337312208E+03  0.00000000000E+00 0. -1.
         23    2    1    2    0    0 -0.12412115723E+03  0.97630537086E+02  0.50976989621E+02  0.20774310725E+03  0.12498304564E+03 0.  0.
          5    1    3    3  502    0 -0.45661177218E+01  0.75718658027E+02  0.39259484177E+02  0.85542747806E+02  0.47000000000E+01 0. -1.
         -5    1    3    3    0  502 -0.11955503951E+03  0.21911879059E+02  0.11717505444E+02  0.12220035945E+03  0.47000000000E+01 0. -1.
        -11    1    1    2    0    0  0.29890727264E+02 -0.68615678519E+02  0.23310715765E+02  0.78389772193E+02  0.00000000000E+00 0.  1.
         11    1    1    2    0    0  0.94230429963E+02 -0.29014858567E+02 -0.31419553447E+02  0.10348151665E+03  0.00000000000E+00 0. -1.
<mgrwt>
<rscale>  0 0.19627451E+03</rscale>
<asrwt>0</asrwt>
<pdfrwt beam="2">  1        1 0.26672788E-01 0.20139152E+03</pdfrwt>
<pdfrwt beam="1">  1       -1 0.33267889E-01 0.20139152E+03</pdfrwt>
<totfact> 0.14928968E+03</totfact>
</mgrwt>
</event>
<event>
 7    1  0.6008063E-006  0.1711198E+03  0.7546771E-02  0.1183352E+00
          2   -1    0    0  501    0  0.00000000000E+00  0.00000000000E+00  0.17656159779E+04  0.17656159779E+04  0.00000000000E+00 0. -1.
         -2   -1    0    0    0  501 -0.00000000000E+00 -0.00000000000E+00 -0.15002796114E+02  0.15002796114E+02  0.00000000000E+00 0.  1.
         23    2    1    2    0    0 -0.10332976515E+03 -0.54585926188E+02  0.11222295699E+04  0.11352009458E+04  0.12500126440E+03 0.  0.
          5    1    3    3  502    0  0.18331563353E+02  0.18336484968E+01  0.35984009834E+02  0.40698248678E+02  0.47000000000E+01 0. -1.
         -5    1    3    3    0  502 -0.12166132850E+03 -0.56419574685E+02  0.10862455601E+04  0.10945026972E+04  0.47000000000E+01 0. -1.
        -11    1    1    2    0    0  0.67636026763E+02  0.73722192424E+02  0.52374118535E+03  0.53321142430E+03  0.00000000000E+00 0. -1.
         11    1    1    2    0    0  0.35693738382E+02 -0.19136266235E+02  0.10464242647E+03  0.11220640384E+03  0.00000000000E+00 0.  1.
<mgrwt>
<rscale>  0 0.16482692E+03</rscale>
<asrwt>0</asrwt>
<pdfrwt beam="1">  1        2 0.27163306E+00 0.17111978E+03</pdfrwt>
<pdfrwt beam="2">  1       -2 0.23081239E-02 0.17111978E+03</pdfrwt>
<totfact> 0.61222896E+03</totfact>
</mgrwt>
</event>
<event>
 7    1  0.6008063E-006  0.1591113E+03  0.7546771E-02  0.1197409E+00
         -1   -1    0    0    0  501 -0.00000000000E+00  0.00000000000E+00  0.71215530280E+02  0.71215530280E+02  0.00000000000E+00 0.  1.
          1   -1    0    0  501    0  0.00000000000E+00 -0.00000000000E+00 -0.37312624688E+03  0.37312624688E+03  0.00000000000E+00 0. -1.
         23    2    1    2    0    0  0.26722984662E+02 -0.94754428558E+02 -0.25778945023E+03  0.30293861303E+03  0.12499553181E+03 0.  0.
          5    1    3    3  502    0  0.11766986375E+02 -0.10902367621E+03 -0.11646756847E+03  0.16003564743E+03  0.47000000000E+01 0.  1.
         -5    1    3    3    0  502  0.14955998287E+02  0.14269247652E+02 -0.14132188176E+03  0.14290296560E+03  0.47000000000E+01 0.  1.
        -11    1    1    2    0    0 -0.51297185914E+02  0.45444305118E+02 -0.51624633372E+02  0.85800285088E+02  0.00000000000E+00 0. -1.
         11    1    1    2    0    0  0.24574201252E+02  0.49310123440E+02  0.75033670072E+01  0.55602879038E+02  0.00000000000E+00 0.  1.
<mgrwt>
<rscale>  0 0.15252109E+03</rscale>
<asrwt>0</asrwt>
<pdfrwt beam="2">  1        1 0.57404036E-01 0.15911129E+03</pdfrwt>
<pdfrwt beam="1">  1       -1 0.10956236E-01 0.15911129E+03</pdfrwt>
<totfact> 0.34169824E+03</totfact>
</mgrwt>
</event>
<event>
 7    1  0.6008063E-006  0.1643336E+03  0.7546771E-02  0.1190920E+00
         -1   -1    0    0    0  501 -0.00000000000E+00  0.00000000000E+00  0.30052427594E+03  0.30052427594E+03  0.00000000000E+00 0.  1.
          1   -1    0    0  501    0  0.00000000000E+00 -0.00000000000E+00 -0.14797615818E+03  0.14797615818E+03  0.00000000000E+00 0. -1.
         23    2    1    2    0    0  0.99703931097E+02  0.37952781980E+02 -0.75303209431E+02  0.18076533799E+03  0.12499698609E+03 0.  0.
          5    1    3    3  502    0  0.55349905871E+02 -0.43438821609E+02 -0.22685190812E+02  0.74075982511E+02  0.47000000000E+01 0. -1.
         -5    1    3    3    0  502  0.44354025226E+02  0.81391603589E+02 -0.52618018619E+02  0.10668935548E+03  0.47000000000E+01 0. -1.
        -11    1    1    2    0    0 -0.18954021386E+02  0.22035902457E+02  0.10502412861E+03  0.10897203088E+03  0.00000000000E+00 0.  1.
         11    1    1    2    0    0 -0.80749909711E+02 -0.59988684437E+02  0.12282719857E+03  0.15876306525E+03  0.00000000000E+00 0. -1.
<mgrwt>
<rscale>  0 0.15804627E+03</rscale>
<asrwt>0</asrwt>
<pdfrwt beam="2">  1        1 0.22765563E-01 0.16433361E+03</pdfrwt>
<pdfrwt beam="1">  1       -1 0.46234504E-01 0.16433361E+03</pdfrwt>
<totfact> 0.10176850E+03</totfact>
</mgrwt>
</event>
<event>
 7    1  0.6008063E-006  0.2128588E+03  0.7546771E-02  0.1141897E+00
         -1   -1    0    0    0  501 -0.00000000000E+00  0.00000000000E+00  0.20994851114E+03  0.20994851114E+03  0.00000000000E+00 0.  1.
          1   -1    0    0  501    0  0.00000000000E+00 -0.00000000000E+00 -0.20715860214E+03  0.20715860214E+03  0.00000000000E+00 0. -1.
         23    2    1    2    0    0 -0.17210512153E+03  0.78370110811E+01 -0.28020329161E+02  0.21469518489E+03  0.12500916755E+03 0.  0.
          5    1    3    3  502    0 -0.11179936529E+03  0.64426076603E+01  0.44196248993E+02  0.12048237920E+03  0.47000000000E+01 0. -1.
         -5    1    3    3    0  502 -0.60305756238E+02  0.13944034208E+01 -0.72216578154E+02  0.94212805694E+02  0.47000000000E+01 0. -1.
        -11    1    1    2    0    0  0.13894737122E+03 -0.43972111826E+02  0.42859676005E+02  0.15191073173E+03  0.00000000000E+00 0.  1.
         11    1    1    2    0    0  0.33157750306E+02  0.36135100745E+02 -0.12049437842E+02  0.50501196655E+02  0.00000000000E+00 0. -1.
<mgrwt>
<rscale>  0 0.20958258E+03</rscale>
<asrwt>0</asrwt>
<pdfrwt beam="2">  1        1 0.31870554E-01 0.21285883E+03</pdfrwt>
<pdfrwt beam="1">  1       -1 0.32299771E-01 0.21285883E+03</pdfrwt>
<totfact> 0.12562249E+03</totfact>
</mgrwt>
</event>
<event>
 7    1  0.6008063E-006  0.2188610E+03  0.7546771E-02  0.1138105E+00
         -4   -1    0    0    0  501 -0.00000000000E+00  0.00000000000E+00  0.51827320859E+03  0.51827320859E+03  0.00000000000E+00 0.  1.
          4   -1    0    0  501    0  0.00000000000E+00 -0.00000000000E+00 -0.90948404844E+02  0.90948404844E+02  0.00000000000E+00 0. -1.
         23    2    1    2    0    0  0.35478390877E+01 -0.17961720669E+03  0.14603758884E+03  0.26311044418E+03  0.12500080153E+03 0.  0.
          5    1    3    3  502    0 -0.46766154673E+02 -0.14455306051E+03  0.12879962855E+03  0.19923376933E+03  0.47000000000E+01 0.  1.
         -5    1    3    3    0  502  0.50313993761E+02 -0.35064146173E+02  0.17237960291E+02  0.63876674851E+02  0.47000000000E+01 0.  1.
        -11    1    1    2    0    0  0.42053423906E+02  0.57902450072E+02  0.93986830875E+02  0.11813004937E+03  0.00000000000E+00 0.  1.
         11    1    1    2    0    0 -0.45601262994E+02  0.12171475662E+03  0.18730038404E+03  0.22798111989E+03  0.00000000000E+00 0. -1.
<mgrwt>
<rscale>  0 0.21443028E+03</rscale>
<asrwt>0</asrwt>
<pdfrwt beam="2">  1        4 0.13992063E-01 0.21886098E+03</pdfrwt>
<pdfrwt beam="1">  1       -4 0.79734338E-01 0.21886098E+03</pdfrwt>
<totfact> 0.10964270E+02</totfact>
</mgrwt>
</event>
<event>
 7    1  0.6008063E-006  0.1600176E+03  0.7546771E-02  0.1196446E+00
          1   -1    0    0  501    0  0.00000000000E+00  0.00000000000E+00  0.34751764059E+02  0.34751764059E+02  0.00000000000E+00 0. -1.
         -1   -1    0    0    0  501 -0.00000000000E+00 -0.00000000000E+00 -0.63790602365E+03  0.63790602365E+03  0.00000000000E+00 0.  1.
         23    2    1    2    0    0  0.78878273838E+02 -0.61302459438E+02 -0.28026877359E+03  0.32273243896E+03  0.12500347232E+03 0.  0.
          5    1    3    3  502    0  0.98935204592E+02 -0.62664222718E+02 -0.14763945505E+03  0.18850591026E+03  0.47000000000E+01 0.  1.
         -5    1    3    3    0  502 -0.20056930755E+02  0.13617632798E+01 -0.13262931854E+03  0.13422652870E+03  0.47000000000E+01 0.  1.
        -11    1    1    2    0    0 -0.33690978767E+02  0.39639871669E+02 -0.27744178505E+03  0.28227707234E+03  0.00000000000E+00 0.  1.
         11    1    1    2    0    0 -0.45187295071E+02  0.21662587769E+02 -0.45443700952E+02  0.67648276408E+02  0.00000000000E+00 0. -1.
<mgrwt>
<rscale>  0 0.15332503E+03</rscale>
<asrwt>0</asrwt>
<pdfrwt beam="1">  1        1 0.53464257E-02 0.16001763E+03</pdfrwt>
<pdfrwt beam="2">  1       -1 0.98139379E-01 0.16001763E+03</pdfrwt>
<totfact> 0.15649052E+03</totfact>
</mgrwt>
</event>
<event>
 7    1  0.6008063E-006  0.1563442E+03  0.7546771E-02  0.1201010E+00
         -3   -1    0    0    0  501 -0.00000000000E+00  0.00000000000E+00  0.28869118625E+03  0.28869118625E+03  0.00000000000E+00 0.  1.
          3   -1    0    0  501    0  0.00000000000E+00 -0.00000000000E+00 -0.75858198061E+02  0.75858198061E+02  0.00000000000E+00 0. -1.
         23    2    1    2    0    0 -0.55378020548E+02 -0.75843643108E+02  0.71601539892E+02  0.17196009780E+03  0.12499804543E+03 0.  0.
          5    1    3    3  502    0 -0.81242755568E+02 -0.82665158157E+02  0.25991323017E+02  0.11887620694E+03  0.47000000000E+01 0.  1.
         -5    1    3    3    0  502  0.25864735020E+02  0.68215150485E+01  0.45610216875E+02  0.53083890858E+02  0.47000000000E+01 0.  1.
        -11    1    1    2    0    0  0.36626612950E+02  0.52759502907E+02  0.19271710863E+02  0.67055743697E+02  0.00000000000E+00 0. -1.
         11    1    1    2    0    0  0.18751407598E+02  0.23084140201E+02  0.12195973744E+03  0.12553354282E+03  0.00000000000E+00 0.  1.
<mgrwt>
<rscale>  0 0.14956371E+03</rscale>
<asrwt>0</asrwt>
<pdfrwt beam="2">  1        3 0.11670492E-01 0.15634415E+03</pdfrwt>
<pdfrwt beam="1">  1       -3 0.44414028E-01 0.15634415E+03</pdfrwt>
<totfact> 0.68048426E+02</totfact>
</mgrwt>
</event>
<event>
 7    1  0.1063140E-005  0.1785516E+03  0.7546771E-02  0.1174793E+00
          1   -1    0    0  501    0  0.00000000000E+00  0.00000000000E+00  0.19153716843E+02  0.19153716843E+02  0.00000000000E+00 0. -1.
         -1   -1    0    0    0  501 -0.00000000000E+00 -0.00000000000E+00 -0.14738527258E+04  0.14738527258E+04  0.00000000000E+00 0.  1.
         23    2    1    2    0    0 -0.72509801821E+02  0.10487066985E+03 -0.80280205176E+03  0.82241826040E+03  0.12500052792E+03 0.  0.
          5    1    3    3  502    0  0.67923977585E+01  0.49705044817E+02 -0.90510033966E+02  0.10358998212E+03  0.47000000000E+01 0.  1.
         -5    1    3    3    0  502 -0.79302199580E+02  0.55165625037E+02 -0.71229201779E+03  0.71882827828E+03  0.47000000000E+01 0.  1.
        -11    1    1    2    0    0  0.91676116265E+02 -0.66074211187E+02 -0.50253074361E+03  0.51508005198E+03  0.00000000000E+00 0.  1.
         11    1    1    2    0    0 -0.19166314444E+02 -0.38796458667E+02 -0.14936621356E+03  0.15550813023E+03  0.00000000000E+00 0. -1.
<mgrwt>
<rscale>  0 0.17296224E+03</rscale>
<asrwt>0</asrwt>
<pdfrwt beam="1">  1        1 0.29467242E-02 0.17855156E+03</pdfrwt>
<pdfrwt beam="2">  1       -1 0.22674668E+00 0.17855156E+03</pdfrwt>
<totfact> 0.38961163E+02</totfact>
</mgrwt>
</event>
<event>
 7    1  0.6008063E-006  0.1298091E+03  0.7546771E-02  0.1242207E+00
          2   -1    0    0  501    0  0.00000000000E+00  0.00000000000E+00  0.52794718327E+03  0.52794718327E+03  0.00000000000E+00 0. -1.
         -2   -1    0    0    0  501 -0.00000000000E+00 -0.00000000000E+00 -0.27622427815E+02  0.27622427815E+02  0.00000000000E+00 0.  1.
         23    2    1    2    0    0  0.18222093986E+01 -0.34955819606E+02  0.37850929959E+03  0.40014957762E+03  0.12500065929E+03 0.  0.
          5    1    3    3  502    0  0.62094904909E+02 -0.59277501296E+01  0.17183191472E+03  0.18286391758E+03  0.47000000000E+01 0.  1.
         -5    1    3    3    0  502 -0.60272695510E+02 -0.29028069476E+02  0.20667738487E+03  0.21728566004E+03  0.47000000000E+01 0.  1.
        -11    1    1    2    0    0 -0.12709221765E+02  0.12641408935E+02 -0.10513926317E+02  0.20781534696E+02  0.00000000000E+00 0.  1.
         11    1    1    2    0    0  0.10887012366E+02  0.22314410671E+02  0.13232938218E+03  0.13463849877E+03  0.00000000000E+00 0. -1.
<mgrwt>
<rscale>  0 0.12054097E+03</rscale>
<asrwt>0</asrwt>
<pdfrwt beam="1">  1        2 0.81222636E-01 0.12980907E+03</pdfrwt>
<pdfrwt beam="2">  1       -2 0.42496047E-02 0.12980907E+03</pdfrwt>
<totfact> 0.13857353E+04</totfact>
</mgrwt>
</event>
<event>
 6    1  0.6008063E-006  0.2591861E+03  0.7546771E-02  0.1107633E+00
          1   -1    0    0  501    0  0.00000000000E+00  0.00000000000E+00  0.18473901221E+03  0.18473901221E+03  0.00000000000E+00 0. -1.
         -1   -1    0    0    0  501 -0.00000000000E+00 -0.00000000000E+00 -0.90908538345E+02  0.90908538345E+02  0.00000000000E+00 0.  1.
          5    1    1    2  502    0  0.18005323097E+02  0.72388729067E+01  0.12949189055E+03  0.13102226016E+03  0.47000000000E+01 0. -1.
         -5    1    1    2    0  502  0.15256664354E+01 -0.22636365316E+01 -0.51100260692E+02  0.51388504077E+02  0.47000000000E+01 0.  1.
        -11    1    1    2    0    0 -0.47094854454E+02  0.13836934558E+01 -0.17098684050E+02  0.50121900601E+02  0.00000000000E+00 0.  1.
         11    1    1    2    0    0  0.27563864921E+02 -0.63589298310E+01  0.32537528062E+02  0.43114885717E+02  0.00000000000E+00 0. -1.
<mgrwt>
<rscale>  0 0.25918606E+03</rscale>
<asrwt>0</asrwt>
<pdfrwt beam="1">  1        1 0.28421386E-01 0.25918606E+03</pdfrwt>
<pdfrwt beam="2">  1       -1 0.13985929E-01 0.25918606E+03</pdfrwt>
<totfact> 0.57714627E+03</totfact>
</mgrwt>
</event>
<event>
 7    1  0.6008063E-006  0.1387129E+03  0.7546771E-02  0.1225871E+00
          1   -1    0    0  501    0  0.00000000000E+00  0.00000000000E+00  0.54523956091E+02  0.54523956091E+02  0.00000000000E+00 0. -1.
         -1   -1    0    0    0  501 -0.00000000000E+00 -0.00000000000E+00 -0.40109057212E+03  0.40109057212E+03  0.00000000000E+00 0.  1.
         23    2    1    2    0    0 -0.72385436396E+01  0.59714968428E+02 -0.65154315864E+02  0.15325255713E+03  0.12499194943E+03 0.  0.
          5    1    3    3  502    0 -0.30785773546E+02  0.74338583518E+00 -0.81723496060E+02  0.87459340746E+02  0.47000000000E+01 0.  1.
         -5    1    3    3    0  502  0.23547229907E+02  0.58971582592E+02  0.16569180196E+02  0.65793216384E+02  0.47000000000E+01 0.  1.
        -11    1    1    2    0    0  0.33575834603E+02 -0.90301363600E+01 -0.19946242329E+03  0.20247009245E+03  0.00000000000E+00 0.  1.
         11    1    1    2    0    0 -0.26337290963E+02 -0.50684832068E+02 -0.81949876880E+02  0.99891878637E+02  0.00000000000E+00 0. -1.
<mgrwt>
<rscale>  0 0.13107364E+03</rscale>
<asrwt>0</asrwt>
<pdfrwt beam="1">  1        1 0.83883011E-02 0.13871287E+03</pdfrwt>
<pdfrwt beam="2">  1       -1 0.61706241E-01 0.13871287E+03</pdfrwt>
<totfact> 0.21782921E+03</totfact>
</mgrwt>
</event>
<event>
 7    1  0.6008063E-006  0.1733252E+03  0.7546771E-02  0.1181077E+00
          1   -1    0    0  501    0  0.00000000000E+00  0.00000000000E+00  0.47905688038E+03  0.47905688038E+03  0.00000000000E+00 0. -1.
         -1   -1    0    0    0  501 -0.00000000000E+00 -0.00000000000E+00 -0.54644521845E+02  0.54644521845E+02  0.00000000000E+00 0.  1.
         23    2    1    2    0    0  0.10428859057E+03 -0.59589780349E+02  0.24998126452E+03  0.30419114619E+03  0.12495826809E+03 0.  0.
          5    1    3    3  502    0  0.10469531719E+03 -0.30487684704E-02  0.10974231078E+03  0.15174509622E+03  0.47000000000E+01 0. -1.
         -5    1    3    3    0  502 -0.40672661951E+00 -0.59586731580E+02  0.14023895373E+03  0.15244604997E+03  0.47000000000E+01 0. -1.
        -11    1    1    2    0    0 -0.30717864014E+02 -0.11127382164E+02  0.69702351062E+01  0.33406436218E+02  0.00000000000E+00 0.  1.
         11    1    1    2    0    0 -0.73570726555E+02  0.70717162512E+02  0.16746085891E+03  0.19610381982E+03  0.00000000000E+00 0. -1.
<mgrwt>
<rscale>  0 0.16693964E+03</rscale>
<asrwt>0</asrwt>
<pdfrwt beam="1">  1        1 0.73701056E-01 0.17332519E+03</pdfrwt>
<pdfrwt beam="2">  1       -1 0.84068498E-02 0.17332519E+03</pdfrwt>
<totfact> 0.37359157E+03</totfact>
</mgrwt>
</event>
<event>
 7    1  0.6008063E-006  0.1276884E+03  0.7546771E-02  0.1245622E+00
          1   -1    0    0  501    0  0.00000000000E+00  0.00000000000E+00  0.68869835565E+03  0.68869835565E+03  0.00000000000E+00 0. -1.
         -1   -1    0    0    0  501 -0.00000000000E+00 -0.00000000000E+00 -0.18188280466E+02  0.18188280466E+02  0.00000000000E+00 0.  1.
         23    2    1    2    0    0  0.24409543229E+02 -0.91021190028E+01  0.42473132325E+03  0.44350990401E+03  0.12500265451E+03 0.  0.
          5    1    3    3  502    0  0.36213820067E+01  0.26659799374E+02  0.38498279410E+03  0.38595038679E+03  0.47000000000E+01 0. -1.
         -5    1    3    3    0  502  0.20788161223E+02 -0.35761918377E+02  0.39748529153E+02  0.57559517222E+02  0.47000000000E+01 0. -1.
        -11    1    1    2    0    0 -0.46272969976E+02  0.36029487222E+02  0.13230528760E+03  0.14472042298E+03  0.00000000000E+00 0.  1.
         11    1    1    2    0    0  0.21863426747E+02 -0.26927368219E+02  0.11347346433E+03  0.11865630913E+03  0.00000000000E+00 0. -1.
<mgrwt>
<rscale>  0 0.11848213E+03</rscale>
<asrwt>0</asrwt>
<pdfrwt beam="1">  1        1 0.10595357E+00 0.12768844E+03</pdfrwt>
<pdfrwt beam="2">  1       -1 0.27981975E-02 0.12768844E+03</pdfrwt>
<totfact> 0.11484447E+04</totfact>
</mgrwt>
</event>
<event>
 7    1  0.6008063E-006  0.1770323E+03  0.7546771E-02  0.1176599E+00
          3   -1    0    0  501    0  0.00000000000E+00  0.00000000000E+00  0.24026790330E+02  0.24026790330E+02  0.00000000000E+00 0. -1.
         -3   -1    0    0    0  501 -0.00000000000E+00 -0.00000000000E+00 -0.11689719374E+04  0.11689719374E+04  0.00000000000E+00 0.  1.
         23    2    1    2    0    0 -0.78122595712E+02 -0.98037328213E+02 -0.52659517348E+03  0.55555640148E+03  0.12500392314E+03 0.  0.
          5    1    3    3  502    0  0.21432376919E+01 -0.70370202821E+01 -0.28525229220E+03  0.28538583238E+03  0.47000000000E+01 0.  1.
         -5    1    3    3    0  502 -0.80265833404E+02 -0.91000307931E+02 -0.24134288129E+03  0.27017056909E+03  0.47000000000E+01 0.  1.
        -11    1    1    2    0    0  0.71719788205E+02  0.61813085798E+02 -0.56350036636E+03  0.57139937739E+03  0.00000000000E+00 0.  1.
         11    1    1    2    0    0  0.64028075068E+01  0.36224242414E+02 -0.54849607273E+02  0.66042948908E+02  0.00000000000E+00 0. -1.
<mgrwt>
<rscale>  0 0.17120307E+03</rscale>
<asrwt>0</asrwt>
<pdfrwt beam="1">  1        3 0.36964287E-02 0.17703231E+03</pdfrwt>
<pdfrwt beam="2">  1       -3 0.17984186E+00 0.17703231E+03</pdfrwt>
<totfact> 0.18999910E+02</totfact>
</mgrwt>
</event>
<event>
 7    1  0.6008063E-006  0.1511035E+03  0.7546771E-02  0.1210626E+00
         -2   -1    0    0    0  501 -0.00000000000E+00  0.00000000000E+00  0.34393486171E+03  0.34393486171E+03  0.00000000000E+00 0.  1.
          2   -1    0    0  501    0  0.00000000000E+00 -0.00000000000E+00 -0.52675134544E+02  0.52675134544E+02  0.00000000000E+00 0. -1.
         23    2    1    2    0    0  0.30081023066E+02 -0.79381219108E+02  0.17015438999E+03  0.22756272221E+03  0.12500412077E+03 0.  0.
          5    1    3    3  502    0 -0.22065357947E+02  0.59055212746E+01  0.10635166683E+03  0.10887847464E+03  0.47000000000E+01 0.  1.
         -5    1    3    3    0  502  0.52146381013E+02 -0.85286740382E+02  0.63802723162E+02  0.11868424757E+03  0.47000000000E+01 0.  1.
        -11    1    1    2    0    0 -0.23268118573E+02  0.55648883442E+02  0.12958959521E+03  0.14293938141E+03  0.00000000000E+00 0.  1.
         11    1    1    2    0    0 -0.68129044937E+01  0.23732335666E+02 -0.84842580331E+01  0.26107892641E+02  0.00000000000E+00 0. -1.
<mgrwt>
<rscale>  0 0.14202791E+03</rscale>
<asrwt>0</asrwt>
<pdfrwt beam="2">  1        2 0.81038671E-02 0.15110353E+03</pdfrwt>
<pdfrwt beam="1">  1       -2 0.52913054E-01 0.15110353E+03</pdfrwt>
<totfact> 0.27678006E+03</totfact>
</mgrwt>
</event>
<event>
 7    1  0.6008063E-006  0.1609096E+03  0.7546771E-02  0.1195088E+00
         -2   -1    0    0    0  501 -0.00000000000E+00  0.00000000000E+00  0.44210641870E+02  0.44210641870E+02  0.00000000000E+00 0.  1.
          2   -1    0    0  501    0  0.00000000000E+00 -0.00000000000E+00 -0.57365418174E+03  0.57365418174E+03  0.00000000000E+00 0. -1.
         23    2    1    2    0    0 -0.99205542576E+02 -0.20607431226E+02 -0.39342689497E+03  0.42506073935E+03  0.12500201818E+03 0.  0.
          5    1    3    3  502    0  0.28287412402E+02 -0.12079307018E+02 -0.10607814042E+03  0.11054749763E+03  0.47000000000E+01 0.  1.
         -5    1    3    3    0  502 -0.12749295498E+03 -0.85281242080E+01 -0.28734875455E+03  0.31451324172E+03  0.47000000000E+01 0.  1.
        -11    1    1    2    0    0  0.66182212623E+02  0.26192500242E+02 -0.22803002229E+02  0.74740278614E+02  0.00000000000E+00 0.  1.
         11    1    1    2    0    0  0.33023329954E+02 -0.55850690169E+01 -0.11321364267E+03  0.11806380565E+03  0.00000000000E+00 0. -1.
<mgrwt>
<rscale>  0 0.15446780E+03</rscale>
<asrwt>0</asrwt>
<pdfrwt beam="2">  1        2 0.88254488E-01 0.16090963E+03</pdfrwt>
<pdfrwt beam="1">  1       -2 0.68016373E-02 0.16090963E+03</pdfrwt>
<totfact> 0.62930984E+03</totfact>
</mgrwt>
</event>
<event>
 7    1  0.6008063E-006  0.1435911E+03  0.7546771E-02  0.1218258E+00
         -2   -1    0    0    0  501 -0.00000000000E+00  0.00000000000E+00  0.24015857516E+03  0.24015857516E+03  0.00000000000E+00 0.  1.
          2   -1    0    0  501    0  0.00000000000E+00 -0.00000000000E+00 -0.70646297592E+02  0.70646297592E+02  0.00000000000E+00 0. -1.
         23    2    1    2    0    0  0.44879583742E+01 -0.70524042775E+02  0.94446024611E+02  0.17186751841E+03  0.12499843975E+03 0.  0.
          5    1    3    3  502    0  0.70649837557E+00  0.36148381864E+02  0.28869919393E+02  0.46505557701E+02  0.47000000000E+01 0.  1.
         -5    1    3    3    0  502  0.37814599986E+01 -0.10667242464E+03  0.65576105219E+02  0.12536196071E+03  0.47000000000E+01 0.  1.
        -11    1    1    2    0    0 -0.11266339081E+02 -0.75465258894E+01  0.56901993557E+02  0.58495447003E+02  0.00000000000E+00 0.  1.
         11    1    1    2    0    0  0.67783807064E+01  0.78070568665E+02  0.18164259403E+02  0.80441907339E+02  0.00000000000E+00 0. -1.
<mgrwt>
<rscale>  0 0.13639902E+03</rscale>
<asrwt>0</asrwt>
<pdfrwt beam="2">  1        2 0.10868661E-01 0.14359106E+03</pdfrwt>
<pdfrwt beam="1">  1       -2 0.36947473E-01 0.14359106E+03</pdfrwt>
<totfact> 0.38421326E+03</totfact>
</mgrwt>
</event>
<event>
 7    1  0.6008063E-006  0.2119848E+03  0.7546771E-02  0.1143632E+00
          2   -1    0    0  501    0  0.00000000000E+00  0.00000000000E+00  0.22027560623E+03  0.22027560623E+03  0.00000000000E+00 0.  1.
         -2   -1    0    0    0  501 -0.00000000000E+00 -0.00000000000E+00 -0.21841534453E+03  0.21841534453E+03  0.00000000000E+00 0. -1.
         23    2    1    2    0    0 -0.58752929927E+02  0.16081344784E+03  0.83657378796E+02  0.22789498471E+03  0.12499878098E+03 0.  0.
          5    1    3    3  502    0 -0.33056376370E+02  0.62335574362E+02  0.10225810611E+03  0.12432722193E+03  0.47000000000E+01 0.  1.
         -5    1    3    3    0  502 -0.25696553557E+02  0.98477873475E+02 -0.18600727310E+02  0.10356776277E+03  0.47000000000E+01 0.  1.
        -11    1    1    2    0    0  0.33401650710E+02 -0.56846349541E+02  0.13730709508E+02  0.67347680806E+02  0.00000000000E+00 0.  1.
         11    1    1    2    0    0  0.25351279217E+02 -0.10396709830E+03 -0.95527826608E+02  0.14344828525E+03  0.00000000000E+00 0. -1.
<mgrwt>
<rscale>  0 0.20741245E+03</rscale>
<asrwt>0</asrwt>
<pdfrwt beam="1">  1        2 0.33888555E-01 0.21198483E+03</pdfrwt>
<pdfrwt beam="2">  1       -2 0.33602361E-01 0.21198483E+03</pdfrwt>
<totfact> 0.12638672E+03</totfact>
</mgrwt>
</event>
<event>
 7    1  0.6008063E-006  0.1913436E+03  0.7546771E-02  0.1162229E+00
          2   -1    0    0  501    0  0.00000000000E+00  0.00000000000E+00  0.10130702287E+04  0.10130702287E+04  0.00000000000E+00 0. -1.
         -2   -1    0    0    0  501 -0.00000000000E+00 -0.00000000000E+00 -0.35526970482E+02  0.35526970482E+02  0.00000000000E+00 0.  1.
         23    2    1    2    0    0  0.27225227605E+02 -0.14229733973E+03  0.67236211120E+03  0.69905877091E+03  0.12499044240E+03 0.  0.
          5    1    3    3  502    0  0.70762009635E+02 -0.51667977732E+02  0.37480677502E+03  0.38494032074E+03  0.47000000000E+01 0. -1.
         -5    1    3    3    0  502 -0.43536782029E+02 -0.90629361997E+02  0.29755533619E+03  0.31411845017E+03  0.47000000000E+01 0. -1.
        -11    1    1    2    0    0  0.10103603423E+02  0.13061327590E+03  0.22602742207E+03  0.26124759553E+03  0.00000000000E+00 0.  1.
         11    1    1    2    0    0 -0.37328831028E+02  0.11684063834E+02  0.79153724929E+02  0.88290832728E+02  0.00000000000E+00 0. -1.
<mgrwt>
<rscale>  0 0.18588225E+03</rscale>
<asrwt>0</asrwt>
<pdfrwt beam="1">  1        2 0.15585694E+00 0.19134356E+03</pdfrwt>
<pdfrwt beam="2">  1       -2 0.54656885E-02 0.19134356E+03</pdfrwt>
<totfact> 0.43562008E+03</totfact>
</mgrwt>
</event>
<event>
 7    1  0.6008063E-006  0.1474970E+03  0.7546771E-02  0.1213029E+00
          3   -1    0    0  501    0  0.00000000000E+00  0.00000000000E+00  0.24070613300E+03  0.24070613300E+03  0.00000000000E+00 0. -1.
         -3   -1    0    0    0  501 -0.00000000000E+00 -0.00000000000E+00 -0.87363826614E+02  0.87363826614E+02  0.00000000000E+00 0.  1.
         23    2    1    2    0    0 -0.69168839462E+02 -0.36687788278E+02  0.14572687436E+03  0.20734434839E+03  0.12500013896E+03 0.  0.
          5    1    3    3  502    0 -0.40949167456E+02 -0.76429927086E+02  0.50988538385E+02  0.10069900256E+03  0.47000000000E+01 0.  1.
         -5    1    3    3    0  502 -0.28219672006E+02  0.39742138808E+02  0.94738335974E+02  0.10664534584E+03  0.47000000000E+01 0.  1.
        -11    1    1    2    0    0 -0.20170119105E+02  0.20845034934E+02 -0.38920654180E+01  0.29265976138E+02  0.00000000000E+00 0.  1.
         11    1    1    2    0    0  0.89338958567E+02  0.15842753344E+02  0.11507497442E+02  0.91459635079E+02  0.00000000000E+00 0. -1.
<mgrwt>
<rscale>  0 0.14022348E+03</rscale>
<asrwt>0</asrwt>
<pdfrwt beam="1">  1        3 0.37031713E-01 0.14749697E+03</pdfrwt>
<pdfrwt beam="2">  1       -3 0.13440589E-01 0.14749697E+03</pdfrwt>
<totfact> 0.75609796E+02</totfact>
</mgrwt>
</event>
<event>
 6    1  0.6008063E-006  0.1984539E+03  0.7546771E-02  0.1163918E+00
         -1   -1    0    0    0  501 -0.00000000000E+00  0.00000000000E+00  0.60279875939E+02  0.60279875939E+02  0.00000000000E+00 0.  1.
          1   -1    0    0  501    0  0.00000000000E+00 -0.00000000000E+00 -0.49464918451E+03  0.49464918451E+03  0.00000000000E+00 0. -1.
          5    1    1    2  502    0  0.22565024632E+01  0.12095568662E+03 -0.19375844962E+03  0.22847274832E+03  0.47000000000E+01 0. -1.
         -5    1    1    2    0  502 -0.66114666172E+02 -0.24399389403E+02 -0.53657361547E+02  0.88699953407E+02  0.47000000000E+01 0.  1.
        -11    1    1    2    0    0  0.23690097249E+02 -0.27192590513E+02 -0.14062511801E+03  0.14517603626E+03  0.00000000000E+00 0. -1.
         11    1    1    2    0    0  0.40168066459E+02 -0.69363706702E+02 -0.46328379399E+02  0.92580322467E+02  0.00000000000E+00 0.  1.
<mgrwt>
<rscale>  0 0.18407391E+03</rscale>
<asrwt>0</asrwt>
<pdfrwt beam="2">  1        1 0.76099873E-01 0.19845387E+03</pdfrwt>
<pdfrwt beam="1">  1       -1 0.92738273E-02 0.19845387E+03</pdfrwt>
<totfact> 0.30987536E+03</totfact>
</mgrwt>
</event>
<event>
 6    1  0.6008063E-006  0.2084084E+03  0.7546771E-02  0.1176004E+00
          1   -1    0    0  501    0  0.00000000000E+00  0.00000000000E+00  0.31263741109E+03  0.31263741109E+03  0.00000000000E+00 0. -1.
         -1   -1    0    0    0  501 -0.00000000000E+00 -0.00000000000E+00 -0.11935010817E+03  0.11935010817E+03  0.00000000000E+00 0.  1.
          5    1    1    2  502    0 -0.54271630706E+02  0.82060908157E+02  0.43068399916E+02  0.10750060287E+03  0.47000000000E+01 0. -1.
         -5    1    1    2    0  502  0.30535070323E+02 -0.63708985793E+02  0.20283815022E+03  0.21484094250E+03  0.47000000000E+01 0.  1.
        -11    1    1    2    0    0  0.14552801900E+02 -0.51537539844E+02 -0.52811168779E+02  0.75212509625E+02  0.00000000000E+00 0.  1.
         11    1    1    2    0    0  0.91837584824E+01  0.33185617480E+02  0.19192156253E+00  0.34433464265E+02  0.00000000000E+00 0. -1.
<mgrwt>
<rscale>  0 0.17178068E+03</rscale>
<asrwt>0</asrwt>
<pdfrwt beam="1">  1        1 0.48098063E-01 0.20840835E+03</pdfrwt>
<pdfrwt beam="2">  1       -1 0.18361555E-01 0.20840835E+03</pdfrwt>
<totfact> 0.19117656E+03</totfact>
</mgrwt>
</event>
<event>
 7    1  0.6008063E-006  0.1293757E+03  0.7546771E-02  0.1242556E+00
         -2   -1    0    0    0  501 -0.00000000000E+00  0.00000000000E+00  0.53566373733E+02  0.53566373733E+02  0.00000000000E+00 0.  1.
          2   -1    0    0  501    0  0.00000000000E+00 -0.00000000000E+00 -0.24277458914E+03  0.24277458914E+03  0.00000000000E+00 0. -1.
         23    2    1    2    0    0 -0.14803875380E+02 -0.29889609302E+02 -0.12683704204E+03  0.18117864646E+03  0.12500209289E+03 0.  0.
          5    1    3    3  502    0  0.48144325190E+00  0.44041563353E+02 -0.16216390452E+02  0.47169401199E+02  0.47000000000E+01 0.  1.
         -5    1    3    3    0  502 -0.15285318632E+02 -0.73931172655E+02 -0.11062065159E+03  0.13400924526E+03  0.47000000000E+01 0.  1.
        -11    1    1    2    0    0 -0.46804656364E+01  0.43990633599E+02  0.41436377228E+01  0.44432559420E+02  0.00000000000E+00 0.  1.
         11    1    1    2    0    0  0.19484341017E+02 -0.14101024297E+02 -0.66514811088E+02  0.70729756999E+02  0.00000000000E+00 0. -1.
<mgrwt>
<rscale>  0 0.12032882E+03</rscale>
<asrwt>0</asrwt>
<pdfrwt beam="2">  1        2 0.37349937E-01 0.12937568E+03</pdfrwt>
<pdfrwt beam="1">  1       -2 0.82409805E-02 0.12937568E+03</pdfrwt>
<totfact> 0.11657452E+04</totfact>
</mgrwt>
</event>
<event>
 7    1  0.6008063E-006  0.2934520E+03  0.7546771E-02  0.1091273E+00
          2   -1    0    0  501    0  0.00000000000E+00  0.00000000000E+00  0.15065278974E+03  0.15065278974E+03  0.00000000000E+00 0. -1.
         -2   -1    0    0    0  501 -0.00000000000E+00 -0.00000000000E+00 -0.53874857477E+03  0.53874857477E+03  0.00000000000E+00 0.  1.
         23    2    1    2    0    0  0.14154457021E+03  0.22461705482E+03 -0.23731867321E+03  0.37740455961E+03  0.12500544905E+03 0.  0.
          5    1    3    3  502    0  0.11970475282E+03  0.73979902557E+02 -0.12346533307E+03  0.18726460504E+03  0.47000000000E+01 0. -1.
         -5    1    3    3    0  502  0.21839817388E+02  0.15063715226E+03 -0.11385334015E+03  0.19013995458E+03  0.47000000000E+01 0. -1.
        -11    1    1    2    0    0 -0.62461891081E+02 -0.14374775233E+03 -0.11115890000E+03  0.19214891409E+03  0.00000000000E+00 0.  1.
         11    1    1    2    0    0 -0.79082679125E+02 -0.80869302489E+02 -0.39618211814E+02  0.11984789080E+03  0.00000000000E+00 0. -1.
<mgrwt>
<rscale>  0 0.28823793E+03</rscale>
<asrwt>0</asrwt>
<pdfrwt beam="1">  1        2 0.23177352E-01 0.29345195E+03</pdfrwt>
<pdfrwt beam="2">  1       -2 0.82884396E-01 0.29345195E+03</pdfrwt>
<totfact> 0.30969016E+02</totfact>
</mgrwt>
</event>
<event>
 7    1  0.6008063E-006  0.1321929E+03  0.7546771E-02  0.1236814E+00
          1   -1    0    0  501    0  0.00000000000E+00  0.00000000000E+00  0.73528957555E+03  0.73528957555E+03  0.00000000000E+00 0. -1.
         -1   -1    0    0    0  501 -0.00000000000E+00 -0.00000000000E+00 -0.19003979840E+02  0.19003979840E+02  0.00000000000E+00 0.  1.
         23    2    1    2    0    0 -0.12847025141E+02 -0.40841219253E+02  0.45487499653E+03  0.47369422052E+03  0.12506758510E+03 0.  0.
          5    1    3    3  502    0  0.25417352288E+02  0.15462696495E+02  0.27119670505E+02  0.40530276442E+02  0.47000000000E+01 0.  1.
         -5    1    3    3    0  502 -0.38264377428E+02 -0.56303915748E+02  0.42775532603E+03  0.43316394408E+03  0.47000000000E+01 0.  1.
        -11    1    1    2    0    0 -0.34828829019E+02  0.71579135681E+01  0.15702484203E+03  0.16100026109E+03  0.00000000000E+00 0. -1.
         11    1    1    2    0    0  0.47675854160E+02  0.33683305685E+02  0.10438575715E+03  0.11959907378E+03  0.00000000000E+00 0.  1.
<mgrwt>
<rscale>  0 0.12389041E+03</rscale>
<asrwt>0</asrwt>
<pdfrwt beam="1">  1        1 0.11312145E+00 0.13219286E+03</pdfrwt>
<pdfrwt beam="2">  1       -1 0.29236898E-02 0.13219286E+03</pdfrwt>
<totfact> 0.98322423E+03</totfact>
</mgrwt>
</event>
<event>
 7    1  0.6008063E-006  0.2537661E+03  0.7546771E-02  0.1113338E+00
         -1   -1    0    0    0  501 -0.00000000000E+00  0.00000000000E+00  0.10795453978E+03  0.10795453978E+03  0.00000000000E+00 0.  1.
          1   -1    0    0  501    0  0.00000000000E+00 -0.00000000000E+00 -0.93704080945E+03  0.93704080945E+03  0.00000000000E+00 0. -1.
         23    2    1    2    0    0  0.22045411338E+03 -0.13021620602E+02 -0.75257586650E+03  0.79420882961E+03  0.12501060550E+03 0.  0.
          5    1    3    3  502    0  0.17887774157E+03  0.37805053442E+02 -0.47651710429E+03  0.51040876675E+03  0.47000000000E+01 0.  1.
         -5    1    3    3    0  502  0.41576371809E+02 -0.50826674044E+02 -0.27605876221E+03  0.28380006286E+03  0.47000000000E+01 0.  1.
        -11    1    1    2    0    0 -0.74844121863E+02 -0.10591145453E+02 -0.70168780995E+02  0.10313812470E+03  0.00000000000E+00 0. -1.
         11    1    1    2    0    0 -0.14560999152E+03  0.23612766055E+02 -0.63416221749E+01  0.14764839492E+03  0.00000000000E+00 0.  1.
<mgrwt>
<rscale>  0 0.24994685E+03</rscale>
<asrwt>0</asrwt>
<pdfrwt beam="2">  1        1 0.14416012E+00 0.25376609E+03</pdfrwt>
<pdfrwt beam="1">  1       -1 0.16608391E-01 0.25376609E+03</pdfrwt>
<totfact> 0.49061300E+02</totfact>
</mgrwt>
</event>
<event>
 7    1  0.6008063E-006  0.1406966E+03  0.7546771E-02  0.1236495E+00
          2   -1    0    0  501    0  0.00000000000E+00  0.00000000000E+00  0.39345770318E+03  0.39345770318E+03  0.00000000000E+00 0. -1.
         -2   -1    0    0    0  501 -0.00000000000E+00 -0.00000000000E+00 -0.32693532822E+02  0.32693532822E+02  0.00000000000E+00 0.  1.
         23    2    1    2    0    0  0.63512054541E+02 -0.11752149371E+02  0.20498994663E+03  0.24862906614E+03  0.12499456078E+03 0.  0.
          5    1    3    3  502    0  0.90453033810E+02  0.24617179717E+02  0.12136507577E+03  0.15342531890E+03  0.47000000000E+01 0.  1.
         -5    1    3    3    0  502 -0.26940979269E+02 -0.36369329089E+02  0.83624870859E+02  0.95203747240E+02  0.47000000000E+01 0.  1.
        -11    1    1    2    0    0 -0.39497796154E+02 -0.10022727633E+02  0.12960734696E+03  0.13586241333E+03  0.00000000000E+00 0. -1.
         11    1    1    2    0    0 -0.24014258387E+02  0.21774877004E+02  0.26166876765E+02  0.41659756529E+02  0.00000000000E+00 0.  1.
<mgrwt>
<rscale>  0 0.12409201E+03</rscale>
<asrwt>0</asrwt>
<pdfrwt beam="1">  1        2 0.60531951E-01 0.14069660E+03</pdfrwt>
<pdfrwt beam="2">  1       -2 0.50297746E-02 0.14069660E+03</pdfrwt>
<totfact> 0.14909582E+04</totfact>
</mgrwt>
</event>
<event>
 7    1  0.6008063E-006  0.1958444E+03  0.7546771E-02  0.1158660E+00
         -1   -1    0    0    0  501 -0.00000000000E+00  0.00000000000E+00  0.34963126142E+02  0.34963126142E+02  0.00000000000E+00 0.  1.
          1   -1    0    0  501    0  0.00000000000E+00 -0.00000000000E+00 -0.10238029969E+04  0.10238029969E+04  0.00000000000E+00 0. -1.
         23    2    1    2    0    0 -0.69325003444E+02  0.13387779083E+03 -0.64371197506E+03  0.67284480589E+03  0.12500322797E+03 0.  0.
          5    1    3    3  502    0 -0.53804370513E+02  0.36652567363E+02 -0.45769996627E+03  0.46233069345E+03  0.47000000000E+01 0.  1.
         -5    1    3    3    0  502 -0.15520632931E+02  0.97225223467E+02 -0.18601200879E+03  0.21051411244E+03  0.47000000000E+01 0.  1.
        -11    1    1    2    0    0  0.53983520799E+02 -0.10695062696E+03 -0.16940566461E+03  0.20748719557E+03  0.00000000000E+00 0.  1.
         11    1    1    2    0    0  0.15341482645E+02 -0.26927163871E+02 -0.17572223113E+03  0.17843412162E+03  0.00000000000E+00 0. -1.
<mgrwt>
<rscale>  0 0.18978000E+03</rscale>
<asrwt>0</asrwt>
<pdfrwt beam="2">  1        1 0.15750814E+00 0.19584439E+03</pdfrwt>
<pdfrwt beam="1">  1       -1 0.53789429E-02 0.19584439E+03</pdfrwt>
<totfact> 0.24081915E+03</totfact>
</mgrwt>
</event>
<event>
 7    1  0.6008063E-006  0.1279078E+03  0.7546771E-02  0.1245819E+00
         -4   -1    0    0    0  501 -0.00000000000E+00  0.00000000000E+00  0.76864041767E+03  0.76864041767E+03  0.00000000000E+00 0.  1.
          4   -1    0    0  501    0  0.00000000000E+00 -0.00000000000E+00 -0.17931024138E+02  0.17931024138E+02  0.00000000000E+00 0. -1.
         23    2    1    2    0    0 -0.23179191229E+02 -0.14046560686E+02  0.29872885801E+03  0.32496053197E+03  0.12500334377E+03 0.  0.
          5    1    3    3  502    0  0.22425553329E+02 -0.10934457324E+02  0.28648022890E+01  0.25549264006E+02  0.47000000000E+01 0. -1.
         -5    1    3    3    0  502 -0.45604744558E+02 -0.31121033618E+01  0.29586405573E+03  0.29941126796E+03  0.47000000000E+01 0. -1.
        -11    1    1    2    0    0  0.56769179743E+02  0.17406029664E+00  0.24762142217E+03  0.25404554470E+03  0.00000000000E+00 0. -1.
         11    1    1    2    0    0 -0.33589988514E+02  0.13872500389E+02  0.20435911334E+03  0.20756536513E+03  0.00000000000E+00 0.  1.
<mgrwt>
<rscale>  0 0.11836472E+03</rscale>
<asrwt>0</asrwt>
<pdfrwt beam="2">  1        4 0.27586197E-02 0.12790784E+03</pdfrwt>
<pdfrwt beam="1">  1       -4 0.11825235E+00 0.12790784E+03</pdfrwt>
<totfact> 0.58147048E+02</totfact>
</mgrwt>
</event>
<event>
 7    1  0.6008063E-006  0.3231781E+03  0.7546771E-02  0.1075580E+00
         -2   -1    0    0    0  501 -0.00000000000E+00  0.00000000000E+00  0.68471238508E+02  0.68471238508E+02  0.00000000000E+00 0.  1.
          2   -1    0    0  501    0  0.00000000000E+00 -0.00000000000E+00 -0.15014028022E+04  0.15014028022E+04  0.00000000000E+00 0. -1.
         23    2    1    2    0    0 -0.18774721667E+03  0.23144199196E+03 -0.84397471904E+03  0.90373525784E+03  0.12501870609E+03 0.  0.
          5    1    3    3  502    0 -0.30693525405E+02  0.22109515145E+02 -0.27273561017E+03  0.27538650333E+03  0.47000000000E+01 0.  1.
         -5    1    3    3    0  502 -0.15705369126E+03  0.20933247682E+03 -0.57123910887E+03  0.62834875451E+03  0.47000000000E+01 0.  1.
        -11    1    1    2    0    0  0.14942989975E+02 -0.46784550566E+02 -0.46541801072E+02  0.67662592089E+02  0.00000000000E+00 0.  1.
         11    1    1    2    0    0  0.17280422669E+03 -0.18465744139E+03 -0.54241504354E+03  0.59847619074E+03  0.00000000000E+00 0. -1.
<mgrwt>
<rscale>  0 0.32015148E+03</rscale>
<asrwt>0</asrwt>
<pdfrwt beam="2">  1        2 0.23098504E+00 0.32317811E+03</pdfrwt>
<pdfrwt beam="1">  1       -2 0.10534037E-01 0.32317811E+03</pdfrwt>
<totfact> 0.82941975E+02</totfact>
</mgrwt>
</event>
<event>
 7    1  0.6008063E-006  0.1217355E+03  0.7546771E-02  0.1251868E+00
          2   -1    0    0  501    0  0.00000000000E+00  0.00000000000E+00  0.18332957315E+03  0.18332957315E+03  0.00000000000E+00 0. -1.
         -2   -1    0    0    0  501 -0.00000000000E+00 -0.00000000000E+00 -0.73638791405E+02  0.73638791405E+02  0.00000000000E+00 0.  1.
         23    2    1    2    0    0 -0.23216929774E+02  0.18766233310E+02  0.10449325478E+03  0.16043179659E+03  0.11801831943E+03 0.  0.
          5    1    3    3  502    0 -0.52483920759E+02  0.52933522491E+02  0.78079992234E+02  0.10805135320E+03  0.47000000000E+01 0. -1.
         -5    1    3    3    0  502  0.29266990985E+02 -0.34167289181E+02  0.26413262544E+02  0.52380443388E+02  0.47000000000E+01 0.  1.
        -11    1    1    2    0    0  0.57050690985E+01 -0.45034887990E+02 -0.25865284808E+02  0.52246549244E+02  0.00000000000E+00 0.  1.
         11    1    1    2    0    0  0.17511860675E+02  0.26268654680E+02  0.31062811778E+02  0.44290018724E+02  0.00000000000E+00 0. -1.
<mgrwt>
<rscale>  0 0.11483603E+03</rscale>
<asrwt>0</asrwt>
<pdfrwt beam="1">  1        2 0.28204550E-01 0.12173546E+03</pdfrwt>
<pdfrwt beam="2">  1       -2 0.11329045E-01 0.12173546E+03</pdfrwt>
<totfact> 0.95346556E+03</totfact>
</mgrwt>
</event>
<event>
 6    1  0.6008063E-006  0.1597810E+03  0.7546771E-02  0.1210195E+00
         -1   -1    0    0    0  501 -0.00000000000E+00  0.00000000000E+00  0.37791281149E+03  0.37791281149E+03  0.00000000000E+00 0.  1.
          1   -1    0    0  501    0  0.00000000000E+00 -0.00000000000E+00 -0.87514903900E+02  0.87514903900E+02  0.00000000000E+00 0. -1.
          5    1    1    2  502    0 -0.66216539577E+01  0.28716069502E+02 -0.75208664191E+02  0.80912867445E+02  0.47000000000E+01 0. -1.
         -5    1    1    2    0  502 -0.14533533036E+02  0.74451132537E+01  0.77026462215E+02  0.78878508957E+02  0.47000000000E+01 0.  1.
        -11    1    1    2    0    0 -0.29712044498E+02  0.52251723506E+01  0.51813621439E+02  0.59956312269E+02  0.00000000000E+00 0. -1.
         11    1    1    2    0    0  0.50867231491E+02 -0.41386355107E+02  0.23676648812E+03  0.24568002672E+03  0.00000000000E+00 0.  1.
<mgrwt>
<rscale>  0 0.14235489E+03</rscale>
<asrwt>0</asrwt>
<pdfrwt beam="2">  1        1 0.13463832E-01 0.15978104E+03</pdfrwt>
<pdfrwt beam="1">  1       -1 0.58140432E-01 0.15978104E+03</pdfrwt>
<totfact> 0.13103522E+03</totfact>
</mgrwt>
</event>
<event>
 6    1  0.6008063E-006  0.2344751E+03  0.7546771E-02  0.1158340E+00
         -1   -1    0    0    0  501 -0.00000000000E+00  0.00000000000E+00  0.43331710965E+03  0.43331710965E+03  0.00000000000E+00 0.  1.
          1   -1    0    0  501    0  0.00000000000E+00 -0.00000000000E+00 -0.87763383399E+02  0.87763383399E+02  0.00000000000E+00 0. -1.
          5    1    1    2  502    0 -0.71292261978E+02 -0.48927855712E+02 -0.20153252136E+02  0.88908746781E+02  0.47000000000E+01 0. -1.
         -5    1    1    2    0  502  0.94531005842E+02  0.65318113643E+02  0.11919310846E+03  0.16562504080E+03  0.47000000000E+01 0.  1.
        -11    1    1    2    0    0 -0.48552586775E+02  0.14203526083E+02  0.74792375969E+02  0.90293927475E+02  0.00000000000E+00 0.  1.
         11    1    1    2    0    0  0.25313842911E+02 -0.30593784014E+02  0.17172149397E+03  0.17625277800E+03  0.00000000000E+00 0. -1.
<mgrwt>
<rscale>  0 0.19013470E+03</rscale>
<asrwt>0</asrwt>
<pdfrwt beam="2">  1        1 0.13502059E-01 0.23447506E+03</pdfrwt>
<pdfrwt beam="1">  1       -1 0.66664170E-01 0.23447506E+03</pdfrwt>
<totfact> 0.10104323E+03</totfact>
</mgrwt>
</event>
<event>
 7    1  0.6008063E-006  0.1286548E+03  0.7546771E-02  0.1245189E+00
         -2   -1    0    0    0  501 -0.00000000000E+00  0.00000000000E+00  0.95421173884E+02  0.95421173884E+02  0.00000000000E+00 0.  1.
          2   -1    0    0  501    0  0.00000000000E+00 -0.00000000000E+00 -0.13726111851E+03  0.13726111851E+03  0.00000000000E+00 0. -1.
         23    2    1    2    0    0  0.28665605025E+02  0.10232621930E+02 -0.52027197636E+02  0.13877641015E+03  0.12500255700E+03 0.  0.
          5    1    3    3  502    0  0.58353592974E+02  0.41036455979E+02 -0.31019014729E+00  0.71493487468E+02  0.47000000000E+01 0. -1.
         -5    1    3    3    0  502 -0.29687987949E+02 -0.30803834050E+02 -0.51717007489E+02  0.67282922679E+02  0.47000000000E+01 0. -1.
        -11    1    1    2    0    0 -0.15103721358E+02 -0.30395336601E+02 -0.31076480134E+02  0.46018979817E+02  0.00000000000E+00 0. -1.
         11    1    1    2    0    0 -0.13561883668E+02  0.20162714671E+02  0.41263733143E+02  0.47886902431E+02  0.00000000000E+00 0.  1.
<mgrwt>
<rscale>  0 0.11874083E+03</rscale>
<asrwt>0</asrwt>
<pdfrwt beam="2">  1        2 0.21117095E-01 0.12865482E+03</pdfrwt>
<pdfrwt beam="1">  1       -2 0.14680181E-01 0.12865482E+03</pdfrwt>
<totfact> 0.86944860E+03</totfact>
</mgrwt>
</event>
<event>
 7    1  0.6008063E-006  0.1325483E+03  0.7546771E-02  0.1237958E+00
          2   -1    0    0  501    0  0.00000000000E+00  0.00000000000E+00  0.27097185777E+02  0.27097185777E+02  0.00000000000E+00 0. -1.
         -2   -1    0    0    0  501 -0.00000000000E+00 -0.00000000000E+00 -0.49506481971E+03  0.49506481971E+03  0.00000000000E+00 0.  1.
         23    2    1    2    0    0  0.88780843867E-01 -0.44087092259E+02 -0.28036583225E+03  0.31011939438E+03  0.12500143717E+03 0.  0.
          5    1    3    3  502    0 -0.37169897250E+02  0.61330568178E+01 -0.21216135863E+02  0.43490574479E+02  0.47000000000E+01 0.  1.
         -5    1    3    3    0  502  0.37258678094E+02 -0.50220149077E+02 -0.25914969638E+03  0.26662881990E+03  0.47000000000E+01 0.  1.
        -11    1    1    2    0    0 -0.13121232244E+02 -0.53962731665E+01  0.31614192600E+01  0.14535510704E+02  0.00000000000E+00 0. -1.
         11    1    1    2    0    0  0.13032451400E+02  0.49483365426E+02 -0.19076322095E+03  0.19750710040E+03  0.00000000000E+00 0.  1.
<mgrwt>
<rscale>  0 0.12316978E+03</rscale>
<asrwt>0</asrwt>
<pdfrwt beam="1">  1        2 0.41687979E-02 0.13254825E+03</pdfrwt>
<pdfrwt beam="2">  1       -2 0.76163817E-01 0.13254825E+03</pdfrwt>
<totfact> 0.30332949E+03</totfact>
</mgrwt>
</event>
<event>
 7    1  0.6008063E-006  0.1859496E+03  0.7546771E-02  0.1167348E+00
         -2   -1    0    0    0  501 -0.00000000000E+00  0.00000000000E+00  0.36777027744E+02  0.36777027744E+02  0.00000000000E+00 0. -1.
          2   -1    0    0  501    0  0.00000000000E+00 -0.00000000000E+00 -0.10776508311E+04  0.10776508311E+04  0.00000000000E+00 0.  1.
         23    2    1    2    0    0  0.11053825803E+03 -0.82057452798E+02 -0.80744219002E+03  0.82857717942E+03  0.12500047994E+03 0.  0.
          5    1    3    3  502    0  0.10918768119E+03 -0.63056163333E+01 -0.44449530316E+03  0.45777710194E+03  0.47000000000E+01 0. -1.
         -5    1    3    3    0  502  0.13505768377E+01 -0.75751836464E+02 -0.36294688685E+03  0.37080007749E+03  0.47000000000E+01 0. -1.
        -11    1    1    2    0    0  0.78679592270E+01  0.37736783657E+02 -0.53342304915E+02  0.65813153069E+02  0.00000000000E+00 0.  1.
         11    1    1    2    0    0 -0.11840621725E+03  0.44320669141E+02 -0.18008930843E+03  0.22003752636E+03  0.00000000000E+00 0. -1.
<mgrwt>
<rscale>  0 0.18047125E+03</rscale>
<asrwt>0</asrwt>
<pdfrwt beam="2">  1        2 0.16579244E+00 0.18594960E+03</pdfrwt>
<pdfrwt beam="1">  1       -2 0.56580042E-02 0.18594960E+03</pdfrwt>
<totfact> 0.37808504E+03</totfact>
</mgrwt>
</event>
<event>
 7    1  0.6008063E-006  0.1974811E+03  0.7546771E-02  0.1156268E+00
         -1   -1    0    0    0  501 -0.00000000000E+00  0.00000000000E+00  0.41156328761E+03  0.41156328761E+03  0.00000000000E+00 0.  1.
          1   -1    0    0  501    0  0.00000000000E+00 -0.00000000000E+00 -0.10991588176E+03  0.10991588176E+03  0.00000000000E+00 0. -1.
         23    2    1    2    0    0 -0.59592513049E+02 -0.14079510582E+03  0.34617559523E+02  0.20049231927E+03  0.12499706087E+03 0.  0.
          5    1    3    3  502    0  0.20366092833E+02  0.50358094618E+01 -0.15755546887E+02  0.26654537549E+02  0.47000000000E+01 0.  1.
         -5    1    3    3    0  502 -0.79958605881E+02 -0.14583091528E+03  0.50373106410E+02  0.17383778173E+03  0.47000000000E+01 0.  1.
        -11    1    1    2    0    0  0.18052212156E+02  0.21378117096E+02  0.28693658238E+01  0.28127202394E+02  0.00000000000E+00 0. -1.
         11    1    1    2    0    0  0.41540300893E+02  0.11941698872E+03  0.26416048050E+03  0.29285964770E+03  0.00000000000E+00 0.  1.
<mgrwt>
<rscale>  0 0.19245264E+03</rscale>
<asrwt>0</asrwt>
<pdfrwt beam="2">  1        1 0.16910136E-01 0.19748112E+03</pdfrwt>
<pdfrwt beam="1">  1       -1 0.63317428E-01 0.19748112E+03</pdfrwt>
<totfact> 0.83014023E+02</totfact>
</mgrwt>
</event>
<event>
 7    1  0.6008063E-006  0.1371201E+03  0.7546771E-02  0.1229373E+00
         -2   -1    0    0    0  501 -0.00000000000E+00  0.00000000000E+00  0.80503864904E+02  0.80503864904E+02  0.00000000000E+00 0.  1.
          2   -1    0    0  501    0  0.00000000000E+00 -0.00000000000E+00 -0.19001047320E+03  0.19001047320E+03  0.00000000000E+00 0. -1.
         23    2    1    2    0    0  0.26299665334E+02 -0.49853404385E+02 -0.84771990372E+02  0.16120856930E+03  0.12499951256E+03 0.  0.
          5    1    3    3  502    0 -0.17725346288E+02 -0.80763514066E+02 -0.46036375146E+02  0.94754266089E+02  0.47000000000E+01 0. -1.
         -5    1    3    3    0  502  0.44025011622E+02  0.30910109682E+02 -0.38735615226E+02  0.66454303215E+02  0.47000000000E+01 0. -1.
        -11    1    1    2    0    0 -0.32685925515E+02 -0.16627498893E+02 -0.21347504488E+02  0.42432998881E+02  0.00000000000E+00 0.  1.
         11    1    1    2    0    0  0.63862601812E+01  0.66480903277E+02 -0.33871134392E+01  0.66872769923E+02  0.00000000000E+00 0. -1.
<mgrwt>
<rscale>  0 0.12871614E+03</rscale>
<asrwt>0</asrwt>
<pdfrwt beam="2">  1        2 0.29232380E-01 0.13712007E+03</pdfrwt>
<pdfrwt beam="1">  1       -2 0.12385210E-01 0.13712007E+03</pdfrwt>
<totfact> 0.80302800E+03</totfact>
</mgrwt>
</event>
<event>
 7    1  0.6008063E-006  0.1267359E+03  0.7546771E-02  0.1248618E+00
          1   -1    0    0  501    0  0.00000000000E+00  0.00000000000E+00  0.39177996869E+03  0.39177996869E+03  0.00000000000E+00 0. -1.
         -1   -1    0    0    0  501 -0.00000000000E+00 -0.00000000000E+00 -0.34214138642E+02  0.34214138642E+02  0.00000000000E+00 0.  1.
         23    2    1    2    0    0  0.72630881969E+01  0.19613878699E+02  0.27585309085E+03  0.30357356318E+03  0.12499809535E+03 0.  0.
          5    1    3    3  502    0 -0.38498540031E+02  0.54537461801E+02  0.17490250929E+03  0.18726839050E+03  0.47000000000E+01 0. -1.
         -5    1    3    3    0  502  0.45761628228E+02 -0.34923583102E+02  0.10095058157E+03  0.11630517268E+03  0.47000000000E+01 0. -1.
        -11    1    1    2    0    0  0.31963611264E+02  0.18106106703E+02  0.33389351128E+02  0.49642243239E+02  0.00000000000E+00 0.  1.
         11    1    1    2    0    0 -0.39226699461E+02 -0.37719985402E+02  0.48323388066E+02  0.72778300911E+02  0.00000000000E+00 0. -1.
<mgrwt>
<rscale>  0 0.11671417E+03</rscale>
<asrwt>0</asrwt>
<pdfrwt beam="1">  1        1 0.60273838E-01 0.12673587E+03</pdfrwt>
<pdfrwt beam="2">  1       -1 0.52637139E-02 0.12673587E+03</pdfrwt>
<totfact> 0.95781379E+03</totfact>
</mgrwt>
</event>
<event>
 7    1  0.6008063E-006  0.1583870E+03  0.7546771E-02  0.1198375E+00
          1   -1    0    0  501    0  0.00000000000E+00  0.00000000000E+00  0.33573398508E+03  0.33573398508E+03  0.00000000000E+00 0. -1.
         -1   -1    0    0    0  501 -0.00000000000E+00 -0.00000000000E+00 -0.63896591397E+02  0.63896591397E+02  0.00000000000E+00 0.  1.
         23    2    1    2    0    0 -0.83548601080E+02 -0.49823519509E+02  0.12958099479E+03  0.20464033986E+03  0.12499473049E+03 0.  0.
          5    1    3    3  502    0 -0.56777522945E+02 -0.52673499364E+02  0.57209898283E+01  0.77801056366E+02  0.47000000000E+01 0. -1.
         -5    1    3    3    0  502 -0.26771078135E+02  0.28499798547E+01  0.12386000496E+03  0.12683928350E+03  0.47000000000E+01 0. -1.
        -11    1    1    2    0    0  0.11281508104E+02  0.25035743222E+02 -0.60889035854E+01  0.28127132997E+02  0.00000000000E+00 0.  1.
         11    1    1    2    0    0  0.72267092976E+02  0.24787776287E+02  0.14834530248E+03  0.16686310362E+03  0.00000000000E+00 0. -1.
<mgrwt>
<rscale>  0 0.15172049E+03</rscale>
<asrwt>0</asrwt>
<pdfrwt beam="1">  1        1 0.51651381E-01 0.15838698E+03</pdfrwt>
<pdfrwt beam="2">  1       -1 0.98302450E-02 0.15838698E+03</pdfrwt>
<totfact> 0.46070098E+03</totfact>
</mgrwt>
</event>
<event>
 7    1  0.6008063E-006  0.1252785E+03  0.7546771E-02  0.1249857E+00
          1   -1    0    0  501    0  0.00000000000E+00  0.00000000000E+00  0.45235385328E+03  0.45235385328E+03  0.00000000000E+00 0. -1.
         -1   -1    0    0    0  501 -0.00000000000E+00 -0.00000000000E+00 -0.27620355181E+02  0.27620355181E+02  0.00000000000E+00 0.  1.
         23    2    1    2    0    0  0.73648994184E+01 -0.39059211192E+01  0.29858973349E+03  0.32380630348E+03  0.12500078104E+03 0.  0.
          5    1    3    3  502    0  0.29983150672E+02  0.10200729554E+02  0.29473065992E+03  0.29646466249E+03  0.47000000000E+01 0.  1.
         -5    1    3    3    0  502 -0.22618251253E+02 -0.14106650673E+02  0.38590735684E+01  0.27341640985E+02  0.47000000000E+01 0.  1.
        -11    1    1    2    0    0 -0.36877019267E+02 -0.11841855529E+02  0.17519559468E+02  0.42509752485E+02  0.00000000000E+00 0. -1.
         11    1    1    2    0    0  0.29512119848E+02  0.15747776648E+02  0.10862420514E+03  0.11365815250E+03  0.00000000000E+00 0.  1.
<mgrwt>
<rscale>  0 0.11599312E+03</rscale>
<asrwt>0</asrwt>
<pdfrwt beam="1">  1        1 0.69592895E-01 0.12527846E+03</pdfrwt>
<pdfrwt beam="2">  1       -1 0.42492857E-02 0.12527846E+03</pdfrwt>
<totfact> 0.10937120E+04</totfact>
</mgrwt>
</event>
<event>
 7    1  0.6008063E-006  0.1415766E+03  0.7546771E-02  0.1221883E+00
          2   -1    0    0  501    0  0.00000000000E+00  0.00000000000E+00  0.40469924094E+03  0.40469924094E+03  0.00000000000E+00 0. -1.
         -2   -1    0    0    0  501 -0.00000000000E+00 -0.00000000000E+00 -0.56891574997E+02  0.56891574997E+02  0.00000000000E+00 0.  1.
         23    2    1    2    0    0 -0.66301072617E+02  0.47576529043E+01  0.31265266809E+03  0.34321366426E+03  0.12500184389E+03 0.  0.
          5    1    3    3  502    0 -0.16097003085E+02 -0.47057869312E+02  0.49567746254E+02  0.70374768498E+02  0.47000000000E+01 0.  1.
         -5    1    3    3    0  502 -0.50204069532E+02  0.51815522216E+02  0.26308492184E+03  0.27283889576E+03  0.47000000000E+01 0.  1.
        -11    1    1    2    0    0  0.21288168945E+02  0.31251726467E+01 -0.31144644673E+02  0.37854216845E+02  0.00000000000E+00 0.  1.
         11    1    1    2    0    0  0.45012903672E+02 -0.78828255510E+01  0.66299642528E+02  0.80522934839E+02  0.00000000000E+00 0. -1.
<mgrwt>
<rscale>  0 0.13382842E+03</rscale>
<asrwt>0</asrwt>
<pdfrwt beam="1">  1        2 0.62261420E-01 0.14157658E+03</pdfrwt>
<pdfrwt beam="2">  1       -2 0.87525502E-02 0.14157658E+03</pdfrwt>
<totfact> 0.62087594E+03</totfact>
</mgrwt>
</event>
<event>
 7    1  0.6008063E-006  0.1276080E+03  0.7546771E-02  0.1248443E+00
          1   -1    0    0  501    0  0.00000000000E+00  0.00000000000E+00  0.13280301431E+03  0.13280301431E+03  0.00000000000E+00 0.  1.
         -1   -1    0    0    0  501 -0.00000000000E+00 -0.00000000000E+00 -0.10386658545E+03  0.10386658545E+03  0.00000000000E+00 0. -1.
         23    2    1    2    0    0 -0.31154271218E+00 -0.25691333787E+02  0.61068633772E+02  0.14146798003E+03  0.12499467850E+03 0.  0.
          5    1    3    3  502    0  0.26957718729E+02  0.28895234361E+02 -0.16141216046E+02  0.42945104765E+02  0.47000000000E+01 0.  1.
         -5    1    3    3    0  502 -0.27269261441E+02 -0.54586568148E+02  0.77209849818E+02  0.98522875265E+02  0.47000000000E+01 0.  1.
        -11    1    1    2    0    0  0.16382259709E+02  0.32625856388E+02  0.19000392909E+02  0.41156285898E+02  0.00000000000E+00 0.  1.
         11    1    1    2    0    0 -0.16070716996E+02 -0.69345226018E+01 -0.51132597819E+02  0.54045333824E+02  0.00000000000E+00 0. -1.
<mgrwt>
<rscale>  0 0.11681641E+03</rscale>
<asrwt>0</asrwt>
<pdfrwt beam="1">  1        1 0.20431233E-01 0.12760804E+03</pdfrwt>
<pdfrwt beam="2">  1       -1 0.15979475E-01 0.12760804E+03</pdfrwt>
<totfact> 0.68094978E+03</totfact>
</mgrwt>
</event>
<event>
 7    1  0.6008063E-006  0.1332434E+03  0.7546771E-02  0.1235039E+00
         -1   -1    0    0    0  501 -0.00000000000E+00  0.00000000000E+00  0.88851744840E+02  0.88851744840E+02  0.00000000000E+00 0.  1.
          1   -1    0    0  501    0  0.00000000000E+00 -0.00000000000E+00 -0.20685036241E+03  0.20685036241E+03  0.00000000000E+00 0. -1.
         23    2    1    2    0    0  0.30083702024E+02  0.34987640029E+02 -0.13654214572E+03  0.19078147861E+03  0.12499860376E+03 0.  0.
          5    1    3    3  502    0  0.78704028367E+02  0.19846394425E+02 -0.93799294695E+02  0.12413138660E+03  0.47000000000E+01 0. -1.
         -5    1    3    3    0  502 -0.48620326343E+02  0.15141245605E+02 -0.42742851020E+02  0.66650092015E+02  0.47000000000E+01 0. -1.
        -11    1    1    2    0    0  0.29009440217E+02 -0.27614877992E+02  0.21187870135E+02  0.45310649400E+02  0.00000000000E+00 0.  1.
         11    1    1    2    0    0 -0.59093142241E+02 -0.73727620372E+01 -0.26443419860E+01  0.59609979236E+02  0.00000000000E+00 0. -1.
<mgrwt>
<rscale>  0 0.12501923E+03</rscale>
<asrwt>0</asrwt>
<pdfrwt beam="2">  1        1 0.31823132E-01 0.13324344E+03</pdfrwt>
<pdfrwt beam="1">  1       -1 0.13669499E-01 0.13324344E+03</pdfrwt>
<totfact> 0.50043926E+03</totfact>
</mgrwt>
</event>
<event>
 7    1  0.6008063E-006  0.1426478E+03  0.7546771E-02  0.1221163E+00
          2   -1    0    0  501    0  0.00000000000E+00  0.00000000000E+00  0.15005445237E+04  0.15005445237E+04  0.00000000000E+00 0. -1.
         -2   -1    0    0    0  501 -0.00000000000E+00 -0.00000000000E+00 -0.11672197220E+02  0.11672197220E+02  0.00000000000E+00 0.  1.
         23    2    1    2    0    0  0.12770185068E+02  0.67531391688E+02  0.10298912000E+04  0.10397231759E+04  0.12499932854E+03 0.  0.
          5    1    3    3  502    0 -0.15735433326E+02  0.97458244751E+02  0.80201076326E+03  0.80807738968E+03  0.47000000000E+01 0.  1.
         -5    1    3    3    0  502  0.28505618394E+02 -0.29926853063E+02  0.22788043679E+03  0.23164578624E+03  0.47000000000E+01 0.  1.
        -11    1    1    2    0    0 -0.23775051802E+02  0.86373222062E+01  0.46890828824E+02  0.53278572156E+02  0.00000000000E+00 0.  1.
         11    1    1    2    0    0  0.11004866734E+02 -0.76168713894E+02  0.41209029765E+03  0.41921497288E+03  0.00000000000E+00 0. -1.
<mgrwt>
<rscale>  0 0.13433428E+03</rscale>
<asrwt>0</asrwt>
<pdfrwt beam="1">  1        2 0.23085285E+00 0.14264781E+03</pdfrwt>
<pdfrwt beam="2">  1       -2 0.17957238E-02 0.14264781E+03</pdfrwt>
<totfact> 0.12038020E+04</totfact>
</mgrwt>
</event>
<event>
 7    1  0.6008063E-006  0.1392159E+03  0.7546771E-02  0.1226072E+00
         -3   -1    0    0    0  501 -0.00000000000E+00  0.00000000000E+00  0.16497497420E+03  0.16497497420E+03  0.00000000000E+00 0. -1.
          3   -1    0    0  501    0  0.00000000000E+00 -0.00000000000E+00 -0.93446631290E+02  0.93446631290E+02  0.00000000000E+00 0.  1.
         23    2    1    2    0    0 -0.60030140428E+02  0.12402199622E+02  0.35368959672E+02  0.14363855593E+03  0.12499455639E+03 0.  0.
          5    1    3    3  502    0 -0.96430716569E+02  0.60107936905E+01  0.73269595969E+01  0.97009211293E+02  0.47000000000E+01 0.  1.
         -5    1    3    3    0  502  0.36400576141E+02  0.63914059316E+01  0.28042000075E+02  0.46629344638E+02  0.47000000000E+01 0.  1.
        -11    1    1    2    0    0  0.82882304044E+02 -0.62547458630E+01  0.37272136072E+02  0.91092317441E+02  0.00000000000E+00 0. -1.
         11    1    1    2    0    0 -0.22852163615E+02 -0.61474537591E+01 -0.11127528299E+01  0.23690732122E+02  0.00000000000E+00 0.  1.
<mgrwt>
<rscale>  0 0.13093696E+03</rscale>
<asrwt>0</asrwt>
<pdfrwt beam="2">  1        3 0.14376405E-01 0.13921592E+03</pdfrwt>
<pdfrwt beam="1">  1       -3 0.25380765E-01 0.13921592E+03</pdfrwt>
<totfact> 0.13479629E+03</totfact>
</mgrwt>
</event>
<event>
 7    1  0.6008063E-006  0.1264392E+03  0.7546771E-02  0.1247937E+00
          1   -1    0    0  501    0  0.00000000000E+00  0.00000000000E+00  0.20708220129E+03  0.20708220129E+03  0.00000000000E+00 0. -1.
         -1   -1    0    0    0  501 -0.00000000000E+00 -0.00000000000E+00 -0.73264397878E+02  0.73264397878E+02  0.00000000000E+00 0.  1.
         23    2    1    2    0    0 -0.16834742350E+02  0.88947966162E+01  0.13803124678E+03  0.18718838406E+03  0.12499736030E+03 0.  0.
          5    1    3    3  502    0 -0.21068523136E+02 -0.16064141732E+02 -0.15809048396E+02  0.31208257368E+02  0.47000000000E+01 0.  1.
         -5    1    3    3    0  502  0.42337807861E+01  0.24958938348E+02  0.15384029518E+03  0.15598012670E+03  0.47000000000E+01 0.  1.
        -11    1    1    2    0    0  0.51316631779E+02 -0.10953693858E+02  0.13720665859E+02  0.54236858112E+02  0.00000000000E+00 0. -1.
         11    1    1    2    0    0 -0.34481889429E+02  0.20588972418E+01 -0.17934109228E+02  0.38921356994E+02  0.00000000000E+00 0.  1.
<mgrwt>
<rscale>  0 0.11711307E+03</rscale>
<asrwt>0</asrwt>
<pdfrwt beam="1">  1        1 0.31858800E-01 0.12643918E+03</pdfrwt>
<pdfrwt beam="2">  1       -1 0.11271446E-01 0.12643918E+03</pdfrwt>
<totfact> 0.67087289E+03</totfact>
</mgrwt>
</event>
<event>
 7    1  0.6008063E-006  0.1432699E+03  0.7546771E-02  0.1219911E+00
          4   -1    0    0  501    0  0.00000000000E+00  0.00000000000E+00  0.10806472165E+03  0.10806472165E+03  0.00000000000E+00 0.  1.
         -4   -1    0    0    0  501 -0.00000000000E+00 -0.00000000000E+00 -0.18856974138E+03  0.18856974138E+03  0.00000000000E+00 0. -1.
         23    2    1    2    0    0 -0.69959421581E+02 -0.25573252437E+01  0.20294923146E+02  0.14470023637E+03  0.12500165567E+03 0.  0.
          5    1    3    3  502    0 -0.99132146164E+01 -0.58601338050E+02 -0.13302341003E+01  0.59634286849E+02  0.47000000000E+01 0.  1.
         -5    1    3    3    0  502 -0.60046206965E+02  0.56044012806E+02  0.21625157246E+02  0.85065949523E+02  0.47000000000E+01 0.  1.
        -11    1    1    2    0    0  0.65340703412E+02 -0.12844775100E+02 -0.19971130846E+02  0.69521520675E+02  0.00000000000E+00 0.  1.
         11    1    1    2    0    0  0.46187181695E+01  0.15402100344E+02 -0.80828812037E+02  0.82412705985E+02  0.00000000000E+00 0. -1.
<mgrwt>
<rscale>  0 0.13521919E+03</rscale>
<asrwt>0</asrwt>
<pdfrwt beam="1">  1        4 0.16625342E-01 0.14326994E+03</pdfrwt>
<pdfrwt beam="2">  1       -4 0.29010729E-01 0.14326994E+03</pdfrwt>
<totfact> 0.59628494E+02</totfact>
</mgrwt>
</event>
<event>
 7    1  0.6008063E-006  0.2429384E+03  0.7546771E-02  0.1120583E+00
          2   -1    0    0  501    0  0.00000000000E+00  0.00000000000E+00  0.17759536952E+04  0.17759536952E+04  0.00000000000E+00 0. -1.
         -2   -1    0    0    0  501 -0.00000000000E+00 -0.00000000000E+00 -0.31163721894E+02  0.31163721894E+02  0.00000000000E+00 0.  1.
         23    2    1    2    0    0  0.14586909324E+01  0.20830695780E+03  0.85269860969E+03  0.88663068696E+03  0.12500055857E+03 0.  0.
          5    1    3    3  502    0  0.36762269088E+02  0.18453025229E+03  0.55921287181E+03  0.59003729072E+03  0.47000000000E+01 0.  1.
         -5    1    3    3    0  502 -0.35303578156E+02  0.23776705513E+02  0.29348573788E+03  0.29659339624E+03  0.47000000000E+01 0.  1.
        -11    1    1    2    0    0 -0.19915010712E+02 -0.10038995406E+03  0.26825215360E+03  0.28711316312E+03  0.00000000000E+00 0.  1.
         11    1    1    2    0    0  0.18456319780E+02 -0.10791700374E+03  0.62383921003E+03  0.63337356702E+03  0.00000000000E+00 0. -1.
<mgrwt>
<rscale>  0 0.23881694E+03</rscale>
<asrwt>0</asrwt>
<pdfrwt beam="1">  1        2 0.27322357E+00 0.24293838E+03</pdfrwt>
<pdfrwt beam="2">  1       -2 0.47944202E-02 0.24293838E+03</pdfrwt>
<totfact> 0.20362804E+03</totfact>
</mgrwt>
</event>
<event>
 7    1  0.6008063E-006  0.2989083E+03  0.7546771E-02  0.1087412E+00
          1   -1    0    0  501    0  0.00000000000E+00  0.00000000000E+00  0.33647629297E+03  0.33647629297E+03  0.00000000000E+00 0. -1.
         -1   -1    0    0    0  501 -0.00000000000E+00 -0.00000000000E+00 -0.29281036842E+03  0.29281036842E+03  0.00000000000E+00 0.  1.
         23    2    1    2    0    0 -0.27146370754E+03 -0.53650455946E+01  0.13614274663E+03  0.32845242214E+03  0.12499927171E+03 0.  0.
          5    1    3    3  502    0 -0.19471278353E+03 -0.19202464457E+02  0.32081914251E+02  0.19832584787E+03  0.47000000000E+01 0. -1.
         -5    1    3    3    0  502 -0.76750924008E+02  0.13837418863E+02  0.10406083238E+03  0.13012657427E+03  0.47000000000E+01 0. -1.
        -11    1    1    2    0    0  0.15430834970E+03 -0.10390609918E+01 -0.98972954500E+02  0.18332428142E+03  0.00000000000E+00 0.  1.
         11    1    1    2    0    0  0.11715535784E+03  0.64041065864E+01  0.64961324229E+01  0.11750995783E+03  0.00000000000E+00 0. -1.
<mgrwt>
<rscale>  0 0.29569677E+03</rscale>
<asrwt>0</asrwt>
<pdfrwt beam="1">  1        1 0.51765584E-01 0.29890826E+03</pdfrwt>
<pdfrwt beam="2">  1       -1 0.45047749E-01 0.29890826E+03</pdfrwt>
<totfact> 0.37870779E+02</totfact>
</mgrwt>
</event>
<event>
 7    1  0.6008063E-006  0.1801033E+03  0.7546771E-02  0.1178537E+00
         -2   -1    0    0    0  501 -0.00000000000E+00  0.00000000000E+00  0.27655890012E+02  0.27655890012E+02  0.00000000000E+00 0. -1.
          2   -1    0    0  501    0  0.00000000000E+00 -0.00000000000E+00 -0.93067807731E+03  0.93067807731E+03  0.00000000000E+00 0.  1.
         23    2    1    2    0    0  0.12184956238E+03 -0.44319254387E+02 -0.50477729755E+03  0.53594524275E+03  0.12500268375E+03 0.  0.
          5    1    3    3  502    0  0.73677323362E+02  0.37624334528E+02 -0.19490802348E+03  0.21179038256E+03  0.47000000000E+01 0.  1.
         -5    1    3    3    0  502  0.48172239020E+02 -0.81943588914E+02 -0.30986927407E+03  0.32415486020E+03  0.47000000000E+01 0.  1.
        -11    1    1    2    0    0 -0.10110612408E+03  0.21692753721E+02 -0.35206918707E+03  0.36694105299E+03  0.00000000000E+00 0. -1.
         11    1    1    2    0    0 -0.20743438305E+02  0.22626500666E+02 -0.46175702676E+02  0.55447671572E+02  0.00000000000E+00 0.  1.
<mgrwt>
<rscale>  0 0.16934041E+03</rscale>
<asrwt>0</asrwt>
<pdfrwt beam="2">  1        2 0.14318126E+00 0.18010326E+03</pdfrwt>
<pdfrwt beam="1">  1       -2 0.42547519E-02 0.18010326E+03</pdfrwt>
<totfact> 0.71299561E+03</totfact>
</mgrwt>
</event>
<event>
 7    1  0.6008063E-006  0.2234593E+03  0.7546771E-02  0.1135022E+00
         -2   -1    0    0    0  501 -0.00000000000E+00  0.00000000000E+00  0.39912145392E+02  0.39912145392E+02  0.00000000000E+00 0.  1.
          2   -1    0    0  501    0  0.00000000000E+00 -0.00000000000E+00 -0.12112619884E+04  0.12112619884E+04  0.00000000000E+00 0. -1.
         23    2    1    2    0    0 -0.22124123842E+02 -0.18389795690E+03 -0.46508426018E+03  0.51598202342E+03  0.12500457598E+03 0.  0.
          5    1    3    3  502    0  0.58546510363E+01 -0.18300447408E+03 -0.44497388125E+03  0.48119513658E+03  0.47000000000E+01 0. -1.
         -5    1    3    3    0  502 -0.27978774879E+02 -0.89348281607E+00 -0.20110378930E+02  0.34786886839E+02  0.47000000000E+01 0. -1.
        -11    1    1    2    0    0  0.50718747981E+02  0.11147742243E+03 -0.35938159619E+03  0.37967715073E+03  0.00000000000E+00 0. -1.
         11    1    1    2    0    0 -0.28594624139E+02  0.72420534469E+02 -0.34688398663E+03  0.35551495963E+03  0.00000000000E+00 0.  1.
<mgrwt>
<rscale>  0 0.21847974E+03</rscale>
<asrwt>0</asrwt>
<pdfrwt beam="2">  1        2 0.18634802E+00 0.22345935E+03</pdfrwt>
<pdfrwt beam="1">  1       -2 0.61403295E-02 0.22345935E+03</pdfrwt>
<totfact> 0.28047411E+03</totfact>
</mgrwt>
</event>
<event>
 7    1  0.6008063E-006  0.2394948E+03  0.7546771E-02  0.1123471E+00
         -2   -1    0    0    0  501 -0.00000000000E+00  0.00000000000E+00  0.43183373543E+02  0.43183373543E+02  0.00000000000E+00 0.  1.
          2   -1    0    0  501    0  0.00000000000E+00 -0.00000000000E+00 -0.13688554899E+04  0.13688554899E+04  0.00000000000E+00 0. -1.
         23    2    1    2    0    0 -0.18374879006E+03  0.88560687243E+02 -0.91684455107E+03  0.94760841454E+03  0.12550363858E+03 0.  0.
          5    1    3    3  502    0 -0.51026475208E+01  0.46456074006E+02 -0.31186786798E+03  0.31538525790E+03  0.47000000000E+01 0.  1.
         -5    1    3    3    0  502 -0.17864614254E+03  0.42104613237E+02 -0.60497668309E+03  0.63222315664E+03  0.47000000000E+01 0.  1.
        -11    1    1    2    0    0  0.36429468263E+02 -0.36621450373E+02 -0.45076956301E+02  0.68557776909E+02  0.00000000000E+00 0.  1.
         11    1    1    2    0    0  0.14731932179E+03 -0.51939236870E+02 -0.36375060901E+03  0.39587267203E+03  0.00000000000E+00 0. -1.
<mgrwt>
<rscale>  0 0.23455900E+03</rscale>
<asrwt>0</asrwt>
<pdfrwt beam="2">  1        2 0.21059314E+00 0.23949484E+03</pdfrwt>
<pdfrwt beam="1">  1       -2 0.66435965E-02 0.23949484E+03</pdfrwt>
<totfact> 0.20326534E+03</totfact>
</mgrwt>
</event>
<event>
 7    1  0.6008063E-006  0.1188102E+03  0.7546771E-02  0.1254804E+00
         -4   -1    0    0    0  501 -0.00000000000E+00  0.00000000000E+00  0.27084286214E+03  0.27084286214E+03  0.00000000000E+00 0.  1.
          4   -1    0    0  501    0  0.00000000000E+00 -0.00000000000E+00 -0.54163547593E+02  0.54163547593E+02  0.00000000000E+00 0. -1.
         23    2    1    2    0    0  0.29090496409E+02  0.24760388480E+02  0.44285400280E+02  0.12679533845E+03  0.11250123268E+03 0.  0.
          5    1    3    3  502    0 -0.32811658195E+00 -0.41091246769E+02 -0.12337339995E+01  0.41378863216E+02  0.47000000000E+01 0. -1.
         -5    1    3    3    0  502  0.29418612991E+02  0.65851635249E+02  0.45519134279E+02  0.85416475231E+02  0.47000000000E+01 0.  1.
        -11    1    1    2    0    0 -0.59966899495E+02 -0.81340483273E+01  0.12843422258E+03  0.14197725630E+03  0.00000000000E+00 0.  1.
         11    1    1    2    0    0  0.30876403086E+02 -0.16626340153E+02  0.43959691688E+02  0.56233814984E+02  0.00000000000E+00 0. -1.
<mgrwt>
<rscale>  0 0.11317297E+03</rscale>
<asrwt>0</asrwt>
<pdfrwt beam="2">  1        4 0.83328536E-02 0.11881019E+03</pdfrwt>
<pdfrwt beam="1">  1       -4 0.41668132E-01 0.11881019E+03</pdfrwt>
<totfact> 0.92880753E+02</totfact>
</mgrwt>
</event>
<event>
 7    1  0.6008063E-006  0.1278099E+03  0.7546771E-02  0.1245773E+00
          1   -1    0    0  501    0  0.00000000000E+00  0.00000000000E+00  0.13441367158E+03  0.13441367158E+03  0.00000000000E+00 0. -1.
         -1   -1    0    0    0  501 -0.00000000000E+00 -0.00000000000E+00 -0.94856914555E+02  0.94856914555E+02  0.00000000000E+00 0.  1.
         23    2    1    2    0    0  0.31829256865E+01  0.26468778418E+02  0.43705258892E+02  0.13507596525E+03  0.12499855794E+03 0.  0.
          5    1    3    3  502    0 -0.59419433363E+02  0.18490998574E+02  0.33952670647E+02  0.71045477924E+02  0.47000000000E+01 0.  1.
         -5    1    3    3    0  502  0.62602359049E+02  0.79777798442E+01  0.97525882445E+01  0.64030487326E+02  0.47000000000E+01 0.  1.
        -11    1    1    2    0    0 -0.21378906552E+02 -0.54632771519E+02 -0.11704857321E+02  0.59823081282E+02  0.00000000000E+00 0.  1.
         11    1    1    2    0    0  0.18195980865E+02  0.28163993101E+02  0.75563554561E+01  0.34371539605E+02  0.00000000000E+00 0. -1.
<mgrwt>
<rscale>  0 0.11839257E+03</rscale>
<asrwt>0</asrwt>
<pdfrwt beam="1">  1        1 0.20679026E-01 0.12780989E+03</pdfrwt>
<pdfrwt beam="2">  1       -1 0.14593371E-01 0.12780989E+03</pdfrwt>
<totfact> 0.77316829E+03</totfact>
</mgrwt>
</event>
<event>
 7    1  0.6008063E-006  0.2130373E+03  0.7546771E-02  0.1142362E+00
          1   -1    0    0  501    0  0.00000000000E+00  0.00000000000E+00  0.23379283389E+04  0.23379283389E+04  0.00000000000E+00 0. -1.
         -1   -1    0    0    0  501 -0.00000000000E+00 -0.00000000000E+00 -0.19549670046E+02  0.19549670046E+02  0.00000000000E+00 0.  1.
         23    2    1    2    0    0  0.30767975337E+01 -0.17247640521E+03  0.15308769984E+04  0.15456290808E+04  0.12500917700E+03 0.  0.
          5    1    3    3  502    0  0.11179812292E+02  0.95369655468E+01  0.30076437220E+02  0.33802721644E+02  0.47000000000E+01 0.  1.
         -5    1    3    3    0  502 -0.81030147581E+01 -0.18201337075E+03  0.15008005611E+04  0.15118263592E+04  0.47000000000E+01 0.  1.
        -11    1    1    2    0    0 -0.22768205770E+02  0.57877297126E+01  0.46771867106E+02  0.52340200246E+02  0.00000000000E+00 0.  1.
         11    1    1    2    0    0  0.19691408236E+02  0.16668867549E+03  0.74072980335E+03  0.75950872784E+03  0.00000000000E+00 0. -1.
<mgrwt>
<rscale>  0 0.20899740E+03</rscale>
<asrwt>0</asrwt>
<pdfrwt beam="1">  1        1 0.35968106E+00 0.21303725E+03</pdfrwt>
<pdfrwt beam="2">  1       -1 0.30076434E-02 0.21303725E+03</pdfrwt>
<totfact> 0.76853384E+02</totfact>
</mgrwt>
</event>
<event>
 7    1  0.6008063E-006  0.1257109E+03  0.7546771E-02  0.1249006E+00
         -3   -1    0    0    0  501 -0.00000000000E+00  0.00000000000E+00  0.79159806301E+02  0.79159806301E+02  0.00000000000E+00 0.  1.
          3   -1    0    0  501    0  0.00000000000E+00 -0.00000000000E+00 -0.15868257094E+03  0.15868257094E+03  0.00000000000E+00 0. -1.
         23    2    1    2    0    0 -0.45699828064E+01  0.12503378009E+02 -0.71960531125E+02  0.14485012957E+03  0.12500409110E+03 0.  0.
          5    1    3    3  502    0  0.35791283178E+02 -0.21148206499E+02 -0.81146723236E+02  0.91297005874E+02  0.47000000000E+01 0. -1.
         -5    1    3    3    0  502 -0.40361265984E+02  0.33651584508E+02  0.91861921108E+01  0.53553123693E+02  0.47000000000E+01 0. -1.
        -11    1    1    2    0    0 -0.17513166190E+02 -0.65631093151E+01 -0.45219884025E+02  0.48934888424E+02  0.00000000000E+00 0. -1.
         11    1    1    2    0    0  0.22083148996E+02 -0.59402686937E+01  0.37657650513E+02  0.44057359248E+02  0.00000000000E+00 0.  1.
<mgrwt>
<rscale>  0 0.11648803E+03</rscale>
<asrwt>0</asrwt>
<pdfrwt beam="2">  1        3 0.24412703E-01 0.12571095E+03</pdfrwt>
<pdfrwt beam="1">  1       -3 0.12178432E-01 0.12571095E+03</pdfrwt>
<totfact> 0.18811695E+03</totfact>
</mgrwt>
</event>
<event>
 7    1  0.6008063E-006  0.1277938E+03  0.7546771E-02  0.1239412E+00
          1   -1    0    0  501    0  0.00000000000E+00  0.00000000000E+00  0.11406427931E+04  0.11406427931E+04  0.00000000000E+00 0. -1.
         -1   -1    0    0    0  501 -0.00000000000E+00 -0.00000000000E+00 -0.22069435365E+02  0.22069435365E+02  0.00000000000E+00 0.  1.
         23    2    1    2    0    0 -0.18875304675E+02 -0.54729594355E+02  0.97644829664E+03  0.98477536634E+03  0.11392822524E+03 0.  0.
          5    1    3    3  502    0  0.26237562963E+02 -0.70459620359E+02  0.46310606656E+03  0.46919322959E+03  0.47000000000E+01 0. -1.
         -5    1    3    3    0  502 -0.45112867638E+02  0.15730026004E+02  0.51334223008E+03  0.51558213675E+03  0.47000000000E+01 0.  1.
        -11    1    1    2    0    0  0.17796213990E+01  0.13541635644E+02 -0.11571816775E+02  0.17901114259E+02  0.00000000000E+00 0.  1.
         11    1    1    2    0    0  0.17095683276E+02  0.41187958710E+02  0.15369687790E+03  0.16003574790E+03  0.00000000000E+00 0. -1.
<mgrwt>
<rscale>  0 0.12226151E+03</rscale>
<asrwt>0</asrwt>
<pdfrwt beam="1">  1        1 0.17548346E+00 0.12779376E+03</pdfrwt>
<pdfrwt beam="2">  1       -1 0.33952987E-02 0.12779376E+03</pdfrwt>
<totfact> 0.38844761E+03</totfact>
</mgrwt>
</event>
<event>
 7    1  0.6008063E-006  0.1287063E+03  0.7546771E-02  0.1244473E+00
         -1   -1    0    0    0  501 -0.00000000000E+00  0.00000000000E+00  0.38072608626E+02  0.38072608626E+02  0.00000000000E+00 0.  1.
          1   -1    0    0  501    0  0.00000000000E+00 -0.00000000000E+00 -0.42382859827E+03  0.42382859827E+03  0.00000000000E+00 0. -1.
         23    2    1    2    0    0  0.28536476604E+02  0.11191001903E+02 -0.32479286102E+03  0.34936471970E+03  0.12500294309E+03 0.  0.
          5    1    3    3  502    0  0.59708319766E+02 -0.24448842077E+02 -0.96575776954E+02  0.11624026851E+03  0.47000000000E+01 0.  1.
         -5    1    3    3    0  502 -0.31171843162E+02  0.35639843980E+02 -0.22821708407E+03  0.23312445120E+03  0.47000000000E+01 0.  1.
        -11    1    1    2    0    0  0.16801456741E+02 -0.18255577841E+02 -0.61852345428E+02  0.66642836869E+02  0.00000000000E+00 0. -1.
         11    1    1    2    0    0 -0.45337933345E+02  0.70645759374E+01  0.88921680916E+00  0.45893650320E+02  0.00000000000E+00 0.  1.
<mgrwt>
<rscale>  0 0.11916954E+03</rscale>
<asrwt>0</asrwt>
<pdfrwt beam="2">  1        1 0.65204399E-01 0.12870627E+03</pdfrwt>
<pdfrwt beam="1">  1       -1 0.58573245E-02 0.12870627E+03</pdfrwt>
<totfact> 0.74112982E+03</totfact>
</mgrwt>
</event>
<event>
 7    1  0.6008063E-006  0.1301753E+03  0.7546771E-02  0.1240379E+00
         -2   -1    0    0    0  501 -0.00000000000E+00  0.00000000000E+00  0.21805156896E+02  0.21805156896E+02  0.00000000000E+00 0.  1.
          2   -1    0    0  501    0  0.00000000000E+00 -0.00000000000E+00 -0.68369401686E+03  0.68369401686E+03  0.00000000000E+00 0. -1.
         23    2    1    2    0    0 -0.35241548806E+02 -0.87420283513E+01 -0.48981643783E+03  0.50681926023E+03  0.12500891947E+03 0.  0.
          5    1    3    3  502    0  0.35061527805E+02  0.24609803751E+02 -0.27373065146E+03  0.27710198975E+03  0.47000000000E+01 0.  1.
         -5    1    3    3    0  502 -0.70303076611E+02 -0.33351832103E+02 -0.21608578637E+03  0.22971727048E+03  0.47000000000E+01 0.  1.
        -11    1    1    2    0    0  0.48390623570E+02 -0.15309963468E+02 -0.16152102253E+03  0.16930767304E+03  0.00000000000E+00 0. -1.
         11    1    1    2    0    0 -0.13149074764E+02  0.24051991819E+02 -0.10551399599E+02  0.29372240485E+02  0.00000000000E+00 0.  1.
<mgrwt>
<rscale>  0 0.12166272E+03</rscale>
<asrwt>0</asrwt>
<pdfrwt beam="2">  1        2 0.10518370E+00 0.13017534E+03</pdfrwt>
<pdfrwt beam="1">  1       -2 0.33546393E-02 0.13017534E+03</pdfrwt>
<totfact> 0.14659137E+04</totfact>
</mgrwt>
</event>
<event>
 6    1  0.6008063E-006  0.1389346E+03  0.7546771E-02  0.1234021E+00
         -2   -1    0    0    0  501 -0.00000000000E+00  0.00000000000E+00  0.21567608365E+02  0.21567608365E+02  0.00000000000E+00 0.  1.
          2   -1    0    0  501    0  0.00000000000E+00 -0.00000000000E+00 -0.70984182825E+03  0.70984182825E+03  0.00000000000E+00 0. -1.
          5    1    1    2  502    0  0.11537882140E+01 -0.48950718245E+02 -0.46076510910E+03  0.46338329686E+03  0.47000000000E+01 0. -1.
         -5    1    1    2    0  502 -0.55397101854E+01  0.47741401255E+02 -0.68482436262E+02  0.83796562335E+02  0.47000000000E+01 0.  1.
        -11    1    1    2    0    0 -0.21540126928E+02 -0.38023221674E+02 -0.56459750341E+02  0.71396399511E+02  0.00000000000E+00 0.  1.
         11    1    1    2    0    0  0.25926048899E+02  0.39232538663E+02 -0.10256692418E+03  0.11283317791E+03  0.00000000000E+00 0. -1.
<mgrwt>
<rscale>  0 0.12567287E+03</rscale>
<asrwt>0</asrwt>
<pdfrwt beam="2">  1        2 0.10920644E+00 0.13893464E+03</pdfrwt>
<pdfrwt beam="1">  1       -2 0.33180936E-02 0.13893464E+03</pdfrwt>
<totfact> 0.14317433E+04</totfact>
</mgrwt>
</event>
<event>
 7    1  0.6008063E-006  0.1242239E+03  0.7546771E-02  0.1251776E+00
         -2   -1    0    0    0  501 -0.00000000000E+00  0.00000000000E+00  0.54895458163E+03  0.54895458163E+03  0.00000000000E+00 0. -1.
          2   -1    0    0  501    0  0.00000000000E+00 -0.00000000000E+00 -0.23148882995E+02  0.23148882995E+02  0.00000000000E+00 0.  1.
         23    2    1    2    0    0  0.12043590831E+02  0.25515796681E+00  0.21526658504E+03  0.24853828914E+03  0.12363844606E+03 0.  0.
          5    1    3    3  502    0 -0.13846455017E+02 -0.24930624203E+02 -0.12984152561E+01  0.28931578282E+02  0.47000000000E+01 0. -1.
         -5    1    3    3    0  502  0.25890045848E+02  0.25185782170E+02  0.21656500030E+03  0.21960671085E+03  0.47000000000E+01 0. -1.
        -11    1    1    2    0    0  0.21540558369E+02 -0.33275875617E+02  0.94963302359E+02  0.10290436506E+03  0.00000000000E+00 0. -1.
         11    1    1    2    0    0 -0.33584149200E+02  0.33020717650E+02  0.21557581123E+03  0.22066081043E+03  0.00000000000E+00 0.  1.
<mgrwt>
<rscale>  0 0.11488825E+03</rscale>
<asrwt>0</asrwt>
<pdfrwt beam="2">  1        2 0.35613671E-02 0.12422390E+03</pdfrwt>
<pdfrwt beam="1">  1       -2 0.84454540E-01 0.12422390E+03</pdfrwt>
<totfact> 0.29666801E+03</totfact>
</mgrwt>
</event>
<event>
 7    1  0.6008063E-006  0.1363574E+03  0.7546771E-02  0.1231184E+00
          1   -1    0    0  501    0  0.00000000000E+00  0.00000000000E+00  0.21105239970E+03  0.21105239970E+03  0.00000000000E+00 0. -1.
         -1   -1    0    0    0  501 -0.00000000000E+00 -0.00000000000E+00 -0.26385688022E+03  0.26385688022E+03  0.00000000000E+00 0.  1.
         23    2    1    2    0    0  0.14289575095E+02  0.52561349597E+02  0.17647844264E+03  0.22302013049E+03  0.12500580170E+03 0.  0.
          5    1    3    3  502    0 -0.51562311392E+02  0.31894544759E+02  0.49463350599E+02  0.78387798756E+02  0.47000000000E+01 0.  1.
         -5    1    3    3    0  502  0.65851886486E+02  0.20666804838E+02  0.12701509204E+03  0.14463233173E+03  0.47000000000E+01 0.  1.
        -11    1    1    2    0    0  0.66319128591E+01 -0.50232363321E+02 -0.22470458077E+03  0.23034630714E+03  0.00000000000E+00 0.  1.
         11    1    1    2    0    0 -0.20921487954E+02 -0.23289862760E+01 -0.45783423913E+01  0.21542842299E+02  0.00000000000E+00 0. -1.
<mgrwt>
<rscale>  0 0.12751905E+03</rscale>
<asrwt>0</asrwt>
<pdfrwt beam="1">  1        1 0.32469600E-01 0.13635739E+03</pdfrwt>
<pdfrwt beam="2">  1       -1 0.40593366E-01 0.13635739E+03</pdfrwt>
<totfact> 0.81977306E+02</totfact>
</mgrwt>
</event>
<event>
 6    1  0.6008063E-006  0.2857628E+03  0.7546771E-02  0.1157576E+00
         -2   -1    0    0    0  501 -0.00000000000E+00  0.00000000000E+00  0.62198917745E+02  0.62198917745E+02  0.00000000000E+00 0.  1.
          2   -1    0    0  501    0  0.00000000000E+00 -0.00000000000E+00 -0.47408509430E+03  0.47408509430E+03  0.00000000000E+00 0. -1.
          5    1    1    2  502    0 -0.37323492888E+02  0.37662812640E+02 -0.38511458092E+03  0.38877610653E+03  0.47000000000E+01 0. -1.
         -5    1    1    2    0  502  0.57653041111E+02 -0.16511006020E+02  0.29851285630E+02  0.67154119180E+02  0.47000000000E+01 0.  1.
        -11    1    1    2    0    0 -0.34573973493E+02 -0.58883208045E+01 -0.42711947253E+02  0.55266105374E+02  0.00000000000E+00 0. -1.
         11    1    1    2    0    0  0.14244425270E+02 -0.15263485816E+02 -0.13910934010E+02  0.25087680952E+02  0.00000000000E+00 0.  1.
<mgrwt>
<rscale>  0 0.19098504E+03</rscale>
<asrwt>0</asrwt>
<pdfrwt beam="2">  1        2 0.72936169E-01 0.28576277E+03</pdfrwt>
<pdfrwt beam="1">  1       -2 0.95690642E-02 0.28576277E+03</pdfrwt>
<totfact> 0.46909485E+03</totfact>
</mgrwt>
</event>
<event>
 7    1  0.6008063E-006  0.1361177E+03  0.7546771E-02  0.1226812E+00
         -2   -1    0    0    0  501 -0.00000000000E+00  0.00000000000E+00  0.10163737363E+03  0.10163737363E+03  0.00000000000E+00 0.  1.
          2   -1    0    0  501    0  0.00000000000E+00 -0.00000000000E+00 -0.42355694421E+03  0.42355694421E+03  0.00000000000E+00 0. -1.
         23    2    1    2    0    0 -0.94204028921E+00 -0.68996432812E+02 -0.37485620003E+03  0.39880470870E+03  0.11733128229E+03 0.  0.
          5    1    3    3  502    0 -0.10334339898E+02 -0.62926470685E+02 -0.38020708522E+03  0.38554643941E+03  0.47000000000E+01 0. -1.
         -5    1    3    3    0  502  0.93922996084E+01 -0.60699621280E+01  0.53508851917E+01  0.13258269288E+02  0.47000000000E+01 0.  1.
        -11    1    1    2    0    0 -0.33782125009E-01  0.80227141545E+02  0.86515980714E+01  0.80692289166E+02  0.00000000000E+00 0.  1.
         11    1    1    2    0    0  0.97582241422E+00 -0.11230708732E+02  0.44285031382E+02  0.45697319971E+02  0.00000000000E+00 0. -1.
<mgrwt>
<rscale>  0 0.13043453E+03</rscale>
<asrwt>0</asrwt>
<pdfrwt beam="2">  1        2 0.65162605E-01 0.13611769E+03</pdfrwt>
<pdfrwt beam="1">  1       -2 0.15636519E-01 0.13611769E+03</pdfrwt>
<totfact> 0.23382813E+03</totfact>
</mgrwt>
</event>
<event>
 7    1  0.6008063E-006  0.1648987E+03  0.7546771E-02  0.1191506E+00
         -1   -1    0    0    0  501 -0.00000000000E+00  0.00000000000E+00  0.74597925232E+02  0.74597925232E+02  0.00000000000E+00 0.  1.
          1   -1    0    0  501    0  0.00000000000E+00 -0.00000000000E+00 -0.31569803235E+03  0.31569803235E+03  0.00000000000E+00 0. -1.
         23    2    1    2    0    0  0.25244228089E+02  0.10454716056E+03 -0.16493440343E+03  0.23322720687E+03  0.12499677099E+03 0.  0.
          5    1    3    3  502    0  0.66625793551E+02  0.21129388894E+02 -0.87072402143E+02  0.11175482386E+03  0.47000000000E+01 0.  1.
         -5    1    3    3    0  502 -0.41381565462E+02  0.83417771669E+02 -0.77862001286E+02  0.12147238301E+03  0.47000000000E+01 0.  1.
        -11    1    1    2    0    0  0.14223113857E+02  0.41183702922E+01  0.52023670543E+01  0.15694666758E+02  0.00000000000E+00 0.  1.
         11    1    1    2    0    0 -0.39467341947E+02 -0.10866553085E+03 -0.81368070738E+02  0.14137408395E+03  0.00000000000E+00 0. -1.
<mgrwt>
<rscale>  0 0.15753700E+03</rscale>
<asrwt>0</asrwt>
<pdfrwt beam="2">  1        1 0.48568928E-01 0.16489867E+03</pdfrwt>
<pdfrwt beam="1">  1       -1 0.11476604E-01 0.16489867E+03</pdfrwt>
<totfact> 0.39282002E+03</totfact>
</mgrwt>
</event>
<event>
 7    1  0.6008063E-006  0.1549421E+03  0.7546771E-02  0.1203434E+00
          2   -1    0    0  501    0  0.00000000000E+00  0.00000000000E+00  0.15855467069E+04  0.15855467069E+04  0.00000000000E+00 0. -1.
         -2   -1    0    0    0  501 -0.00000000000E+00 -0.00000000000E+00 -0.15073684184E+02  0.15073684184E+02  0.00000000000E+00 0.  1.
         23    2    1    2    0    0  0.86905254532E+02  0.28738696603E+02  0.11720675654E+04  0.11822645340E+04  0.12501445789E+03 0.  0.
          5    1    3    3  502    0 -0.21583906382E+02  0.97189456072E+01  0.58916472742E+02  0.63667603055E+02  0.47000000000E+01 0. -1.
         -5    1    3    3    0  502  0.10848916091E+03  0.19019750996E+02  0.11131510926E+04  0.11185969310E+04  0.47000000000E+01 0. -1.
        -11    1    1    2    0    0 -0.68645172208E+02 -0.10241453753E+02  0.38053688604E+03  0.38681438531E+03  0.00000000000E+00 0. -1.
         11    1    1    2    0    0 -0.18260082323E+02 -0.18497242849E+02  0.17868571300E+02  0.31541471744E+02  0.00000000000E+00 0.  1.
<mgrwt>
<rscale>  0 0.14761582E+03</rscale>
<asrwt>0</asrwt>
<pdfrwt beam="1">  1        2 0.24393013E+00 0.15494209E+03</pdfrwt>
<pdfrwt beam="2">  1       -2 0.23190296E-02 0.15494209E+03</pdfrwt>
<totfact> 0.75158202E+03</totfact>
</mgrwt>
</event>
<event>
 7    1  0.6008063E-006  0.2490432E+03  0.7546771E-02  0.1116515E+00
         -2   -1    0    0    0  501 -0.00000000000E+00  0.00000000000E+00  0.73655199812E+02  0.73655199812E+02  0.00000000000E+00 0.  1.
          2   -1    0    0  501    0  0.00000000000E+00 -0.00000000000E+00 -0.85054790756E+03  0.85054790756E+03  0.00000000000E+00 0. -1.
         23    2    1    2    0    0  0.13234206169E+03 -0.16994812027E+03 -0.52415332635E+03  0.58030960939E+03  0.12500299337E+03 0.  0.
          5    1    3    3  502    0  0.14515665949E+03 -0.13661929309E+03 -0.35312281826E+03  0.40552817635E+03  0.47000000000E+01 0.  1.
         -5    1    3    3    0  502 -0.12814597800E+02 -0.33328827182E+02 -0.17103050810E+03  0.17478143305E+03  0.47000000000E+01 0.  1.
        -11    1    1    2    0    0 -0.11183524361E+03  0.12316623080E+03 -0.13059735262E+03  0.21150108897E+03  0.00000000000E+00 0.  1.
         11    1    1    2    0    0 -0.20506818074E+02  0.46781889469E+02 -0.12214202877E+03  0.13239240901E+03  0.00000000000E+00 0. -1.
<mgrwt>
<rscale>  0 0.24498613E+03</rscale>
<asrwt>0</asrwt>
<pdfrwt beam="2">  1        2 0.13085352E+00 0.24904324E+03</pdfrwt>
<pdfrwt beam="1">  1       -2 0.11331570E-01 0.24904324E+03</pdfrwt>
<totfact> 0.17753802E+03</totfact>
</mgrwt>
</event>
<event>
 7    1  0.6008063E-006  0.1296543E+03  0.7546771E-02  0.1240640E+00
          2   -1    0    0  501    0  0.00000000000E+00  0.00000000000E+00  0.10672857886E+03  0.10672857886E+03  0.00000000000E+00 0. -1.
         -2   -1    0    0    0  501 -0.00000000000E+00 -0.00000000000E+00 -0.12704449408E+03  0.12704449408E+03  0.00000000000E+00 0.  1.
         23    2    1    2    0    0 -0.10685202303E+02 -0.32714387180E+02  0.78410360009E+01  0.12989120580E+03  0.12500335524E+03 0.  0.
          5    1    3    3  502    0  0.86182909961E+01 -0.32018475536E+01  0.63226314195E+02  0.64063902271E+02  0.47000000000E+01 0. -1.
         -5    1    3    3    0  502 -0.19303493299E+02 -0.29512539627E+02 -0.55385278195E+02  0.65827303526E+02  0.47000000000E+01 0. -1.
        -11    1    1    2    0    0 -0.14457840070E+02  0.23642722285E+02 -0.57719053845E+02  0.64027311620E+02  0.00000000000E+00 0.  1.
         11    1    1    2    0    0  0.25143042372E+02  0.90716648952E+01  0.29562102626E+02  0.39854555516E+02  0.00000000000E+00 0. -1.
<mgrwt>
<rscale>  0 0.12150183E+03</rscale>
<asrwt>0</asrwt>
<pdfrwt beam="1">  1        2 0.16419781E-01 0.12965432E+03</pdfrwt>
<pdfrwt beam="2">  1       -2 0.19545307E-01 0.12965432E+03</pdfrwt>
<totfact> 0.72139751E+03</totfact>
</mgrwt>
</event>
<event>
 7    1  0.6008063E-006  0.1314452E+03  0.7546771E-02  0.1237299E+00
          2   -1    0    0  501    0  0.00000000000E+00  0.00000000000E+00  0.46925195122E+03  0.46925195122E+03  0.00000000000E+00 0. -1.
         -2   -1    0    0    0  501 -0.00000000000E+00 -0.00000000000E+00 -0.35572601566E+02  0.35572601566E+02  0.00000000000E+00 0.  1.
         23    2    1    2    0    0 -0.31850082246E+02  0.25304154505E+02  0.34477465466E+03  0.36898157405E+03  0.12499244584E+03 0.  0.
          5    1    3    3  502    0  0.40773091149E+02  0.19852867781E+02  0.62107449917E+02  0.77045484333E+02  0.47000000000E+01 0. -1.
         -5    1    3    3    0  502 -0.72623173395E+02  0.54512867244E+01  0.28266720474E+03  0.29193608971E+03  0.47000000000E+01 0. -1.
        -11    1    1    2    0    0  0.55556774492E+02  0.12349682267E+02  0.39058469089E+02  0.69026327236E+02  0.00000000000E+00 0.  1.
         11    1    1    2    0    0 -0.23706692247E+02 -0.37653836773E+02  0.49846225904E+02  0.66816651501E+02  0.00000000000E+00 0. -1.
<mgrwt>
<rscale>  0 0.12358374E+03</rscale>
<asrwt>0</asrwt>
<pdfrwt beam="1">  1        2 0.72192603E-01 0.13144520E+03</pdfrwt>
<pdfrwt beam="2">  1       -2 0.54727083E-02 0.13144520E+03</pdfrwt>
<totfact> 0.10806465E+04</totfact>
</mgrwt>
</event>
<event>
 6    1  0.6008063E-006  0.1336698E+03  0.7546771E-02  0.1237479E+00
         -1   -1    0    0    0  501 -0.00000000000E+00  0.00000000000E+00  0.41531402342E+02  0.41531402342E+02  0.00000000000E+00 0.  1.
          1   -1    0    0  501    0  0.00000000000E+00 -0.00000000000E+00 -0.36415240912E+03  0.36415240912E+03  0.00000000000E+00 0. -1.
          5    1    1    2  502    0  0.22413706588E+02 -0.25129839432E+02 -0.19052877652E+03  0.19353859500E+03  0.47000000000E+01 0. -1.
         -5    1    1    2    0  502 -0.29561855331E+02  0.61340853753E+02 -0.62115148028E+02  0.92287514022E+02  0.47000000000E+01 0.  1.
        -11    1    1    2    0    0  0.71115322098E+01 -0.65820409880E+02 -0.57644533810E+02  0.87782643645E+02  0.00000000000E+00 0. -1.
         11    1    1    2    0    0  0.36616533567E-01  0.29609395559E+02 -0.12332548420E+02  0.32075058794E+02  0.00000000000E+00 0.  1.
<mgrwt>
<rscale>  0 0.12347055E+03</rscale>
<asrwt>0</asrwt>
<pdfrwt beam="2">  1        1 0.56023448E-01 0.13366979E+03</pdfrwt>
<pdfrwt beam="1">  1       -1 0.63894464E-02 0.13366979E+03</pdfrwt>
<totfact> 0.79000707E+03</totfact>
</mgrwt>
</event>
<event>
 7    1  0.6008063E-006  0.1297681E+03  0.7546771E-02  0.1241713E+00
          1   -1    0    0  501    0  0.00000000000E+00  0.00000000000E+00  0.71113983774E+02  0.71113983774E+02  0.00000000000E+00 0. -1.
         -1   -1    0    0    0  501 -0.00000000000E+00 -0.00000000000E+00 -0.18428842353E+03  0.18428842353E+03  0.00000000000E+00 0.  1.
         23    2    1    2    0    0  0.33337052912E+02 -0.10339281293E+02 -0.49534925167E+02  0.13890089900E+03  0.12498596361E+03 0.  0.
          5    1    3    3  502    0  0.52803752024E+02  0.44802027959E+02 -0.15643445337E+02  0.71149598165E+02  0.47000000000E+01 0.  1.
         -5    1    3    3    0  502 -0.19466699112E+02 -0.55141309252E+02 -0.33891479829E+02  0.67751300839E+02  0.47000000000E+01 0.  1.
        -11    1    1    2    0    0 -0.11943467547E+02 -0.12078880561E+02  0.20625082271E+02  0.26719651782E+02  0.00000000000E+00 0. -1.
         11    1    1    2    0    0 -0.21393585365E+02  0.22418161854E+02 -0.84264596857E+02  0.89781856514E+02  0.00000000000E+00 0.  1.
<mgrwt>
<rscale>  0 0.12084269E+03</rscale>
<asrwt>0</asrwt>
<pdfrwt beam="1">  1        1 0.10940613E-01 0.12976807E+03</pdfrwt>
<pdfrwt beam="2">  1       -1 0.28352065E-01 0.12976807E+03</pdfrwt>
<totfact> 0.60547863E+03</totfact>
</mgrwt>
</event>
<event>
 7    1  0.6008063E-006  0.1764077E+03  0.7546771E-02  0.1177528E+00
          1   -1    0    0  501    0  0.00000000000E+00  0.00000000000E+00  0.74221013099E+02  0.74221013099E+02  0.00000000000E+00 0. -1.
         -1   -1    0    0    0  501 -0.00000000000E+00 -0.00000000000E+00 -0.44077043245E+03  0.44077043245E+03  0.00000000000E+00 0.  1.
         23    2    1    2    0    0 -0.56042895721E+02  0.11115333271E+03 -0.88154108925E+02  0.19720756806E+03  0.12499523369E+03 0.  0.
          5    1    3    3  502    0 -0.67938344350E+02  0.10317641516E+03 -0.11343008681E+03  0.16777802559E+03  0.47000000000E+01 0.  1.
         -5    1    3    3    0  502  0.11895448629E+02  0.79769175441E+01  0.25275977883E+02  0.29429542462E+02  0.47000000000E+01 0.  1.
        -11    1    1    2    0    0 -0.55745806031E+01 -0.37222130394E+02 -0.21257866372E+02  0.43225684756E+02  0.00000000000E+00 0. -1.
         11    1    1    2    0    0  0.61617476324E+02 -0.73931202315E+02 -0.25713744406E+03  0.27455819274E+03  0.00000000000E+00 0.  1.
<mgrwt>
<rscale>  0 0.17030662E+03</rscale>
<asrwt>0</asrwt>
<pdfrwt beam="1">  1        1 0.11418618E-01 0.17640770E+03</pdfrwt>
<pdfrwt beam="2">  1       -1 0.67810834E-01 0.17640770E+03</pdfrwt>
<totfact> 0.12127315E+03</totfact>
</mgrwt>
</event>
<event>
 6    1  0.6008063E-006  0.4592885E+03  0.7546771E-02  0.1058037E+00
         -2   -1    0    0    0  501 -0.00000000000E+00  0.00000000000E+00  0.35398682214E+02  0.35398682214E+02  0.00000000000E+00 0.  1.
          2   -1    0    0  501    0  0.00000000000E+00 -0.00000000000E+00 -0.29835564850E+04  0.29835564850E+04  0.00000000000E+00 0. -1.
          5    1    1    2  502    0  0.28349377550E+03 -0.39702755447E+02 -0.18215591484E+04  0.18439210532E+04  0.47000000000E+01 0. -1.
         -5    1    1    2    0  502 -0.13756769584E+03  0.75993344519E+02 -0.56711266059E+03  0.58850549628E+03  0.47000000000E+01 0.  1.
        -11    1    1    2    0    0 -0.23554396964E+02  0.17072323608E+02 -0.35983203724E+02  0.46271641423E+02  0.00000000000E+00 0. -1.
         11    1    1    2    0    0 -0.12237168270E+03 -0.53362912681E+02 -0.52350279011E+03  0.54025697629E+03  0.00000000000E+00 0.  1.
<mgrwt>
<rscale>  0 0.36138410E+03</rscale>
<asrwt>0</asrwt>
<pdfrwt beam="2">  1        2 0.45900871E+00 0.45928848E+03</pdfrwt>
<pdfrwt beam="1">  1       -2 0.54459508E-02 0.45928848E+03</pdfrwt>
<totfact> 0.35245262E+02</totfact>
</mgrwt>
</event>
<event>
 7    1  0.6008063E-006  0.1428725E+03  0.7546771E-02  0.1220884E+00
         -1   -1    0    0    0  501 -0.00000000000E+00  0.00000000000E+00  0.30322556535E+03  0.30322556535E+03  0.00000000000E+00 0.  1.
          1   -1    0    0  501    0  0.00000000000E+00 -0.00000000000E+00 -0.56643627864E+02  0.56643627864E+02  0.00000000000E+00 0. -1.
         23    2    1    2    0    0 -0.14630598555E+02 -0.67618329623E+02  0.96477241675E+02  0.17239606251E+03  0.12500500507E+03 0.  0.
          5    1    3    3  502    0 -0.20685935550E+02 -0.27343341192E+02  0.12016348865E+03  0.12504767188E+03  0.47000000000E+01 0. -1.
         -5    1    3    3    0  502  0.60553369947E+01 -0.40274988431E+02 -0.23686246978E+02  0.47348390629E+02  0.47000000000E+01 0. -1.
        -11    1    1    2    0    0 -0.25602273482E+02 -0.44932794558E+01  0.59241539121E+02  0.64693322106E+02  0.00000000000E+00 0.  1.
         11    1    1    2    0    0  0.40232872037E+02  0.72111609079E+02  0.90863156690E+02  0.12277980860E+03  0.00000000000E+00 0. -1.
<mgrwt>
<rscale>  0 0.13453066E+03</rscale>
<asrwt>0</asrwt>
<pdfrwt beam="2">  1        1 0.87144044E-02 0.14287248E+03</pdfrwt>
<pdfrwt beam="1">  1       -1 0.46650086E-01 0.14287248E+03</pdfrwt>
<totfact> 0.34830919E+03</totfact>
</mgrwt>
</event>
<event>
 7    1  0.9858359E-006  0.1945465E+03  0.7546771E-02  0.1159087E+00
         -1   -1    0    0    0  501 -0.00000000000E+00  0.00000000000E+00  0.46302199050E+02  0.46302199050E+02  0.00000000000E+00 0.  1.
          1   -1    0    0  501    0  0.00000000000E+00 -0.00000000000E+00 -0.80973416337E+03  0.80973416337E+03  0.00000000000E+00 0. -1.
         23    2    1    2    0    0 -0.14906577801E+03 -0.14172231114E+01 -0.53041321605E+03  0.56496596131E+03  0.12500297191E+03 0.  0.
          5    1    3    3  502    0 -0.12963967044E+03  0.47865238578E+02 -0.42447034455E+03  0.44642433695E+03  0.47000000000E+01 0. -1.
         -5    1    3    3    0  502 -0.19426107567E+02 -0.49282461689E+02 -0.10594287150E+03  0.11854162436E+03  0.47000000000E+01 0. -1.
        -11    1    1    2    0    0  0.10063426078E+03  0.23307605529E+02 -0.84919079518E+02  0.13372265696E+03  0.00000000000E+00 0.  1.
         11    1    1    2    0    0  0.48431517224E+02 -0.21890382418E+02 -0.14809966875E+03  0.15734774414E+03  0.00000000000E+00 0. -1.
<mgrwt>
<rscale>  0 0.18930850E+03</rscale>
<asrwt>0</asrwt>
<pdfrwt beam="2">  1        1 0.12457448E+00 0.19454654E+03</pdfrwt>
<pdfrwt beam="1">  1       -1 0.71234154E-02 0.19454654E+03</pdfrwt>
<totfact> 0.23109759E+03</totfact>
</mgrwt>
</event>
<event>
 7    1  0.6008063E-006  0.1605332E+03  0.7546771E-02  0.1197899E+00
         -1   -1    0    0    0  501 -0.00000000000E+00  0.00000000000E+00  0.21144044195E+02  0.21144044195E+02  0.00000000000E+00 0.  1.
          1   -1    0    0  501    0  0.00000000000E+00 -0.00000000000E+00 -0.10107050835E+04  0.10107050835E+04  0.00000000000E+00 0. -1.
         23    2    1    2    0    0  0.79588856262E+02 -0.61732682072E+02 -0.61293905782E+03  0.63361280480E+03  0.12500235090E+03 0.  0.
          5    1    3    3  502    0  0.34774375744E+02 -0.21549417329E+02 -0.39688921589E+02  0.57192089423E+02  0.47000000000E+01 0.  1.
         -5    1    3    3    0  502  0.44814480518E+02 -0.40183264744E+02 -0.57325013623E+03  0.57642071538E+03  0.47000000000E+01 0.  1.
        -11    1    1    2    0    0 -0.22359339867E+02  0.67422108114E+02 -0.18493440280E+03  0.19810707731E+03  0.00000000000E+00 0.  1.
         11    1    1    2    0    0 -0.57229516395E+02 -0.56894260421E+01 -0.19168757869E+03  0.20012924559E+03  0.00000000000E+00 0. -1.
<mgrwt>
<rscale>  0 0.15211398E+03</rscale>
<asrwt>0</asrwt>
<pdfrwt beam="2">  1        1 0.15549311E+00 0.16053317E+03</pdfrwt>
<pdfrwt beam="1">  1       -1 0.32529294E-02 0.16053317E+03</pdfrwt>
<totfact> 0.51581986E+03</totfact>
</mgrwt>
</event>
<event>
 6    1  0.6008063E-006  0.1491262E+03  0.7546771E-02  0.1223469E+00
         -1   -1    0    0    0  501 -0.00000000000E+00  0.00000000000E+00  0.30253527374E+02  0.30253527374E+02  0.00000000000E+00 0.  1.
          1   -1    0    0  501    0  0.00000000000E+00 -0.00000000000E+00 -0.54158641359E+03  0.54158641359E+03  0.00000000000E+00 0. -1.
          5    1    1    2  502    0  0.52843172619E+02  0.39626029015E+01 -0.36270555603E+03  0.36658629746E+03  0.47000000000E+01 0. -1.
         -5    1    1    2    0  502 -0.43380950590E+02 -0.15148740632E+02 -0.34385407167E+02  0.57583308718E+02  0.47000000000E+01 0.  1.
        -11    1    1    2    0    0 -0.48956338465E+02  0.50859336036E+01 -0.40272414771E+02  0.63596046952E+02  0.00000000000E+00 0.  1.
         11    1    1    2    0    0  0.39494116435E+02  0.61002041269E+01 -0.73969508254E+02  0.84074287834E+02  0.00000000000E+00 0. -1.
<mgrwt>
<rscale>  0 0.13272398E+03</rscale>
<asrwt>0</asrwt>
<pdfrwt beam="2">  1        1 0.83320982E-01 0.14912619E+03</pdfrwt>
<pdfrwt beam="1">  1       -1 0.46543891E-02 0.14912619E+03</pdfrwt>
<totfact> 0.76540737E+03</totfact>
</mgrwt>
</event>
<event>
 7    1  0.6008063E-006  0.1526812E+03  0.7546771E-02  0.1206190E+00
          2   -1    0    0  501    0  0.00000000000E+00  0.00000000000E+00  0.99927713150E+03  0.99927713150E+03  0.00000000000E+00 0.  1.
         -2   -1    0    0    0  501 -0.00000000000E+00 -0.00000000000E+00 -0.19985830830E+02  0.19985830830E+02  0.00000000000E+00 0. -1.
         23    2    1    2    0    0 -0.81505584996E+02 -0.32304946969E+02  0.62323371905E+03  0.64166331071E+03  0.12499906308E+03 0.  0.
          5    1    3    3  502    0  0.79904472210E+00 -0.63759698380E+02  0.28800048801E+03  0.29501238737E+03  0.47000000000E+01 0. -1.
         -5    1    3    3    0  502 -0.82304629718E+02  0.31454751411E+02  0.33523323104E+03  0.34665092334E+03  0.47000000000E+01 0. -1.
        -11    1    1    2    0    0  0.99449759870E+02  0.28743514718E+02  0.32928233220E+03  0.34517140478E+03  0.00000000000E+00 0.  1.
         11    1    1    2    0    0 -0.17944174874E+02  0.35614322517E+01  0.26775249419E+02  0.32428246839E+02  0.00000000000E+00 0. -1.
<mgrwt>
<rscale>  0 0.14544094E+03</rscale>
<asrwt>0</asrwt>
<pdfrwt beam="1">  1        2 0.15373490E+00 0.15268116E+03</pdfrwt>
<pdfrwt beam="2">  1       -2 0.30747440E-02 0.15268116E+03</pdfrwt>
<totfact> 0.10409105E+04</totfact>
</mgrwt>
</event>
<event>
 7    1  0.6008063E-006  0.1325935E+03  0.7546771E-02  0.1237258E+00
          2   -1    0    0  501    0  0.00000000000E+00  0.00000000000E+00  0.40512651717E+03  0.40512651717E+03  0.00000000000E+00 0. -1.
         -2   -1    0    0    0  501 -0.00000000000E+00 -0.00000000000E+00 -0.34036474685E+02  0.34036474685E+02  0.00000000000E+00 0.  1.
         23    2    1    2    0    0  0.43908203044E+02 -0.54912603319E+01  0.18184912478E+03  0.22505583124E+03  0.12499175477E+03 0.  0.
          5    1    3    3  502    0 -0.18825247493E+02  0.40090627477E+02  0.27736140091E+02  0.52469341732E+02  0.47000000000E+01 0.  1.
         -5    1    3    3    0  502  0.62733450537E+02 -0.45581887809E+02  0.15411298468E+03  0.17258648951E+03  0.47000000000E+01 0.  1.
        -11    1    1    2    0    0  0.74235398540E+01  0.24349771352E+02  0.13392389216E+03  0.13632178550E+03  0.00000000000E+00 0. -1.
         11    1    1    2    0    0 -0.51331742898E+02 -0.18858511020E+02  0.55317025547E+02  0.77785375117E+02  0.00000000000E+00 0.  1.
<mgrwt>
<rscale>  0 0.12360978E+03</rscale>
<asrwt>0</asrwt>
<pdfrwt beam="1">  1        2 0.62327153E-01 0.13259345E+03</pdfrwt>
<pdfrwt beam="2">  1       -2 0.52363810E-02 0.13259345E+03</pdfrwt>
<totfact> 0.13538492E+04</totfact>
</mgrwt>
</event>
<event>
 7    1  0.6008063E-006  0.2342047E+03  0.7546771E-02  0.1126545E+00
         -2   -1    0    0    0  501 -0.00000000000E+00  0.00000000000E+00  0.30007511607E+02  0.30007511607E+02  0.00000000000E+00 0.  1.
          2   -1    0    0  501    0  0.00000000000E+00 -0.00000000000E+00 -0.17065532891E+04  0.17065532891E+04  0.00000000000E+00 0. -1.
         23    2    1    2    0    0  0.54759345128E+02 -0.19032241434E+03 -0.87908463285E+03  0.90974810428E+03  0.12502245499E+03 0.  0.
          5    1    3    3  502    0 -0.19929396751E+02 -0.12318579293E+03 -0.36071664977E+03  0.38172046298E+03  0.47000000000E+01 0.  1.
         -5    1    3    3    0  502  0.74688741878E+02 -0.67136621407E+02 -0.51836798308E+03  0.52802764131E+03  0.47000000000E+01 0.  1.
        -11    1    1    2    0    0 -0.15952898066E+01  0.14067135783E+03 -0.43704673647E+03  0.45913051055E+03  0.00000000000E+00 0.  1.
         11    1    1    2    0    0 -0.53164055321E+02  0.49651056509E+02 -0.36041440821E+03  0.36768218591E+03  0.00000000000E+00 0. -1.
<mgrwt>
<rscale>  0 0.23013514E+03</rscale>
<asrwt>0</asrwt>
<pdfrwt beam="2">  1        2 0.26254682E+00 0.23420466E+03</pdfrwt>
<pdfrwt beam="1">  1       -2 0.46165373E-02 0.23420466E+03</pdfrwt>
<totfact> 0.23455494E+03</totfact>
</mgrwt>
</event>
<event>
 7    1  0.6008063E-006  0.1308154E+03  0.7546771E-02  0.1240552E+00
         -1   -1    0    0    0  501 -0.00000000000E+00  0.00000000000E+00  0.44728016683E+02  0.44728016683E+02  0.00000000000E+00 0.  1.
          1   -1    0    0  501    0  0.00000000000E+00 -0.00000000000E+00 -0.36053321634E+03  0.36053321634E+03  0.00000000000E+00 0. -1.
         23    2    1    2    0    0 -0.35717223709E+02 -0.14546569517E+02 -0.26445490256E+03  0.29504080497E+03  0.12500143341E+03 0.  0.
          5    1    3    3  502    0  0.42966697047E+02 -0.17779880632E+02 -0.14088667382E+03  0.14843653886E+03  0.47000000000E+01 0.  1.
         -5    1    3    3    0  502 -0.78683920756E+02  0.32333111147E+01 -0.12356822874E+03  0.14660426611E+03  0.47000000000E+01 0.  1.
        -11    1    1    2    0    0  0.43448610427E+02  0.27694910028E+02  0.50711341805E+01  0.51773605161E+02  0.00000000000E+00 0.  1.
         11    1    1    2    0    0 -0.77313867175E+01 -0.13148340511E+02 -0.56421431280E+02  0.58446822895E+02  0.00000000000E+00 0. -1.
<mgrwt>
<rscale>  0 0.12155602E+03</rscale>
<asrwt>0</asrwt>
<pdfrwt beam="2">  1        1 0.55466650E-01 0.13081545E+03</pdfrwt>
<pdfrwt beam="1">  1       -1 0.68812331E-02 0.13081545E+03</pdfrwt>
<totfact> 0.71496224E+03</totfact>
</mgrwt>
</event>
<event>
 7    1  0.6008063E-006  0.1978329E+03  0.7546771E-02  0.1156017E+00
          2   -1    0    0  501    0  0.00000000000E+00  0.00000000000E+00  0.55219902161E+03  0.55219902161E+03  0.00000000000E+00 0. -1.
         -2   -1    0    0    0  501 -0.00000000000E+00 -0.00000000000E+00 -0.64073886438E+02  0.64073886438E+02  0.00000000000E+00 0.  1.
         23    2    1    2    0    0  0.15050855992E+03 -0.29352813996E+02  0.26541192769E+03  0.33103074556E+03  0.12499379524E+03 0.  0.
          5    1    3    3  502    0  0.16542699877E+03 -0.39339831338E+02  0.19763576263E+03  0.26075984914E+03  0.47000000000E+01 0.  1.
         -5    1    3    3    0  502 -0.14918438858E+02  0.99870173422E+01  0.67776165057E+02  0.70270896417E+02  0.47000000000E+01 0.  1.
        -11    1    1    2    0    0 -0.40760968469E+02  0.84906808751E-01  0.68676993774E+01  0.41335566458E+02  0.00000000000E+00 0.  1.
         11    1    1    2    0    0 -0.10974759145E+03  0.29267907187E+02  0.21584550811E+03  0.24390659604E+03  0.00000000000E+00 0. -1.
<mgrwt>
<rscale>  0 0.19273574E+03</rscale>
<asrwt>0</asrwt>
<pdfrwt beam="1">  1        2 0.84953692E-01 0.19783292E+03</pdfrwt>
<pdfrwt beam="2">  1       -2 0.98575214E-02 0.19783292E+03</pdfrwt>
<totfact> 0.37194877E+03</totfact>
</mgrwt>
</event>
<event>
 6    1  0.6008063E-006  0.4790312E+03  0.7546771E-02  0.1065211E+00
         -2   -1    0    0    0  501 -0.00000000000E+00  0.00000000000E+00  0.47234140428E+03  0.47234140428E+03  0.00000000000E+00 0.  1.
          2   -1    0    0  501    0  0.00000000000E+00 -0.00000000000E+00 -0.34575943000E+03  0.34575943000E+03  0.00000000000E+00 0. -1.
          5    1    1    2  502    0 -0.45450593356E+02  0.23022998975E+03 -0.14581543926E+03  0.27632559951E+03  0.47000000000E+01 0. -1.
         -5    1    1    2    0  502  0.12563647010E+03 -0.19043564489E+03 -0.13848422224E+02  0.22861348662E+03  0.47000000000E+01 0.  1.
        -11    1    1    2    0    0 -0.52474725693E+02  0.23022185462E+02  0.15052202762E+03  0.16106054346E+03  0.00000000000E+00 0.  1.
         11    1    1    2    0    0 -0.27711151055E+02 -0.62816530325E+02  0.13572380814E+03  0.15210120470E+03  0.00000000000E+00 0. -1.
<mgrwt>
<rscale>  0 0.34374730E+03</rscale>
<asrwt>0</asrwt>
<pdfrwt beam="2">  1        2 0.53193758E-01 0.47903124E+03</pdfrwt>
<pdfrwt beam="1">  1       -2 0.72667909E-01 0.47903124E+03</pdfrwt>
<totfact> 0.16390372E+02</totfact>
</mgrwt>
</event>
<event>
 6    1  0.6008063E-006  0.1345341E+03  0.7546771E-02  0.1239364E+00
         -1   -1    0    0    0  501 -0.00000000000E+00  0.00000000000E+00  0.34376423637E+02  0.34376423637E+02  0.00000000000E+00 0.  1.
          1   -1    0    0  501    0  0.00000000000E+00 -0.00000000000E+00 -0.59490927743E+03  0.59490927743E+03  0.00000000000E+00 0. -1.
          5    1    1    2  502    0 -0.21077684738E+02  0.50265287372E+02 -0.37574976433E+03  0.37971152643E+03  0.47000000000E+01 0. -1.
         -5    1    1    2    0  502  0.40504817605E+02 -0.45011377427E+02 -0.12775800466E+03  0.14145975436E+03  0.47000000000E+01 0.  1.
        -11    1    1    2    0    0 -0.48080973931E+02 -0.27377487768E+02 -0.30002198355E+02  0.62939961843E+02  0.00000000000E+00 0.  1.
         11    1    1    2    0    0  0.28653841064E+02  0.22123577822E+02 -0.27022886440E+02  0.45174458435E+02  0.00000000000E+00 0. -1.
<mgrwt>
<rscale>  0 0.12229170E+03</rscale>
<asrwt>0</asrwt>
<pdfrwt beam="2">  1        1 0.91524503E-01 0.13453412E+03</pdfrwt>
<pdfrwt beam="1">  1       -1 0.52886806E-02 0.13453412E+03</pdfrwt>
<totfact> 0.55519622E+03</totfact>
</mgrwt>
</event>
<event>
 7    1  0.6008063E-006  0.1414249E+03  0.7546771E-02  0.1223045E+00
         -2   -1    0    0    0  501 -0.00000000000E+00  0.00000000000E+00  0.14542381990E+03  0.14542381990E+03  0.00000000000E+00 0.  1.
          2   -1    0    0  501    0  0.00000000000E+00 -0.00000000000E+00 -0.13258572427E+03  0.13258572427E+03  0.00000000000E+00 0. -1.
         23    2    1    2    0    0  0.16544473713E+01  0.66127650083E+02 -0.50880620777E+02  0.15029918564E+03  0.12500161732E+03 0.  0.
          5    1    3    3  502    0  0.27594515114E+02  0.85744860326E+02 -0.56066173453E+00  0.90200014846E+02  0.47000000000E+01 0.  1.
         -5    1    3    3    0  502 -0.25940067743E+02 -0.19617210243E+02 -0.50319959042E+02  0.60099170795E+02  0.47000000000E+01 0.  1.
        -11    1    1    2    0    0 -0.33321008195E+02 -0.61653803078E+02  0.65164200062E+02  0.95696677010E+02  0.00000000000E+00 0.  1.
         11    1    1    2    0    0  0.31666560823E+02 -0.44738470053E+01 -0.14454836532E+01  0.32013681519E+02  0.00000000000E+00 0. -1.
<mgrwt>
<rscale>  0 0.13301813E+03</rscale>
<asrwt>0</asrwt>
<pdfrwt beam="2">  1        2 0.20397804E-01 0.14142492E+03</pdfrwt>
<pdfrwt beam="1">  1       -2 0.22372895E-01 0.14142492E+03</pdfrwt>
<totfact> 0.44993591E+03</totfact>
</mgrwt>
</event>
<event>
 7    1  0.6008063E-006  0.1447215E+03  0.7546771E-02  0.1215071E+00
          1   -1    0    0  501    0  0.00000000000E+00  0.00000000000E+00  0.28034348291E+03  0.28034348291E+03  0.00000000000E+00 0. -1.
         -1   -1    0    0    0  501 -0.00000000000E+00 -0.00000000000E+00 -0.65303430335E+02  0.65303430335E+02  0.00000000000E+00 0.  1.
         23    2    1    2    0    0 -0.36183921950E+02 -0.63331747075E+02  0.14491682056E+03  0.20480525671E+03  0.12499648756E+03 0.  0.
          5    1    3    3  502    0 -0.11233989170E+02 -0.54121007643E+02 -0.19180120949E+01  0.55507249538E+02  0.47000000000E+01 0.  1.
         -5    1    3    3    0  502 -0.24949932780E+02 -0.92107394330E+01  0.14683483265E+03  0.14929800718E+03  0.47000000000E+01 0.  1.
        -11    1    1    2    0    0  0.22330827023E+02 -0.14132080587E+02 -0.10262671590E+02  0.28349673109E+02  0.00000000000E+00 0. -1.
         11    1    1    2    0    0  0.13853094927E+02  0.77463827663E+02  0.80385903608E+02  0.11249198342E+03  0.00000000000E+00 0.  1.
<mgrwt>
<rscale>  0 0.13871314E+03</rscale>
<asrwt>0</asrwt>
<pdfrwt beam="1">  1        1 0.43129766E-01 0.14472149E+03</pdfrwt>
<pdfrwt beam="2">  1       -1 0.10046682E-01 0.14472149E+03</pdfrwt>
<totfact> 0.55480528E+03</totfact>
</mgrwt>
</event>
<event>
 7    1  0.6008063E-006  0.1203193E+03  0.7546771E-02  0.1254409E+00
          1   -1    0    0  501    0  0.00000000000E+00  0.00000000000E+00  0.25751593598E+03  0.25751593598E+03  0.00000000000E+00 0. -1.
         -1   -1    0    0    0  501 -0.00000000000E+00 -0.00000000000E+00 -0.47484575193E+02  0.47484575193E+02  0.00000000000E+00 0.  1.
         23    2    1    2    0    0 -0.33188656984E+02  0.14832870406E+02  0.15156630688E+03  0.19351763554E+03  0.11469624618E+03 0.  0.
          5    1    3    3  502    0 -0.61531197409E+02 -0.11249221465E+02  0.37615386762E+02  0.73141237065E+02  0.47000000000E+01 0. -1.
         -5    1    3    3    0  502  0.28342540425E+02  0.26082091871E+02  0.11395092012E+03  0.12037639848E+03  0.47000000000E+01 0.  1.
        -11    1    1    2    0    0  0.22561895997E+02 -0.57826373961E+01  0.81382188176E+02  0.84649504420E+02  0.00000000000E+00 0. -1.
         11    1    1    2    0    0  0.10626760988E+02 -0.90502330101E+01 -0.22917134279E+02  0.26833371204E+02  0.00000000000E+00 0.  1.
<mgrwt>
<rscale>  0 0.11339493E+03</rscale>
<asrwt>0</asrwt>
<pdfrwt beam="1">  1        1 0.39617836E-01 0.12031928E+03</pdfrwt>
<pdfrwt beam="2">  1       -1 0.73053194E-02 0.12031928E+03</pdfrwt>
<totfact> 0.98505219E+03</totfact>
</mgrwt>
</event>
<event>
 7    1  0.6008063E-006  0.2082820E+03  0.7546771E-02  0.1146545E+00
          2   -1    0    0  501    0  0.00000000000E+00  0.00000000000E+00  0.14285192182E+04  0.14285192182E+04  0.00000000000E+00 0. -1.
         -2   -1    0    0    0  501 -0.00000000000E+00 -0.00000000000E+00 -0.28109710781E+02  0.28109710781E+02  0.00000000000E+00 0.  1.
         23    2    1    2    0    0  0.64466782571E+02  0.15362591168E+03  0.79195645927E+03  0.81888730173E+03  0.12499797106E+03 0.  0.
          5    1    3    3  502    0  0.96116911905E+02  0.81636138570E+02  0.41392148001E+03  0.43273086496E+03  0.47000000000E+01 0.  1.
         -5    1    3    3    0  502 -0.31650129334E+02  0.71989773110E+02  0.37803497926E+03  0.38615643677E+03  0.47000000000E+01 0.  1.
        -11    1    1    2    0    0 -0.60796483373E+02 -0.14394937972E+03  0.60758361786E+03  0.62735595080E+03  0.00000000000E+00 0. -1.
         11    1    1    2    0    0 -0.36702991984E+01 -0.96765319589E+01  0.86943032787E+00  0.10385676485E+02  0.00000000000E+00 0.  1.
<mgrwt>
<rscale>  0 0.20383290E+03</rscale>
<asrwt>0</asrwt>
<pdfrwt beam="1">  1        2 0.21977213E+00 0.20828197E+03</pdfrwt>
<pdfrwt beam="2">  1       -2 0.43245720E-02 0.20828197E+03</pdfrwt>
<totfact> 0.36306339E+03</totfact>
</mgrwt>
</event>
<event>
 7    1  0.6008063E-006  0.1344833E+03  0.7546771E-02  0.1233830E+00
         -1   -1    0    0    0  501 -0.00000000000E+00  0.00000000000E+00  0.12054931526E+03  0.12054931526E+03  0.00000000000E+00 0.  1.
          1   -1    0    0  501    0  0.00000000000E+00 -0.00000000000E+00 -0.11822612632E+03  0.11822612632E+03  0.00000000000E+00 0. -1.
         23    2    1    2    0    0  0.54909730084E+01  0.49271214607E+02  0.13750444158E+02  0.13518442185E+03  0.12501179873E+03 0.  0.
          5    1    3    3  502    0 -0.16822787354E+02  0.35005848978E+02 -0.51461166470E+02  0.64643308172E+02  0.47000000000E+01 0. -1.
         -5    1    3    3    0  502  0.22313760363E+02  0.14265365629E+02  0.65211610628E+02  0.70541113677E+02  0.47000000000E+01 0. -1.
        -11    1    1    2    0    0  0.24434816619E+02 -0.22137113201E+02  0.30824267758E+02  0.45135878488E+02  0.00000000000E+00 0.  1.
         11    1    1    2    0    0 -0.29925789627E+02 -0.27134101406E+02 -0.42251522973E+02  0.58455141240E+02  0.00000000000E+00 0. -1.
<mgrwt>
<rscale>  0 0.12579608E+03</rscale>
<asrwt>0</asrwt>
<pdfrwt beam="2">  1        1 0.18188635E-01 0.13448328E+03</pdfrwt>
<pdfrwt beam="1">  1       -1 0.18546048E-01 0.13448328E+03</pdfrwt>
<totfact> 0.62605200E+03</totfact>
</mgrwt>
</event>
<event>
 7    1  0.6008063E-006  0.1724063E+03  0.7546771E-02  0.1181727E+00
         -2   -1    0    0    0  501 -0.00000000000E+00  0.00000000000E+00  0.12733001765E+03  0.12733001765E+03  0.00000000000E+00 0.  1.
          2   -1    0    0  501    0  0.00000000000E+00 -0.00000000000E+00 -0.24178280026E+03  0.24178280026E+03  0.00000000000E+00 0. -1.
         23    2    1    2    0    0 -0.33033092875E+02  0.11405422941E+03 -0.13415354168E+03  0.21845161900E+03  0.12499753849E+03 0.  0.
          5    1    3    3  502    0 -0.20604004716E+02  0.13668327605E+03 -0.13346189130E+03  0.19220044066E+03  0.47000000000E+01 0.  1.
         -5    1    3    3    0  502 -0.12429088159E+02 -0.22629046635E+02 -0.69165037641E+00  0.26251178341E+02  0.47000000000E+01 0.  1.
        -11    1    1    2    0    0  0.20356415172E+02 -0.59747339698E+02 -0.35312250480E+02  0.72326228117E+02  0.00000000000E+00 0. -1.
         11    1    1    2    0    0  0.12676677703E+02 -0.54306889714E+02  0.55013009550E+02  0.78334970784E+02  0.00000000000E+00 0.  1.
<mgrwt>
<rscale>  0 0.16633321E+03</rscale>
<asrwt>0</asrwt>
<pdfrwt beam="2">  1        2 0.37197353E-01 0.17240631E+03</pdfrwt>
<pdfrwt beam="1">  1       -2 0.19589234E-01 0.17240631E+03</pdfrwt>
<totfact> 0.29480033E+03</totfact>
</mgrwt>
</event>
<event>
 7    1  0.6008063E-006  0.2392754E+03  0.7546771E-02  0.1123971E+00
         -1   -1    0    0    0  501 -0.00000000000E+00  0.00000000000E+00  0.13205535037E+03  0.13205535037E+03  0.00000000000E+00 0.  1.
          1   -1    0    0  501    0  0.00000000000E+00 -0.00000000000E+00 -0.48218426710E+03  0.48218426710E+03  0.00000000000E+00 0. -1.
         23    2    1    2    0    0  0.16739535302E+03  0.11663419105E+03 -0.31120735592E+03  0.39255918407E+03  0.12501182295E+03 0.  0.
          5    1    3    3  502    0  0.51933006990E+02  0.31942090688E+02 -0.14164199673E+02  0.62769809024E+02  0.47000000000E+01 0.  1.
         -5    1    3    3    0  502  0.11546234603E+03  0.84692100358E+02 -0.29704315625E+03  0.32978937504E+03  0.47000000000E+01 0.  1.
        -11    1    1    2    0    0 -0.52312281178E+02 -0.16465697235E+02  0.19645263641E+02  0.58254873882E+02  0.00000000000E+00 0. -1.
         11    1    1    2    0    0 -0.11508307185E+03 -0.10016849381E+03 -0.58566824453E+02  0.16342555952E+03  0.00000000000E+00 0.  1.
<mgrwt>
<rscale>  0 0.23383284E+03</rscale>
<asrwt>0</asrwt>
<pdfrwt beam="2">  1        1 0.74182194E-01 0.23927535E+03</pdfrwt>
<pdfrwt beam="1">  1       -1 0.20316208E-01 0.23927535E+03</pdfrwt>
<totfact> 0.93325900E+02</totfact>
</mgrwt>
</event>
<event>
 7    1  0.6008063E-006  0.1588247E+03  0.7546771E-02  0.1197534E+00
          2   -1    0    0  501    0  0.00000000000E+00  0.00000000000E+00  0.17837818256E+02  0.17837818256E+02  0.00000000000E+00 0. -1.
         -2   -1    0    0    0  501 -0.00000000000E+00 -0.00000000000E+00 -0.12231021120E+04  0.12231021120E+04  0.00000000000E+00 0.  1.
         23    2    1    2    0    0  0.52202307641E+02 -0.82920440503E+02 -0.72130427293E+03  0.73858319462E+03  0.12499760336E+03 0.  0.
          5    1    3    3  502    0  0.87972203183E+02 -0.59365106623E+02 -0.37999481607E+03  0.39456491818E+03  0.47000000000E+01 0. -1.
         -5    1    3    3    0  502 -0.35769895542E+02 -0.23555333879E+02 -0.34130945686E+03  0.34401827644E+03  0.47000000000E+01 0. -1.
        -11    1    1    2    0    0 -0.52712703262E+02  0.59715651902E+01 -0.26529109332E+03  0.27054325508E+03  0.00000000000E+00 0.  1.
         11    1    1    2    0    0  0.51039562073E+00  0.76948875313E+02 -0.21866892747E+03  0.23181348054E+03  0.00000000000E+00 0. -1.
<mgrwt>
<rscale>  0 0.15241689E+03</rscale>
<asrwt>0</asrwt>
<pdfrwt beam="1">  1        2 0.27442796E-02 0.15882469E+03</pdfrwt>
<pdfrwt beam="2">  1       -2 0.18816956E+00 0.15882469E+03</pdfrwt>
<totfact> 0.59729679E+02</totfact>
</mgrwt>
</event>
<event>
 7    1  0.6008063E-006  0.1305340E+03  0.7546771E-02  0.1240661E+00
         -2   -1    0    0    0  501 -0.00000000000E+00  0.00000000000E+00  0.11847289950E+03  0.11847289950E+03  0.00000000000E+00 0.  1.
          2   -1    0    0  501    0  0.00000000000E+00 -0.00000000000E+00 -0.12435618372E+03  0.12435618372E+03  0.00000000000E+00 0. -1.
         23    2    1    2    0    0 -0.66461576082E+01  0.37000162341E+02 -0.43969618504E+02  0.13774056802E+03  0.12500381315E+03 0.  0.
          5    1    3    3  502    0 -0.24280675885E+02 -0.19109966610E+02 -0.67369604518E+02  0.74266383096E+02  0.47000000000E+01 0.  1.
         -5    1    3    3    0  502  0.17634518277E+02  0.56110128951E+02  0.23399986014E+02  0.63474184919E+02  0.47000000000E+01 0.  1.
        -11    1    1    2    0    0 -0.31769452102E+02 -0.34682098989E+02  0.46010185250E+02  0.65795769042E+02  0.00000000000E+00 0.  1.
         11    1    1    2    0    0  0.38415609710E+02 -0.23180633521E+01 -0.79238509698E+01  0.39292746167E+02  0.00000000000E+00 0. -1.
<mgrwt>
<rscale>  0 0.12148910E+03</rscale>
<asrwt>0</asrwt>
<pdfrwt beam="2">  1        2 0.19131721E-01 0.13053404E+03</pdfrwt>
<pdfrwt beam="1">  1       -2 0.18226600E-01 0.13053404E+03</pdfrwt>
<totfact> 0.68109905E+03</totfact>
</mgrwt>
</event>
<event>
 7    1  0.6008063E-006  0.1626940E+03  0.7546771E-02  0.1193695E+00
          2   -1    0    0  501    0  0.00000000000E+00  0.00000000000E+00  0.39202583342E+03  0.39202583342E+03  0.00000000000E+00 0. -1.
         -2   -1    0    0    0  501 -0.00000000000E+00 -0.00000000000E+00 -0.67133467017E+02  0.67133467017E+02  0.00000000000E+00 0.  1.
         23    2    1    2    0    0  0.72054115717E+02 -0.75184347030E+02  0.26347284262E+03  0.30965669268E+03  0.12499938757E+03 0.  0.
          5    1    3    3  502    0  0.86123571455E+02 -0.91286544781E+01  0.19473643302E+03  0.21317825930E+03  0.47000000000E+01 0. -1.
         -5    1    3    3    0  502 -0.14069455737E+02 -0.66055692552E+02  0.68736409605E+02  0.96478433387E+02  0.47000000000E+01 0. -1.
        -11    1    1    2    0    0 -0.69118711917E+01  0.31090892823E+02  0.63252804043E+02  0.70819028511E+02  0.00000000000E+00 0. -1.
         11    1    1    2    0    0 -0.65142244526E+02  0.44093454207E+02 -0.18332802640E+01  0.78683579242E+02  0.00000000000E+00 0.  1.
<mgrwt>
<rscale>  0 0.15565226E+03</rscale>
<asrwt>0</asrwt>
<pdfrwt beam="1">  1        2 0.60311665E-01 0.16269397E+03</pdfrwt>
<pdfrwt beam="2">  1       -2 0.10328226E-01 0.16269397E+03</pdfrwt>
<totfact> 0.49927348E+03</totfact>
</mgrwt>
</event>
<event>
 7    1  0.6008063E-006  0.1305279E+03  0.7546771E-02  0.1239440E+00
         -3   -1    0    0    0  501 -0.00000000000E+00  0.00000000000E+00  0.19452870932E+03  0.19452870932E+03  0.00000000000E+00 0.  1.
          3   -1    0    0  501    0  0.00000000000E+00 -0.00000000000E+00 -0.69424720215E+02  0.69424720215E+02  0.00000000000E+00 0. -1.
         23    2    1    2    0    0 -0.37120822088E+02 -0.58264678218E+01  0.55861791411E+02  0.14197912099E+03  0.12500251157E+03 0.  0.
          5    1    3    3  502    0 -0.49666329721E+02  0.70152748101E+01  0.89989701270E+02  0.10313192873E+03  0.47000000000E+01 0. -1.
         -5    1    3    3    0  502  0.12545507633E+02 -0.12841742632E+02 -0.34127909859E+02  0.38847192266E+02  0.47000000000E+01 0. -1.
        -11    1    1    2    0    0  0.44058016982E+02 -0.48939832649E+01 -0.68175088028E+01  0.44850176799E+02  0.00000000000E+00 0. -1.
         11    1    1    2    0    0 -0.69371948942E+01  0.10720451087E+02  0.76059706493E+02  0.77124131738E+02  0.00000000000E+00 0.  1.
<mgrwt>
<rscale>  0 0.12224400E+03</rscale>
<asrwt>0</asrwt>
<pdfrwt beam="2">  1        3 0.10680726E-01 0.13052789E+03</pdfrwt>
<pdfrwt beam="1">  1       -3 0.29927494E-01 0.13052789E+03</pdfrwt>
<totfact> 0.16260432E+03</totfact>
</mgrwt>
</event>
<event>
 7    1  0.6008063E-006  0.2100468E+03  0.7546771E-02  0.1145097E+00
          1   -1    0    0  501    0  0.00000000000E+00  0.00000000000E+00  0.12269493271E+04  0.12269493271E+04  0.00000000000E+00 0. -1.
         -1   -1    0    0    0  501 -0.00000000000E+00 -0.00000000000E+00 -0.33207901669E+02  0.33207901669E+02  0.00000000000E+00 0.  1.
         23    2    1    2    0    0  0.74865520424E+02 -0.15129169895E+03  0.66269354902E+03  0.69518516229E+03  0.12500258250E+03 0.  0.
          5    1    3    3  502    0  0.84389780673E+01 -0.14033354452E+03  0.40209864890E+03  0.42599311440E+03  0.47000000000E+01 0. -1.
         -5    1    3    3    0  502  0.66426542357E+02 -0.10958154436E+02  0.26059490012E+03  0.26919204789E+03  0.47000000000E+01 0. -1.
        -11    1    1    2    0    0 -0.49740109745E+02  0.54849203592E+02  0.35529757044E+03  0.36293095378E+03  0.00000000000E+00 0.  1.
         11    1    1    2    0    0 -0.25125410679E+02  0.96442495362E+02  0.17575030600E+03  0.20204111273E+03  0.00000000000E+00 0. -1.
<mgrwt>
<rscale>  0 0.20560236E+03</rscale>
<asrwt>0</asrwt>
<pdfrwt beam="1">  1        1 0.18876140E+00 0.21004683E+03</pdfrwt>
<pdfrwt beam="2">  1       -1 0.51089089E-02 0.21004683E+03</pdfrwt>
<totfact> 0.18668756E+03</totfact>
</mgrwt>
</event>
<event>
 7    1  0.6008063E-006  0.1425069E+03  0.7546771E-02  0.1220290E+00
          1   -1    0    0  501    0  0.00000000000E+00  0.00000000000E+00  0.12739550534E+04  0.12739550534E+04  0.00000000000E+00 0. -1.
         -1   -1    0    0    0  501 -0.00000000000E+00 -0.00000000000E+00 -0.13849423221E+02  0.13849423221E+02  0.00000000000E+00 0.  1.
         23    2    1    2    0    0  0.68287867216E+02  0.43341280010E+01  0.85526119996E+03  0.86705244770E+03  0.12500483757E+03 0.  0.
          5    1    3    3  502    0  0.21783418693E+02 -0.30880868941E+01  0.76326459643E+03  0.76359608942E+03  0.47000000000E+01 0.  1.
         -5    1    3    3    0  502  0.46504448523E+02  0.74222148951E+01  0.91996603536E+02  0.10345635828E+03  0.47000000000E+01 0.  1.
        -11    1    1    2    0    0  0.43083724498E+01  0.31228862685E+02  0.15435352796E+03  0.15753988553E+03  0.00000000000E+00 0. -1.
         11    1    1    2    0    0 -0.72596239666E+02 -0.35562990686E+02  0.25049090225E+03  0.26321214340E+03  0.00000000000E+00 0.  1.
<mgrwt>
<rscale>  0 0.13495021E+03</rscale>
<asrwt>0</asrwt>
<pdfrwt beam="1">  1        1 0.19599299E+00 0.14250694E+03</pdfrwt>
<pdfrwt beam="2">  1       -1 0.21306815E-02 0.14250694E+03</pdfrwt>
<totfact> 0.62201667E+03</totfact>
</mgrwt>
</event>
<event>
 7    1  0.6008063E-006  0.1342756E+03  0.7546771E-02  0.1231856E+00
         -3   -1    0    0    0  501 -0.00000000000E+00  0.00000000000E+00  0.13080362476E+02  0.13080362476E+02  0.00000000000E+00 0.  1.
          3   -1    0    0  501    0  0.00000000000E+00 -0.00000000000E+00 -0.15259199415E+04  0.15259199415E+04  0.00000000000E+00 0. -1.
         23    2    1    2    0    0 -0.35964903910E+02 -0.33314120394E+02 -0.12127895883E+04  0.12202002025E+04  0.12500657525E+03 0.  0.
          5    1    3    3  502    0 -0.61295356636E+02  0.28111823363E+02 -0.59146232652E+03  0.59531266495E+03  0.47000000000E+01 0. -1.
         -5    1    3    3    0  502  0.25330452727E+02 -0.61425943757E+02 -0.62132726175E+03  0.62488753756E+03  0.47000000000E+01 0. -1.
        -11    1    1    2    0    0  0.44551967085E+02  0.56971910044E+02 -0.14851087109E+03  0.16518521464E+03  0.00000000000E+00 0. -1.
         11    1    1    2    0    0 -0.85870631752E+01 -0.23657789650E+02 -0.15153911970E+03  0.15361488686E+03  0.00000000000E+00 0.  1.
<mgrwt>
<rscale>  0 0.12707836E+03</rscale>
<asrwt>0</asrwt>
<pdfrwt beam="2">  1        3 0.23475680E+00 0.13427564E+03</pdfrwt>
<pdfrwt beam="1">  1       -3 0.20123644E-02 0.13427564E+03</pdfrwt>
<totfact> 0.22502324E+02</totfact>
</mgrwt>
</event>
<event>
 7    1  0.6008063E-006  0.1635721E+03  0.7546771E-02  0.1191915E+00
         -2   -1    0    0    0  501 -0.00000000000E+00  0.00000000000E+00  0.54588353206E+02  0.54588353206E+02  0.00000000000E+00 0.  1.
          2   -1    0    0  501    0  0.00000000000E+00 -0.00000000000E+00 -0.54756576527E+03  0.54756576527E+03  0.00000000000E+00 0. -1.
         23    2    1    2    0    0  0.43011500283E+02 -0.96338458962E+02 -0.40618027598E+03  0.43787925288E+03  0.12499894268E+03 0.  0.
          5    1    3    3  502    0 -0.13475482619E+02 -0.45301589766E+02 -0.31696474445E+03  0.32050360667E+03  0.47000000000E+01 0.  1.
         -5    1    3    3    0  502  0.56486982902E+02 -0.51036869196E+02 -0.89215531535E+02  0.11737564620E+03  0.47000000000E+01 0.  1.
        -11    1    1    2    0    0 -0.62661964833E+02  0.62907255414E+02 -0.26638665396E+02  0.92700933731E+02  0.00000000000E+00 0.  1.
         11    1    1    2    0    0  0.19650464551E+02  0.33431203548E+02 -0.60158470681E+02  0.71573931864E+02  0.00000000000E+00 0. -1.
<mgrwt>
<rscale>  0 0.15718235E+03</rscale>
<asrwt>0</asrwt>
<pdfrwt beam="2">  1        2 0.84240889E-01 0.16357207E+03</pdfrwt>
<pdfrwt beam="1">  1       -2 0.83982080E-02 0.16357207E+03</pdfrwt>
<totfact> 0.47920031E+03</totfact>
</mgrwt>
</event>
<event>
 7    1  0.6008063E-006  0.1617489E+03  0.7546771E-02  0.1194393E+00
         -2   -1    0    0    0  501 -0.00000000000E+00  0.00000000000E+00  0.30599358228E+02  0.30599358228E+02  0.00000000000E+00 0.  1.
          2   -1    0    0  501    0  0.00000000000E+00 -0.00000000000E+00 -0.84436720170E+03  0.84436720170E+03  0.00000000000E+00 0. -1.
         23    2    1    2    0    0  0.15835285139E+02 -0.10142928261E+03 -0.59886981354E+03  0.62032875680E+03  0.12499622921E+03 0.  0.
          5    1    3    3  502    0 -0.45746178979E+02 -0.10360105902E+02 -0.25375989595E+03  0.25810118070E+03  0.47000000000E+01 0. -1.
         -5    1    3    3    0  502  0.61581464118E+02 -0.91069176711E+02 -0.34510991759E+03  0.36222757610E+03  0.47000000000E+01 0. -1.
        -11    1    1    2    0    0  0.25133638716E+02  0.25284055936E+02 -0.18758763745E+02  0.40284916494E+02  0.00000000000E+00 0.  1.
         11    1    1    2    0    0 -0.40968923855E+02  0.76145226677E+02 -0.19613926619E+03  0.21435288664E+03  0.00000000000E+00 0. -1.
<mgrwt>
<rscale>  0 0.15505751E+03</rscale>
<asrwt>0</asrwt>
<pdfrwt beam="2">  1        2 0.12990265E+00 0.16174892E+03</pdfrwt>
<pdfrwt beam="1">  1       -2 0.47075936E-02 0.16174892E+03</pdfrwt>
<totfact> 0.69257285E+03</totfact>
</mgrwt>
</event>
<event>
 7    1  0.6008063E-006  0.1216013E+03  0.7546771E-02  0.1254992E+00
          2   -1    0    0  501    0  0.00000000000E+00  0.00000000000E+00  0.89573415730E+03  0.89573415730E+03  0.00000000000E+00 0. -1.
         -2   -1    0    0    0  501 -0.00000000000E+00 -0.00000000000E+00 -0.17962457187E+02  0.17962457187E+02  0.00000000000E+00 0.  1.
         23    2    1    2    0    0  0.43384825879E+02 -0.11797783261E+02  0.73109822880E+03  0.74114202478E+03  0.11298429066E+03 0.  0.
          5    1    3    3  502    0  0.63493778188E+01 -0.44375008027E+02  0.58768443128E+03  0.58941032965E+03  0.47000000000E+01 0. -1.
         -5    1    3    3    0  502  0.37035448061E+02  0.32577224766E+02  0.14341379753E+03  0.15173169513E+03  0.47000000000E+01 0.  1.
        -11    1    1    2    0    0 -0.38197596582E+02 -0.26855129752E+02  0.10785664748E+03  0.11753004205E+03  0.00000000000E+00 0.  1.
         11    1    1    2    0    0 -0.51872292972E+01  0.38652913014E+02  0.38816823832E+02  0.55024547655E+02  0.00000000000E+00 0. -1.
<mgrwt>
<rscale>  0 0.11306787E+03</rscale>
<asrwt>0</asrwt>
<pdfrwt beam="1">  1        2 0.13780522E+00 0.12160132E+03</pdfrwt>
<pdfrwt beam="2">  1       -2 0.27634556E-02 0.12160132E+03</pdfrwt>
<totfact> 0.13899846E+04</totfact>
</mgrwt>
</event>
<event>
 7    1  0.6008063E-006  0.1186336E+03  0.7546771E-02  0.1252413E+00
         -1   -1    0    0    0  501 -0.00000000000E+00  0.00000000000E+00  0.57650153087E+02  0.57650153087E+02  0.00000000000E+00 0.  1.
          1   -1    0    0  501    0  0.00000000000E+00 -0.00000000000E+00 -0.11255250736E+04  0.11255250736E+04  0.00000000000E+00 0. -1.
         23    2    1    2    0    0  0.12937938974E+02  0.14030770475E+02 -0.10734567626E+04  0.10799922951E+04  0.11708835842E+03 0.  0.
          5    1    3    3  502    0 -0.28104085061E+01  0.49133650905E+02 -0.93232682835E+03  0.93363666322E+03  0.47000000000E+01 0. -1.
         -5    1    3    3    0  502  0.15748347480E+02 -0.35102880430E+02 -0.14112993421E+03  0.14635563191E+03  0.47000000000E+01 0.  1.
        -11    1    1    2    0    0 -0.16425452244E+02 -0.57151421726E+02 -0.69165548971E+00  0.59468974045E+02  0.00000000000E+00 0.  1.
         11    1    1    2    0    0  0.34875132701E+01  0.43120651250E+02  0.62734975018E+01  0.43713957542E+02  0.00000000000E+00 0. -1.
<mgrwt>
<rscale>  0 0.11452458E+03</rscale>
<asrwt>0</asrwt>
<pdfrwt beam="2">  1        1 0.17315770E+00 0.11863362E+03</pdfrwt>
<pdfrwt beam="1">  1       -1 0.88692548E-02 0.11863362E+03</pdfrwt>
<totfact> 0.95803060E+02</totfact>
</mgrwt>
</event>
<event>
 7    1  0.6008063E-006  0.1311927E+03  0.7546771E-02  0.1237150E+00
          1   -1    0    0  501    0  0.00000000000E+00  0.00000000000E+00  0.67536904555E+02  0.67536904555E+02  0.00000000000E+00 0. -1.
         -1   -1    0    0    0  501 -0.00000000000E+00 -0.00000000000E+00 -0.20546511731E+03  0.20546511731E+03  0.00000000000E+00 0.  1.
         23    2    1    2    0    0 -0.33137161778E+01 -0.39681321677E+02 -0.65945534714E+02  0.14683442634E+03  0.12500378877E+03 0.  0.
          5    1    3    3  502    0  0.28423664218E+02  0.26603866538E+02  0.10594495901E+02  0.40620238130E+02  0.47000000000E+01 0.  1.
         -5    1    3    3    0  502 -0.31737380396E+02 -0.66285188215E+02 -0.76540030615E+02  0.10621418821E+03  0.47000000000E+01 0.  1.
        -11    1    1    2    0    0 -0.33104858991E+02  0.22437562925E+02 -0.75789220667E+02  0.85693534693E+02  0.00000000000E+00 0.  1.
         11    1    1    2    0    0  0.36418575168E+02  0.17243758752E+02  0.38065426268E+01  0.40474060828E+02  0.00000000000E+00 0. -1.
<mgrwt>
<rscale>  0 0.12367773E+03</rscale>
<asrwt>0</asrwt>
<pdfrwt beam="1">  1        1 0.10390293E-01 0.13119274E+03</pdfrwt>
<pdfrwt beam="2">  1       -1 0.31610018E-01 0.13119274E+03</pdfrwt>
<totfact> 0.54045213E+03</totfact>
</mgrwt>
</event>
<event>
 7    1  0.6008063E-006  0.1314802E+03  0.7546771E-02  0.1238201E+00
          2   -1    0    0  501    0  0.00000000000E+00  0.00000000000E+00  0.84407365605E+03  0.84407365605E+03  0.00000000000E+00 0. -1.
         -2   -1    0    0    0  501 -0.00000000000E+00 -0.00000000000E+00 -0.18318580614E+02  0.18318580614E+02  0.00000000000E+00 0.  1.
         23    2    1    2    0    0 -0.24295844978E+02  0.32747866995E+02  0.61357103853E+03  0.62750017568E+03  0.12499736109E+03 0.  0.
          5    1    3    3  502    0 -0.27690247606E+02 -0.40392212702E+02  0.14258877273E+03  0.15083742496E+03  0.47000000000E+01 0. -1.
         -5    1    3    3    0  502  0.33944026283E+01  0.73140079697E+02  0.47098226580E+03  0.47666275073E+03  0.47000000000E+01 0. -1.
        -11    1    1    2    0    0  0.38450956739E+02 -0.23574604569E+02  0.21327243777E+03  0.21798938224E+03  0.00000000000E+00 0. -1.
         11    1    1    2    0    0 -0.14155111761E+02 -0.91732624257E+01 -0.10884008632E+01  0.16902678750E+02  0.00000000000E+00 0.  1.
<mgrwt>
<rscale>  0 0.12301709E+03</rscale>
<asrwt>0</asrwt>
<pdfrwt beam="1">  1        2 0.12985745E+00 0.13148023E+03</pdfrwt>
<pdfrwt beam="2">  1       -2 0.28182438E-02 0.13148023E+03</pdfrwt>
<totfact> 0.14655769E+04</totfact>
</mgrwt>
</event>
<event>
 7    1  0.6008063E-006  0.1313137E+03  0.7546771E-02  0.1237760E+00
          4   -1    0    0  501    0  0.00000000000E+00  0.00000000000E+00  0.11696183273E+03  0.11696183273E+03  0.00000000000E+00 0. -1.
         -4   -1    0    0    0  501 -0.00000000000E+00 -0.00000000000E+00 -0.14202134752E+03  0.14202134752E+03  0.00000000000E+00 0.  1.
         23    2    1    2    0    0 -0.40201899957E+02 -0.41081912571E+00  0.40819950976E+02  0.13751197571E+03  0.12500765390E+03 0.  0.
          5    1    3    3  502    0  0.13316645000E+02  0.14834151464E+02  0.71096082985E+02  0.73987350943E+02  0.47000000000E+01 0.  1.
         -5    1    3    3    0  502 -0.53518544957E+02 -0.15244970590E+02 -0.30276132009E+02  0.63524624769E+02  0.47000000000E+01 0.  1.
        -11    1    1    2    0    0  0.20921088405E+02  0.20530349662E+02 -0.83503844683E+02  0.88499035442E+02  0.00000000000E+00 0.  1.
         11    1    1    2    0    0  0.19280811552E+02 -0.20119530536E+02  0.17624378913E+02  0.32972169100E+02  0.00000000000E+00 0. -1.
<mgrwt>
<rscale>  0 0.12329362E+03</rscale>
<asrwt>0</asrwt>
<pdfrwt beam="1">  1        4 0.17994128E-01 0.13131365E+03</pdfrwt>
<pdfrwt beam="2">  1       -4 0.21849438E-01 0.13131365E+03</pdfrwt>
<totfact> 0.86031198E+02</totfact>
</mgrwt>
</event>
<event>
 7    1  0.6008063E-006  0.1399338E+03  0.7546771E-02  0.1223270E+00
         -2   -1    0    0    0  501 -0.00000000000E+00  0.00000000000E+00  0.19666300552E+03  0.19666300552E+03  0.00000000000E+00 0. -1.
          2   -1    0    0  501    0  0.00000000000E+00 -0.00000000000E+00 -0.81790510636E+02  0.81790510636E+02  0.00000000000E+00 0.  1.
         23    2    1    2    0    0 -0.44811309458E+02  0.44185729350E+02  0.63685634131E+02  0.15374439747E+03  0.12498418950E+03 0.  0.
          5    1    3    3  502    0 -0.82388668249E+02  0.27711401028E+02  0.70334270598E+02  0.11191431554E+03  0.47000000000E+01 0. -1.
         -5    1    3    3    0  502  0.37577358791E+02  0.16474328322E+02 -0.66486364663E+01  0.41830081930E+02  0.47000000000E+01 0. -1.
        -11    1    1    2    0    0  0.34539656496E+01 -0.52806202291E+02 -0.63819342434E+01  0.53302476150E+02  0.00000000000E+00 0.  1.
         11    1    1    2    0    0  0.41357343808E+02  0.86204729411E+01  0.57568794997E+02  0.71406642534E+02  0.00000000000E+00 0. -1.
<mgrwt>
<rscale>  0 0.13286219E+03</rscale>
<asrwt>0</asrwt>
<pdfrwt beam="2">  1        2 0.12583156E-01 0.13993384E+03</pdfrwt>
<pdfrwt beam="1">  1       -2 0.30255847E-01 0.13993384E+03</pdfrwt>
<totfact> 0.46363490E+03</totfact>
</mgrwt>
</event>
<event>
 7    1  0.6008063E-006  0.1366578E+03  0.7546771E-02  0.1231367E+00
         -1   -1    0    0    0  501 -0.00000000000E+00  0.00000000000E+00  0.12049876878E+03  0.12049876878E+03  0.00000000000E+00 0.  1.
          1   -1    0    0  501    0  0.00000000000E+00 -0.00000000000E+00 -0.12224731794E+03  0.12224731794E+03  0.00000000000E+00 0. -1.
         23    2    1    2    0    0  0.24191735210E+02  0.49638063183E+02 -0.19399475989E+02  0.13802789655E+03  0.12500473266E+03 0.  0.
          5    1    3    3  502    0  0.29000456396E+02  0.20462614031E+02  0.50547399144E+02  0.61942510479E+02  0.47000000000E+01 0. -1.
         -5    1    3    3    0  502 -0.48087211861E+01  0.29175449152E+02 -0.69946875134E+02  0.76085386071E+02  0.47000000000E+01 0. -1.
        -11    1    1    2    0    0  0.18030746856E+02 -0.35445322024E+02  0.38665266479E+02  0.55466039317E+02  0.00000000000E+00 0.  1.
         11    1    1    2    0    0 -0.42222482066E+02 -0.14192741158E+02 -0.21014339648E+02  0.49252150859E+02  0.00000000000E+00 0. -1.
<mgrwt>
<rscale>  0 0.12739920E+03</rscale>
<asrwt>0</asrwt>
<pdfrwt beam="2">  1        1 0.18807280E-01 0.13665782E+03</pdfrwt>
<pdfrwt beam="1">  1       -1 0.18538272E-01 0.13665782E+03</pdfrwt>
<totfact> 0.60090750E+03</totfact>
</mgrwt>
</event>
<event>
 7    1  0.6008063E-006  0.1377992E+03  0.7546771E-02  0.1226978E+00
         -1   -1    0    0    0  501 -0.00000000000E+00  0.00000000000E+00  0.25806279726E+02  0.25806279726E+02  0.00000000000E+00 0.  1.
          1   -1    0    0  501    0  0.00000000000E+00 -0.00000000000E+00 -0.59714652816E+03  0.59714652816E+03  0.00000000000E+00 0. -1.
         23    2    1    2    0    0  0.57468097826E+02 -0.78398951697E+01 -0.33082582688E+03  0.35837738403E+03  0.12499830173E+03 0.  0.
          5    1    3    3  502    0  0.28759336527E+02  0.33422822941E+02 -0.29021859641E+03  0.29358662815E+03  0.47000000000E+01 0.  1.
         -5    1    3    3    0  502  0.28708761299E+02 -0.41262718110E+02 -0.40607230471E+02  0.64790755882E+02  0.47000000000E+01 0.  1.
        -11    1    1    2    0    0 -0.28016926086E+02 -0.22330342708E+02 -0.22026339859E+02  0.42056533385E+02  0.00000000000E+00 0.  1.
         11    1    1    2    0    0 -0.29451171740E+02  0.30170237877E+02 -0.21848808170E+03  0.22251889047E+03  0.00000000000E+00 0. -1.
<mgrwt>
<rscale>  0 0.13032278E+03</rscale>
<asrwt>0</asrwt>
<pdfrwt beam="2">  1        1 0.91868689E-01 0.13779921E+03</pdfrwt>
<pdfrwt beam="1">  1       -1 0.39701972E-02 0.13779921E+03</pdfrwt>
<totfact> 0.84433705E+03</totfact>
</mgrwt>
</event>
<event>
 7    1  0.6008063E-006  0.1771904E+03  0.7546771E-02  0.1176290E+00
         -2   -1    0    0    0  501 -0.00000000000E+00  0.00000000000E+00  0.90841438647E+02  0.90841438647E+02  0.00000000000E+00 0. -1.
          2   -1    0    0  501    0  0.00000000000E+00 -0.00000000000E+00 -0.34600278348E+03  0.34600278348E+03  0.00000000000E+00 0.  1.
         23    2    1    2    0    0  0.47917031579E+02  0.11608202569E+03 -0.21029319208E+03  0.27499029156E+03  0.12500142083E+03 0.  0.
          5    1    3    3  502    0  0.61701052944E+00  0.12295239665E+03 -0.18057930894E+03  0.21851464335E+03  0.47000000000E+01 0. -1.
         -5    1    3    3    0  502  0.47300021049E+02 -0.68703709547E+01 -0.29713883144E+02  0.56475648202E+02  0.47000000000E+01 0. -1.
        -11    1    1    2    0    0  0.86779652246E+01 -0.66347241475E+02  0.11324296254E+02  0.67863857962E+02  0.00000000000E+00 0. -1.
         11    1    1    2    0    0 -0.56594996803E+02 -0.49734784218E+02 -0.56192449010E+02  0.93990072614E+02  0.00000000000E+00 0.  1.
<mgrwt>
<rscale>  0 0.17150236E+03</rscale>
<asrwt>0</asrwt>
<pdfrwt beam="2">  1        2 0.53231197E-01 0.17719039E+03</pdfrwt>
<pdfrwt beam="1">  1       -2 0.13975606E-01 0.17719039E+03</pdfrwt>
<totfact> 0.35259825E+03</totfact>
</mgrwt>
</event>
<event>
 7    1  0.6008063E-006  0.1640616E+03  0.7546771E-02  0.1191373E+00
         -2   -1    0    0    0  501 -0.00000000000E+00  0.00000000000E+00  0.11898316651E+03  0.11898316651E+03  0.00000000000E+00 0.  1.
          2   -1    0    0  501    0  0.00000000000E+00 -0.00000000000E+00 -0.23308318594E+03  0.23308318594E+03  0.00000000000E+00 0. -1.
         23    2    1    2    0    0  0.84484658011E+02 -0.64466697957E+02 -0.13261753802E+03  0.21095879765E+03  0.12499036094E+03 0.  0.
          5    1    3    3  502    0  0.20443696880E+02 -0.30540015337E+01  0.23300550656E+02  0.31500433780E+02  0.47000000000E+01 0. -1.
         -5    1    3    3    0  502  0.64040961131E+02 -0.61412696423E+02 -0.15591808868E+03  0.17945836387E+03  0.47000000000E+01 0. -1.
        -11    1    1    2    0    0 -0.24737860027E+02 -0.24555390201E+01  0.41610520330E+02  0.48470886032E+02  0.00000000000E+00 0.  1.
         11    1    1    2    0    0 -0.59746797985E+02  0.66922236977E+02 -0.23093001744E+02  0.92636668771E+02  0.00000000000E+00 0. -1.
<mgrwt>
<rscale>  0 0.15765208E+03</rscale>
<asrwt>0</asrwt>
<pdfrwt beam="2">  1        2 0.35858951E-01 0.16406158E+03</pdfrwt>
<pdfrwt beam="1">  1       -2 0.18305103E-01 0.16406158E+03</pdfrwt>
<totfact> 0.34309001E+03</totfact>
</mgrwt>
</event>
<event>
 7    1  0.6008063E-006  0.1613105E+03  0.7546771E-02  0.1193732E+00
         -2   -1    0    0    0  501 -0.00000000000E+00  0.00000000000E+00  0.31735319021E+02  0.31735319021E+02  0.00000000000E+00 0.  1.
          2   -1    0    0  501    0  0.00000000000E+00 -0.00000000000E+00 -0.84049817587E+03  0.84049817587E+03  0.00000000000E+00 0. -1.
         23    2    1    2    0    0 -0.32631137787E+02 -0.96599692865E+02 -0.59789190913E+03  0.61927038523E+03  0.12499913279E+03 0.  0.
          5    1    3    3  502    0 -0.76430801301E+02 -0.75734711995E+02 -0.47517464772E+03  0.48722730817E+03  0.47000000000E+01 0.  1.
         -5    1    3    3    0  502  0.43799663514E+02 -0.20864980869E+02 -0.12271726141E+03  0.13204307706E+03  0.47000000000E+01 0.  1.
        -11    1    1    2    0    0 -0.12011928583E+02  0.64460494573E+02 -0.17603869820E+03  0.18785383960E+03  0.00000000000E+00 0. -1.
         11    1    1    2    0    0  0.44643066370E+02  0.32139198292E+02 -0.34832249517E+02  0.65109270063E+02  0.00000000000E+00 0.  1.
<mgrwt>
<rscale>  0 0.15562073E+03</rscale>
<asrwt>0</asrwt>
<pdfrwt beam="2">  1        2 0.12930740E+00 0.16131049E+03</pdfrwt>
<pdfrwt beam="1">  1       -2 0.48823572E-02 0.16131049E+03</pdfrwt>
<totfact> 0.65938693E+03</totfact>
</mgrwt>
</event>
<event>
 7    1  0.6008063E-006  0.1762981E+03  0.7546771E-02  0.1179085E+00
          2   -1    0    0  501    0  0.00000000000E+00  0.00000000000E+00  0.90474232261E+03  0.90474232261E+03  0.00000000000E+00 0. -1.
         -2   -1    0    0    0  501 -0.00000000000E+00 -0.00000000000E+00 -0.32356146176E+02  0.32356146176E+02  0.00000000000E+00 0.  1.
         23    2    1    2    0    0 -0.12284121016E+03  0.19242414540E+02  0.32203637654E+03  0.36713547358E+03  0.12498317773E+03 0.  0.
          5    1    3    3  502    0 -0.49124016936E+02 -0.43293645993E+02  0.64577470287E+02  0.92086092826E+02  0.47000000000E+01 0.  1.
         -5    1    3    3    0  502 -0.73717193223E+02  0.62536060533E+02  0.25745890625E+03  0.27504938075E+03  0.47000000000E+01 0.  1.
        -11    1    1    2    0    0  0.12969796155E+03 -0.42687024582E+01  0.45261831749E+03  0.47085361247E+03  0.00000000000E+00 0.  1.
         11    1    1    2    0    0 -0.68567513889E+01 -0.14973712082E+02  0.97731482409E+02  0.99109382740E+02  0.00000000000E+00 0. -1.
<mgrwt>
<rscale>  0 0.16881916E+03</rscale>
<asrwt>0</asrwt>
<pdfrwt beam="1">  1        2 0.13919111E+00 0.17629812E+03</pdfrwt>
<pdfrwt beam="2">  1       -2 0.49778693E-02 0.17629812E+03</pdfrwt>
<totfact> 0.58404096E+03</totfact>
</mgrwt>
</event>
<event>
 7    1  0.6008063E-006  0.1821634E+03  0.7546771E-02  0.1171193E+00
          1   -1    0    0  501    0  0.00000000000E+00  0.00000000000E+00  0.51793382719E+03  0.51793382719E+03  0.00000000000E+00 0. -1.
         -1   -1    0    0    0  501 -0.00000000000E+00 -0.00000000000E+00 -0.68610324918E+02  0.68610324918E+02  0.00000000000E+00 0.  1.
         23    2    1    2    0    0 -0.30886883982E+02  0.12887198104E+03  0.35807814888E+03  0.40175050053E+03  0.12498606670E+03 0.  0.
          5    1    3    3  502    0 -0.63217658393E+02  0.95873238978E+02  0.32503557682E+03  0.34475841757E+03  0.47000000000E+01 0.  1.
         -5    1    3    3    0  502  0.32330774410E+02  0.32998742065E+02  0.33042572064E+02  0.56992082963E+02  0.47000000000E+01 0.  1.
        -11    1    1    2    0    0  0.57036481157E+01 -0.13052781693E+03  0.57729067404E+02  0.14283797750E+03  0.00000000000E+00 0.  1.
         11    1    1    2    0    0  0.25183235867E+02  0.16558358819E+01  0.33516285991E+02  0.41955674083E+02  0.00000000000E+00 0. -1.
<mgrwt>
<rscale>  0 0.17654143E+03</rscale>
<asrwt>0</asrwt>
<pdfrwt beam="1">  1        1 0.79682125E-01 0.18216340E+03</pdfrwt>
<pdfrwt beam="2">  1       -1 0.10555435E-01 0.18216340E+03</pdfrwt>
<totfact> 0.23831967E+03</totfact>
</mgrwt>
</event>
<event>
 7    1  0.6008063E-006  0.2026154E+03  0.7546771E-02  0.1149594E+00
         -4   -1    0    0    0  501 -0.00000000000E+00  0.00000000000E+00  0.84601110316E+02  0.84601110316E+02  0.00000000000E+00 0.  1.
          4   -1    0    0  501    0  0.00000000000E+00 -0.00000000000E+00 -0.46952406971E+03  0.46952406971E+03  0.00000000000E+00 0. -1.
         23    2    1    2    0    0 -0.69529394431E+02 -0.15472222486E+03 -0.23084827603E+03  0.30715456768E+03  0.11081380033E+03 0.  0.
          5    1    3    3  502    0 -0.31963598969E+01 -0.12908294155E+03 -0.12676604019E+03  0.18100923033E+03  0.47000000000E+01 0. -1.
         -5    1    3    3    0  502 -0.66333034535E+02 -0.25639283310E+02 -0.10408223583E+03  0.12614533735E+03  0.47000000000E+01 0.  1.
        -11    1    1    2    0    0  0.88289575055E+02  0.10706157510E+03 -0.92020905466E+02  0.16650848918E+03  0.00000000000E+00 0.  1.
         11    1    1    2    0    0 -0.18760180624E+02  0.47660649765E+02 -0.62053777902E+02  0.80462123169E+02  0.00000000000E+00 0. -1.
<mgrwt>
<rscale>  0 0.20017190E+03</rscale>
<asrwt>0</asrwt>
<pdfrwt beam="2">  1        4 0.72234471E-01 0.20261540E+03</pdfrwt>
<pdfrwt beam="1">  1       -4 0.13015556E-01 0.20261540E+03</pdfrwt>
<totfact> 0.15312562E+02</totfact>
</mgrwt>
</event>
<event>
 7    1  0.6008063E-006  0.1255398E+03  0.7546771E-02  0.1249749E+00
          3   -1    0    0  501    0  0.00000000000E+00  0.00000000000E+00  0.15424977524E+03  0.15424977524E+03  0.00000000000E+00 0. -1.
         -3   -1    0    0    0  501 -0.00000000000E+00 -0.00000000000E+00 -0.76770564990E+02  0.76770564990E+02  0.00000000000E+00 0.  1.
         23    2    1    2    0    0 -0.92942621103E+01 -0.68019983583E+01  0.51746097425E+02  0.13578623784E+03  0.12501037276E+03 0.  0.
          5    1    3    3  502    0 -0.63631029911E+01 -0.22053087540E+02 -0.37968960290E+02  0.44615688891E+02  0.47000000000E+01 0.  1.
         -5    1    3    3    0  502 -0.29311591192E+01  0.15251089182E+02  0.89715057715E+02  0.91170548950E+02  0.47000000000E+01 0.  1.
        -11    1    1    2    0    0  0.39532361508E+01  0.40235966962E+02 -0.14226063198E+02  0.42859561215E+02  0.00000000000E+00 0. -1.
         11    1    1    2    0    0  0.53410259596E+01 -0.33433968603E+02  0.39959176028E+02  0.52374541179E+02  0.00000000000E+00 0.  1.
<mgrwt>
<rscale>  0 0.11605622E+03</rscale>
<asrwt>0</asrwt>
<pdfrwt beam="1">  1        3 0.23730735E-01 0.12553981E+03</pdfrwt>
<pdfrwt beam="2">  1       -3 0.11810856E-01 0.12553981E+03</pdfrwt>
<totfact> 0.20829627E+03</totfact>
</mgrwt>
</event>
<event>
 7    1  0.6008063E-006  0.2624650E+03  0.7546771E-02  0.1107849E+00
         -1   -1    0    0    0  501 -0.00000000000E+00  0.00000000000E+00  0.90615933271E+03  0.90615933271E+03  0.00000000000E+00 0. -1.
          1   -1    0    0  501    0  0.00000000000E+00 -0.00000000000E+00 -0.86787522113E+02  0.86787522113E+02  0.00000000000E+00 0.  1.
         23    2    1    2    0    0 -0.15460213029E+03  0.17136492190E+03  0.21395464112E+03  0.33862141849E+03  0.12498048430E+03 0.  0.
          5    1    3    3  502    0 -0.97484982720E+02  0.69098257792E+02  0.34841297267E+02  0.12455479550E+03  0.47000000000E+01 0. -1.
         -5    1    3    3    0  502 -0.57117147567E+02  0.10226666411E+03  0.17911334385E+03  0.21406662299E+03  0.47000000000E+01 0. -1.
        -11    1    1    2    0    0  0.10723869820E+03 -0.16229202894E+03  0.42200787785E+03  0.46468213868E+03  0.00000000000E+00 0.  1.
         11    1    1    2    0    0  0.47363432091E+02 -0.90728929690E+01  0.18340929163E+03  0.18964329765E+03  0.00000000000E+00 0. -1.
<mgrwt>
<rscale>  0 0.25882818E+03</rscale>
<asrwt>0</asrwt>
<pdfrwt beam="2">  1        1 0.13351927E-01 0.26246500E+03</pdfrwt>
<pdfrwt beam="1">  1       -1 0.13940912E+00 0.26246500E+03</pdfrwt>
<totfact> 0.19945065E+02</totfact>
</mgrwt>
</event>
<event>
 7    1  0.6008063E-006  0.1279582E+03  0.7546771E-02  0.1241905E+00
         -2   -1    0    0    0  501 -0.00000000000E+00  0.00000000000E+00  0.30050223748E+03  0.30050223748E+03  0.00000000000E+00 0.  1.
          2   -1    0    0  501    0  0.00000000000E+00 -0.00000000000E+00 -0.99246182998E+02  0.99246182998E+02  0.00000000000E+00 0. -1.
         23    2    1    2    0    0  0.30397477778E+02  0.38237926867E+02 -0.43237501383E+02  0.13506581445E+03  0.11826726935E+03 0.  0.
          5    1    3    3  502    0  0.17124360693E+02  0.58275485312E+01 -0.81129070859E+02  0.83253949993E+02  0.47000000000E+01 0. -1.
         -5    1    3    3    0  502  0.13273117085E+02  0.32410378336E+02  0.37891569476E+02  0.51811864456E+02  0.47000000000E+01 0.  1.
        -11    1    1    2    0    0 -0.10908888962E+02  0.21303180985E+02  0.18741075133E+02  0.30398310408E+02  0.00000000000E+00 0. -1.
         11    1    1    2    0    0 -0.19488588816E+02 -0.59541107853E+02  0.22575248073E+03  0.23428429562E+03  0.00000000000E+00 0.  1.
<mgrwt>
<rscale>  0 0.12072550E+03</rscale>
<asrwt>0</asrwt>
<pdfrwt beam="2">  1        2 0.15268644E-01 0.12795817E+03</pdfrwt>
<pdfrwt beam="1">  1       -2 0.46231113E-01 0.12795817E+03</pdfrwt>
<totfact> 0.16615928E+03</totfact>
</mgrwt>
</event>
<event>
 7    1  0.6008063E-006  0.1254901E+03  0.7546771E-02  0.1249391E+00
          2   -1    0    0  501    0  0.00000000000E+00  0.00000000000E+00  0.53962216528E+03  0.53962216528E+03  0.00000000000E+00 0. -1.
         -2   -1    0    0    0  501 -0.00000000000E+00 -0.00000000000E+00 -0.33721357156E+02  0.33721357156E+02  0.00000000000E+00 0.  1.
         23    2    1    2    0    0  0.10663982888E+02  0.29115893398E+01  0.44566161374E+03  0.46299249002E+03  0.12500229584E+03 0.  0.
          5    1    3    3  502    0  0.29135024062E+02 -0.52426883529E+02  0.15041667230E+03  0.16200213903E+03  0.47000000000E+01 0. -1.
         -5    1    3    3    0  502 -0.18471041174E+02  0.55338472869E+02  0.29524494144E+03  0.30099035099E+03  0.47000000000E+01 0. -1.
        -11    1    1    2    0    0 -0.37332321319E+02 -0.27092915479E+02  0.78574678079E+01  0.46791752313E+02  0.00000000000E+00 0.  1.
         11    1    1    2    0    0  0.26668338431E+02  0.24181326139E+02  0.52381726571E+02  0.63559280102E+02  0.00000000000E+00 0. -1.
<mgrwt>
<rscale>  0 0.11626366E+03</rscale>
<asrwt>0</asrwt>
<pdfrwt beam="1">  1        2 0.83018789E-01 0.12549013E+03</pdfrwt>
<pdfrwt beam="2">  1       -2 0.51879015E-02 0.12549013E+03</pdfrwt>
<totfact> 0.10012857E+04</totfact>
</mgrwt>
</event>
<event>
 6    1  0.6008063E-006  0.1854548E+03  0.7546771E-02  0.1187340E+00
         -1   -1    0    0    0  501 -0.00000000000E+00  0.00000000000E+00  0.22054878677E+02  0.22054878677E+02  0.00000000000E+00 0.  1.
          1   -1    0    0  501    0  0.00000000000E+00 -0.00000000000E+00 -0.12939082455E+04  0.12939082455E+04  0.00000000000E+00 0. -1.
          5    1    1    2  502    0  0.90874349923E+02 -0.26211772254E+02 -0.32011887538E+03  0.33383137788E+03  0.47000000000E+01 0. -1.
         -5    1    1    2    0  502 -0.53917035001E+02 -0.99887439327E+01 -0.76877646870E+03  0.77074390721E+03  0.47000000000E+01 0.  1.
        -11    1    1    2    0    0  0.27109003658E+02  0.27255081684E+02 -0.92593230536E+02  0.10025589209E+03  0.00000000000E+00 0. -1.
         11    1    1    2    0    0 -0.64066318581E+02  0.89454345019E+01 -0.90364792182E+02  0.11113194699E+03  0.00000000000E+00 0.  1.
<mgrwt>
<rscale>  0 0.16120741E+03</rscale>
<asrwt>0</asrwt>
<pdfrwt beam="2">  1        1 0.19906278E+00 0.18545482E+03</pdfrwt>
<pdfrwt beam="1">  1       -1 0.33930587E-02 0.18545482E+03</pdfrwt>
<totfact> 0.30804725E+03</totfact>
</mgrwt>
</event>
<event>
 7    1  0.6008063E-006  0.2616445E+03  0.7546771E-02  0.1108390E+00
          2   -1    0    0  501    0  0.00000000000E+00  0.00000000000E+00  0.10431377338E+04  0.10431377338E+04  0.00000000000E+00 0. -1.
         -2   -1    0    0    0  501 -0.00000000000E+00 -0.00000000000E+00 -0.62099162662E+02  0.62099162662E+02  0.00000000000E+00 0.  1.
         23    2    1    2    0    0  0.22712286695E+03 -0.35338193620E+02  0.48674982766E+03  0.55261489686E+03  0.12499697948E+03 0.  0.
          5    1    3    3  502    0  0.20838979054E+03 -0.53290537372E+02  0.47905022813E+03  0.52514512018E+03  0.47000000000E+01 0.  1.
         -5    1    3    3    0  502  0.18733076409E+02  0.17952343752E+02  0.76995995356E+01  0.27469776682E+02  0.47000000000E+01 0.  1.
        -11    1    1    2    0    0 -0.10790666866E+03  0.60472304330E+02  0.28028257718E+03  0.30636427958E+03  0.00000000000E+00 0.  1.
         11    1    1    2    0    0 -0.11921619829E+03 -0.25134110710E+02  0.21400616627E+03  0.24625772000E+03  0.00000000000E+00 0. -1.
<mgrwt>
<rscale>  0 0.25793597E+03</rscale>
<asrwt>0</asrwt>
<pdfrwt beam="1">  1        2 0.16048272E+00 0.26164447E+03</pdfrwt>
<pdfrwt beam="2">  1       -2 0.95537181E-02 0.26164447E+03</pdfrwt>
<totfact> 0.17631477E+03</totfact>
</mgrwt>
</event>
<event>
 7    1  0.6008063E-006  0.1177235E+03  0.7546771E-02  0.1255222E+00
          2   -1    0    0  501    0  0.00000000000E+00  0.00000000000E+00  0.69674361635E+03  0.69674361635E+03  0.00000000000E+00 0. -1.
         -2   -1    0    0    0  501 -0.00000000000E+00 -0.00000000000E+00 -0.19174348350E+02  0.19174348350E+02  0.00000000000E+00 0.  1.
         23    2    1    2    0    0 -0.26014801771E+02 -0.27639095841E+02  0.48473318241E+03  0.49882370105E+03  0.11143669535E+03 0.  0.
          5    1    3    3  502    0 -0.39022161756E+02 -0.56209932987E+02  0.43093471674E+03  0.43635891851E+03  0.47000000000E+01 0. -1.
         -5    1    3    3    0  502  0.13007359985E+02  0.28570837146E+02  0.53798465670E+02  0.62464782538E+02  0.47000000000E+01 0.  1.
        -11    1    1    2    0    0  0.14534389427E+02 -0.33804330628E+02  0.81246500360E+02  0.89190666922E+02  0.00000000000E+00 0. -1.
         11    1    1    2    0    0  0.11480412345E+02  0.61443426469E+02  0.11158958523E+03  0.12790359673E+03  0.00000000000E+00 0.  1.
<mgrwt>
<rscale>  0 0.11293887E+03</rscale>
<asrwt>0</asrwt>
<pdfrwt beam="1">  1        2 0.10719131E+00 0.11772352E+03</pdfrwt>
<pdfrwt beam="2">  1       -2 0.29499003E-02 0.11772352E+03</pdfrwt>
<totfact> 0.17180615E+04</totfact>
</mgrwt>
</event>
<event>
 6    1  0.6008063E-006  0.4196227E+03  0.7546771E-02  0.1084301E+00
          1   -1    0    0  501    0  0.00000000000E+00  0.00000000000E+00  0.19515156565E+03  0.19515156565E+03  0.00000000000E+00 0. -1.
         -1   -1    0    0    0  501 -0.00000000000E+00 -0.00000000000E+00 -0.49213815132E+03  0.49213815132E+03  0.00000000000E+00 0.  1.
          5    1    1    2  502    0  0.16744925425E+03  0.38072920770E+02  0.58305747297E+02  0.18141237613E+03  0.47000000000E+01 0. -1.
         -5    1    1    2    0  502 -0.18752547195E+03 -0.99264129363E+02 -0.11686064970E+03  0.24227602328E+03  0.47000000000E+01 0.  1.
        -11    1    1    2    0    0  0.34469726885E+02 -0.12902213234E+02 -0.72387148218E+02  0.81206701725E+02  0.00000000000E+00 0.  1.
         11    1    1    2    0    0 -0.14393509191E+02  0.74093421826E+02 -0.16604453504E+03  0.18239461583E+03  0.00000000000E+00 0. -1.
<mgrwt>
<rscale>  0 0.30188765E+03</rscale>
<asrwt>0</asrwt>
<pdfrwt beam="1">  1        1 0.30023318E-01 0.41962267E+03</pdfrwt>
<pdfrwt beam="2">  1       -1 0.75713562E-01 0.41962267E+03</pdfrwt>
<totfact> 0.27578801E+02</totfact>
</mgrwt>
</event>
<event>
 7    1  0.6008063E-006  0.1326464E+03  0.7546771E-02  0.1232940E+00
         -1   -1    0    0    0  501 -0.00000000000E+00  0.00000000000E+00  0.80932455618E+02  0.80932455618E+02  0.00000000000E+00 0.  1.
          1   -1    0    0  501    0  0.00000000000E+00 -0.00000000000E+00 -0.64433719222E+03  0.64433719222E+03  0.00000000000E+00 0. -1.
         23    2    1    2    0    0 -0.48866996112E+02 -0.27781130803E+02 -0.59651786026E+03  0.61108806212E+03  0.12014694136E+03 0.  0.
          5    1    3    3  502    0 -0.69240966131E+01  0.94404427348E+01 -0.49383540975E+03  0.49399652528E+03  0.47000000000E+01 0. -1.
         -5    1    3    3    0  502 -0.41942899499E+02 -0.37221573538E+02 -0.10268245051E+03  0.11709153684E+03  0.47000000000E+01 0.  1.
        -11    1    1    2    0    0  0.24040305347E+02  0.34304158735E+02  0.62451346530E+02  0.75198951264E+02  0.00000000000E+00 0.  1.
         11    1    1    2    0    0  0.24826690765E+02 -0.65230279313E+01 -0.29338222871E+02  0.38982634454E+02  0.00000000000E+00 0. -1.
<mgrwt>
<rscale>  0 0.12637217E+03</rscale>
<asrwt>0</asrwt>
<pdfrwt beam="2">  1        1 0.99128795E-01 0.13264638E+03</pdfrwt>
<pdfrwt beam="1">  1       -1 0.12451147E-01 0.13264638E+03</pdfrwt>
<totfact> 0.13643868E+03</totfact>
</mgrwt>
</event>
<event>
 7    1  0.6008063E-006  0.1280764E+03  0.7546771E-02  0.1244341E+00
          2   -1    0    0  501    0  0.00000000000E+00  0.00000000000E+00  0.14362891932E+04  0.14362891932E+04  0.00000000000E+00 0. -1.
         -2   -1    0    0    0  501 -0.00000000000E+00 -0.00000000000E+00 -0.12615155641E+02  0.12615155641E+02  0.00000000000E+00 0.  1.
         23    2    1    2    0    0 -0.12397258624E+02  0.24967096844E+02  0.11796679465E+04  0.11866002022E+04  0.12500611089E+03 0.  0.
          5    1    3    3  502    0 -0.17382069956E+01  0.69320280726E+02  0.94123062551E+03  0.94379314634E+03  0.47000000000E+01 0. -1.
         -5    1    3    3    0  502 -0.10659051628E+02 -0.44353183881E+02  0.23843732102E+03  0.24280705582E+03  0.47000000000E+01 0. -1.
        -11    1    1    2    0    0  0.47201688544E+02  0.78774508662E+01  0.10809584330E+03  0.11821491011E+03  0.00000000000E+00 0.  1.
         11    1    1    2    0    0 -0.34804429920E+02 -0.32844547710E+02  0.13591024771E+03  0.14408923655E+03  0.00000000000E+00 0. -1.
<mgrwt>
<rscale>  0 0.11924897E+03</rscale>
<asrwt>0</asrwt>
<pdfrwt beam="1">  1        2 0.22096744E+00 0.12807644E+03</pdfrwt>
<pdfrwt beam="2">  1       -2 0.19407943E-02 0.12807644E+03</pdfrwt>
<totfact> 0.11562038E+04</totfact>
</mgrwt>
</event>
<event>
 7    1  0.6008063E-006  0.5020521E+03  0.7546771E-02  0.1013698E+00
         -2   -1    0    0    0  501 -0.00000000000E+00  0.00000000000E+00  0.90798788413E+03  0.90798788413E+03  0.00000000000E+00 0.  1.
          2   -1    0    0  501    0  0.00000000000E+00 -0.00000000000E+00 -0.44240322660E+03  0.44240322660E+03  0.00000000000E+00 0. -1.
         23    2    1    2    0    0  0.32733581607E+03  0.35955944759E+03 -0.18305338342E+03  0.53438264240E+03  0.12499813790E+03 0.  0.
          5    1    3    3  502    0  0.17395925938E+03  0.10357009232E+03 -0.91293320901E+02  0.22213767890E+03  0.47000000000E+01 0. -1.
         -5    1    3    3    0  502  0.15337655669E+03  0.25598935527E+03 -0.91760062520E+02  0.31224496349E+03  0.47000000000E+01 0. -1.
        -11    1    1    2    0    0 -0.38917294994E+02 -0.82607496275E+01  0.65763846636E+02  0.76861429588E+02  0.00000000000E+00 0.  1.
         11    1    1    2    0    0 -0.28841852107E+03 -0.35129869797E+03  0.58287419431E+03  0.73914703874E+03  0.00000000000E+00 0. -1.
<mgrwt>
<rscale>  0 0.50030864E+03</rscale>
<asrwt>0</asrwt>
<pdfrwt beam="2">  1        2 0.68062035E-01 0.50205206E+03</pdfrwt>
<pdfrwt beam="1">  1       -2 0.13969044E+00 0.50205206E+03</pdfrwt>
<totfact> 0.26558013E+01</totfact>
</mgrwt>
</event>
<event>
 7    1  0.6008063E-006  0.1361411E+03  0.7546771E-02  0.1230821E+00
         -1   -1    0    0    0  501 -0.00000000000E+00  0.00000000000E+00  0.15978819163E+02  0.15978819163E+02  0.00000000000E+00 0.  1.
          1   -1    0    0  501    0  0.00000000000E+00 -0.00000000000E+00 -0.91685246135E+03  0.91685246135E+03  0.00000000000E+00 0. -1.
         23    2    1    2    0    0  0.30133025177E+02 -0.44798596628E+02 -0.48217549848E+03  0.50102655536E+03  0.12497793555E+03 0.  0.
          5    1    3    3  502    0  0.67964908245E+02 -0.35548493721E+02 -0.42369622210E+03  0.43060829391E+03  0.47000000000E+01 0.  1.
         -5    1    3    3    0  502 -0.37831883067E+02 -0.92501029063E+01 -0.58479276384E+02  0.70418261457E+02  0.47000000000E+01 0.  1.
        -11    1    1    2    0    0 -0.33350177604E+02 -0.21122816254E+02 -0.14754994360E+03  0.15273962671E+03  0.00000000000E+00 0.  1.
         11    1    1    2    0    0  0.32171524271E+01  0.65921412882E+02 -0.27114820011E+03  0.27906509844E+03  0.00000000000E+00 0. -1.
<mgrwt>
<rscale>  0 0.12775785E+03</rscale>
<asrwt>0</asrwt>
<pdfrwt beam="2">  1        1 0.14105427E+00 0.13614110E+03</pdfrwt>
<pdfrwt beam="1">  1       -1 0.24582791E-02 0.13614110E+03</pdfrwt>
<totfact> 0.90465565E+03</totfact>
</mgrwt>
</event>
<event>
 7    1  0.6008063E-006  0.1273853E+03  0.7546771E-02  0.1245770E+00
          1   -1    0    0  501    0  0.00000000000E+00  0.00000000000E+00  0.75106776737E+03  0.75106776737E+03  0.00000000000E+00 0. -1.
         -1   -1    0    0    0  501 -0.00000000000E+00 -0.00000000000E+00 -0.24929581497E+02  0.24929581497E+02  0.00000000000E+00 0.  1.
         23    2    1    2    0    0  0.14966311192E+02 -0.19572069455E+02  0.62237753443E+03  0.63528011279E+03  0.12497987829E+03 0.  0.
          5    1    3    3  502    0 -0.99510688097E+01  0.40018619230E+02  0.91574028519E+02  0.10054057069E+03  0.47000000000E+01 0.  1.
         -5    1    3    3    0  502  0.24917380001E+02 -0.59590688685E+02  0.53080350591E+03  0.53473954210E+03  0.47000000000E+01 0.  1.
        -11    1    1    2    0    0 -0.39201470189E+02 -0.80534498574E+01  0.11858872592E+02  0.41740222553E+02  0.00000000000E+00 0.  1.
         11    1    1    2    0    0  0.24235158998E+02  0.27625519312E+02  0.91901778849E+02  0.98977013515E+02  0.00000000000E+00 0. -1.
<mgrwt>
<rscale>  0 0.11839436E+03</rscale>
<asrwt>0</asrwt>
<pdfrwt beam="1">  1        1 0.11554887E+00 0.12738535E+03</pdfrwt>
<pdfrwt beam="2">  1       -1 0.38353208E-02 0.12738535E+03</pdfrwt>
<totfact> 0.64015454E+03</totfact>
</mgrwt>
</event>
<event>
 7    1  0.6008063E-006  0.1444355E+03  0.7546771E-02  0.1216758E+00
         -1   -1    0    0    0  501 -0.00000000000E+00  0.00000000000E+00  0.83813666670E+02  0.83813666670E+02  0.00000000000E+00 0. -1.
          1   -1    0    0  501    0  0.00000000000E+00 -0.00000000000E+00 -0.27564700153E+03  0.27564700153E+03  0.00000000000E+00 0.  1.
         23    2    1    2    0    0  0.72258844178E+02 -0.39389998783E+01 -0.19278819029E+03  0.24089191294E+03  0.12499908449E+03 0.  0.
          5    1    3    3  502    0  0.13599326649E+02  0.72425453447E+01 -0.17861195980E+03  0.17933688503E+03  0.47000000000E+01 0. -1.
         -5    1    3    3    0  502  0.58659517529E+02 -0.11181545223E+02 -0.14176230486E+02  0.61555027911E+02  0.47000000000E+01 0. -1.
        -11    1    1    2    0    0  0.12263818027E+02 -0.41892733847E+01  0.26834413939E+02  0.29799949925E+02  0.00000000000E+00 0. -1.
         11    1    1    2    0    0 -0.84522662205E+02  0.81282732629E+01 -0.25879558518E+02  0.88768805340E+02  0.00000000000E+00 0.  1.
<mgrwt>
<rscale>  0 0.13748161E+03</rscale>
<asrwt>0</asrwt>
<pdfrwt beam="2">  1        1 0.42407231E-01 0.14443555E+03</pdfrwt>
<pdfrwt beam="1">  1       -1 0.12894410E-01 0.14443555E+03</pdfrwt>
<totfact> 0.38568175E+03</totfact>
</mgrwt>
</event>
<event>
 7    1  0.6008063E-006  0.1220929E+03  0.7546771E-02  0.1247548E+00
          1   -1    0    0  501    0  0.00000000000E+00  0.00000000000E+00  0.43335601021E+02  0.43335601021E+02  0.00000000000E+00 0. -1.
         -1   -1    0    0    0  501 -0.00000000000E+00 -0.00000000000E+00 -0.30511072723E+03  0.30511072723E+03  0.00000000000E+00 0.  1.
         23    2    1    2    0    0 -0.47810109282E+02 -0.41024429761E+00 -0.10983954280E+03  0.16422969039E+03  0.11234184970E+03 0.  0.
          5    1    3    3  502    0 -0.69160776151E+02  0.34858896686E+02 -0.88056687820E+02  0.11736450019E+03  0.47000000000E+01 0. -1.
         -5    1    3    3    0  502  0.21350666868E+02 -0.35269140984E+02 -0.21782854976E+02  0.46865190198E+02  0.47000000000E+01 0.  1.
        -11    1    1    2    0    0 -0.18560715707E+02 -0.56877696469E+01 -0.93758743543E+02  0.95747338772E+02  0.00000000000E+00 0. -1.
         11    1    1    2    0    0  0.66370824989E+02  0.60980139445E+01 -0.58176839874E+02  0.88469299090E+02  0.00000000000E+00 0.  1.
<mgrwt>
<rscale>  0 0.11734191E+03</rscale>
<asrwt>0</asrwt>
<pdfrwt beam="1">  1        1 0.66670155E-02 0.12209286E+03</pdfrwt>
<pdfrwt beam="2">  1       -1 0.46940112E-01 0.12209286E+03</pdfrwt>
<totfact> 0.48865831E+03</totfact>
</mgrwt>
</event>
<event>
 6    1  0.6008063E-006  0.1702195E+03  0.7546771E-02  0.1189565E+00
         -1   -1    0    0    0  501 -0.00000000000E+00  0.00000000000E+00  0.14776960687E+03  0.14776960687E+03  0.00000000000E+00 0.  1.
          1   -1    0    0  501    0  0.00000000000E+00 -0.00000000000E+00 -0.15284447009E+03  0.15284447009E+03  0.00000000000E+00 0. -1.
          5    1    1    2  502    0  0.55300015597E+02  0.55566617356E+02 -0.67530727077E+02  0.10357716828E+03  0.47000000000E+01 0. -1.
         -5    1    1    2    0  502  0.75775854861E+01  0.11166258819E+02  0.65109947226E+02  0.66659585699E+02  0.47000000000E+01 0.  1.
        -11    1    1    2    0    0  0.10466800109E+02 -0.29833303496E+02 -0.30253604849E+02  0.43759119145E+02  0.00000000000E+00 0. -1.
         11    1    1    2    0    0 -0.73344401193E+02 -0.36899572679E+02  0.27599521479E+02  0.86618203838E+02  0.00000000000E+00 0.  1.
<mgrwt>
<rscale>  0 0.15923373E+03</rscale>
<asrwt>0</asrwt>
<pdfrwt beam="2">  1        1 0.23514534E-01 0.17021954E+03</pdfrwt>
<pdfrwt beam="1">  1       -1 0.22733786E-01 0.17021954E+03</pdfrwt>
<totfact> 0.32945098E+03</totfact>
</mgrwt>
</event>
<event>
 7    1  0.6008063E-006  0.1562204E+03  0.7546771E-02  0.1201586E+00
          1   -1    0    0  501    0  0.00000000000E+00  0.00000000000E+00  0.57781880386E+02  0.57781880386E+02  0.00000000000E+00 0.  1.
         -1   -1    0    0    0  501 -0.00000000000E+00 -0.00000000000E+00 -0.35351271828E+03  0.35351271828E+03  0.00000000000E+00 0. -1.
         23    2    1    2    0    0 -0.75397255501E+02  0.55530549303E+02 -0.16051494384E+03  0.22398627225E+03  0.12504565134E+03 0.  0.
          5    1    3    3  502    0 -0.17025955836E+02 -0.30537584599E+02 -0.33026644465E+01  0.35431974793E+02  0.47000000000E+01 0.  1.
         -5    1    3    3    0  502 -0.58371299665E+02  0.86068133902E+02 -0.15721227939E+03  0.18855429746E+03  0.47000000000E+01 0.  1.
        -11    1    1    2    0    0  0.14546149285E+02  0.12418286968E+02  0.52425751801E+01  0.19831512922E+02  0.00000000000E+00 0.  1.
         11    1    1    2    0    0  0.60851106216E+02 -0.67948836270E+02 -0.14045846924E+03  0.16747681350E+03  0.00000000000E+00 0. -1.
<mgrwt>
<rscale>  0 0.14909750E+03</rscale>
<asrwt>0</asrwt>
<pdfrwt beam="1">  1        1 0.88895199E-02 0.15622037E+03</pdfrwt>
<pdfrwt beam="2">  1       -1 0.54386573E-01 0.15622037E+03</pdfrwt>
<totfact> 0.25720183E+03</totfact>
</mgrwt>
</event>
<event>
 7    1  0.6008063E-006  0.1674605E+03  0.7546771E-02  0.1187298E+00
          1   -1    0    0  501    0  0.00000000000E+00  0.00000000000E+00  0.86904124434E+03  0.86904124434E+03  0.00000000000E+00 0. -1.
         -1   -1    0    0    0  501 -0.00000000000E+00 -0.00000000000E+00 -0.29274719632E+02  0.29274719632E+02  0.00000000000E+00 0.  1.
         23    2    1    2    0    0 -0.49224404613E+02  0.99975176431E+02  0.54724342837E+03  0.57229221142E+03  0.12499970976E+03 0.  0.
          5    1    3    3  502    0 -0.16499430853E+01  0.72214227255E+00  0.31710196164E+03  0.31714190495E+03  0.47000000000E+01 0.  1.
         -5    1    3    3    0  502 -0.47574461527E+02  0.99253034158E+02  0.23014146674E+03  0.25515030647E+03  0.47000000000E+01 0.  1.
        -11    1    1    2    0    0  0.28478301371E+02  0.89903275927E+01  0.93799158753E+02  0.98438416393E+02  0.00000000000E+00 0. -1.
         11    1    1    2    0    0  0.20746103242E+02 -0.10896550402E+03  0.19872393758E+03  0.22758533615E+03  0.00000000000E+00 0.  1.
<mgrwt>
<rscale>  0 0.16124544E+03</rscale>
<asrwt>0</asrwt>
<pdfrwt beam="1">  1        1 0.13369863E+00 0.16746046E+03</pdfrwt>
<pdfrwt beam="2">  1       -1 0.45038037E-02 0.16746046E+03</pdfrwt>
<totfact> 0.40968167E+03</totfact>
</mgrwt>
</event>
<event>
 7    1  0.6008063E-006  0.2376902E+03  0.7546771E-02  0.1124027E+00
         -2   -1    0    0    0  501 -0.00000000000E+00  0.00000000000E+00  0.28441952928E+02  0.28441952928E+02  0.00000000000E+00 0.  1.
          2   -1    0    0  501    0  0.00000000000E+00 -0.00000000000E+00 -0.18718628345E+04  0.18718628345E+04  0.00000000000E+00 0. -1.
         23    2    1    2    0    0  0.53595150512E+02  0.19493738904E+03 -0.10278674584E+04  0.10549920218E+04  0.12499451312E+03 0.  0.
          5    1    3    3  502    0  0.89234117337E+02  0.17133718450E+03 -0.79172621768E+03  0.81496727066E+03  0.47000000000E+01 0.  1.
         -5    1    3    3    0  502 -0.35638966825E+02  0.23600204545E+02 -0.23614124071E+03  0.24002475117E+03  0.47000000000E+01 0.  1.
        -11    1    1    2    0    0 -0.12139699447E+02 -0.13095147589E+03 -0.64825819692E+03  0.66146379433E+03  0.00000000000E+00 0. -1.
         11    1    1    2    0    0 -0.41455451065E+02 -0.63985913149E+02 -0.16729522629E+03  0.18384897129E+03  0.00000000000E+00 0.  1.
<mgrwt>
<rscale>  0 0.23375089E+03</rscale>
<asrwt>0</asrwt>
<pdfrwt beam="2">  1        2 0.28797891E+00 0.23769025E+03</pdfrwt>
<pdfrwt beam="1">  1       -2 0.43756849E-02 0.23769025E+03</pdfrwt>
<totfact> 0.20842257E+03</totfact>
</mgrwt>
</event>
<event>
 7    1  0.6008063E-006  0.1646059E+03  0.7546771E-02  0.1187901E+00
         -2   -1    0    0    0  501 -0.00000000000E+00  0.00000000000E+00  0.26283071424E+03  0.26283071424E+03  0.00000000000E+00 0.  1.
          2   -1    0    0  501    0  0.00000000000E+00 -0.00000000000E+00 -0.11001785125E+03  0.11001785125E+03  0.00000000000E+00 0. -1.
         23    2    1    2    0    0  0.84246600667E+02 -0.81904016139E+02  0.82001847351E+01  0.16481003698E+03  0.11527943301E+03 0.  0.
          5    1    3    3  502    0  0.46740747011E+02 -0.10848933636E+03  0.92648862113E+01  0.11858567220E+03  0.47000000000E+01 0. -1.
         -5    1    3    3    0  502  0.37505853656E+02  0.26585320220E+02 -0.10647014762E+01  0.46224364776E+02  0.47000000000E+01 0.  1.
        -11    1    1    2    0    0 -0.88021469949E+02  0.42849039440E+02  0.13649218789E+03  0.16797004706E+03  0.00000000000E+00 0.  1.
         11    1    1    2    0    0  0.37748692819E+01  0.39054976698E+02  0.81204903608E+01  0.40068481462E+02  0.00000000000E+00 0. -1.
<mgrwt>
<rscale>  0 0.16070727E+03</rscale>
<asrwt>0</asrwt>
<pdfrwt beam="2">  1        2 0.16925823E-01 0.16460591E+03</pdfrwt>
<pdfrwt beam="1">  1       -2 0.40435494E-01 0.16460591E+03</pdfrwt>
<totfact> 0.19278814E+03</totfact>
</mgrwt>
</event>
<event>
 7    1  0.6008063E-006  0.1221864E+03  0.7546771E-02  0.1253924E+00
         -2   -1    0    0    0  501 -0.00000000000E+00  0.00000000000E+00  0.16992432576E+02  0.16992432576E+02  0.00000000000E+00 0.  1.
          2   -1    0    0  501    0  0.00000000000E+00 -0.00000000000E+00 -0.85492255878E+03  0.85492255878E+03  0.00000000000E+00 0. -1.
         23    2    1    2    0    0 -0.58269274323E+01  0.13191988508E+02 -0.66630617195E+03  0.67741673643E+03  0.12133234678E+03 0.  0.
          5    1    3    3  502    0 -0.25598931953E+02  0.48681170369E+01 -0.64877742623E+03  0.64931752069E+03  0.47000000000E+01 0. -1.
         -5    1    3    3    0  502  0.19772004521E+02  0.83238714713E+01 -0.17528745715E+02  0.28099215743E+02  0.47000000000E+01 0.  1.
        -11    1    1    2    0    0  0.27098785979E+02  0.28079141080E+02 -0.44638502555E+02  0.59290625529E+02  0.00000000000E+00 0.  1.
         11    1    1    2    0    0 -0.21271858547E+02 -0.41271129588E+02 -0.12698545170E+03  0.13520762940E+03  0.00000000000E+00 0. -1.
<mgrwt>
<rscale>  0 0.11366819E+03</rscale>
<asrwt>0</asrwt>
<pdfrwt beam="2">  1        2 0.13152657E+00 0.12218642E+03</pdfrwt>
<pdfrwt beam="1">  1       -2 0.26142200E-02 0.12218642E+03</pdfrwt>
<totfact> 0.16009411E+04</totfact>
</mgrwt>
</event>
<event>
 7    1  0.6008063E-006  0.1151045E+03  0.7546771E-02  0.1260069E+00
         -3   -1    0    0    0  501 -0.00000000000E+00  0.00000000000E+00  0.35151192806E+02  0.35151192806E+02  0.00000000000E+00 0.  1.
          3   -1    0    0  501    0  0.00000000000E+00 -0.00000000000E+00 -0.58563591061E+03  0.58563591061E+03  0.00000000000E+00 0. -1.
         23    2    1    2    0    0 -0.22170830094E+02  0.24738725735E+02 -0.49680526682E+03  0.50996521948E+03  0.11020663174E+03 0.  0.
          5    1    3    3  502    0 -0.36114342462E+02  0.48081117631E+02 -0.46014332784E+03  0.46407974720E+03  0.47000000000E+01 0. -1.
         -5    1    3    3    0  502  0.13943512367E+02 -0.23342391897E+02 -0.36661938978E+02  0.45885472279E+02  0.47000000000E+01 0.  1.
        -11    1    1    2    0    0  0.38606547255E+02  0.14233464228E+02 -0.54779194578E+02  0.68511438122E+02  0.00000000000E+00 0.  1.
         11    1    1    2    0    0 -0.16435717161E+02 -0.38972189962E+02  0.10997435948E+01  0.42310445814E+02  0.00000000000E+00 0. -1.
<mgrwt>
<rscale>  0 0.11027075E+03</rscale>
<asrwt>0</asrwt>
<pdfrwt beam="2">  1        3 0.90097829E-01 0.11510453E+03</pdfrwt>
<pdfrwt beam="1">  1       -3 0.54078760E-02 0.11510453E+03</pdfrwt>
<totfact> 0.52233933E+02</totfact>
</mgrwt>
</event>
<event>
 7    1  0.6008063E-006  0.1658896E+03  0.7546771E-02  0.1189260E+00
         -2   -1    0    0    0  501 -0.00000000000E+00  0.00000000000E+00  0.32773933069E+02  0.32773933069E+02  0.00000000000E+00 0.  1.
          2   -1    0    0  501    0  0.00000000000E+00 -0.00000000000E+00 -0.72207694222E+03  0.72207694222E+03  0.00000000000E+00 0. -1.
         23    2    1    2    0    0  0.55762760924E+02 -0.93727366545E+02 -0.36983916772E+03  0.40533981579E+03  0.12500020614E+03 0.  0.
          5    1    3    3  502    0 -0.16295613054E+02 -0.87820397633E+02 -0.24737451402E+03  0.26304792231E+03  0.47000000000E+01 0. -1.
         -5    1    3    3    0  502  0.72058373979E+02 -0.59069689122E+01 -0.12246465370E+03  0.14229189347E+03  0.47000000000E+01 0. -1.
        -11    1    1    2    0    0  0.32990033947E+01  0.28637227811E+02 -0.14762930274E+02  0.32387008976E+02  0.00000000000E+00 0.  1.
         11    1    1    2    0    0 -0.59061764319E+02  0.65090138734E+02 -0.30470091116E+03  0.31712405053E+03  0.00000000000E+00 0. -1.
<mgrwt>
<rscale>  0 0.15950199E+03</rscale>
<asrwt>0</asrwt>
<pdfrwt beam="2">  1        2 0.11108877E+00 0.16588959E+03</pdfrwt>
<pdfrwt beam="1">  1       -2 0.50421433E-02 0.16588959E+03</pdfrwt>
<totfact> 0.75949686E+03</totfact>
</mgrwt>
</event>
<event>
 7    1  0.6008063E-006  0.1882389E+03  0.7546771E-02  0.1165264E+00
          2   -1    0    0  501    0  0.00000000000E+00  0.00000000000E+00  0.58177516072E+03  0.58177516072E+03  0.00000000000E+00 0. -1.
         -2   -1    0    0    0  501 -0.00000000000E+00 -0.00000000000E+00 -0.54933310974E+02  0.54933310974E+02  0.00000000000E+00 0.  1.
         23    2    1    2    0    0  0.10710540193E+03 -0.91270260423E+02  0.31618685222E+03  0.36797827678E+03  0.12502823324E+03 0.  0.
          5    1    3    3  502    0  0.14752432832E+02 -0.31981633133E+02  0.25066421828E+01  0.35620673595E+02  0.47000000000E+01 0.  1.
         -5    1    3    3    0  502  0.92352969095E+02 -0.59288627290E+02  0.31368021004E+03  0.33235760319E+03  0.47000000000E+01 0.  1.
        -11    1    1    2    0    0 -0.10594120346E+03  0.39017476129E+02  0.16098989573E+03  0.19663074165E+03  0.00000000000E+00 0. -1.
         11    1    1    2    0    0 -0.11641984654E+01  0.52252784294E+02  0.49665101791E+02  0.72099453260E+02  0.00000000000E+00 0.  1.
<mgrwt>
<rscale>  0 0.18264865E+03</rscale>
<asrwt>0</asrwt>
<pdfrwt beam="1">  1        2 0.89503867E-01 0.18823891E+03</pdfrwt>
<pdfrwt beam="2">  1       -2 0.84512790E-02 0.18823891E+03</pdfrwt>
<totfact> 0.44566590E+03</totfact>
</mgrwt>
</event>
<event>
 7    1  0.6008063E-006  0.1562355E+03  0.7546771E-02  0.1201455E+00
         -2   -1    0    0    0  501 -0.00000000000E+00  0.00000000000E+00  0.45128802652E+03  0.45128802652E+03  0.00000000000E+00 0. -1.
          2   -1    0    0  501    0  0.00000000000E+00 -0.00000000000E+00 -0.45381686289E+02  0.45381686289E+02  0.00000000000E+00 0.  1.
         23    2    1    2    0    0  0.90235602524E+02  0.25133007946E+02  0.22529037892E+03  0.27416289995E+03  0.12504162836E+03 0.  0.
          5    1    3    3  502    0 -0.46597584686E+01  0.54325876363E+02  0.10240424198E+03  0.11611086498E+03  0.47000000000E+01 0. -1.
         -5    1    3    3    0  502  0.94895360993E+02 -0.29192868417E+02  0.12288613694E+03  0.15805203496E+03  0.47000000000E+01 0. -1.
        -11    1    1    2    0    0 -0.17559000099E+02 -0.96475795605E+01 -0.65912916061E+01  0.21091216202E+02  0.00000000000E+00 0.  1.
         11    1    1    2    0    0 -0.72676602425E+02 -0.15485428385E+02  0.18720725292E+03  0.20141559666E+03  0.00000000000E+00 0. -1.
<mgrwt>
<rscale>  0 0.14920364E+03</rscale>
<asrwt>0</asrwt>
<pdfrwt beam="2">  1        2 0.69817982E-02 0.15623553E+03</pdfrwt>
<pdfrwt beam="1">  1       -2 0.69428924E-01 0.15623553E+03</pdfrwt>
<totfact> 0.19120262E+03</totfact>
</mgrwt>
</event>
<event>
 7    1  0.6008063E-006  0.1397705E+03  0.7546771E-02  0.1223779E+00
         -3   -1    0    0    0  501 -0.00000000000E+00  0.00000000000E+00  0.28148806320E+02  0.28148806320E+02  0.00000000000E+00 0.  1.
          3   -1    0    0  501    0  0.00000000000E+00 -0.00000000000E+00 -0.72956981961E+03  0.72956981961E+03  0.00000000000E+00 0. -1.
         23    2    1    2    0    0  0.17472653538E+02  0.60042342495E+02 -0.55770661751E+03  0.57495430458E+03  0.12500161848E+03 0.  0.
          5    1    3    3  502    0  0.57491356846E+02  0.20195313300E+02 -0.44102280176E+03  0.44523736193E+03  0.47000000000E+01 0. -1.
         -5    1    3    3    0  502 -0.40018703308E+02  0.39847029194E+02 -0.11668381575E+03  0.12971694264E+03  0.47000000000E+01 0. -1.
        -11    1    1    2    0    0 -0.52883778606E+02 -0.24735256047E+02 -0.10251050575E+03  0.11797004163E+03  0.00000000000E+00 0.  1.
         11    1    1    2    0    0  0.35411125068E+02 -0.35307086447E+02 -0.41203890026E+02  0.64794279727E+02  0.00000000000E+00 0. -1.
<mgrwt>
<rscale>  0 0.13250917E+03</rscale>
<asrwt>0</asrwt>
<pdfrwt beam="2">  1        3 0.11224151E+00 0.13977046E+03</pdfrwt>
<pdfrwt beam="1">  1       -3 0.43305856E-02 0.13977046E+03</pdfrwt>
<totfact> 0.46366757E+02</totfact>
</mgrwt>
</event>
<event>
 7    1  0.6008063E-006  0.2771268E+03  0.7546771E-02  0.1099226E+00
          2   -1    0    0  501    0  0.00000000000E+00  0.00000000000E+00  0.29126386009E+03  0.29126386009E+03  0.00000000000E+00 0. -1.
         -2   -1    0    0    0  501 -0.00000000000E+00 -0.00000000000E+00 -0.25944885749E+03  0.25944885749E+03  0.00000000000E+00 0.  1.
         23    2    1    2    0    0 -0.74500817295E+02 -0.23583891981E+03  0.66738924608E+02  0.28504976495E+03  0.12501566528E+03 0.  0.
          5    1    3    3  502    0 -0.52035927167E+02 -0.11950104033E+03  0.97152670754E+02  0.16263138624E+03  0.47000000000E+01 0. -1.
         -5    1    3    3    0  502 -0.22464890128E+02 -0.11633787949E+03 -0.30413746146E+02  0.12241837871E+03  0.47000000000E+01 0. -1.
        -11    1    1    2    0    0  0.89860002482E+02  0.22756841433E+03 -0.38980142736E+02  0.24775321345E+03  0.00000000000E+00 0.  1.
         11    1    1    2    0    0 -0.15359185187E+02  0.82705054842E+01  0.40562207281E+01  0.17909739171E+02  0.00000000000E+00 0. -1.
<mgrwt>
<rscale>  0 0.27361842E+03</rscale>
<asrwt>0</asrwt>
<pdfrwt beam="1">  1        2 0.44809825E-01 0.27712684E+03</pdfrwt>
<pdfrwt beam="2">  1       -2 0.39915209E-01 0.27712684E+03</pdfrwt>
<totfact> 0.67757065E+02</totfact>
</mgrwt>
</event>
<event>
 7    1  0.6008063E-006  0.1435730E+03  0.7546771E-02  0.1218935E+00
         -1   -1    0    0    0  501 -0.00000000000E+00  0.00000000000E+00  0.19441984248E+03  0.19441984248E+03  0.00000000000E+00 0.  1.
          1   -1    0    0  501    0  0.00000000000E+00 -0.00000000000E+00 -0.88672350600E+02  0.88672350600E+02  0.00000000000E+00 0. -1.
         23    2    1    2    0    0  0.18076852151E+02 -0.68271999832E+02  0.34869785148E+02  0.14774678316E+03  0.12500148589E+03 0.  0.
          5    1    3    3  502    0  0.22068344388E+02 -0.93613214103E+02  0.58400878628E+02  0.11261970655E+03  0.47000000000E+01 0.  1.
         -5    1    3    3    0  502 -0.39914922366E+01  0.25341214271E+02 -0.23531093480E+02  0.35127076613E+02  0.47000000000E+01 0.  1.
        -11    1    1    2    0    0 -0.32880784483E+01  0.20317172143E+02  0.81492791752E+02  0.84051615400E+02  0.00000000000E+00 0.  1.
         11    1    1    2    0    0 -0.14788773703E+02  0.47954827689E+02 -0.10615085019E+02  0.51293794520E+02  0.00000000000E+00 0. -1.
<mgrwt>
<rscale>  0 0.13591411E+03</rscale>
<asrwt>0</asrwt>
<pdfrwt beam="2">  1        1 0.13641900E-01 0.14357301E+03</pdfrwt>
<pdfrwt beam="1">  1       -1 0.29910745E-01 0.14357301E+03</pdfrwt>
<totfact> 0.41725083E+03</totfact>
</mgrwt>
</event>
<event>
 6    1  0.6008063E-006  0.1937186E+03  0.7546771E-02  0.1162330E+00
          3   -1    0    0  501    0  0.00000000000E+00  0.00000000000E+00  0.22390282545E+03  0.22390282545E+03  0.00000000000E+00 0. -1.
         -3   -1    0    0    0  501 -0.00000000000E+00 -0.00000000000E+00 -0.19322295367E+03  0.19322295367E+03  0.00000000000E+00 0.  1.
          5    1    1    2  502    0 -0.80268378565E+02  0.40790252540E+02  0.12707837334E+03  0.15581354328E+03  0.47000000000E+01 0. -1.
         -5    1    1    2    0  502 -0.56278294105E+02 -0.46741977446E+02 -0.44712205532E+01  0.73444813678E+02  0.47000000000E+01 0.  1.
        -11    1    1    2    0    0  0.37310651105E+02  0.22561313306E+02  0.99044584651E+01  0.44712367881E+02  0.00000000000E+00 0. -1.
         11    1    1    2    0    0  0.99236021565E+02 -0.16609588401E+02 -0.10183173947E+03  0.14315505428E+03  0.00000000000E+00 0.  1.
<mgrwt>
<rscale>  0 0.18577335E+03</rscale>
<asrwt>0</asrwt>
<pdfrwt beam="1">  1        3 0.34446589E-01 0.19371856E+03</pdfrwt>
<pdfrwt beam="2">  1       -3 0.29726608E-01 0.19371856E+03</pdfrwt>
<totfact> 0.22002130E+02</totfact>
</mgrwt>
</event>
<event>
 7    1  0.6008063E-006  0.1375360E+03  0.7546771E-02  0.1229444E+00
          1   -1    0    0  501    0  0.00000000000E+00  0.00000000000E+00  0.28856056768E+03  0.28856056768E+03  0.00000000000E+00 0. -1.
         -1   -1    0    0    0  501 -0.00000000000E+00 -0.00000000000E+00 -0.60018808846E+02  0.60018808846E+02  0.00000000000E+00 0.  1.
         23    2    1    2    0    0  0.40638081503E+02 -0.40566796770E+02  0.19380142494E+03  0.23764497309E+03  0.12497608676E+03 0.  0.
          5    1    3    3  502    0 -0.32106390910E+02 -0.41618888594E+02  0.13168860433E+03  0.14186941438E+03  0.47000000000E+01 0.  1.
         -5    1    3    3    0  502  0.72744472413E+02  0.10520918239E+01  0.62112820603E+02  0.95775558714E+02  0.47000000000E+01 0.  1.
        -11    1    1    2    0    0 -0.11741122153E+02  0.63035605029E+02  0.60086954129E+01  0.64400666699E+02  0.00000000000E+00 0.  1.
         11    1    1    2    0    0 -0.28896959350E+02 -0.22468808259E+02  0.28731638487E+02  0.46533736734E+02  0.00000000000E+00 0. -1.
<mgrwt>
<rscale>  0 0.12866943E+03</rscale>
<asrwt>0</asrwt>
<pdfrwt beam="1">  1        1 0.44393933E-01 0.13753596E+03</pdfrwt>
<pdfrwt beam="2">  1       -1 0.92336631E-02 0.13753596E+03</pdfrwt>
<totfact> 0.60695335E+03</totfact>
</mgrwt>
</event>
<event>
 7    1  0.6008063E-006  0.1575093E+03  0.7546771E-02  0.1200993E+00
         -2   -1    0    0    0  501 -0.00000000000E+00  0.00000000000E+00  0.12762418814E+02  0.12762418814E+02  0.00000000000E+00 0.  1.
          2   -1    0    0  501    0  0.00000000000E+00 -0.00000000000E+00 -0.15991790458E+04  0.15991790458E+04  0.00000000000E+00 0. -1.
         23    2    1    2    0    0 -0.65547633935E+02  0.69900613422E+02 -0.89753616292E+03  0.91125207627E+03  0.12500637852E+03 0.  0.
          5    1    3    3  502    0  0.15251320586E+02  0.74513152646E+02 -0.40983165059E+03  0.41685595176E+03  0.47000000000E+01 0.  1.
         -5    1    3    3    0  502 -0.80798954521E+02 -0.46125392241E+01 -0.48770451234E+03  0.49439612450E+03  0.47000000000E+01 0.  1.
        -11    1    1    2    0    0  0.60700249021E+02 -0.87964707494E+02 -0.62702513748E+03  0.63606826129E+03  0.00000000000E+00 0. -1.
         11    1    1    2    0    0  0.48473849134E+01  0.18064094072E+02 -0.61855326620E+02  0.64621127091E+02  0.00000000000E+00 0.  1.
<mgrwt>
<rscale>  0 0.14957741E+03</rscale>
<asrwt>0</asrwt>
<pdfrwt beam="2">  1        2 0.24602746E+00 0.15750931E+03</pdfrwt>
<pdfrwt beam="1">  1       -2 0.19634498E-02 0.15750931E+03</pdfrwt>
<totfact> 0.94328400E+03</totfact>
</mgrwt>
</event>
<event>
 7    1  0.6008063E-006  0.1330880E+03  0.7546771E-02  0.1235573E+00
          1   -1    0    0  501    0  0.00000000000E+00  0.00000000000E+00  0.14780792351E+04  0.14780792351E+04  0.00000000000E+00 0. -1.
         -1   -1    0    0    0  501 -0.00000000000E+00 -0.00000000000E+00 -0.10215960076E+02  0.10215960076E+02  0.00000000000E+00 0.  1.
         23    2    1    2    0    0 -0.86583270998E+01 -0.44856146458E+02  0.10316953232E+04  0.10402440351E+04  0.12500148843E+03 0.  0.
          5    1    3    3  502    0  0.51646211626E+02 -0.16775232501E+02  0.25881809907E+03  0.26449506235E+03  0.47000000000E+01 0. -1.
         -5    1    3    3    0  502 -0.60304538726E+02 -0.28080913957E+02  0.77287722415E+03  0.77574897275E+03  0.47000000000E+01 0. -1.
        -11    1    1    2    0    0 -0.52764913287E+01 -0.25369079855E+02  0.63768290656E+02  0.68831871010E+02  0.00000000000E+00 0.  1.
         11    1    1    2    0    0  0.13934818428E+02  0.70225226314E+02  0.37239966119E+03  0.37921928910E+03  0.00000000000E+00 0. -1.
<mgrwt>
<rscale>  0 0.12467829E+03</rscale>
<asrwt>0</asrwt>
<pdfrwt beam="1">  1        1 0.22739664E+00 0.13308799E+03</pdfrwt>
<pdfrwt beam="2">  1       -1 0.15716873E-02 0.13308799E+03</pdfrwt>
<totfact> 0.70510756E+03</totfact>
</mgrwt>
</event>
<event>
 7    1  0.6008063E-006  0.1622152E+03  0.7546771E-02  0.1193841E+00
         -2   -1    0    0    0  501 -0.00000000000E+00  0.00000000000E+00  0.22088990582E+02  0.22088990582E+02  0.00000000000E+00 0.  1.
          2   -1    0    0  501    0  0.00000000000E+00 -0.00000000000E+00 -0.10697551254E+04  0.10697551254E+04  0.00000000000E+00 0. -1.
         23    2    1    2    0    0  0.10338599541E+03  0.37967672907E+00 -0.69000907689E+03  0.70882035924E+03  0.12499986910E+03 0.  0.
          5    1    3    3  502    0  0.80847746270E+02 -0.19120426179E+02 -0.18432332535E+03  0.20223532590E+03  0.47000000000E+01 0. -1.
         -5    1    3    3    0  502  0.22538249136E+02  0.19500102908E+02 -0.50568575154E+03  0.50658503334E+03  0.47000000000E+01 0. -1.
        -11    1    1    2    0    0 -0.98388873141E+02 -0.30267452166E+02 -0.23282220744E+03  0.25456368417E+03  0.00000000000E+00 0.  1.
         11    1    1    2    0    0 -0.49971222643E+01  0.29887775437E+02 -0.12483485047E+03  0.12846007257E+03  0.00000000000E+00 0. -1.
<mgrwt>
<rscale>  0 0.15552692E+03</rscale>
<asrwt>0</asrwt>
<pdfrwt beam="2">  1        2 0.16457773E+00 0.16221521E+03</pdfrwt>
<pdfrwt beam="1">  1       -2 0.33983058E-02 0.16221521E+03</pdfrwt>
<totfact> 0.81792333E+03</totfact>
</mgrwt>
</event>
<event>
 6    1  0.6008063E-006  0.2974951E+03  0.7546771E-02  0.1107468E+00
         -2   -1    0    0    0  501 -0.00000000000E+00  0.00000000000E+00  0.38596081645E+02  0.38596081645E+02  0.00000000000E+00 0.  1.
          2   -1    0    0  501    0  0.00000000000E+00 -0.00000000000E+00 -0.14596802559E+04  0.14596802559E+04  0.00000000000E+00 0. -1.
          5    1    1    2  502    0 -0.16871423308E+02 -0.11970197910E+03 -0.91136337928E+03  0.91935766044E+03  0.47000000000E+01 0. -1.
         -5    1    1    2    0  502 -0.86091462937E+02  0.13356421633E+02 -0.90356694872E+02  0.12560476224E+03  0.47000000000E+01 0.  1.
        -11    1    1    2    0    0  0.10847866744E+03  0.57944298030E+02 -0.31432231850E+03  0.33752582549E+03  0.00000000000E+00 0.  1.
         11    1    1    2    0    0 -0.55157811917E+01  0.48401259440E+02 -0.10504178158E+03  0.11578808935E+03  0.00000000000E+00 0. -1.
<mgrwt>
<rscale>  0 0.25946055E+03</rscale>
<asrwt>0</asrwt>
<pdfrwt beam="2">  1        2 0.22456620E+00 0.29749514E+03</pdfrwt>
<pdfrwt beam="1">  1       -2 0.59378586E-02 0.29749514E+03</pdfrwt>
<totfact> 0.21565257E+03</totfact>
</mgrwt>
</event>
<event>
 7    1  0.6008063E-006  0.2989748E+03  0.7546771E-02  0.1087389E+00
         -3   -1    0    0    0  501 -0.00000000000E+00  0.00000000000E+00  0.73298189074E+02  0.73298189074E+02  0.00000000000E+00 0.  1.
          3   -1    0    0  501    0  0.00000000000E+00 -0.00000000000E+00 -0.11866292325E+04  0.11866292325E+04  0.00000000000E+00 0. -1.
         23    2    1    2    0    0  0.18556180579E+03 -0.19830974116E+03 -0.64724491470E+03  0.71295996661E+03  0.12500398862E+03 0.  0.
          5    1    3    3  502    0  0.19360666713E+03 -0.16293211775E+03 -0.61153604190E+03  0.66183747030E+03  0.47000000000E+01 0. -1.
         -5    1    3    3    0  502 -0.80448613393E+01 -0.35377623406E+02 -0.35708872802E+02  0.51122496307E+02  0.47000000000E+01 0. -1.
        -11    1    1    2    0    0 -0.11135332612E+03  0.14372255614E+03 -0.37826879361E+03  0.41969395588E+03  0.00000000000E+00 0. -1.
         11    1    1    2    0    0 -0.74208479673E+02  0.54587185016E+02 -0.87817335111E+02  0.12727349909E+03  0.00000000000E+00 0.  1.
<mgrwt>
<rscale>  0 0.29574065E+03</rscale>
<asrwt>0</asrwt>
<pdfrwt beam="2">  1        3 0.18255835E+00 0.29897481E+03</pdfrwt>
<pdfrwt beam="1">  1       -3 0.11276644E-01 0.29897481E+03</pdfrwt>
<totfact> 0.31080312E+01</totfact>
</mgrwt>
</event>
<event>
 7    1  0.6008063E-006  0.1463706E+03  0.7546771E-02  0.1215066E+00
         -2   -1    0    0    0  501 -0.00000000000E+00  0.00000000000E+00  0.34884087581E+03  0.34884087581E+03  0.00000000000E+00 0.  1.
          2   -1    0    0  501    0  0.00000000000E+00 -0.00000000000E+00 -0.50264698252E+02  0.50264698252E+02  0.00000000000E+00 0. -1.
         23    2    1    2    0    0 -0.72922272241E+02 -0.21946726593E+02  0.15445566467E+03  0.21279307711E+03  0.12500009889E+03 0.  0.
          5    1    3    3  502    0 -0.10174249234E+03  0.23729545065E+01  0.13762595377E+03  0.17123130208E+03  0.47000000000E+01 0.  1.
         -5    1    3    3    0  502  0.28820220098E+02 -0.24319681100E+02  0.16829710904E+02  0.41561775039E+02  0.47000000000E+01 0.  1.
        -11    1    1    2    0    0  0.18237028607E+01  0.12243300705E+02 -0.10255030275E+02  0.16074512441E+02  0.00000000000E+00 0. -1.
         11    1    1    2    0    0  0.71098569380E+02  0.97034258881E+01  0.15437554317E+03  0.17023798451E+03  0.00000000000E+00 0.  1.
<mgrwt>
<rscale>  0 0.13871693E+03</rscale>
<asrwt>0</asrwt>
<pdfrwt beam="2">  1        2 0.77330307E-02 0.14637056E+03</pdfrwt>
<pdfrwt beam="1">  1       -2 0.53667825E-01 0.14637056E+03</pdfrwt>
<totfact> 0.28483430E+03</totfact>
</mgrwt>
</event>
<event>
 7    1  0.6008063E-006  0.1657569E+03  0.7546771E-02  0.1189005E+00
         -2   -1    0    0    0  501 -0.00000000000E+00  0.00000000000E+00  0.18658436254E+02  0.18658436254E+02  0.00000000000E+00 0.  1.
          2   -1    0    0  501    0  0.00000000000E+00 -0.00000000000E+00 -0.15085517673E+04  0.15085517673E+04  0.00000000000E+00 0. -1.
         23    2    1    2    0    0 -0.77792968480E+02 -0.76235283262E+02 -0.10902559669E+04  0.11027843906E+04  0.12494708630E+03 0.  0.
          5    1    3    3  502    0 -0.49308617552E+02 -0.92448671999E+02 -0.10169910536E+04  0.10223849519E+04  0.47000000000E+01 0.  1.
         -5    1    3    3    0  502 -0.28484350928E+02  0.16213388737E+02 -0.73264913299E+02  0.80399438697E+02  0.47000000000E+01 0.  1.
        -11    1    1    2    0    0  0.44662021693E+02  0.39135484356E+02 -0.34684809474E+03  0.35189470463E+03  0.00000000000E+00 0. -1.
         11    1    1    2    0    0  0.33130946787E+02  0.37099798906E+02 -0.52789269375E+02  0.72531108327E+02  0.00000000000E+00 0.  1.
<mgrwt>
<rscale>  0 0.15972757E+03</rscale>
<asrwt>0</asrwt>
<pdfrwt beam="2">  1        2 0.23208495E+00 0.16575687E+03</pdfrwt>
<pdfrwt beam="1">  1       -2 0.28705278E-02 0.16575687E+03</pdfrwt>
<totfact> 0.60383618E+03</totfact>
</mgrwt>
</event>
<event>
 6    1  0.6008063E-006  0.2504509E+03  0.7546771E-02  0.1128065E+00
         -2   -1    0    0    0  501 -0.00000000000E+00  0.00000000000E+00  0.85273799422E+02  0.85273799422E+02  0.00000000000E+00 0.  1.
          2   -1    0    0  501    0  0.00000000000E+00 -0.00000000000E+00 -0.54308526670E+03  0.54308526670E+03  0.00000000000E+00 0. -1.
          5    1    1    2  502    0  0.36482085685E+02 -0.72590365544E+02 -0.29051709965E+03  0.30169948448E+03  0.47000000000E+01 0. -1.
         -5    1    1    2    0  502 -0.81191576507E+02 -0.66365488736E+02 -0.38525829748E+02  0.11181582960E+03  0.47000000000E+01 0.  1.
        -11    1    1    2    0    0  0.53188313411E+02  0.75236159145E+02 -0.11792827841E+03  0.14965478667E+03  0.00000000000E+00 0. -1.
         11    1    1    2    0    0 -0.84788225897E+01  0.63719695135E+02 -0.10840259471E+02  0.65188965370E+02  0.00000000000E+00 0.  1.
<mgrwt>
<rscale>  0 0.22798713E+03</rscale>
<asrwt>0</asrwt>
<pdfrwt beam="2">  1        2 0.83551578E-01 0.25045092E+03</pdfrwt>
<pdfrwt beam="1">  1       -2 0.13119046E-01 0.25045092E+03</pdfrwt>
<totfact> 0.24104803E+03</totfact>
</mgrwt>
</event>
<event>
 7    1  0.6008063E-006  0.1252290E+03  0.7546771E-02  0.1249813E+00
         -2   -1    0    0    0  501 -0.00000000000E+00  0.00000000000E+00  0.15708688851E+03  0.15708688851E+03  0.00000000000E+00 0.  1.
          2   -1    0    0  501    0  0.00000000000E+00 -0.00000000000E+00 -0.92050649516E+02  0.92050649516E+02  0.00000000000E+00 0. -1.
         23    2    1    2    0    0  0.74982882373E+01 -0.86193958470E+01 -0.16122857751E+02  0.12626260115E+03  0.12470677446E+03 0.  0.
          5    1    3    3  502    0 -0.15758786895E+02 -0.43069561487E+01 -0.67446340711E+02  0.69555647585E+02  0.47000000000E+01 0. -1.
         -5    1    3    3    0  502  0.23257075133E+02 -0.43124396983E+01  0.51323482960E+02  0.56706953569E+02  0.47000000000E+01 0.  1.
        -11    1    1    2    0    0  0.23898067361E+02  0.39682673032E+02  0.53477367872E+02  0.70750696372E+02  0.00000000000E+00 0.  1.
         11    1    1    2    0    0 -0.31396355599E+02 -0.31063277185E+02  0.27681728872E+02  0.52124240500E+02  0.00000000000E+00 0. -1.
<mgrwt>
<rscale>  0 0.11601899E+03</rscale>
<asrwt>0</asrwt>
<pdfrwt beam="2">  1        2 0.14161638E-01 0.12522898E+03</pdfrwt>
<pdfrwt beam="1">  1       -2 0.24167214E-01 0.12522898E+03</pdfrwt>
<totfact> 0.59484607E+03</totfact>
</mgrwt>
</event>
<event>
 7    1  0.6008063E-006  0.1401862E+03  0.7546771E-02  0.1224347E+00
          2   -1    0    0  501    0  0.00000000000E+00  0.00000000000E+00  0.24270731724E+03  0.24270731724E+03  0.00000000000E+00 0. -1.
         -2   -1    0    0    0  501 -0.00000000000E+00 -0.00000000000E+00 -0.70524374132E+02  0.70524374132E+02  0.00000000000E+00 0.  1.
         23    2    1    2    0    0 -0.53961482795E+02  0.33390618364E+02  0.13983561157E+03  0.19800549373E+03  0.12500160905E+03 0.  0.
          5    1    3    3  502    0  0.10870070198E+01 -0.22446087795E+02 -0.12842074676E+02  0.26306222145E+02  0.47000000000E+01 0.  1.
         -5    1    3    3    0  502 -0.55048489814E+02  0.55836706159E+02  0.15267768624E+03  0.17169927158E+03  0.47000000000E+01 0.  1.
        -11    1    1    2    0    0  0.17336375947E+02 -0.54135258849E+02 -0.74125058821E+01  0.57324701701E+02  0.00000000000E+00 0.  1.
         11    1    1    2    0    0  0.36625106847E+02  0.20744640485E+02  0.39759837423E+02  0.57901495942E+02  0.00000000000E+00 0. -1.
<mgrwt>
<rscale>  0 0.13211756E+03</rscale>
<asrwt>0</asrwt>
<pdfrwt beam="1">  1        2 0.37339587E-01 0.14018622E+03</pdfrwt>
<pdfrwt beam="2">  1       -2 0.10849904E-01 0.14018622E+03</pdfrwt>
<totfact> 0.76298952E+03</totfact>
</mgrwt>
</event>
<event>
 7    1  0.6008063E-006  0.1388001E+03  0.7546771E-02  0.1226174E+00
         -3   -1    0    0    0  501 -0.00000000000E+00  0.00000000000E+00  0.26920201475E+02  0.26920201475E+02  0.00000000000E+00 0.  1.
          3   -1    0    0  501    0  0.00000000000E+00 -0.00000000000E+00 -0.82476781249E+03  0.82476781249E+03  0.00000000000E+00 0. -1.
         23    2    1    2    0    0  0.24594785794E+02 -0.55082106509E+02 -0.66537451819E+03  0.67969751972E+03  0.12500610750E+03 0.  0.
          5    1    3    3  502    0  0.69017420400E+02 -0.33733455320E+02 -0.52989182479E+03  0.53545194584E+03  0.47000000000E+01 0.  1.
         -5    1    3    3    0  502 -0.44422634606E+02 -0.21348651189E+02 -0.13548269340E+03  0.14424557388E+03  0.47000000000E+01 0.  1.
        -11    1    1    2    0    0  0.19300872801E+02  0.22896081336E+02 -0.10842347306E+03  0.11248290422E+03  0.00000000000E+00 0. -1.
         11    1    1    2    0    0 -0.43895658595E+02  0.32186025174E+02 -0.24049619771E+02  0.59507590029E+02  0.00000000000E+00 0.  1.
<mgrwt>
<rscale>  0 0.13086780E+03</rscale>
<asrwt>0</asrwt>
<pdfrwt beam="2">  1        3 0.12688737E+00 0.13880010E+03</pdfrwt>
<pdfrwt beam="1">  1       -3 0.41415691E-02 0.13880010E+03</pdfrwt>
<totfact> 0.37233629E+02</totfact>
</mgrwt>
</event>
<event>
 7    1  0.6008063E-006  0.1328732E+03  0.7546771E-02  0.1236105E+00
          2   -1    0    0  501    0  0.00000000000E+00  0.00000000000E+00  0.10122276172E+04  0.10122276172E+04  0.00000000000E+00 0. -1.
         -2   -1    0    0    0  501 -0.00000000000E+00 -0.00000000000E+00 -0.14041241876E+02  0.14041241876E+02  0.00000000000E+00 0.  1.
         23    2    1    2    0    0  0.34769344015E+02  0.28729064942E+02  0.65191255863E+03  0.66531591013E+03  0.12498403785E+03 0.  0.
          5    1    3    3  502    0 -0.38564852343E+02  0.12333976793E+02  0.40840690756E+03  0.41043594746E+03  0.47000000000E+01 0.  1.
         -5    1    3    3    0  502  0.73334196358E+02  0.16395088149E+02  0.24350565107E+03  0.25487996268E+03  0.47000000000E+01 0.  1.
        -11    1    1    2    0    0 -0.64924811624E+02 -0.24523401849E+02  0.20479963065E+03  0.21623949019E+03  0.00000000000E+00 0.  1.
         11    1    1    2    0    0  0.30155467609E+02 -0.42056630933E+01  0.14147418605E+03  0.14471345877E+03  0.00000000000E+00 0. -1.
<mgrwt>
<rscale>  0 0.12433985E+03</rscale>
<asrwt>0</asrwt>
<pdfrwt beam="1">  1        2 0.15572727E+00 0.13287316E+03</pdfrwt>
<pdfrwt beam="2">  1       -2 0.21601919E-02 0.13287316E+03</pdfrwt>
<totfact> 0.17002494E+04</totfact>
</mgrwt>
</event>
<event>
 7    1  0.6008063E-006  0.1437095E+03  0.7546771E-02  0.1218380E+00
          1   -1    0    0  501    0  0.00000000000E+00  0.00000000000E+00  0.62562134627E+03  0.62562134627E+03  0.00000000000E+00 0. -1.
         -1   -1    0    0    0  501 -0.00000000000E+00 -0.00000000000E+00 -0.27705841690E+02  0.27705841690E+02  0.00000000000E+00 0.  1.
         23    2    1    2    0    0 -0.37663900072E+02 -0.60079752653E+02  0.38077098240E+03  0.40698766334E+03  0.12499708410E+03 0.  0.
          5    1    3    3  502    0 -0.12238432927E+02  0.51090202436E+01  0.29871611315E+03  0.29904729991E+03  0.47000000000E+01 0. -1.
         -5    1    3    3    0  502 -0.25425467145E+02 -0.65188772897E+02  0.82054869245E+02  0.10794036343E+03  0.47000000000E+01 0. -1.
        -11    1    1    2    0    0 -0.86247668863E+01  0.55226086241E+02  0.58088418356E+02  0.80613718140E+02  0.00000000000E+00 0.  1.
         11    1    1    2    0    0  0.46288666958E+02  0.48536664126E+01  0.15905610383E+03  0.16572580647E+03  0.00000000000E+00 0. -1.
<mgrwt>
<rscale>  0 0.13631134E+03</rscale>
<asrwt>0</asrwt>
<pdfrwt beam="1">  1        1 0.96249427E-01 0.14370949E+03</pdfrwt>
<pdfrwt beam="2">  1       -1 0.42624377E-02 0.14370949E+03</pdfrwt>
<totfact> 0.71532991E+03</totfact>
</mgrwt>
</event>
<event>
 7    1  0.6008063E-006  0.1321557E+03  0.7546771E-02  0.1237053E+00
          2   -1    0    0  501    0  0.00000000000E+00  0.00000000000E+00  0.26846916929E+04  0.26846916929E+04  0.00000000000E+00 0. -1.
         -2   -1    0    0    0  501 -0.00000000000E+00 -0.00000000000E+00 -0.78923650643E+01  0.78923650643E+01  0.00000000000E+00 0.  1.
         23    2    1    2    0    0 -0.40712879066E+02 -0.13506991447E+02  0.22495040915E+04  0.22533827429E+04  0.12500060319E+03 0.  0.
          5    1    3    3  502    0 -0.17855488574E+02  0.36563441134E+02  0.18042548815E+04  0.18047197763E+04  0.47000000000E+01 0.  1.
         -5    1    3    3    0  502 -0.22857390492E+02 -0.50070432581E+02  0.44524921003E+03  0.44866296655E+03  0.47000000000E+01 0.  1.
        -11    1    1    2    0    0 -0.12812971075E+02  0.33449713033E+02  0.86036120901E+02  0.93194794004E+02  0.00000000000E+00 0.  1.
         11    1    1    2    0    0  0.53525850140E+02 -0.19942721585E+02  0.34125911541E+03  0.34600652108E+03  0.00000000000E+00 0. -1.
<mgrwt>
<rscale>  0 0.12373893E+03</rscale>
<asrwt>0</asrwt>
<pdfrwt beam="1">  1        2 0.41302876E+00 0.13215570E+03</pdfrwt>
<pdfrwt beam="2">  1       -2 0.12142122E-02 0.13215570E+03</pdfrwt>
<totfact> 0.51049650E+03</totfact>
</mgrwt>
</event>
<event>
 7    1  0.6008063E-006  0.1624864E+03  0.7546771E-02  0.1192526E+00
          1   -1    0    0  501    0  0.00000000000E+00  0.00000000000E+00  0.48411970273E+03  0.48411970273E+03  0.00000000000E+00 0. -1.
         -1   -1    0    0    0  501 -0.00000000000E+00 -0.00000000000E+00 -0.49163738812E+02  0.49163738812E+02  0.00000000000E+00 0.  1.
         23    2    1    2    0    0  0.10330803640E+03 -0.95702099401E+01  0.28356723634E+03  0.32682137724E+03  0.12505077287E+03 0.  0.
          5    1    3    3  502    0  0.11511757473E+03 -0.10155339410E+02  0.13525363314E+03  0.17796297988E+03  0.47000000000E+01 0.  1.
         -5    1    3    3    0  502 -0.11809538326E+02  0.58512946992E+00  0.14831360320E+03  0.14885839736E+03  0.47000000000E+01 0.  1.
        -11    1    1    2    0    0 -0.68080900154E+02  0.37315721769E+02  0.14017618689E+03  0.16023993081E+03  0.00000000000E+00 0. -1.
         11    1    1    2    0    0 -0.35227136251E+02 -0.27745511828E+02  0.11212540693E+02  0.46222133484E+02  0.00000000000E+00 0.  1.
<mgrwt>
<rscale>  0 0.15665462E+03</rscale>
<asrwt>0</asrwt>
<pdfrwt beam="1">  1        1 0.74479951E-01 0.16248642E+03</pdfrwt>
<pdfrwt beam="2">  1       -1 0.75636524E-02 0.16248642E+03</pdfrwt>
<totfact> 0.43138926E+03</totfact>
</mgrwt>
</event>
<event>
 6    1  0.6008063E-006  0.2898735E+03  0.7546771E-02  0.1128616E+00
         -1   -1    0    0    0  501 -0.00000000000E+00  0.00000000000E+00  0.10902918689E+03  0.10902918689E+03  0.00000000000E+00 0.  1.
          1   -1    0    0  501    0  0.00000000000E+00 -0.00000000000E+00 -0.50716627203E+03  0.50716627203E+03  0.00000000000E+00 0. -1.
          5    1    1    2  502    0  0.10319895924E+02 -0.16267907260E+03 -0.34894947341E+03  0.38517373470E+03  0.47000000000E+01 0. -1.
         -5    1    1    2    0  502 -0.17498837965E+02  0.99544171394E+02 -0.65291662903E+02  0.12041736849E+03  0.47000000000E+01 0.  1.
        -11    1    1    2    0    0  0.10533316391E+02 -0.87951262284E+01 -0.24394263383E+02  0.27989017231E+02  0.00000000000E+00 0. -1.
         11    1    1    2    0    0 -0.33543743497E+01  0.71930027430E+02  0.40498314557E+02  0.82615338499E+02  0.00000000000E+00 0.  1.
<mgrwt>
<rscale>  0 0.22721459E+03</rscale>
<asrwt>0</asrwt>
<pdfrwt beam="2">  1        1 0.78025582E-01 0.28987350E+03</pdfrwt>
<pdfrwt beam="1">  1       -1 0.16773721E-01 0.28987350E+03</pdfrwt>
<totfact> 0.11909411E+03</totfact>
</mgrwt>
</event>
<event>
 7    1  0.6008063E-006  0.1722168E+03  0.7546771E-02  0.1180306E+00
          3   -1    0    0  501    0  0.00000000000E+00  0.00000000000E+00  0.18834330811E+03  0.18834330811E+03  0.00000000000E+00 0. -1.
         -3   -1    0    0    0  501 -0.00000000000E+00 -0.00000000000E+00 -0.15245278132E+03  0.15245278132E+03  0.00000000000E+00 0.  1.
         23    2    1    2    0    0  0.16237271554E+01  0.11845389683E+03  0.63661913320E+02  0.18360684929E+03  0.12499869493E+03 0.  0.
          5    1    3    3  502    0 -0.48127951312E+02  0.98298451993E+02  0.68984688664E+02  0.12945988812E+03  0.47000000000E+01 0. -1.
         -5    1    3    3    0  502  0.49751678467E+02  0.20155444837E+02 -0.53227753443E+01  0.54146961173E+02  0.47000000000E+01 0. -1.
        -11    1    1    2    0    0 -0.48467992665E+02 -0.53261025792E+02  0.68777265627E+00  0.72016360729E+02  0.00000000000E+00 0. -1.
         11    1    1    2    0    0  0.46844265510E+02 -0.65192871037E+02 -0.28459159190E+02  0.85172879410E+02  0.00000000000E+00 0.  1.
<mgrwt>
<rscale>  0 0.16766441E+03</rscale>
<asrwt>0</asrwt>
<pdfrwt beam="1">  1        3 0.28975894E-01 0.17221683E+03</pdfrwt>
<pdfrwt beam="2">  1       -3 0.23454274E-01 0.17221683E+03</pdfrwt>
<totfact> 0.46302188E+02</totfact>
</mgrwt>
</event>
<event>
 7    1  0.6008063E-006  0.1704157E+03  0.7546771E-02  0.1183922E+00
          2   -1    0    0  501    0  0.00000000000E+00  0.00000000000E+00  0.43454030015E+03  0.43454030015E+03  0.00000000000E+00 0. -1.
         -2   -1    0    0    0  501 -0.00000000000E+00 -0.00000000000E+00 -0.58251408825E+02  0.58251408825E+02  0.00000000000E+00 0.  1.
         23    2    1    2    0    0 -0.28500770207E+01  0.11579725790E+03  0.21602732242E+03  0.27515323470E+03  0.12499748261E+03 0.  0.
          5    1    3    3  502    0 -0.44556395380E+02  0.87364071056E+02  0.70012796442E+02  0.12058870157E+03  0.47000000000E+01 0. -1.
         -5    1    3    3    0  502  0.41706318360E+02  0.28433186844E+02  0.14601452598E+03  0.15456453313E+03  0.47000000000E+01 0. -1.
        -11    1    1    2    0    0 -0.43946936773E+02 -0.55597411935E+02  0.72598717199E+02  0.10145432078E+03  0.00000000000E+00 0.  1.
         11    1    1    2    0    0  0.46797013794E+02 -0.60199845965E+02  0.87662851704E+02  0.11618415349E+03  0.00000000000E+00 0. -1.
<mgrwt>
<rscale>  0 0.16430334E+03</rscale>
<asrwt>0</asrwt>
<pdfrwt beam="1">  1        2 0.66852352E-01 0.17041566E+03</pdfrwt>
<pdfrwt beam="2">  1       -2 0.89617555E-02 0.17041566E+03</pdfrwt>
<totfact> 0.55987295E+03</totfact>
</mgrwt>
</event>
<event>
 7    1  0.6008063E-006  0.1165723E+03  0.7546771E-02  0.1258890E+00
         -4   -1    0    0    0  501 -0.00000000000E+00  0.00000000000E+00  0.45610832450E+02  0.45610832450E+02  0.00000000000E+00 0.  1.
          4   -1    0    0  501    0  0.00000000000E+00 -0.00000000000E+00 -0.25847460310E+03  0.25847460310E+03  0.00000000000E+00 0. -1.
         23    2    1    2    0    0 -0.55957118863E+01 -0.25194750270E+02 -0.14897037812E+03  0.18915937099E+03  0.11367940290E+03 0.  0.
          5    1    3    3  502    0 -0.19722312810E+02 -0.51148249224E+02 -0.22914131534E+02  0.59600842655E+02  0.47000000000E+01 0. -1.
         -5    1    3    3    0  502  0.14126600923E+02  0.25953498955E+02 -0.12605624659E+03  0.12955852834E+03  0.47000000000E+01 0.  1.
        -11    1    1    2    0    0 -0.16626423117E+02 -0.18269597565E+02 -0.61244367055E+02  0.66038539027E+02  0.00000000000E+00 0. -1.
         11    1    1    2    0    0  0.22222135004E+02  0.43464347835E+02 -0.26490254778E+01  0.48887525534E+02  0.00000000000E+00 0.  1.
<mgrwt>
<rscale>  0 0.11091220E+03</rscale>
<asrwt>0</asrwt>
<pdfrwt beam="2">  1        4 0.39765323E-01 0.11657227E+03</pdfrwt>
<pdfrwt beam="1">  1       -4 0.70170513E-02 0.11657227E+03</pdfrwt>
<totfact> 0.13455609E+03</totfact>
</mgrwt>
</event>
<event>
 6    1  0.6008063E-006  0.1964372E+03  0.7546771E-02  0.1178666E+00
         -1   -1    0    0    0  501 -0.00000000000E+00  0.00000000000E+00  0.54070471520E+02  0.54070471520E+02  0.00000000000E+00 0.  1.
          1   -1    0    0  501    0  0.00000000000E+00 -0.00000000000E+00 -0.57778737765E+03  0.57778737765E+03  0.00000000000E+00 0. -1.
          5    1    1    2  502    0  0.11574502993E+03  0.10394121840E+02 -0.21837931551E+03  0.24741981563E+03  0.47000000000E+01 0. -1.
         -5    1    1    2    0  502 -0.69780306633E+02  0.18972682278E+02 -0.25505631130E+03  0.26515102452E+03  0.47000000000E+01 0.  1.
        -11    1    1    2    0    0  0.66367056366E+01 -0.42073906730E+02 -0.49316047482E+02  0.65163885922E+02  0.00000000000E+00 0. -1.
         11    1    1    2    0    0 -0.52601428931E+02  0.12707102612E+02 -0.96523183580E+00  0.54123123107E+02  0.00000000000E+00 0.  1.
<mgrwt>
<rscale>  0 0.16921799E+03</rscale>
<asrwt>0</asrwt>
<pdfrwt beam="2">  1        1 0.88890364E-01 0.19643720E+03</pdfrwt>
<pdfrwt beam="1">  1       -1 0.83185342E-02 0.19643720E+03</pdfrwt>
<totfact> 0.29703719E+03</totfact>
</mgrwt>
</event>
<event>
 7    1  0.6008063E-006  0.1284166E+03  0.7546771E-02  0.1243449E+00
          2   -1    0    0  501    0  0.00000000000E+00  0.00000000000E+00  0.21560568533E+03  0.21560568533E+03  0.00000000000E+00 0. -1.
         -2   -1    0    0    0  501 -0.00000000000E+00 -0.00000000000E+00 -0.59476727655E+02  0.59476727655E+02  0.00000000000E+00 0.  1.
         23    2    1    2    0    0  0.34622758748E+01  0.29225320717E+02  0.10050871249E+03  0.16307307610E+03  0.12499888054E+03 0.  0.
          5    1    3    3  502    0  0.37304887038E+02  0.65461169644E+02  0.77569191259E+02  0.10823995917E+03  0.47000000000E+01 0. -1.
         -5    1    3    3    0  502 -0.33842611163E+02 -0.36235848927E+02  0.22939521232E+02  0.54833116929E+02  0.47000000000E+01 0. -1.
        -11    1    1    2    0    0 -0.47598232469E+02 -0.80825316612E+01  0.28219063664E+02  0.55921682792E+02  0.00000000000E+00 0.  1.
         11    1    1    2    0    0  0.44135956594E+02 -0.21142789055E+02  0.27401181525E+02  0.56087654100E+02  0.00000000000E+00 0. -1.
<mgrwt>
<rscale>  0 0.11978685E+03</rscale>
<asrwt>0</asrwt>
<pdfrwt beam="1">  1        2 0.33170105E-01 0.12841661E+03</pdfrwt>
<pdfrwt beam="2">  1       -2 0.91502659E-02 0.12841661E+03</pdfrwt>
<totfact> 0.11243808E+04</totfact>
</mgrwt>
</event>
<event>
 7    1  0.6008063E-006  0.1665203E+03  0.7546771E-02  0.1188657E+00
         -1   -1    0    0    0  501 -0.00000000000E+00  0.00000000000E+00  0.73118028499E+03  0.73118028499E+03  0.00000000000E+00 0.  1.
          1   -1    0    0  501    0  0.00000000000E+00 -0.00000000000E+00 -0.40447215824E+02  0.40447215824E+02  0.00000000000E+00 0. -1.
         23    2    1    2    0    0  0.10952979161E+02  0.10947257793E+03  0.19743087009E+03  0.25827881114E+03  0.12499913100E+03 0.  0.
          5    1    3    3  502    0 -0.31225417397E+01  0.44581701169E+01 -0.17327051907E+02  0.18760124613E+02  0.47000000000E+01 0. -1.
         -5    1    3    3    0  502  0.14075520901E+02  0.10501440782E+03  0.21475792199E+03  0.23951868653E+03  0.47000000000E+01 0. -1.
        -11    1    1    2    0    0  0.17071752340E+02 -0.99407108674E+02  0.44744029062E+03  0.45866767016E+03  0.00000000000E+00 0.  1.
         11    1    1    2    0    0 -0.28024731501E+02 -0.10065469260E+02  0.45861908465E+02  0.54681019515E+02  0.00000000000E+00 0. -1.
<mgrwt>
<rscale>  0 0.16003499E+03</rscale>
<asrwt>0</asrwt>
<pdfrwt beam="2">  1        1 0.62226491E-02 0.16652026E+03</pdfrwt>
<pdfrwt beam="1">  1       -1 0.11248926E+00 0.16652026E+03</pdfrwt>
<totfact> 0.93681291E+02</totfact>
</mgrwt>
</event>
<event>
 7    1  0.6008063E-006  0.1376513E+03  0.7546771E-02  0.1227891E+00
          1   -1    0    0  501    0  0.00000000000E+00  0.00000000000E+00  0.25948852266E+03  0.25948852266E+03  0.00000000000E+00 0. -1.
         -1   -1    0    0    0  501 -0.00000000000E+00 -0.00000000000E+00 -0.92106010945E+02  0.92106010945E+02  0.00000000000E+00 0.  1.
         23    2    1    2    0    0 -0.20299265178E+02  0.53914552490E+02  0.19586601668E+03  0.23939797462E+03  0.12501621744E+03 0.  0.
          5    1    3    3  502    0 -0.72026751035E+02  0.23904743269E+02  0.90979244448E+02  0.11856897797E+03  0.47000000000E+01 0. -1.
         -5    1    3    3    0  502  0.51727485858E+02  0.30009809221E+02  0.10488677223E+03  0.12082899665E+03  0.47000000000E+01 0. -1.
        -11    1    1    2    0    0  0.96353308443E+01 -0.58156098482E+02 -0.56665325647E+02  0.81767539536E+02  0.00000000000E+00 0.  1.
         11    1    1    2    0    0  0.10663934333E+02  0.42415459924E+01  0.28181820678E+02  0.30429019448E+02  0.00000000000E+00 0. -1.
<mgrwt>
<rscale>  0 0.12970705E+03</rscale>
<asrwt>0</asrwt>
<pdfrwt beam="1">  1        1 0.39921311E-01 0.13765135E+03</pdfrwt>
<pdfrwt beam="2">  1       -1 0.14170156E-01 0.13765135E+03</pdfrwt>
<totfact> 0.35797760E+03</totfact>
</mgrwt>
</event>
<event>
 7    1  0.6008063E-006  0.2157129E+03  0.7546771E-02  0.1140689E+00
         -1   -1    0    0    0  501 -0.00000000000E+00  0.00000000000E+00  0.38856256703E+02  0.38856256703E+02  0.00000000000E+00 0.  1.
          1   -1    0    0  501    0  0.00000000000E+00 -0.00000000000E+00 -0.11013404421E+04  0.11013404421E+04  0.00000000000E+00 0. -1.
         23    2    1    2    0    0 -0.10803375895E+03  0.13869777718E+03 -0.56873788092E+03  0.60827200380E+03  0.12499474767E+03 0.  0.
          5    1    3    3  502    0 -0.24593217640E+02  0.18192915898E+02 -0.30448963946E+03  0.30605855499E+03  0.47000000000E+01 0.  1.
         -5    1    3    3    0  502 -0.83440541309E+02  0.12050486129E+03 -0.26424824146E+03  0.30221344881E+03  0.47000000000E+01 0.  1.
        -11    1    1    2    0    0  0.60696276139E+02 -0.88673712953E+02 -0.17137113950E+03  0.20227489405E+03  0.00000000000E+00 0.  1.
         11    1    1    2    0    0  0.47337482811E+02 -0.50024064231E+02 -0.32237516494E+03  0.32964980092E+03  0.00000000000E+00 0. -1.
<mgrwt>
<rscale>  0 0.21111072E+03</rscale>
<asrwt>0</asrwt>
<pdfrwt beam="2">  1        1 0.16943700E+00 0.21571290E+03</pdfrwt>
<pdfrwt beam="1">  1       -1 0.59778853E-02 0.21571290E+03</pdfrwt>
<totfact> 0.18071801E+03</totfact>
</mgrwt>
</event>
<event>
 7    1  0.6008063E-006  0.1391321E+03  0.7546771E-02  0.1232632E+00
         -1   -1    0    0    0  501 -0.00000000000E+00  0.00000000000E+00  0.18617515328E+02  0.18617515328E+02  0.00000000000E+00 0.  1.
          1   -1    0    0  501    0  0.00000000000E+00 -0.00000000000E+00 -0.99505541323E+03  0.99505541323E+03  0.00000000000E+00 0. -1.
         23    2    1    2    0    0 -0.31206229085E+02  0.52573634106E+02 -0.81018807849E+03  0.82204773421E+03  0.12497975461E+03 0.  0.
          5    1    3    3  502    0  0.90902118990E+01  0.85848700464E+02 -0.52555451360E+03  0.53261831370E+03  0.47000000000E+01 0. -1.
         -5    1    3    3    0  502 -0.40296440985E+02 -0.33275066358E+02 -0.28463356489E+03  0.28942942051E+03  0.47000000000E+01 0. -1.
        -11    1    1    2    0    0  0.35430223122E+02 -0.68651275642E+02 -0.12252496316E+03  0.14484703985E+03  0.00000000000E+00 0. -1.
         11    1    1    2    0    0 -0.42239940364E+01  0.16077641536E+02 -0.43724856259E+02  0.46778154493E+02  0.00000000000E+00 0.  1.
<mgrwt>
<rscale>  0 0.12657228E+03</rscale>
<asrwt>0</asrwt>
<pdfrwt beam="2">  1        1 0.15308544E+00 0.13913215E+03</pdfrwt>
<pdfrwt beam="1">  1       -1 0.28642333E-02 0.13913215E+03</pdfrwt>
<totfact> 0.63406762E+03</totfact>
</mgrwt>
</event>
<event>
 7    1  0.6008063E-006  0.1531582E+03  0.7546771E-02  0.1205878E+00
          1   -1    0    0  501    0  0.00000000000E+00  0.00000000000E+00  0.12957762843E+03  0.12957762843E+03  0.00000000000E+00 0. -1.
         -1   -1    0    0    0  501 -0.00000000000E+00 -0.00000000000E+00 -0.16046156061E+03  0.16046156061E+03  0.00000000000E+00 0.  1.
         23    2    1    2    0    0 -0.13752338432E+02 -0.87433281386E+02  0.20523350168E+02  0.15452711823E+03  0.12499486733E+03 0.  0.
          5    1    3    3  502    0 -0.44592581619E+02 -0.10182144603E+03  0.35875473566E+02  0.11689843802E+03  0.47000000000E+01 0.  1.
         -5    1    3    3    0  502  0.30840243187E+02  0.14388164645E+02 -0.15352123398E+02  0.37628680212E+02  0.47000000000E+01 0.  1.
        -11    1    1    2    0    0  0.17776809460E+02  0.47850927493E+02 -0.73893659923E+02  0.89810907986E+02  0.00000000000E+00 0.  1.
         11    1    1    2    0    0 -0.40244710277E+01  0.39582353894E+02  0.22486377582E+02  0.45701162825E+02  0.00000000000E+00 0. -1.
<mgrwt>
<rscale>  0 0.14568488E+03</rscale>
<asrwt>0</asrwt>
<pdfrwt beam="1">  1        1 0.19935020E-01 0.15315816E+03</pdfrwt>
<pdfrwt beam="2">  1       -1 0.24686394E-01 0.15315816E+03</pdfrwt>
<totfact> 0.35323227E+03</totfact>
</mgrwt>
</event>
<event>
 7    1  0.6008063E-006  0.1558459E+03  0.7546771E-02  0.1202073E+00
          2   -1    0    0  501    0  0.00000000000E+00  0.00000000000E+00  0.96743999386E+03  0.96743999386E+03  0.00000000000E+00 0. -1.
         -2   -1    0    0    0  501 -0.00000000000E+00 -0.00000000000E+00 -0.27652003458E+02  0.27652003458E+02  0.00000000000E+00 0.  1.
         23    2    1    2    0    0 -0.34770523643E+02  0.87990720725E+02  0.74657600095E+03  0.76266879021E+03  0.12384103572E+03 0.  0.
          5    1    3    3  502    0 -0.65009048577E+02  0.86895373813E+02  0.68848576225E+03  0.69700194921E+03  0.47000000000E+01 0. -1.
         -5    1    3    3    0  502  0.30238524934E+02  0.10953469124E+01  0.58090238700E+02  0.65666841003E+02  0.47000000000E+01 0.  1.
        -11    1    1    2    0    0  0.38221906136E+01 -0.89707395503E+02  0.10099803781E+03  0.13513929699E+03  0.00000000000E+00 0.  1.
         11    1    1    2    0    0  0.30948333029E+02  0.17166747782E+01  0.92213951647E+02  0.97283910119E+02  0.00000000000E+00 0. -1.
<mgrwt>
<rscale>  0 0.14870570E+03</rscale>
<asrwt>0</asrwt>
<pdfrwt beam="1">  1        2 0.14883690E+00 0.15584594E+03</pdfrwt>
<pdfrwt beam="2">  1       -2 0.42541551E-02 0.15584594E+03</pdfrwt>
<totfact> 0.67260121E+03</totfact>
</mgrwt>
</event>
<event>
 6    1  0.6008063E-006  0.3276068E+03  0.7546771E-02  0.1110155E+00
         -2   -1    0    0    0  501 -0.00000000000E+00  0.00000000000E+00  0.51235548908E+02  0.51235548908E+02  0.00000000000E+00 0.  1.
          2   -1    0    0  501    0  0.00000000000E+00 -0.00000000000E+00 -0.98423927993E+03  0.98423927993E+03  0.00000000000E+00 0. -1.
          5    1    1    2  502    0  0.11619323862E+03  0.16390737357E+03 -0.43285031635E+03  0.47722948587E+03  0.47000000000E+01 0. -1.
         -5    1    1    2    0  502 -0.51520999059E+02 -0.11390877290E+03 -0.21525549252E+03  0.24897116088E+03  0.47000000000E+01 0.  1.
        -11    1    1    2    0    0 -0.69417254347E+02 -0.67867056048E+02 -0.19910449150E+03  0.22151137902E+03  0.00000000000E+00 0.  1.
         11    1    1    2    0    0  0.47450147843E+01  0.17868455374E+02 -0.85793430636E+02  0.87762803072E+02  0.00000000000E+00 0. -1.
<mgrwt>
<rscale>  0 0.25504959E+03</rscale>
<asrwt>0</asrwt>
<pdfrwt beam="2">  1        2 0.15142141E+00 0.32760684E+03</pdfrwt>
<pdfrwt beam="1">  1       -2 0.78823932E-02 0.32760684E+03</pdfrwt>
<totfact> 0.26000012E+03</totfact>
</mgrwt>
</event>
<event>
 7    1  0.6008063E-006  0.1501732E+03  0.7546771E-02  0.1209289E+00
          3   -1    0    0  501    0  0.00000000000E+00  0.00000000000E+00  0.10883807631E+03  0.10883807631E+03  0.00000000000E+00 0. -1.
         -3   -1    0    0    0  501 -0.00000000000E+00 -0.00000000000E+00 -0.18713392718E+03  0.18713392718E+03  0.00000000000E+00 0.  1.
         23    2    1    2    0    0  0.18315016069E+02 -0.81187874184E+02 -0.10169997978E+01  0.15017660319E+03  0.12500026851E+03 0.  0.
          5    1    3    3  502    0  0.12580502044E+02 -0.22485908468E+01  0.52684187672E+02  0.54415428172E+02  0.47000000000E+01 0. -1.
         -5    1    3    3    0  502  0.57345140241E+01 -0.78939283338E+02 -0.53701187470E+02  0.95761175017E+02  0.47000000000E+01 0. -1.
        -11    1    1    2    0    0 -0.64851335947E+01  0.61310966046E+02  0.35174678072E+01  0.61753251696E+02  0.00000000000E+00 0. -1.
         11    1    1    2    0    0 -0.11829882474E+02  0.19876908138E+02 -0.80796318886E+02  0.84042148604E+02  0.00000000000E+00 0.  1.
<mgrwt>
<rscale>  0 0.14304572E+03</rscale>
<asrwt>0</asrwt>
<pdfrwt beam="1">  1        3 0.16744320E-01 0.15017316E+03</pdfrwt>
<pdfrwt beam="2">  1       -3 0.28789835E-01 0.15017316E+03</pdfrwt>
<totfact> 0.83370412E+02</totfact>
</mgrwt>
</event>
<event>
 7    1  0.6008063E-006  0.1351697E+03  0.7546771E-02  0.1228969E+00
          3   -1    0    0  501    0  0.00000000000E+00  0.00000000000E+00  0.77098652759E+02  0.77098652759E+02  0.00000000000E+00 0. -1.
         -3   -1    0    0    0  501 -0.00000000000E+00 -0.00000000000E+00 -0.20039854549E+03  0.20039854549E+03  0.00000000000E+00 0.  1.
         23    2    1    2    0    0  0.47216770065E+02 -0.20420147785E+02 -0.52962708048E+02  0.14517539028E+03  0.12499775874E+03 0.  0.
          5    1    3    3  502    0 -0.22795010745E+02 -0.29189803817E+02 -0.63517831369E+02  0.73676740316E+02  0.47000000000E+01 0.  1.
         -5    1    3    3    0  502  0.70011780810E+02  0.87696560326E+01  0.10555123321E+02  0.71498649969E+02  0.47000000000E+01 0.  1.
        -11    1    1    2    0    0 -0.48112048381E+02  0.53670738837E+02 -0.25420479485E+02  0.76429825225E+02  0.00000000000E+00 0. -1.
         11    1    1    2    0    0  0.89527831581E+00 -0.33250591052E+02 -0.44916705195E+02  0.55891982736E+02  0.00000000000E+00 0.  1.
<mgrwt>
<rscale>  0 0.12898545E+03</rscale>
<asrwt>0</asrwt>
<pdfrwt beam="1">  1        3 0.11861331E-01 0.13516969E+03</pdfrwt>
<pdfrwt beam="2">  1       -3 0.30830545E-01 0.13516969E+03</pdfrwt>
<totfact> 0.12997517E+03</totfact>
</mgrwt>
</event>
<event>
 7    1  0.6008063E-006  0.1263875E+03  0.7546771E-02  0.1256327E+00
         -1   -1    0    0    0  501 -0.00000000000E+00  0.00000000000E+00  0.50494218523E+02  0.50494218523E+02  0.00000000000E+00 0.  1.
          1   -1    0    0  501    0  0.00000000000E+00 -0.00000000000E+00 -0.21278257317E+03  0.21278257317E+03  0.00000000000E+00 0. -1.
         23    2    1    2    0    0 -0.15673282254E+02  0.10236120597E+02 -0.11766154405E+03  0.17267900764E+03  0.12499348299E+03 0.  0.
          5    1    3    3  502    0 -0.45421195597E+02 -0.14194128504E+02  0.10123891071E+01  0.47829627065E+02  0.47000000000E+01 0. -1.
         -5    1    3    3    0  502  0.29747913343E+02  0.24430249101E+02 -0.11867393315E+03  0.12484938057E+03  0.47000000000E+01 0. -1.
        -11    1    1    2    0    0 -0.14173074917E+02  0.40996846025E+01  0.15847511031E+02  0.21652414930E+02  0.00000000000E+00 0.  1.
         11    1    1    2    0    0  0.29846357171E+02 -0.14335805199E+02 -0.60474321631E+02  0.68945369125E+02  0.00000000000E+00 0. -1.
<mgrwt>
<rscale>  0 0.11232347E+03</rscale>
<asrwt>0</asrwt>
<pdfrwt beam="2">  1        1 0.32735780E-01 0.12638750E+03</pdfrwt>
<pdfrwt beam="1">  1       -1 0.77683414E-02 0.12638750E+03</pdfrwt>
<totfact> 0.11413984E+04</totfact>
</mgrwt>
</event>
<event>
 7    1  0.6008063E-006  0.1452084E+03  0.7546771E-02  0.1216701E+00
          1   -1    0    0  501    0  0.00000000000E+00  0.00000000000E+00  0.28244487510E+02  0.28244487510E+02  0.00000000000E+00 0. -1.
         -1   -1    0    0    0  501 -0.00000000000E+00 -0.00000000000E+00 -0.61247979334E+03  0.61247979334E+03  0.00000000000E+00 0.  1.
         23    2    1    2    0    0 -0.60704903853E+02 -0.42025505881E+02 -0.35154804986E+03  0.38035709669E+03  0.12503703912E+03 0.  0.
          5    1    3    3  502    0  0.75428884224E+01  0.10968654584E+02 -0.23382691318E+03  0.23425268809E+03  0.47000000000E+01 0. -1.
         -5    1    3    3    0  502 -0.68247792276E+02 -0.52994160465E+02 -0.11772113668E+03  0.14610440861E+03  0.47000000000E+01 0. -1.
        -11    1    1    2    0    0  0.64509265355E+02 -0.40571312404E+01 -0.93236478423E+02  0.11345019409E+03  0.00000000000E+00 0.  1.
         11    1    1    2    0    0 -0.38043615014E+01  0.46082637121E+02 -0.13945077755E+03  0.14691699007E+03  0.00000000000E+00 0. -1.
<mgrwt>
<rscale>  0 0.13752332E+03</rscale>
<asrwt>0</asrwt>
<pdfrwt beam="1">  1        1 0.43453060E-02 0.14520844E+03</pdfrwt>
<pdfrwt beam="2">  1       -1 0.94227656E-01 0.14520844E+03</pdfrwt>
<totfact> 0.22629854E+03</totfact>
</mgrwt>
</event>
<event>
 7    1  0.6008063E-006  0.1380254E+03  0.7546771E-02  0.1227657E+00
         -1   -1    0    0    0  501 -0.00000000000E+00  0.00000000000E+00  0.56710617470E+02  0.56710617470E+02  0.00000000000E+00 0.  1.
          1   -1    0    0  501    0  0.00000000000E+00 -0.00000000000E+00 -0.28051544799E+03  0.28051544799E+03  0.00000000000E+00 0. -1.
         23    2    1    2    0    0 -0.23293668698E+02 -0.53691545685E+02 -0.16132912419E+03  0.21231601780E+03  0.12500251206E+03 0.  0.
          5    1    3    3  502    0 -0.53360044728E+02 -0.36533823783E+02 -0.21686339633E+02  0.68369598363E+02  0.47000000000E+01 0. -1.
         -5    1    3    3    0  502  0.30066376030E+02 -0.17157721901E+02 -0.13964278456E+03  0.14394641944E+03  0.47000000000E+01 0. -1.
        -11    1    1    2    0    0 -0.30992256307E+02  0.40576017047E+02 -0.39356664445E+02  0.64466116267E+02  0.00000000000E+00 0. -1.
         11    1    1    2    0    0  0.54285925005E+02  0.13115528638E+02 -0.23119041884E+02  0.60443931397E+02  0.00000000000E+00 0.  1.
<mgrwt>
<rscale>  0 0.12986413E+03</rscale>
<asrwt>0</asrwt>
<pdfrwt beam="2">  1        1 0.43156223E-01 0.13802538E+03</pdfrwt>
<pdfrwt beam="1">  1       -1 0.87247104E-02 0.13802538E+03</pdfrwt>
<totfact> 0.68519662E+03</totfact>
</mgrwt>
</event>
<event>
 6    1  0.6008063E-006  0.3866981E+03  0.7546771E-02  0.1048486E+00
         -2   -1    0    0    0  501 -0.00000000000E+00  0.00000000000E+00  0.89227430499E+02  0.89227430499E+02  0.00000000000E+00 0.  1.
          2   -1    0    0  501    0  0.00000000000E+00 -0.00000000000E+00 -0.41897267578E+03  0.41897267578E+03  0.00000000000E+00 0. -1.
          5    1    1    2  502    0  0.23296015576E+02 -0.18426097316E+02 -0.21415882884E+03  0.21625984226E+03  0.47000000000E+01 0. -1.
         -5    1    1    2    0  502 -0.90642071621E+02  0.12154992557E+02 -0.14802038825E+03  0.17405704332E+03  0.47000000000E+01 0.  1.
        -11    1    1    2    0    0  0.14095775602E+02  0.45199869262E+02  0.12349362318E+02  0.48930826897E+02  0.00000000000E+00 0.  1.
         11    1    1    2    0    0  0.53250280443E+02 -0.38928764503E+02  0.20084609489E+02  0.68952393804E+02  0.00000000000E+00 0. -1.
<mgrwt>
<rscale>  0 0.38669810E+03</rscale>
<asrwt>0</asrwt>
<pdfrwt beam="2">  1        2 0.64457335E-01 0.38669810E+03</pdfrwt>
<pdfrwt beam="1">  1       -2 0.13727297E-01 0.38669810E+03</pdfrwt>
<totfact> 0.30250327E+03</totfact>
</mgrwt>
</event>
<event>
 7    1  0.6008063E-006  0.1432509E+03  0.7546771E-02  0.1218932E+00
          2   -1    0    0  501    0  0.00000000000E+00  0.00000000000E+00  0.74939266566E+03  0.74939266566E+03  0.00000000000E+00 0. -1.
         -2   -1    0    0    0  501 -0.00000000000E+00 -0.00000000000E+00 -0.22608817839E+02  0.22608817839E+02  0.00000000000E+00 0.  1.
         23    2    1    2    0    0 -0.48326644346E+02 -0.50605710596E+02  0.36771448016E+03  0.39463245302E+03  0.12499772620E+03 0.  0.
          5    1    3    3  502    0 -0.50503158294E+02 -0.51163754880E+02  0.83147143236E+02  0.11001743607E+03  0.47000000000E+01 0. -1.
         -5    1    3    3    0  502  0.21765139486E+01  0.55804428406E+00  0.28456733693E+03  0.28461501695E+03  0.47000000000E+01 0. -1.
        -11    1    1    2    0    0  0.65870047916E+01  0.65451024177E+02  0.26990615869E+03  0.27780669484E+03  0.00000000000E+00 0.  1.
         11    1    1    2    0    0  0.41739639554E+02 -0.14845313581E+02  0.89163208963E+02  0.99562335639E+02  0.00000000000E+00 0. -1.
<mgrwt>
<rscale>  0 0.13591599E+03</rscale>
<asrwt>0</asrwt>
<pdfrwt beam="1">  1        2 0.11529116E+00 0.14325095E+03</pdfrwt>
<pdfrwt beam="2">  1       -2 0.34782802E-02 0.14325095E+03</pdfrwt>
<totfact> 0.12535451E+04</totfact>
</mgrwt>
</event>
<event>
 7    1  0.6008063E-006  0.1354200E+03  0.7546771E-02  0.1231842E+00
         -1   -1    0    0    0  501 -0.00000000000E+00  0.00000000000E+00  0.14922664669E+03  0.14922664669E+03  0.00000000000E+00 0.  1.
          1   -1    0    0  501    0  0.00000000000E+00 -0.00000000000E+00 -0.11237121054E+03  0.11237121054E+03  0.00000000000E+00 0. -1.
         23    2    1    2    0    0 -0.49949773492E+02  0.14771662355E+02 -0.27809979262E+02  0.13824604939E+03  0.12500157337E+03 0.  0.
          5    1    3    3  502    0 -0.13578711905E+02 -0.31677095852E+02  0.36793719095E+02  0.50632870583E+02  0.47000000000E+01 0.  1.
         -5    1    3    3    0  502 -0.36371061587E+02  0.46448758207E+02 -0.64603698357E+02  0.87613178811E+02  0.47000000000E+01 0.  1.
        -11    1    1    2    0    0  0.53502309603E+02 -0.84793066379E+00 -0.35620981579E+01  0.53627461832E+02  0.00000000000E+00 0. -1.
         11    1    1    2    0    0 -0.35525361110E+01 -0.13923731692E+02  0.68227513570E+02  0.69724345999E+02  0.00000000000E+00 0.  1.
<mgrwt>
<rscale>  0 0.12708783E+03</rscale>
<asrwt>0</asrwt>
<pdfrwt beam="2">  1        1 0.17287878E-01 0.13542000E+03</pdfrwt>
<pdfrwt beam="1">  1       -1 0.22957946E-01 0.13542000E+03</pdfrwt>
<totfact> 0.47402533E+03</totfact>
</mgrwt>
</event>
<event>
 7    1  0.6008063E-006  0.1260355E+03  0.7546771E-02  0.1247380E+00
          2   -1    0    0  501    0  0.00000000000E+00  0.00000000000E+00  0.59707897040E+03  0.59707897040E+03  0.00000000000E+00 0. -1.
         -2   -1    0    0    0  501 -0.00000000000E+00 -0.00000000000E+00 -0.20924248489E+02  0.20924248489E+02  0.00000000000E+00 0.  1.
         23    2    1    2    0    0  0.15915631001E+02  0.23909584041E+01  0.37320823661E+03  0.39391539372E+03  0.12500370215E+03 0.  0.
          5    1    3    3  502    0 -0.19382304192E+02  0.39298038342E+02  0.49938855603E+02  0.66603219383E+02  0.47000000000E+01 0.  1.
         -5    1    3    3    0  502  0.35297935193E+02 -0.36907079938E+02  0.32326938100E+03  0.32731217434E+03  0.47000000000E+01 0.  1.
        -11    1    1    2    0    0 -0.24272992767E+02  0.31730041009E+02  0.36959246107E+02  0.54423887707E+02  0.00000000000E+00 0.  1.
         11    1    1    2    0    0  0.83573617665E+01 -0.34120999413E+02  0.16598723920E+03  0.16966393746E+03  0.00000000000E+00 0. -1.
<mgrwt>
<rscale>  0 0.11744083E+03</rscale>
<asrwt>0</asrwt>
<pdfrwt beam="1">  1        2 0.91858290E-01 0.12603551E+03</pdfrwt>
<pdfrwt beam="2">  1       -2 0.32191156E-02 0.12603551E+03</pdfrwt>
<totfact> 0.18165298E+04</totfact>
</mgrwt>
</event>
<event>
 7    1  0.6008063E-006  0.1280490E+03  0.7546771E-02  0.1245484E+00
         -2   -1    0    0    0  501 -0.00000000000E+00  0.00000000000E+00  0.42881230053E+03  0.42881230053E+03  0.00000000000E+00 0.  1.
          2   -1    0    0  501    0  0.00000000000E+00 -0.00000000000E+00 -0.37978974968E+02  0.37978974968E+02  0.00000000000E+00 0. -1.
         23    2    1    2    0    0  0.56436579739E+01  0.27200821219E+02  0.10416287384E+03  0.16506501440E+03  0.12499927656E+03 0.  0.
          5    1    3    3  502    0 -0.17409991632E+02 -0.18170951166E+02 -0.18893259279E+02  0.31817236226E+02  0.47000000000E+01 0.  1.
         -5    1    3    3    0  502  0.23053649606E+02  0.45371772385E+02  0.12305613312E+03  0.13324777817E+03  0.47000000000E+01 0.  1.
        -11    1    1    2    0    0  0.45260897865E+01 -0.55584647637E+02  0.23821685304E+03  0.24465773565E+03  0.00000000000E+00 0.  1.
         11    1    1    2    0    0 -0.10169747760E+02  0.28383826418E+02  0.48453598685E+02  0.57068525451E+02  0.00000000000E+00 0. -1.
<mgrwt>
<rscale>  0 0.11856432E+03</rscale>
<asrwt>0</asrwt>
<pdfrwt beam="2">  1        2 0.58429195E-02 0.12804903E+03</pdfrwt>
<pdfrwt beam="1">  1       -2 0.65971120E-01 0.12804903E+03</pdfrwt>
<totfact> 0.26445961E+03</totfact>
</mgrwt>
</event>
<event>
 7    1  0.6008063E-006  0.1291835E+03  0.7546771E-02  0.1242983E+00
          4   -1    0    0  501    0  0.00000000000E+00  0.00000000000E+00  0.11624294887E+03  0.11624294887E+03  0.00000000000E+00 0.  1.
         -4   -1    0    0    0  501 -0.00000000000E+00 -0.00000000000E+00 -0.10985972165E+03  0.10985972165E+03  0.00000000000E+00 0. -1.
         23    2    1    2    0    0 -0.30482208813E+02 -0.11619773852E+02  0.10498249184E+02  0.12960934738E+03  0.12499674193E+03 0.  0.
          5    1    3    3  502    0 -0.94699314096E+00  0.54665226850E+02 -0.55027397042E+01  0.55150285283E+02  0.47000000000E+01 0.  1.
         -5    1    3    3    0  502 -0.29535215672E+02 -0.66285000702E+02  0.16000988888E+02  0.74459062096E+02  0.47000000000E+01 0.  1.
        -11    1    1    2    0    0 -0.18190395208E+02  0.20719188185E+02  0.26529252910E+02  0.38261945806E+02  0.00000000000E+00 0.  1.
         11    1    1    2    0    0  0.48672604021E+02 -0.90994143332E+01 -0.30644274878E+02  0.58231377334E+02  0.00000000000E+00 0. -1.
<mgrwt>
<rscale>  0 0.12006895E+03</rscale>
<asrwt>0</asrwt>
<pdfrwt beam="1">  1        4 0.17883531E-01 0.12918347E+03</pdfrwt>
<pdfrwt beam="2">  1       -4 0.16901496E-01 0.12918347E+03</pdfrwt>
<totfact> 0.13722632E+03</totfact>
</mgrwt>
</event>
<event>
 7    1  0.6008063E-006  0.1343121E+03  0.7546771E-02  0.1231357E+00
         -2   -1    0    0    0  501 -0.00000000000E+00  0.00000000000E+00  0.18812116636E+03  0.18812116636E+03  0.00000000000E+00 0.  1.
          2   -1    0    0  501    0  0.00000000000E+00 -0.00000000000E+00 -0.12131455044E+03  0.12131455044E+03  0.00000000000E+00 0. -1.
         23    2    1    2    0    0 -0.28416627328E+02  0.39982180604E+02 -0.55897765071E+02  0.14547954464E+03  0.12503462838E+03 0.  0.
          5    1    3    3  502    0 -0.38861835682E+02 -0.36939628052E+02 -0.37397042587E+02  0.65539356020E+02  0.47000000000E+01 0.  1.
         -5    1    3    3    0  502  0.10445208354E+02  0.76921808656E+02 -0.18500722484E+02  0.79940188622E+02  0.47000000000E+01 0.  1.
        -11    1    1    2    0    0  0.46118124805E+02 -0.30708324300E+02  0.19350947379E+02  0.58688514901E+02  0.00000000000E+00 0. -1.
         11    1    1    2    0    0 -0.17701497477E+02 -0.92738563042E+01  0.10335343361E+03  0.10526765725E+03  0.00000000000E+00 0.  1.
<mgrwt>
<rscale>  0 0.12740535E+03</rscale>
<asrwt>0</asrwt>
<pdfrwt beam="2">  1        2 0.18663777E-01 0.13431209E+03</pdfrwt>
<pdfrwt beam="1">  1       -2 0.28941718E-01 0.13431209E+03</pdfrwt>
<totfact> 0.31604193E+03</totfact>
</mgrwt>
</event>
<event>
 7    1  0.6008063E-006  0.1824642E+03  0.7546771E-02  0.1170956E+00
          2   -1    0    0  501    0  0.00000000000E+00  0.00000000000E+00  0.70743899604E+03  0.70743899604E+03  0.00000000000E+00 0. -1.
         -2   -1    0    0    0  501 -0.00000000000E+00 -0.00000000000E+00 -0.67687607521E+02  0.67687607521E+02  0.00000000000E+00 0.  1.
         23    2    1    2    0    0 -0.14143470424E+02  0.13216589450E+03  0.57247395707E+03  0.60084907033E+03  0.12500124945E+03 0.  0.
          5    1    3    3  502    0  0.31144232883E+02  0.13316949875E+03  0.43703597423E+03  0.45795918094E+03  0.47000000000E+01 0. -1.
         -5    1    3    3    0  502 -0.45287703307E+02 -0.10036042474E+01  0.13543798285E+03  0.14288988939E+03  0.47000000000E+01 0. -1.
        -11    1    1    2    0    0  0.38893809810E+02 -0.10926244022E+03  0.22365981862E+02  0.11811539454E+03  0.00000000000E+00 0.  1.
         11    1    1    2    0    0 -0.24750339386E+02 -0.22903454288E+02  0.44911449583E+02  0.56162138685E+02  0.00000000000E+00 0. -1.
<mgrwt>
<rscale>  0 0.17678004E+03</rscale>
<asrwt>0</asrwt>
<pdfrwt beam="1">  1        2 0.10883676E+00 0.18246417E+03</pdfrwt>
<pdfrwt beam="2">  1       -2 0.10413479E-01 0.18246417E+03</pdfrwt>
<totfact> 0.25477258E+03</totfact>
</mgrwt>
</event>
<event>
 7    1  0.6008063E-006  0.1264062E+03  0.7546771E-02  0.1248655E+00
          3   -1    0    0  501    0  0.00000000000E+00  0.00000000000E+00  0.16023065704E+03  0.16023065704E+03  0.00000000000E+00 0. -1.
         -3   -1    0    0    0  501 -0.00000000000E+00 -0.00000000000E+00 -0.74335281559E+02  0.74335281559E+02  0.00000000000E+00 0.  1.
         23    2    1    2    0    0  0.41199400412E+01 -0.18346505535E+02  0.52488740413E+02  0.13687070878E+03  0.12499981953E+03 0.  0.
          5    1    3    3  502    0  0.39482315489E+02  0.27166740376E+02 -0.12627260388E+02  0.49783759640E+02  0.47000000000E+01 0.  1.
         -5    1    3    3    0  502 -0.35362375448E+02 -0.45513245911E+02  0.65116000801E+02  0.87086949142E+02  0.47000000000E+01 0.  1.
        -11    1    1    2    0    0 -0.19096156420E+02  0.50439041470E+02  0.89849995763E+01  0.54676231689E+02  0.00000000000E+00 0. -1.
         11    1    1    2    0    0  0.14976216379E+02 -0.32092535935E+02  0.24421635489E+02  0.43018998125E+02  0.00000000000E+00 0.  1.
<mgrwt>
<rscale>  0 0.11669281E+03</rscale>
<asrwt>0</asrwt>
<pdfrwt beam="1">  1        3 0.24650870E-01 0.12640618E+03</pdfrwt>
<pdfrwt beam="2">  1       -3 0.11436197E-01 0.12640618E+03</pdfrwt>
<totfact> 0.20555038E+03</totfact>
</mgrwt>
</event>
<event>
 7    1  0.6008063E-006  0.1365495E+03  0.7546771E-02  0.1233052E+00
         -1   -1    0    0    0  501 -0.00000000000E+00  0.00000000000E+00  0.16940189657E+02  0.16940189657E+02  0.00000000000E+00 0.  1.
          1   -1    0    0  501    0  0.00000000000E+00 -0.00000000000E+00 -0.83599092654E+03  0.83599092654E+03  0.00000000000E+00 0. -1.
         23    2    1    2    0    0  0.54952574522E+02 -0.89955510150E+00 -0.51964786490E+03  0.53728919787E+03  0.12500073604E+03 0.  0.
          5    1    3    3  502    0  0.75656907605E+02 -0.61409499785E+01 -0.50562155674E+03  0.51130903334E+03  0.47000000000E+01 0. -1.
         -5    1    3    3    0  502 -0.20704333083E+02  0.52413948770E+01 -0.14026308163E+02  0.25980164537E+02  0.47000000000E+01 0. -1.
        -11    1    1    2    0    0  0.17455501534E+02 -0.52667413260E+01 -0.20536068149E+02  0.27462031845E+02  0.00000000000E+00 0.  1.
         11    1    1    2    0    0 -0.72408076056E+02  0.61662964275E+01 -0.27886680384E+03  0.28817988648E+03  0.00000000000E+00 0. -1.
<mgrwt>
<rscale>  0 0.12629935E+03</rscale>
<asrwt>0</asrwt>
<pdfrwt beam="2">  1        1 0.12861399E+00 0.13654955E+03</pdfrwt>
<pdfrwt beam="1">  1       -1 0.26061830E-02 0.13654955E+03</pdfrwt>
<totfact> 0.96110622E+03</totfact>
</mgrwt>
</event>
<event>
 7    1  0.6008063E-006  0.1440799E+03  0.7546771E-02  0.1217935E+00
         -1   -1    0    0    0  501 -0.00000000000E+00  0.00000000000E+00  0.55872032176E+02  0.55872032176E+02  0.00000000000E+00 0.  1.
          1   -1    0    0  501    0  0.00000000000E+00 -0.00000000000E+00 -0.32110029128E+03  0.32110029128E+03  0.00000000000E+00 0. -1.
         23    2    1    2    0    0 -0.45188915446E+02 -0.55603867604E+02 -0.18931739488E+03  0.23790776667E+03  0.12500080506E+03 0.  0.
          5    1    3    3  502    0 -0.15752319460E+02  0.36439381324E+02 -0.93745650584E+02  0.10191320367E+03  0.47000000000E+01 0.  1.
         -5    1    3    3    0  502 -0.29436595986E+02 -0.92043248928E+02 -0.95571744296E+02  0.13599456300E+03  0.47000000000E+01 0.  1.
        -11    1    1    2    0    0  0.38820161639E+02  0.39042574750E+02 -0.96980238696E+02  0.11151903107E+03  0.00000000000E+00 0. -1.
         11    1    1    2    0    0  0.63687538068E+01  0.16561292854E+02  0.21069374476E+02  0.27545525714E+02  0.00000000000E+00 0.  1.
<mgrwt>
<rscale>  0 0.13663158E+03</rscale>
<asrwt>0</asrwt>
<pdfrwt beam="2">  1        1 0.49400045E-01 0.14407994E+03</pdfrwt>
<pdfrwt beam="1">  1       -1 0.85956972E-02 0.14407994E+03</pdfrwt>
<totfact> 0.59434422E+03</totfact>
</mgrwt>
</event>
<event>
 7    1  0.6008063E-006  0.1291867E+03  0.7546771E-02  0.1242854E+00
         -2   -1    0    0    0  501 -0.00000000000E+00  0.00000000000E+00  0.83027839570E+02  0.83027839570E+02  0.00000000000E+00 0.  1.
          2   -1    0    0  501    0  0.00000000000E+00 -0.00000000000E+00 -0.17939955759E+03  0.17939955759E+03  0.00000000000E+00 0. -1.
         23    2    1    2    0    0 -0.88400719793E+01  0.31410489869E+02 -0.10347128437E+03  0.16551590059E+03  0.12499776363E+03 0.  0.
          5    1    3    3  502    0 -0.19076856316E+02 -0.22263397785E+02  0.16237110509E+02  0.33842563223E+02  0.47000000000E+01 0. -1.
         -5    1    3    3    0  502  0.10236784336E+02  0.53673887653E+02 -0.11970839488E+03  0.13167333737E+03  0.47000000000E+01 0. -1.
        -11    1    1    2    0    0  0.14268600845E+00 -0.63446974287E+02  0.52478093696E+01  0.63663791975E+02  0.00000000000E+00 0. -1.
         11    1    1    2    0    0  0.86973859709E+01  0.32036484418E+02  0.18517569820E+01  0.33247704590E+02  0.00000000000E+00 0.  1.
<mgrwt>
<rscale>  0 0.12014759E+03</rscale>
<asrwt>0</asrwt>
<pdfrwt beam="2">  1        2 0.27599932E-01 0.12918671E+03</pdfrwt>
<pdfrwt beam="1">  1       -2 0.12773514E-01 0.12918671E+03</pdfrwt>
<totfact> 0.80999285E+03</totfact>
</mgrwt>
</event>
<event>
 7    1  0.6008063E-006  0.1640127E+03  0.7546771E-02  0.1191695E+00
          1   -1    0    0  501    0  0.00000000000E+00  0.00000000000E+00  0.15837857722E+03  0.15837857722E+03  0.00000000000E+00 0. -1.
         -1   -1    0    0    0  501 -0.00000000000E+00 -0.00000000000E+00 -0.14496436583E+03  0.14496436583E+03  0.00000000000E+00 0.  1.
         23    2    1    2    0    0  0.72990560628E+02 -0.77125878622E+02  0.61054792732E+01  0.16412627599E+03  0.12499653795E+03 0.  0.
          5    1    3    3  502    0  0.45190391953E+01 -0.67855476266E+02 -0.41757028830E+02  0.79940770769E+02  0.47000000000E+01 0. -1.
         -5    1    3    3    0  502  0.68471521433E+02 -0.92704023562E+01  0.47862508103E+02  0.84185505220E+02  0.47000000000E+01 0. -1.
        -11    1    1    2    0    0 -0.50680642572E+02 -0.60878512708E+01 -0.81401496456E+01  0.51689955512E+02  0.00000000000E+00 0.  1.
         11    1    1    2    0    0 -0.22309918056E+02  0.83213729893E+02  0.15448881763E+02  0.87526711546E+02  0.00000000000E+00 0. -1.
<mgrwt>
<rscale>  0 0.15737330E+03</rscale>
<asrwt>0</asrwt>
<pdfrwt beam="1">  1        1 0.24365935E-01 0.16401268E+03</pdfrwt>
<pdfrwt beam="2">  1       -1 0.22302210E-01 0.16401268E+03</pdfrwt>
<totfact> 0.32441290E+03</totfact>
</mgrwt>
</event>
<event>
 7    1  0.6008063E-006  0.1377575E+03  0.7546771E-02  0.1227035E+00
          2   -1    0    0  501    0  0.00000000000E+00  0.00000000000E+00  0.42618766633E+02  0.42618766633E+02  0.00000000000E+00 0. -1.
         -2   -1    0    0    0  501 -0.00000000000E+00 -0.00000000000E+00 -0.39073431200E+03  0.39073431200E+03  0.00000000000E+00 0.  1.
         23    2    1    2    0    0 -0.53125566929E+02  0.23070371873E+02 -0.13216274552E+03  0.19090340307E+03  0.12499019993E+03 0.  0.
          5    1    3    3  502    0 -0.40753086789E+02 -0.46924322235E+02 -0.85264414561E+02  0.10561636469E+03  0.47000000000E+01 0.  1.
         -5    1    3    3    0  502 -0.12372480140E+02  0.69994694109E+02 -0.46898330959E+02  0.85287038376E+02  0.47000000000E+01 0.  1.
        -11    1    1    2    0    0  0.20331985321E+02  0.31084318341E+02 -0.13305107999E+03  0.13813838844E+03  0.00000000000E+00 0.  1.
         11    1    1    2    0    0  0.32793581608E+02 -0.54154690214E+02 -0.82901719855E+02  0.10431128713E+03  0.00000000000E+00 0. -1.
<mgrwt>
<rscale>  0 0.13028414E+03</rscale>
<asrwt>0</asrwt>
<pdfrwt beam="1">  1        2 0.65567336E-02 0.13775746E+03</pdfrwt>
<pdfrwt beam="2">  1       -2 0.60112969E-01 0.13775746E+03</pdfrwt>
<totfact> 0.27793035E+03</totfact>
</mgrwt>
</event>
<event>
 6    1  0.6008063E-006  0.2027807E+03  0.7546771E-02  0.1205433E+00
         -2   -1    0    0    0  501 -0.00000000000E+00  0.00000000000E+00  0.16975546565E+02  0.16975546565E+02  0.00000000000E+00 0.  1.
          2   -1    0    0  501    0  0.00000000000E+00 -0.00000000000E+00 -0.10129696043E+04  0.10129696043E+04  0.00000000000E+00 0. -1.
          5    1    1    2  502    0  0.18164648167E+02  0.42766429288E+02 -0.83776799242E+03  0.83906866289E+03  0.47000000000E+01 0. -1.
         -5    1    1    2    0  502 -0.30208596919E+02 -0.19844693093E+02 -0.18483398734E+02  0.40866822736E+02  0.47000000000E+01 0.  1.
        -11    1    1    2    0    0  0.23036290658E+02 -0.15625080445E+02 -0.13158674161E+03  0.13449864086E+03  0.00000000000E+00 0.  1.
         11    1    1    2    0    0 -0.10992341905E+02 -0.72966557505E+01 -0.81559250079E+01  0.15511024416E+02  0.00000000000E+00 0. -1.
<mgrwt>
<rscale>  0 0.14603393E+03</rscale>
<asrwt>0</asrwt>
<pdfrwt beam="2">  1        2 0.15584150E+00 0.20278070E+03</pdfrwt>
<pdfrwt beam="1">  1       -2 0.26116221E-02 0.20278070E+03</pdfrwt>
<totfact> 0.13193513E+04</totfact>
</mgrwt>
</event>
<event>
 7    1  0.6008063E-006  0.1374703E+03  0.7546771E-02  0.1228435E+00
         -1   -1    0    0    0  501 -0.00000000000E+00  0.00000000000E+00  0.40159999346E+03  0.40159999346E+03  0.00000000000E+00 0.  1.
          1   -1    0    0  501    0  0.00000000000E+00 -0.00000000000E+00 -0.40896541318E+02  0.40896541318E+02  0.00000000000E+00 0. -1.
         23    2    1    2    0    0 -0.57173208748E+02  0.19377142878E+01  0.13636668795E+03  0.19363353644E+03  0.12500216924E+03 0.  0.
          5    1    3    3  502    0 -0.64643233723E+02 -0.48785910212E+02  0.10728320093E+03  0.13450125614E+03  0.47000000000E+01 0. -1.
         -5    1    3    3    0  502  0.74700249754E+01  0.50723624499E+02  0.29083487026E+02  0.59132280297E+02  0.47000000000E+01 0. -1.
        -11    1    1    2    0    0  0.15021507423E+02  0.41350711691E+02  0.12586406507E+03  0.13333150385E+03  0.00000000000E+00 0. -1.
         11    1    1    2    0    0  0.42151701325E+02 -0.43288425979E+02  0.98472699116E+02  0.11553149449E+03  0.00000000000E+00 0.  1.
<mgrwt>
<rscale>  0 0.12934242E+03</rscale>
<asrwt>0</asrwt>
<pdfrwt beam="2">  1        1 0.62917759E-02 0.13747026E+03</pdfrwt>
<pdfrwt beam="1">  1       -1 0.61784612E-01 0.13747026E+03</pdfrwt>
<totfact> 0.32001919E+03</totfact>
</mgrwt>
</event>
<event>
 7    1  0.6008063E-006  0.2173512E+03  0.7546771E-02  0.1139143E+00
          2   -1    0    0  501    0  0.00000000000E+00  0.00000000000E+00  0.12621310281E+04  0.12621310281E+04  0.00000000000E+00 0. -1.
         -2   -1    0    0    0  501 -0.00000000000E+00 -0.00000000000E+00 -0.35364320859E+02  0.35364320859E+02  0.00000000000E+00 0.  1.
         23    2    1    2    0    0 -0.16177556697E+03 -0.73785856565E+02  0.73035765757E+03  0.76201302890E+03  0.12500344612E+03 0.  0.
          5    1    3    3  502    0 -0.16387300139E+03 -0.76457125857E+02  0.50226501891E+03  0.53384669326E+03  0.47000000000E+01 0. -1.
         -5    1    3    3    0  502  0.20974344141E+01  0.26712692923E+01  0.22809263866E+03  0.22816633565E+03  0.47000000000E+01 0. -1.
        -11    1    1    2    0    0  0.57033819895E+02 -0.16174529493E+02  0.19789003660E+03  0.20657913399E+03  0.00000000000E+00 0. -1.
         11    1    1    2    0    0  0.10474174708E+03  0.89960386058E+02  0.29851901308E+03  0.32890318608E+03  0.00000000000E+00 0.  1.
<mgrwt>
<rscale>  0 0.21308887E+03</rscale>
<asrwt>0</asrwt>
<pdfrwt beam="1">  1        2 0.19417397E+00 0.21735121E+03</pdfrwt>
<pdfrwt beam="2">  1       -2 0.54406657E-02 0.21735121E+03</pdfrwt>
<totfact> 0.31602560E+03</totfact>
</mgrwt>
</event>
<event>
 7    1  0.6008063E-006  0.1255997E+03  0.7546771E-02  0.1249066E+00
          2   -1    0    0  501    0  0.00000000000E+00  0.00000000000E+00  0.10807280275E+03  0.10807280275E+03  0.00000000000E+00 0. -1.
         -2   -1    0    0    0  501 -0.00000000000E+00 -0.00000000000E+00 -0.12720285563E+03  0.12720285563E+03  0.00000000000E+00 0.  1.
         23    2    1    2    0    0 -0.86835056280E+01 -0.86645419966E+01  0.31579031627E+02  0.12950872185E+03  0.12499918495E+03 0.  0.
          5    1    3    3  502    0  0.39004267862E+02  0.39636245718E+02  0.35397497920E+01  0.55919448448E+02  0.47000000000E+01 0. -1.
         -5    1    3    3    0  502 -0.47687773490E+02 -0.48300787715E+02  0.28039281835E+02  0.73589273404E+02  0.47000000000E+01 0. -1.
        -11    1    1    2    0    0  0.17913323886E+02 -0.10258521029E+02 -0.72550544739E+02  0.75430139655E+02  0.00000000000E+00 0.  1.
         11    1    1    2    0    0 -0.92298182576E+01  0.18923063025E+02  0.21841460233E+02  0.30336796872E+02  0.00000000000E+00 0. -1.
<mgrwt>
<rscale>  0 0.11645274E+03</rscale>
<asrwt>0</asrwt>
<pdfrwt beam="1">  1        2 0.16626585E-01 0.12559966E+03</pdfrwt>
<pdfrwt beam="2">  1       -2 0.19569670E-01 0.12559966E+03</pdfrwt>
<totfact> 0.70782361E+03</totfact>
</mgrwt>
</event>
<event>
 7    1  0.6008063E-006  0.2129914E+03  0.7546771E-02  0.1143040E+00
          2   -1    0    0  501    0  0.00000000000E+00  0.00000000000E+00  0.30425162638E+03  0.30425162638E+03  0.00000000000E+00 0. -1.
         -2   -1    0    0    0  501 -0.00000000000E+00 -0.00000000000E+00 -0.15310027166E+03  0.15310027166E+03  0.00000000000E+00 0.  1.
         23    2    1    2    0    0  0.90101198244E+02 -0.14703981810E+03  0.15437071486E+03  0.26305065974E+03  0.12500559168E+03 0.  0.
          5    1    3    3  502    0 -0.13792014551E+02  0.10166553186E+02 -0.23421661635E+01  0.17920775971E+02  0.47000000000E+01 0. -1.
         -5    1    3    3    0  502  0.10389321280E+03 -0.15720637129E+03  0.15671288102E+03  0.24512988377E+03  0.47000000000E+01 0. -1.
        -11    1    1    2    0    0 -0.71936388336E+02  0.15245831792E+03 -0.18988868449E+02  0.16964362586E+03  0.00000000000E+00 0.  1.
         11    1    1    2    0    0 -0.18164809908E+02 -0.54184998173E+01  0.15769508311E+02  0.24657612448E+02  0.00000000000E+00 0. -1.
<mgrwt>
<rscale>  0 0.20814957E+03</rscale>
<asrwt>0</asrwt>
<pdfrwt beam="1">  1        2 0.46807942E-01 0.21299139E+03</pdfrwt>
<pdfrwt beam="2">  1       -2 0.23553888E-01 0.21299139E+03</pdfrwt>
<totfact> 0.16890469E+03</totfact>
</mgrwt>
</event>
<event>
 7    1  0.6008063E-006  0.1781611E+03  0.7546771E-02  0.1175304E+00
         -2   -1    0    0    0  501 -0.00000000000E+00  0.00000000000E+00  0.28900366803E+02  0.28900366803E+02  0.00000000000E+00 0.  1.
          2   -1    0    0  501    0  0.00000000000E+00 -0.00000000000E+00 -0.11884393110E+04  0.11884393110E+04  0.00000000000E+00 0. -1.
         23    2    1    2    0    0  0.70473462245E+02 -0.10563190427E+03 -0.87186153309E+03  0.88987860104E+03  0.12496713020E+03 0.  0.
          5    1    3    3  502    0  0.41792300385E+01  0.13224138134E+02 -0.35739315247E+03  0.35769302373E+03  0.47000000000E+01 0.  1.
         -5    1    3    3    0  502  0.66294232207E+02 -0.11885604241E+03 -0.51446838062E+03  0.53218557732E+03  0.47000000000E+01 0.  1.
        -11    1    1    2    0    0 -0.67588083178E+02  0.40510688964E+02 -0.91586535464E+02  0.12081952817E+03  0.00000000000E+00 0.  1.
         11    1    1    2    0    0 -0.28853790671E+01  0.65121215309E+02 -0.19609087565E+03  0.20664154861E+03  0.00000000000E+00 0. -1.
<mgrwt>
<rscale>  0 0.17246241E+03</rscale>
<asrwt>0</asrwt>
<pdfrwt beam="2">  1        2 0.18283680E+00 0.17816114E+03</pdfrwt>
<pdfrwt beam="1">  1       -2 0.44462106E-02 0.17816114E+03</pdfrwt>
<totfact> 0.46986609E+03</totfact>
</mgrwt>
</event>
<event>
 7    1  0.6008063E-006  0.1308839E+03  0.7546771E-02  0.1238752E+00
          1   -1    0    0  501    0  0.00000000000E+00  0.00000000000E+00  0.35148156467E+02  0.35148156467E+02  0.00000000000E+00 0. -1.
         -1   -1    0    0    0  501 -0.00000000000E+00 -0.00000000000E+00 -0.38638008431E+03  0.38638008431E+03  0.00000000000E+00 0.  1.
         23    2    1    2    0    0  0.38075894191E+02 -0.77074093397E+01 -0.17696017107E+03  0.22010338386E+03  0.12498567745E+03 0.  0.
          5    1    3    3  502    0  0.42691466130E+02 -0.41673470692E+01 -0.16631028645E+00  0.43151427799E+02  0.47000000000E+01 0. -1.
         -5    1    3    3    0  502 -0.46155719390E+01 -0.35400622705E+01 -0.17679386078E+03  0.17695195606E+03  0.47000000000E+01 0. -1.
        -11    1    1    2    0    0 -0.22840613844E+02  0.34372209821E+02 -0.16389159425E+03  0.16900768360E+03  0.00000000000E+00 0.  1.
         11    1    1    2    0    0 -0.15235280347E+02 -0.26664800481E+02 -0.10380162528E+02  0.32417173320E+02  0.00000000000E+00 0. -1.
<mgrwt>
<rscale>  0 0.12267238E+03</rscale>
<asrwt>0</asrwt>
<pdfrwt beam="1">  1        1 0.54074085E-02 0.13088391E+03</pdfrwt>
<pdfrwt beam="2">  1       -1 0.59443092E-01 0.13088391E+03</pdfrwt>
<totfact> 0.42190624E+03</totfact>
</mgrwt>
</event>
<event>
 7    1  0.6008063E-006  0.2307817E+03  0.7546771E-02  0.1129182E+00
          1   -1    0    0  501    0  0.00000000000E+00  0.00000000000E+00  0.11217573505E+03  0.11217573505E+03  0.00000000000E+00 0. -1.
         -1   -1    0    0    0  501 -0.00000000000E+00 -0.00000000000E+00 -0.44087167906E+03  0.44087167906E+03  0.00000000000E+00 0.  1.
         23    2    1    2    0    0  0.10466926243E+03 -0.16333871301E+03 -0.17777739459E+03  0.29131596324E+03  0.12499999500E+03 0.  0.
          5    1    3    3  502    0  0.74156522987E+02 -0.17883876409E+02 -0.31289277874E+02  0.82584089550E+02  0.47000000000E+01 0. -1.
         -5    1    3    3    0  502  0.30512739443E+02 -0.14545483660E+03 -0.14648811671E+03  0.20873187369E+03  0.47000000000E+01 0. -1.
        -11    1    1    2    0    0 -0.84108860131E+02  0.15733525924E+03 -0.15886441458E+03  0.23888613684E+03  0.00000000000E+00 0.  1.
         11    1    1    2    0    0 -0.20560402300E+02  0.60034537619E+01  0.79458651626E+01  0.22845314027E+02  0.00000000000E+00 0. -1.
<mgrwt>
<rscale>  0 0.22642404E+03</rscale>
<asrwt>0</asrwt>
<pdfrwt beam="1">  1        1 0.17257805E-01 0.23078169E+03</pdfrwt>
<pdfrwt beam="2">  1       -1 0.67826414E-01 0.23078169E+03</pdfrwt>
<totfact> 0.70748445E+02</totfact>
</mgrwt>
</event>
<event>
 7    1  0.6008063E-006  0.1438800E+03  0.7546771E-02  0.1218408E+00
         -1   -1    0    0    0  501 -0.00000000000E+00  0.00000000000E+00  0.38259696500E+02  0.38259696500E+02  0.00000000000E+00 0.  1.
          1   -1    0    0  501    0  0.00000000000E+00 -0.00000000000E+00 -0.49301904773E+03  0.49301904773E+03  0.00000000000E+00 0. -1.
         23    2    1    2    0    0  0.55096462885E+02  0.45165801182E+02 -0.33534088850E+03  0.36490405698E+03  0.12500355789E+03 0.  0.
          5    1    3    3  502    0  0.85761141805E+02  0.89200003291E+01 -0.27344116757E+03  0.28675198687E+03  0.47000000000E+01 0.  1.
         -5    1    3    3    0  502 -0.30664678921E+02  0.36245800853E+02 -0.61899720928E+02  0.78152070118E+02  0.47000000000E+01 0.  1.
        -11    1    1    2    0    0  0.11038464849E+02  0.11671273644E+02 -0.56774858827E+02  0.59003821313E+02  0.00000000000E+00 0.  1.
         11    1    1    2    0    0 -0.66134927734E+02 -0.56837074826E+02 -0.62643603905E+02  0.10737086593E+03  0.00000000000E+00 0. -1.
<mgrwt>
<rscale>  0 0.13629141E+03</rscale>
<asrwt>0</asrwt>
<pdfrwt beam="2">  1        1 0.75849080E-01 0.14388002E+03</pdfrwt>
<pdfrwt beam="1">  1       -1 0.58861075E-02 0.14388002E+03</pdfrwt>
<totfact> 0.60998747E+03</totfact>
</mgrwt>
</event>
<event>
 6    1  0.6008063E-006  0.2648495E+03  0.7546771E-02  0.1120898E+00
         -2   -1    0    0    0  501 -0.00000000000E+00  0.00000000000E+00  0.60934416151E+03  0.60934416151E+03  0.00000000000E+00 0.  1.
          2   -1    0    0  501    0  0.00000000000E+00 -0.00000000000E+00 -0.12991022526E+03  0.12991022526E+03  0.00000000000E+00 0. -1.
          5    1    1    2  502    0 -0.13718417922E+03  0.12034380343E+03 -0.25066495579E+02  0.18426217532E+03  0.47000000000E+01 0. -1.
         -5    1    1    2    0  502  0.50650539467E+02 -0.35614256524E+01  0.66513107725E+02  0.83810765419E+02  0.47000000000E+01 0.  1.
        -11    1    1    2    0    0  0.10236467006E+03 -0.11906337717E+03  0.40845822563E+03  0.43759882946E+03  0.00000000000E+00 0.  1.
         11    1    1    2    0    0 -0.15831030311E+02  0.22809993938E+01  0.29529098472E+02  0.33582616567E+02  0.00000000000E+00 0. -1.
<mgrwt>
<rscale>  0 0.23834861E+03</rscale>
<asrwt>0</asrwt>
<pdfrwt beam="2">  1        2 0.19986189E-01 0.26484954E+03</pdfrwt>
<pdfrwt beam="1">  1       -2 0.93745254E-01 0.26484954E+03</pdfrwt>
<totfact> 0.27773175E+02</totfact>
</mgrwt>
</event>
<event>
 7    1  0.6008063E-006  0.2364251E+03  0.7546771E-02  0.1125221E+00
          1   -1    0    0  501    0  0.00000000000E+00  0.00000000000E+00  0.18722754313E+03  0.18722754313E+03  0.00000000000E+00 0. -1.
         -1   -1    0    0    0  501 -0.00000000000E+00 -0.00000000000E+00 -0.28289828046E+03  0.28289828046E+03  0.00000000000E+00 0.  1.
         23    2    1    2    0    0 -0.12935123268E+03  0.15342742707E+03 -0.82528338101E+02  0.25041515203E+03  0.12500042001E+03 0.  0.
          5    1    3    3  502    0 -0.50275324535E+02  0.75412875373E+01  0.20522531117E+02  0.55024935786E+02  0.47000000000E+01 0. -1.
         -5    1    3    3    0  502 -0.79075908144E+02  0.14588613954E+03 -0.10305086922E+03  0.19539021625E+03  0.47000000000E+01 0. -1.
        -11    1    1    2    0    0  0.35557912889E+02 -0.86892379223E+02 -0.39295507326E+02  0.10177812944E+03  0.00000000000E+00 0.  1.
         11    1    1    2    0    0  0.93793319790E+02 -0.66535047851E+02  0.26153108097E+02  0.11793254213E+03  0.00000000000E+00 0. -1.
<mgrwt>
<rscale>  0 0.23202692E+03</rscale>
<asrwt>0</asrwt>
<pdfrwt beam="1">  1        1 0.28804237E-01 0.23642509E+03</pdfrwt>
<pdfrwt beam="2">  1       -1 0.43522812E-01 0.23642509E+03</pdfrwt>
<totfact> 0.84644356E+02</totfact>
</mgrwt>
</event>
<event>
 7    1  0.6008063E-006  0.1420541E+03  0.7546771E-02  0.1219496E+00
          1   -1    0    0  501    0  0.00000000000E+00  0.00000000000E+00  0.96991139056E+03  0.96991139056E+03  0.00000000000E+00 0. -1.
         -1   -1    0    0    0  501 -0.00000000000E+00 -0.00000000000E+00 -0.18429085600E+02  0.18429085600E+02  0.00000000000E+00 0.  1.
         23    2    1    2    0    0 -0.60759296042E+02 -0.29438815774E+02  0.63509932995E+03  0.65079222245E+03  0.12498408688E+03 0.  0.
          5    1    3    3  502    0  0.22114477345E+02  0.10916473253E+02  0.32009290064E+02  0.40680513110E+02  0.47000000000E+01 0. -1.
         -5    1    3    3    0  502 -0.82873773388E+02 -0.40355289026E+02  0.60309003988E+03  0.61011170934E+03  0.47000000000E+01 0. -1.
        -11    1    1    2    0    0  0.16436424356E+02  0.55739666896E+02  0.10537073996E+03  0.12033311826E+03  0.00000000000E+00 0.  1.
         11    1    1    2    0    0  0.44322871686E+02 -0.26300851123E+02  0.21101223506E+03  0.21721513545E+03  0.00000000000E+00 0. -1.
<mgrwt>
<rscale>  0 0.13551419E+03</rscale>
<asrwt>0</asrwt>
<pdfrwt beam="1">  1        1 0.14921710E+00 0.14205407E+03</pdfrwt>
<pdfrwt beam="2">  1       -1 0.28352447E-02 0.14205407E+03</pdfrwt>
<totfact> 0.67227966E+03</totfact>
</mgrwt>
</event>
<event>
 7    1  0.6008063E-006  0.1595545E+03  0.7546771E-02  0.1196977E+00
          2   -1    0    0  501    0  0.00000000000E+00  0.00000000000E+00  0.12675476986E+03  0.12675476986E+03  0.00000000000E+00 0. -1.
         -2   -1    0    0    0  501 -0.00000000000E+00 -0.00000000000E+00 -0.18292118942E+03  0.18292118942E+03  0.00000000000E+00 0.  1.
         23    2    1    2    0    0 -0.44719365879E+02 -0.88502271157E+02  0.98476889430E+01  0.15985808053E+03  0.12500062099E+03 0.  0.
          5    1    3    3  502    0 -0.34399983681E+02 -0.10794892433E+03  0.41729803447E+02  0.12082961407E+03  0.47000000000E+01 0.  1.
         -5    1    3    3    0  502 -0.10319382199E+02  0.19446653175E+02 -0.31882114504E+02  0.39028466456E+02  0.47000000000E+01 0.  1.
        -11    1    1    2    0    0  0.13999979805E+02  0.49237168121E+02  0.16180942763E+02  0.53685389705E+02  0.00000000000E+00 0. -1.
         11    1    1    2    0    0  0.30719386074E+02  0.39265103036E+02 -0.82195051269E+02  0.96132489047E+02  0.00000000000E+00 0.  1.
<mgrwt>
<rscale>  0 0.15288122E+03</rscale>
<asrwt>0</asrwt>
<pdfrwt beam="1">  1        2 0.19500734E-01 0.15955447E+03</pdfrwt>
<pdfrwt beam="2">  1       -2 0.28141722E-01 0.15955447E+03</pdfrwt>
<totfact> 0.31897101E+03</totfact>
</mgrwt>
</event>
<event>
 7    1  0.6008063E-006  0.1318259E+03  0.7546771E-02  0.1238594E+00
         -2   -1    0    0    0  501 -0.00000000000E+00  0.00000000000E+00  0.17891361722E+02  0.17891361722E+02  0.00000000000E+00 0.  1.
          2   -1    0    0  501    0  0.00000000000E+00 -0.00000000000E+00 -0.10584933080E+04  0.10584933080E+04  0.00000000000E+00 0. -1.
         23    2    1    2    0    0  0.41362305161E+02  0.65259701913E+01 -0.86265492941E+03  0.87266923785E+03  0.12499857148E+03 0.  0.
          5    1    3    3  502    0 -0.36399389879E+02  0.81397534671E+01 -0.11554270829E+03  0.12150464440E+03  0.47000000000E+01 0.  1.
         -5    1    3    3    0  502  0.77761695039E+02 -0.16137832758E+01 -0.74711222111E+03  0.75116459345E+03  0.47000000000E+01 0.  1.
        -11    1    1    2    0    0 -0.77593207606E+01  0.16935625421E+02  0.23890500331E+01  0.18781108251E+02  0.00000000000E+00 0.  1.
         11    1    1    2    0    0 -0.33602984400E+02 -0.23461595612E+02 -0.18033606689E+03  0.18493432361E+03  0.00000000000E+00 0. -1.
<mgrwt>
<rscale>  0 0.12277120E+03</rscale>
<asrwt>0</asrwt>
<pdfrwt beam="2">  1        2 0.16284514E+00 0.13182591E+03</pdfrwt>
<pdfrwt beam="1">  1       -2 0.27525169E-02 0.13182591E+03</pdfrwt>
<totfact> 0.11209520E+04</totfact>
</mgrwt>
</event>
<event>
 7    1  0.6008063E-006  0.1409474E+03  0.7546771E-02  0.1221870E+00
          2   -1    0    0  501    0  0.00000000000E+00  0.00000000000E+00  0.35398154506E+03  0.35398154506E+03  0.00000000000E+00 0. -1.
         -2   -1    0    0    0  501 -0.00000000000E+00 -0.00000000000E+00 -0.48818196441E+02  0.48818196441E+02  0.00000000000E+00 0.  1.
         23    2    1    2    0    0  0.32721535913E+02 -0.56318754532E+02  0.21458530896E+03  0.25673531640E+03  0.12499466727E+03 0.  0.
          5    1    3    3  502    0 -0.17078447076E+02 -0.81481737966E+02  0.10917671697E+03  0.13737755459E+03  0.47000000000E+01 0. -1.
         -5    1    3    3    0  502  0.49799982989E+02  0.25162983433E+02  0.10540859199E+03  0.11935776182E+03  0.47000000000E+01 0. -1.
        -11    1    1    2    0    0  0.58349892610E+01  0.56699504254E+02  0.11586870256E+02  0.58164735405E+02  0.00000000000E+00 0.  1.
         11    1    1    2    0    0 -0.38556525174E+02 -0.38074972200E+00  0.78991169404E+02  0.87899689691E+02  0.00000000000E+00 0. -1.
<mgrwt>
<rscale>  0 0.13383746E+03</rscale>
<asrwt>0</asrwt>
<pdfrwt beam="1">  1        2 0.54458698E-01 0.14094739E+03</pdfrwt>
<pdfrwt beam="2">  1       -2 0.75104920E-02 0.14094739E+03</pdfrwt>
<totfact> 0.90735788E+03</totfact>
</mgrwt>
</event>
<event>
 7    1  0.6008063E-006  0.1944645E+03  0.7546771E-02  0.1158722E+00
          1   -1    0    0  501    0  0.00000000000E+00  0.00000000000E+00  0.12196845146E+03  0.12196845146E+03  0.00000000000E+00 0. -1.
         -1   -1    0    0    0  501 -0.00000000000E+00 -0.00000000000E+00 -0.30379720565E+03  0.30379720565E+03  0.00000000000E+00 0.  1.
         23    2    1    2    0    0  0.50160419880E+02 -0.14026657419E+03 -0.37495792334E+02  0.19804641801E+03  0.12500267872E+03 0.  0.
          5    1    3    3  502    0  0.74895046634E+02 -0.11639365500E+03 -0.65748291086E+02  0.15330257243E+03  0.47000000000E+01 0. -1.
         -5    1    3    3    0  502 -0.24734626753E+02 -0.23872919191E+02  0.28252498753E+02  0.44743845578E+02  0.47000000000E+01 0. -1.
        -11    1    1    2    0    0 -0.67941324167E+02  0.54827940186E+02 -0.87312793439E+02  0.12347327829E+03  0.00000000000E+00 0.  1.
         11    1    1    2    0    0  0.17780904287E+02  0.85438634001E+02 -0.57020168419E+02  0.10424596080E+03  0.00000000000E+00 0. -1.
<mgrwt>
<rscale>  0 0.18971103E+03</rscale>
<asrwt>0</asrwt>
<pdfrwt beam="1">  1        1 0.18764377E-01 0.19446452E+03</pdfrwt>
<pdfrwt beam="2">  1       -1 0.46738031E-01 0.19446452E+03</pdfrwt>
<totfact> 0.12821072E+03</totfact>
</mgrwt>
</event>
<event>
 7    1  0.6008063E-006  0.1482844E+03  0.7546771E-02  0.1212015E+00
          3   -1    0    0  501    0  0.00000000000E+00  0.00000000000E+00  0.62649776679E+02  0.62649776679E+02  0.00000000000E+00 0. -1.
         -3   -1    0    0    0  501 -0.00000000000E+00 -0.00000000000E+00 -0.33070067838E+03  0.33070067838E+03  0.00000000000E+00 0.  1.
         23    2    1    2    0    0  0.72867175397E+02 -0.32457267451E+02 -0.76907212345E+02  0.16704183509E+03  0.12500062359E+03 0.  0.
          5    1    3    3  502    0  0.12795569084E+02 -0.71078648839E+02 -0.58714880198E+02  0.93195644027E+02  0.47000000000E+01 0.  1.
         -5    1    3    3    0  502  0.60071606312E+02  0.38621381388E+02 -0.18192332147E+02  0.73846191061E+02  0.47000000000E+01 0.  1.
        -11    1    1    2    0    0  0.18163870329E+02  0.23481694147E+02 -0.46618696457E+02  0.55268607768E+02  0.00000000000E+00 0.  1.
         11    1    1    2    0    0 -0.91031045725E+02  0.89755733041E+01 -0.14452499290E+03  0.17104001220E+03  0.00000000000E+00 0. -1.
<mgrwt>
<rscale>  0 0.14098117E+03</rscale>
<asrwt>0</asrwt>
<pdfrwt beam="1">  1        3 0.96384272E-02 0.14828437E+03</pdfrwt>
<pdfrwt beam="2">  1       -3 0.50877027E-01 0.14828437E+03</pdfrwt>
<totfact> 0.70906601E+02</totfact>
</mgrwt>
</event>
<event>
 7    1  0.6008063E-006  0.1430516E+03  0.7546771E-02  0.1219992E+00
         -2   -1    0    0    0  501 -0.00000000000E+00  0.00000000000E+00  0.21416305866E+03  0.21416305866E+03  0.00000000000E+00 0.  1.
          2   -1    0    0  501    0  0.00000000000E+00 -0.00000000000E+00 -0.77765405061E+02  0.77765405061E+02  0.00000000000E+00 0. -1.
         23    2    1    2    0    0 -0.52874207892E+02 -0.45216141311E+02  0.88881092278E+02  0.16841500518E+03  0.12499433632E+03 0.  0.
          5    1    3    3  502    0 -0.93295075968E+02 -0.27484770257E+02  0.50270441849E+02  0.10958371740E+03  0.47000000000E+01 0.  1.
         -5    1    3    3    0  502  0.40420868076E+02 -0.17731371054E+02  0.38610650429E+02  0.58831287781E+02  0.47000000000E+01 0.  1.
        -11    1    1    2    0    0 -0.19907427116E+02 -0.84764368980E+01  0.64646765173E+00  0.21646559941E+02  0.00000000000E+00 0.  1.
         11    1    1    2    0    0  0.72781635008E+02  0.53692578209E+02  0.46870093670E+02  0.10186689860E+03  0.00000000000E+00 0. -1.
<mgrwt>
<rscale>  0 0.13516153E+03</rscale>
<asrwt>0</asrwt>
<pdfrwt beam="2">  1        2 0.11963909E-01 0.14305162E+03</pdfrwt>
<pdfrwt beam="1">  1       -2 0.32948163E-01 0.14305162E+03</pdfrwt>
<totfact> 0.42256652E+03</totfact>
</mgrwt>
</event>
<event>
 7    1  0.6008063E-006  0.1482242E+03  0.7546771E-02  0.1216660E+00
          1   -1    0    0  501    0  0.00000000000E+00  0.00000000000E+00  0.89169559622E+02  0.89169559622E+02  0.00000000000E+00 0. -1.
         -1   -1    0    0    0  501 -0.00000000000E+00 -0.00000000000E+00 -0.20747411851E+03  0.20747411851E+03  0.00000000000E+00 0.  1.
         23    2    1    2    0    0  0.78669426269E+02 -0.12471366720E+02 -0.20753583250E+02  0.14967007678E+03  0.12500402813E+03 0.  0.
          5    1    3    3  502    0  0.21896832335E+02  0.45483664187E+01 -0.69263481185E+02  0.72936127737E+02  0.47000000000E+01 0.  1.
         -5    1    3    3    0  502  0.56772593934E+02 -0.17019733139E+02  0.48509897935E+02  0.76733949044E+02  0.47000000000E+01 0.  1.
        -11    1    1    2    0    0 -0.11557041352E+02 -0.65790246701E+01 -0.71148806286E+02  0.72380946431E+02  0.00000000000E+00 0.  1.
         11    1    1    2    0    0 -0.67112384917E+02  0.19050391391E+02 -0.26402169351E+02  0.74592654919E+02  0.00000000000E+00 0. -1.
<mgrwt>
<rscale>  0 0.13755312E+03</rscale>
<asrwt>0</asrwt>
<pdfrwt beam="1">  1        1 0.13718394E-01 0.14822422E+03</pdfrwt>
<pdfrwt beam="2">  1       -1 0.31919095E-01 0.14822422E+03</pdfrwt>
<totfact> 0.37181893E+03</totfact>
</mgrwt>
</event>
<event>
 7    1  0.6008063E-006  0.1522589E+03  0.7546771E-02  0.1206003E+00
          1   -1    0    0  501    0  0.00000000000E+00  0.00000000000E+00  0.57125904644E+03  0.57125904644E+03  0.00000000000E+00 0. -1.
         -1   -1    0    0    0  501 -0.00000000000E+00 -0.00000000000E+00 -0.35676296924E+02  0.35676296924E+02  0.00000000000E+00 0.  1.
         23    2    1    2    0    0  0.23686552619E+02 -0.83641787777E+02  0.35231291269E+03  0.38380614433E+03  0.12500306610E+03 0.  0.
          5    1    3    3  502    0  0.63291655317E+02 -0.15599695390E+02  0.22261791843E+03  0.23201295596E+03  0.47000000000E+01 0. -1.
         -5    1    3    3    0  502 -0.39605102698E+02 -0.68042092386E+02  0.12969499427E+03  0.15179318836E+03  0.47000000000E+01 0. -1.
        -11    1    1    2    0    0 -0.52656785902E+02  0.31491460879E+02  0.58235287948E+02  0.84591949807E+02  0.00000000000E+00 0.  1.
         11    1    1    2    0    0  0.28970233283E+02  0.52150326898E+02  0.12503454887E+03  0.13853724923E+03  0.00000000000E+00 0. -1.
<mgrwt>
<rscale>  0 0.14558692E+03</rscale>
<asrwt>0</asrwt>
<pdfrwt beam="1">  1        1 0.87886000E-01 0.15225888E+03</pdfrwt>
<pdfrwt beam="2">  1       -1 0.54886615E-02 0.15225888E+03</pdfrwt>
<totfact> 0.55859810E+03</totfact>
</mgrwt>
</event>
<event>
 7    1  0.6008063E-006  0.2892958E+03  0.7546771E-02  0.1092427E+00
         -2   -1    0    0    0  501 -0.00000000000E+00  0.00000000000E+00  0.14550235932E+03  0.14550235932E+03  0.00000000000E+00 0.  1.
          2   -1    0    0  501    0  0.00000000000E+00 -0.00000000000E+00 -0.55580214625E+03  0.55580214625E+03  0.00000000000E+00 0. -1.
         23    2    1    2    0    0 -0.19957299818E+03  0.16802723415E+03 -0.24513165334E+03  0.37918542809E+03  0.12501811224E+03 0.  0.
          5    1    3    3  502    0 -0.20077476824E+03  0.16831198649E+03 -0.25658804541E+03  0.36674098136E+03  0.47000000000E+01 0.  1.
         -5    1    3    3    0  502  0.12017700648E+01 -0.28475234031E+00  0.11456392071E+02  0.12444446732E+02  0.47000000000E+01 0.  1.
        -11    1    1    2    0    0  0.15213756278E+03 -0.89595900587E+02 -0.69833774703E+02  0.18986842681E+03  0.00000000000E+00 0.  1.
         11    1    1    2    0    0  0.47435435399E+02 -0.78431333567E+02 -0.95334358890E+02  0.13225065067E+03  0.00000000000E+00 0. -1.
<mgrwt>
<rscale>  0 0.28605544E+03</rscale>
<asrwt>0</asrwt>
<pdfrwt beam="2">  1        2 0.85508021E-01 0.28929580E+03</pdfrwt>
<pdfrwt beam="1">  1       -2 0.22384979E-01 0.28929580E+03</pdfrwt>
<totfact> 0.95517882E+02</totfact>
</mgrwt>
</event>
<event>
 7    1  0.6008063E-006  0.1532558E+03  0.7546771E-02  0.1201857E+00
         -4   -1    0    0    0  501 -0.00000000000E+00  0.00000000000E+00  0.11278298538E+04  0.11278298538E+04  0.00000000000E+00 0.  1.
          4   -1    0    0  501    0  0.00000000000E+00 -0.00000000000E+00 -0.22205685233E+02  0.22205685233E+02  0.00000000000E+00 0. -1.
         23    2    1    2    0    0  0.64796473259E+02 -0.77047461689E+02  0.34852357191E+03  0.38073089964E+03  0.11555277352E+03 0.  0.
          5    1    3    3  502    0 -0.10697877063E+01 -0.69205593249E+02  0.89111673197E+02  0.11293156725E+03  0.47000000000E+01 0. -1.
         -5    1    3    3    0  502  0.65866260966E+02 -0.78418684404E+01  0.25941189871E+03  0.26779933239E+03  0.47000000000E+01 0.  1.
        -11    1    1    2    0    0 -0.64591521214E+02  0.96830720677E+02  0.66404641300E+03  0.67417052123E+03  0.00000000000E+00 0.  1.
         11    1    1    2    0    0 -0.20495204494E+00 -0.19783258988E+02  0.93054183631E+02  0.95134118132E+02  0.00000000000E+00 0. -1.
<mgrwt>
<rscale>  0 0.14887932E+03</rscale>
<asrwt>0</asrwt>
<pdfrwt beam="2">  1        4 0.34162601E-02 0.15325579E+03</pdfrwt>
<pdfrwt beam="1">  1       -4 0.17351224E+00 0.15325579E+03</pdfrwt>
<totfact> 0.16295476E+02</totfact>
</mgrwt>
</event>
<event>
 7    1  0.6008063E-006  0.1294533E+03  0.7546771E-02  0.1242133E+00
          2   -1    0    0  501    0  0.00000000000E+00  0.00000000000E+00  0.15632306564E+03  0.15632306564E+03  0.00000000000E+00 0. -1.
         -2   -1    0    0    0  501 -0.00000000000E+00 -0.00000000000E+00 -0.83045538719E+02  0.83045538719E+02  0.00000000000E+00 0.  1.
         23    2    1    2    0    0  0.16221038845E+01  0.33615564347E+02  0.52610688718E+02  0.13973561572E+03  0.12500208136E+03 0.  0.
          5    1    3    3  502    0  0.85608128285E+01  0.48062782183E+02 -0.28634043215E+02  0.56791874228E+02  0.47000000000E+01 0. -1.
         -5    1    3    3    0  502 -0.69387089439E+01 -0.14447217837E+02  0.81244731933E+02  0.82943741487E+02  0.47000000000E+01 0. -1.
        -11    1    1    2    0    0  0.10331699141E+02 -0.51707251869E+02 -0.17650848575E+02  0.55605182837E+02  0.00000000000E+00 0.  1.
         11    1    1    2    0    0 -0.11953803025E+02  0.18091687522E+02  0.38317686782E+02  0.44027805811E+02  0.00000000000E+00 0. -1.
<mgrwt>
<rscale>  0 0.12058634E+03</rscale>
<asrwt>0</asrwt>
<pdfrwt beam="1">  1        2 0.24049702E-01 0.12945330E+03</pdfrwt>
<pdfrwt beam="2">  1       -2 0.12776237E-01 0.12945330E+03</pdfrwt>
<totfact> 0.94203619E+03</totfact>
</mgrwt>
</event>
<event>
 7    1  0.6008063E-006  0.1481181E+03  0.7546771E-02  0.1210718E+00
          2   -1    0    0  501    0  0.00000000000E+00  0.00000000000E+00  0.32571464757E+03  0.32571464757E+03  0.00000000000E+00 0. -1.
         -2   -1    0    0    0  501 -0.00000000000E+00 -0.00000000000E+00 -0.58844995032E+02  0.58844995032E+02  0.00000000000E+00 0.  1.
         23    2    1    2    0    0 -0.49389014552E+02 -0.62245817745E+02  0.17605140487E+03  0.23007190008E+03  0.12500066184E+03 0.  0.
          5    1    3    3  502    0  0.38170365545E+02 -0.39347996768E+02  0.87530736325E+02  0.10338743375E+03  0.47000000000E+01 0. -1.
         -5    1    3    3    0  502 -0.87559380097E+02 -0.22897820977E+02  0.88520668549E+02  0.12668446633E+03  0.47000000000E+01 0. -1.
        -11    1    1    2    0    0  0.62851825304E+02  0.57966673083E+02  0.27802643532E+02  0.89908142678E+02  0.00000000000E+00 0.  1.
         11    1    1    2    0    0 -0.13462810753E+02  0.42791446621E+01  0.63015604137E+02  0.64579599853E+02  0.00000000000E+00 0. -1.
<mgrwt>
<rscale>  0 0.14195841E+03</rscale>
<asrwt>0</asrwt>
<pdfrwt beam="1">  1        2 0.50109945E-01 0.14811814E+03</pdfrwt>
<pdfrwt beam="2">  1       -2 0.90530763E-02 0.14811814E+03</pdfrwt>
<totfact> 0.74456770E+03</totfact>
</mgrwt>
</event>
<event>
 7    1  0.6008063E-006  0.1542005E+03  0.7546771E-02  0.1203797E+00
          2   -1    0    0  501    0  0.00000000000E+00  0.00000000000E+00  0.43329488184E+03  0.43329488184E+03  0.00000000000E+00 0. -1.
         -2   -1    0    0    0  501 -0.00000000000E+00 -0.00000000000E+00 -0.48050372516E+02  0.48050372516E+02  0.00000000000E+00 0.  1.
         23    2    1    2    0    0  0.88964451032E+02  0.15512310611E+02  0.25762982612E+03  0.30025144745E+03  0.12498999586E+03 0.  0.
          5    1    3    3  502    0  0.47506184917E+02  0.15219317045E+02  0.12560881643E+02  0.51655889929E+02  0.47000000000E+01 0.  1.
         -5    1    3    3    0  502  0.41458266115E+02  0.29299356576E+00  0.24506894448E+03  0.24859555753E+03  0.47000000000E+01 0.  1.
        -11    1    1    2    0    0 -0.48350207752E+02 -0.41660300754E+02  0.26638215939E+02  0.69158642243E+02  0.00000000000E+00 0.  1.
         11    1    1    2    0    0 -0.40614243281E+02  0.26147990143E+02  0.10097646726E+03  0.11193516466E+03  0.00000000000E+00 0. -1.
<mgrwt>
<rscale>  0 0.14732655E+03</rscale>
<asrwt>0</asrwt>
<pdfrwt beam="1">  1        2 0.66660748E-01 0.15420053E+03</pdfrwt>
<pdfrwt beam="2">  1       -2 0.73923653E-02 0.15420053E+03</pdfrwt>
<totfact> 0.75312337E+03</totfact>
</mgrwt>
</event>
<event>
 7    1  0.6008063E-006  0.1479874E+03  0.7546771E-02  0.1212131E+00
          4   -1    0    0  501    0  0.00000000000E+00  0.00000000000E+00  0.90706089593E+02  0.90706089593E+02  0.00000000000E+00 0. -1.
         -4   -1    0    0    0  501 -0.00000000000E+00 -0.00000000000E+00 -0.20069850698E+03  0.20069850698E+03  0.00000000000E+00 0.  1.
         23    2    1    2    0    0  0.56214904318E+02  0.55808511727E+02 -0.53877232615E+02  0.15748974502E+03  0.12500223256E+03 0.  0.
          5    1    3    3  502    0  0.63416615238E+02  0.31883913518E+02 -0.89122915510E+02  0.11403172847E+03  0.47000000000E+01 0.  1.
         -5    1    3    3    0  502 -0.72017109196E+01  0.23924598208E+02  0.35245682895E+02  0.43458016548E+02  0.47000000000E+01 0.  1.
        -11    1    1    2    0    0 -0.48815262122E+02 -0.15074403527E+02  0.13568000571E+02  0.52860742496E+02  0.00000000000E+00 0. -1.
         11    1    1    2    0    0 -0.73996421964E+01 -0.40734108200E+02 -0.69683185341E+02  0.81054109056E+02  0.00000000000E+00 0.  1.
<mgrwt>
<rscale>  0 0.14089433E+03</rscale>
<asrwt>0</asrwt>
<pdfrwt beam="1">  1        4 0.13954783E-01 0.14798738E+03</pdfrwt>
<pdfrwt beam="2">  1       -4 0.30876693E-01 0.14798738E+03</pdfrwt>
<totfact> 0.72469784E+02</totfact>
</mgrwt>
</event>
<event>
 7    1  0.6008063E-006  0.2002914E+03  0.7546771E-02  0.1153326E+00
          2   -1    0    0  501    0  0.00000000000E+00  0.00000000000E+00  0.20740355945E+04  0.20740355945E+04  0.00000000000E+00 0.  1.
         -2   -1    0    0    0  501 -0.00000000000E+00 -0.00000000000E+00 -0.20358590708E+02  0.20358590708E+02  0.00000000000E+00 0. -1.
         23    2    1    2    0    0  0.15554245255E+03  0.17251644238E+02  0.14451012102E+04  0.14589153995E+04  0.12500224554E+03 0.  0.
          5    1    3    3  502    0  0.10472568307E+03  0.49973995565E+02  0.12289098921E+04  0.12343850622E+04  0.47000000000E+01 0.  1.
         -5    1    3    3    0  502  0.50816769479E+02 -0.32722351328E+02  0.21619131817E+03  0.22453033734E+03  0.47000000000E+01 0.  1.
        -11    1    1    2    0    0 -0.46003196313E+02  0.37123522987E+02  0.23867436000E+03  0.24588594948E+03  0.00000000000E+00 0.  1.
         11    1    1    2    0    0 -0.10953925624E+03 -0.54375167225E+02  0.36990143351E+03  0.38959283615E+03  0.00000000000E+00 0. -1.
<mgrwt>
<rscale>  0 0.19580631E+03</rscale>
<asrwt>0</asrwt>
<pdfrwt beam="1">  1        2 0.31908223E+00 0.20029138E+03</pdfrwt>
<pdfrwt beam="2">  1       -2 0.31320925E-02 0.20029138E+03</pdfrwt>
<totfact> 0.27029930E+03</totfact>
</mgrwt>
</event>
<event>
 7    1  0.6008063E-006  0.1262782E+03  0.7546771E-02  0.1247313E+00
         -4   -1    0    0    0  501 -0.00000000000E+00  0.00000000000E+00  0.15446606444E+03  0.15446606444E+03  0.00000000000E+00 0.  1.
          4   -1    0    0  501    0  0.00000000000E+00 -0.00000000000E+00 -0.11491207463E+03  0.11491207463E+03  0.00000000000E+00 0. -1.
         23    2    1    2    0    0  0.14605706611E+00 -0.17902546195E+02 -0.53079570830E+02  0.13698038926E+03  0.12500265481E+03 0.  0.
          5    1    3    3  502    0  0.58391331400E+02  0.12315869606E+02 -0.32135455330E+02  0.67941193072E+02  0.47000000000E+01 0.  1.
         -5    1    3    3    0  502 -0.58245274334E+02 -0.30218415800E+02 -0.20944115500E+02  0.69039196184E+02  0.47000000000E+01 0.  1.
        -11    1    1    2    0    0  0.36372883759E+02 -0.18443152295E+02  0.26800202236E+02  0.48799460852E+02  0.00000000000E+00 0.  1.
         11    1    1    2    0    0 -0.36518940825E+02  0.36345698490E+02  0.65833358410E+02  0.83598288961E+02  0.00000000000E+00 0. -1.
<mgrwt>
<rscale>  0 0.11747980E+03</rscale>
<asrwt>0</asrwt>
<pdfrwt beam="2">  1        4 0.17678781E-01 0.12627821E+03</pdfrwt>
<pdfrwt beam="1">  1       -4 0.23764010E-01 0.12627821E+03</pdfrwt>
<totfact> 0.75532128E+02</totfact>
</mgrwt>
</event>
<event>
 6    1  0.6008063E-006  0.1691229E+03  0.7546771E-02  0.1201019E+00
         -1   -1    0    0    0  501 -0.00000000000E+00  0.00000000000E+00  0.34825552727E+03  0.34825552727E+03  0.00000000000E+00 0.  1.
          1   -1    0    0  501    0  0.00000000000E+00 -0.00000000000E+00 -0.53336083087E+02  0.53336083087E+02  0.00000000000E+00 0. -1.
          5    1    1    2  502    0  0.12235472211E+01 -0.67488029202E+02  0.64653458017E+02  0.93585740297E+02  0.47000000000E+01 0. -1.
         -5    1    1    2    0  502 -0.41354363790E+02  0.91903322595E+02  0.12131623062E+03  0.15778504974E+03  0.47000000000E+01 0.  1.
        -11    1    1    2    0    0  0.47445724455E+02 -0.46718137126E+02  0.40680695089E+02  0.78029481983E+02  0.00000000000E+00 0. -1.
         11    1    1    2    0    0 -0.73149078863E+01  0.22302843733E+02  0.68269060453E+02  0.72191338339E+02  0.00000000000E+00 0.  1.
<mgrwt>
<rscale>  0 0.14955664E+03</rscale>
<asrwt>0</asrwt>
<pdfrwt beam="2">  1        1 0.82055514E-02 0.16912288E+03</pdfrwt>
<pdfrwt beam="1">  1       -1 0.53577772E-01 0.16912288E+03</pdfrwt>
<totfact> 0.29562159E+03</totfact>
</mgrwt>
</event>
<event>
 7    1  0.6008063E-006  0.1384551E+03  0.7546771E-02  0.1225927E+00
          1   -1    0    0  501    0  0.00000000000E+00  0.00000000000E+00  0.10539982872E+04  0.10539982872E+04  0.00000000000E+00 0. -1.
         -1   -1    0    0    0  501 -0.00000000000E+00 -0.00000000000E+00 -0.14775300293E+02  0.14775300293E+02  0.00000000000E+00 0.  1.
         23    2    1    2    0    0  0.53013107770E+02 -0.27038138505E+02  0.56576087023E+03  0.58245616650E+03  0.12501349162E+03 0.  0.
          5    1    3    3  502    0 -0.12645198773E+02  0.77894045551E+01  0.40482705973E+03  0.40512666435E+03  0.47000000000E+01 0.  1.
         -5    1    3    3    0  502  0.65658306543E+02 -0.34827543060E+02  0.16093381049E+03  0.17732950215E+03  0.47000000000E+01 0.  1.
        -11    1    1    2    0    0  0.20991017382E+02  0.38977751014E+01  0.34588728235E+02  0.40647208790E+02  0.00000000000E+00 0.  1.
         11    1    1    2    0    0 -0.74004125152E+02  0.23140363404E+02  0.43887338842E+03  0.44567021218E+03  0.00000000000E+00 0. -1.
<mgrwt>
<rscale>  0 0.13103537E+03</rscale>
<asrwt>0</asrwt>
<pdfrwt beam="1">  1        1 0.16215352E+00 0.13845513E+03</pdfrwt>
<pdfrwt beam="2">  1       -1 0.22731240E-02 0.13845513E+03</pdfrwt>
<totfact> 0.80344936E+03</totfact>
</mgrwt>
</event>
<event>
 7    1  0.6008063E-006  0.1392840E+03  0.7546771E-02  0.1225510E+00
          2   -1    0    0  501    0  0.00000000000E+00  0.00000000000E+00  0.97339108192E+02  0.97339108192E+02  0.00000000000E+00 0. -1.
         -2   -1    0    0    0  501 -0.00000000000E+00 -0.00000000000E+00 -0.18850584918E+03  0.18850584918E+03  0.00000000000E+00 0.  1.
         23    2    1    2    0    0  0.53736347600E+02 -0.29763588103E+02  0.54565297262E+01  0.13939084120E+03  0.12500626650E+03 0.  0.
          5    1    3    3  502    0  0.82093908012E+02  0.15231447459E+02  0.15527674569E+02  0.85056483597E+02  0.47000000000E+01 0. -1.
         -5    1    3    3    0  502 -0.28357560412E+02 -0.44995035562E+02 -0.10071144843E+02  0.54334357604E+02  0.47000000000E+01 0. -1.
        -11    1    1    2    0    0 -0.35469929418E+02  0.45339437441E+02 -0.10604802662E+03  0.12066467764E+03  0.00000000000E+00 0.  1.
         11    1    1    2    0    0 -0.18266418182E+02 -0.15575849338E+02  0.94247559051E+01  0.25789438530E+02  0.00000000000E+00 0. -1.
<mgrwt>
<rscale>  0 0.13132012E+03</rscale>
<asrwt>0</asrwt>
<pdfrwt beam="1">  1        2 0.14975247E-01 0.13928400E+03</pdfrwt>
<pdfrwt beam="2">  1       -2 0.29000900E-01 0.13928400E+03</pdfrwt>
<totfact> 0.40699370E+03</totfact>
</mgrwt>
</event>
<event>
 7    1  0.6008063E-006  0.1421633E+03  0.7546771E-02  0.1221398E+00
          2   -1    0    0  501    0  0.00000000000E+00  0.00000000000E+00  0.43843430065E+03  0.43843430065E+03  0.00000000000E+00 0. -1.
         -2   -1    0    0    0  501 -0.00000000000E+00 -0.00000000000E+00 -0.39471944295E+02  0.39471944295E+02  0.00000000000E+00 0.  1.
         23    2    1    2    0    0  0.50295514417E+01  0.67518824502E+02  0.27973995780E+03  0.31379110187E+03  0.12500529418E+03 0.  0.
          5    1    3    3  502    0  0.52564287637E+02  0.76977872713E+02  0.17717824153E+03  0.20025687627E+03  0.47000000000E+01 0. -1.
         -5    1    3    3    0  502 -0.47534736195E+02 -0.94590482115E+01  0.10256171628E+03  0.11353422560E+03  0.47000000000E+01 0. -1.
        -11    1    1    2    0    0  0.36828292950E+02 -0.59915024269E+01  0.50752484142E+02  0.62992348024E+02  0.00000000000E+00 0. -1.
         11    1    1    2    0    0 -0.41857844392E+02 -0.61527322075E+02  0.68469914407E+02  0.10112279505E+03  0.00000000000E+00 0.  1.
<mgrwt>
<rscale>  0 0.13416855E+03</rscale>
<asrwt>0</asrwt>
<pdfrwt beam="1">  1        2 0.67451428E-01 0.14216333E+03</pdfrwt>
<pdfrwt beam="2">  1       -2 0.60726071E-02 0.14216333E+03</pdfrwt>
<totfact> 0.99926908E+03</totfact>
</mgrwt>
</event>
<event>
 7    1  0.6008063E-006  0.1498745E+03  0.7546771E-02  0.1209288E+00
         -1   -1    0    0    0  501 -0.00000000000E+00  0.00000000000E+00  0.15586743211E+03  0.15586743211E+03  0.00000000000E+00 0.  1.
          1   -1    0    0  501    0  0.00000000000E+00 -0.00000000000E+00 -0.25936840264E+03  0.25936840264E+03  0.00000000000E+00 0. -1.
         23    2    1    2    0    0  0.60360277520E+02 -0.56518950898E+02 -0.20552823921E+03  0.25437026095E+03  0.12499847052E+03 0.  0.
          5    1    3    3  502    0 -0.96380089565E+01  0.30043036589E+02 -0.82152284663E+02  0.88128106410E+02  0.47000000000E+01 0.  1.
         -5    1    3    3    0  502  0.69998286476E+02 -0.86561987486E+02 -0.12337595454E+03  0.16624215454E+03  0.47000000000E+01 0.  1.
        -11    1    1    2    0    0  0.12934736393E+00  0.62933177358E+02  0.43923606083E+02  0.76745584332E+02  0.00000000000E+00 0. -1.
         11    1    1    2    0    0 -0.60489624884E+02 -0.64142264604E+01  0.58103662599E+02  0.84119989462E+02  0.00000000000E+00 0.  1.
<mgrwt>
<rscale>  0 0.14304600E+03</rscale>
<asrwt>0</asrwt>
<pdfrwt beam="2">  1        1 0.39902831E-01 0.14987452E+03</pdfrwt>
<pdfrwt beam="1">  1       -1 0.23979605E-01 0.14987452E+03</pdfrwt>
<totfact> 0.15508764E+03</totfact>
</mgrwt>
</event>
<event>
 7    1  0.6008063E-006  0.1164510E+03  0.7546771E-02  0.1259634E+00
          2   -1    0    0  501    0  0.00000000000E+00  0.00000000000E+00  0.11795169379E+04  0.11795169379E+04  0.00000000000E+00 0. -1.
         -2   -1    0    0    0  501 -0.00000000000E+00 -0.00000000000E+00 -0.10457928713E+02  0.10457928713E+02  0.00000000000E+00 0.  1.
         23    2    1    2    0    0 -0.80759105743E+01  0.36509382184E+02  0.82551307201E+03  0.83368619556E+03  0.11028456504E+03 0.  0.
          5    1    3    3  502    0 -0.27083694785E+02  0.70207820533E+02  0.61404530254E+03  0.61865692283E+03  0.47000000000E+01 0. -1.
         -5    1    3    3    0  502  0.19007784211E+02 -0.33698438349E+02  0.21146776947E+03  0.21502927274E+03  0.47000000000E+01 0.  1.
        -11    1    1    2    0    0  0.45080633895E+02 -0.30832484397E+02  0.16314842398E+03  0.17204741757E+03  0.00000000000E+00 0.  1.
         11    1    1    2    0    0 -0.37004723321E+02 -0.56768977869E+01  0.18039751320E+03  0.18424125349E+03  0.00000000000E+00 0. -1.
<mgrwt>
<rscale>  0 0.11050699E+03</rscale>
<asrwt>0</asrwt>
<pdfrwt beam="1">  1        2 0.18146404E+00 0.11645102E+03</pdfrwt>
<pdfrwt beam="2">  1       -2 0.16089130E-02 0.11645102E+03</pdfrwt>
<totfact> 0.20693035E+04</totfact>
</mgrwt>
</event>
<event>
 7    1  0.6008063E-006  0.1351366E+03  0.7546771E-02  0.1232079E+00
         -2   -1    0    0    0  501 -0.00000000000E+00  0.00000000000E+00  0.11895992672E+03  0.11895992672E+03  0.00000000000E+00 0.  1.
          2   -1    0    0  501    0  0.00000000000E+00 -0.00000000000E+00 -0.22486532435E+03  0.22486532435E+03  0.00000000000E+00 0. -1.
         23    2    1    2    0    0 -0.36842439734E+02 -0.35776515670E+02 -0.17264796913E+03  0.21924695365E+03  0.12499832399E+03 0.  0.
          5    1    3    3  502    0 -0.49843415856E+02  0.11666258139E+02 -0.16025882377E+03  0.16830165858E+03  0.47000000000E+01 0.  1.
         -5    1    3    3    0  502  0.13000976122E+02 -0.47442773809E+02 -0.12389145358E+02  0.50945295068E+02  0.47000000000E+01 0.  1.
        -11    1    1    2    0    0  0.12523489967E+01  0.57165408412E+02  0.16732322150E+02  0.59577033339E+02  0.00000000000E+00 0.  1.
         11    1    1    2    0    0  0.35590090737E+02 -0.21388892742E+02  0.50010249357E+02  0.65001264081E+02  0.00000000000E+00 0. -1.
<mgrwt>
<rscale>  0 0.12693302E+03</rscale>
<asrwt>0</asrwt>
<pdfrwt beam="2">  1        2 0.34594665E-01 0.13513662E+03</pdfrwt>
<pdfrwt beam="1">  1       -2 0.18301527E-01 0.13513662E+03</pdfrwt>
<totfact> 0.35328373E+03</totfact>
</mgrwt>
</event>
<event>
 7    1  0.6008063E-006  0.1174530E+03  0.7546771E-02  0.1284046E+00
          1   -1    0    0  501    0  0.00000000000E+00  0.00000000000E+00  0.12425333476E+03  0.12425333476E+03  0.00000000000E+00 0. -1.
         -1   -1    0    0    0  501 -0.00000000000E+00 -0.00000000000E+00 -0.62366670751E+02  0.62366670751E+02  0.00000000000E+00 0.  1.
         23    2    1    2    0    0 -0.10082153349E+02  0.14217238806E+02  0.51324962405E+02  0.12817741047E+03  0.11615255956E+03 0.  0.
          5    1    3    3  502    0  0.47133092395E+02 -0.12457222097E+02  0.40004820992E+01  0.49140661759E+02  0.47000000000E+01 0. -1.
         -5    1    3    3    0  502 -0.57215245745E+02  0.26674460904E+02  0.47324480305E+02  0.79036748708E+02  0.47000000000E+01 0.  1.
        -11    1    1    2    0    0  0.37980304767E+00  0.15182432397E+02 -0.12636051047E+02  0.19756525249E+02  0.00000000000E+00 0. -1.
         11    1    1    2    0    0  0.97023503015E+01 -0.29399671203E+02  0.23197752654E+02  0.38686069798E+02  0.00000000000E+00 0.  1.
<mgrwt>
<rscale>  0 0.98237604E+02</rscale>
<asrwt>0</asrwt>
<pdfrwt beam="1">  1        1 0.19115898E-01 0.11745296E+03</pdfrwt>
<pdfrwt beam="2">  1       -1 0.95948725E-02 0.11745296E+03</pdfrwt>
<totfact> 0.16160762E+04</totfact>
</mgrwt>
</event>
<event>
 7    1  0.6008063E-006  0.2741086E+03  0.7546771E-02  0.1100914E+00
          4   -1    0    0  501    0  0.00000000000E+00  0.00000000000E+00  0.15828107889E+03  0.15828107889E+03  0.00000000000E+00 0. -1.
         -4   -1    0    0    0  501 -0.00000000000E+00 -0.00000000000E+00 -0.46268203272E+03  0.46268203272E+03  0.00000000000E+00 0.  1.
         23    2    1    2    0    0  0.21828572957E+02 -0.24296938034E+03 -0.10753890745E+03  0.29444890042E+03  0.12499972786E+03 0.  0.
          5    1    3    3  502    0  0.54785380544E+02 -0.62317048189E+02 -0.31541557221E+01  0.83167849045E+02  0.47000000000E+01 0. -1.
         -5    1    3    3    0  502 -0.32956807587E+02 -0.18065233215E+03 -0.10438475173E+03  0.21128105138E+03  0.47000000000E+01 0. -1.
        -11    1    1    2    0    0  0.24404808624E+02  0.10322740970E+03 -0.12103987510E+03  0.16094143084E+03  0.00000000000E+00 0.  1.
         11    1    1    2    0    0 -0.46233381581E+02  0.13974197064E+03 -0.75822171278E+02  0.16557278034E+03  0.00000000000E+00 0. -1.
<mgrwt>
<rscale>  0 0.27063954E+03</rscale>
<asrwt>0</asrwt>
<pdfrwt beam="1">  1        4 0.24350935E-01 0.27410863E+03</pdfrwt>
<pdfrwt beam="2">  1       -4 0.71181852E-01 0.27410863E+03</pdfrwt>
<totfact> 0.53227465E+01</totfact>
</mgrwt>
</event>
<event>
 7    1  0.6008063E-006  0.2627116E+03  0.7546771E-02  0.1107671E+00
         -1   -1    0    0    0  501 -0.00000000000E+00  0.00000000000E+00  0.76233956388E+02  0.76233956388E+02  0.00000000000E+00 0.  1.
          1   -1    0    0  501    0  0.00000000000E+00 -0.00000000000E+00 -0.12092702321E+04  0.12092702321E+04  0.00000000000E+00 0. -1.
         23    2    1    2    0    0  0.18745696688E+03  0.13510779115E+03 -0.92412926890E+03  0.96074568505E+03  0.12499254397E+03 0.  0.
          5    1    3    3  502    0  0.12247288524E+03  0.94606019703E+02 -0.79983222785E+03  0.81468005333E+03  0.47000000000E+01 0.  1.
         -5    1    3    3    0  502  0.64984081645E+02  0.40501771443E+02 -0.12429704105E+03  0.14606563172E+03  0.47000000000E+01 0.  1.
        -11    1    1    2    0    0 -0.46360987051E+02 -0.72598879709E+02 -0.37013778226E+02  0.93754777126E+02  0.00000000000E+00 0.  1.
         11    1    1    2    0    0 -0.14109597983E+03 -0.62508911437E+02 -0.17189322858E+03  0.23100372630E+03  0.00000000000E+00 0. -1.
<mgrwt>
<rscale>  0 0.25912287E+03</rscale>
<asrwt>0</asrwt>
<pdfrwt beam="2">  1        1 0.18604157E+00 0.26271156E+03</pdfrwt>
<pdfrwt beam="1">  1       -1 0.11728301E-01 0.26271156E+03</pdfrwt>
<totfact> 0.53798784E+02</totfact>
</mgrwt>
</event>
<event>
 7    1  0.6008063E-006  0.1349402E+03  0.7546771E-02  0.1232127E+00
         -2   -1    0    0    0  501 -0.00000000000E+00  0.00000000000E+00  0.27708369673E+03  0.27708369673E+03  0.00000000000E+00 0.  1.
          2   -1    0    0  501    0  0.00000000000E+00 -0.00000000000E+00 -0.52213166810E+02  0.52213166810E+02  0.00000000000E+00 0. -1.
         23    2    1    2    0    0 -0.11736687642E+02  0.49462946087E+02  0.13025338310E+03  0.18754948241E+03  0.12499812667E+03 0.  0.
          5    1    3    3  502    0 -0.61985896970E+02  0.16602708273E+02  0.30921627076E+02  0.71387242321E+02  0.47000000000E+01 0.  1.
         -5    1    3    3    0  502  0.50249209328E+02  0.32860237813E+02  0.99331756029E+02  0.11616224009E+03  0.47000000000E+01 0.  1.
        -11    1    1    2    0    0 -0.62564942947E+01 -0.29359644362E+02  0.10766983306E+03  0.11177622909E+03  0.00000000000E+00 0.  1.
         11    1    1    2    0    0  0.17993181936E+02 -0.20103301724E+02 -0.13052686244E+02  0.29971152040E+02  0.00000000000E+00 0. -1.
<mgrwt>
<rscale>  0 0.12690137E+03</rscale>
<asrwt>0</asrwt>
<pdfrwt beam="2">  1        2 0.80327951E-02 0.13494023E+03</pdfrwt>
<pdfrwt beam="1">  1       -2 0.42628260E-01 0.13494023E+03</pdfrwt>
<totfact> 0.42436195E+03</totfact>
</mgrwt>
</event>
<event>
 7    1  0.6008063E-006  0.3382718E+03  0.7546771E-02  0.1068602E+00
          2   -1    0    0  501    0  0.00000000000E+00  0.00000000000E+00  0.62620949205E+03  0.62620949205E+03  0.00000000000E+00 0. -1.
         -2   -1    0    0    0  501 -0.00000000000E+00 -0.00000000000E+00 -0.22639600609E+03  0.22639600609E+03  0.00000000000E+00 0.  1.
         23    2    1    2    0    0  0.15470048790E+02  0.31392598649E+03  0.40036342545E+03  0.52413614300E+03  0.12505589373E+03 0.  0.
          5    1    3    3  502    0 -0.45692356256E+02  0.15524131365E+03  0.24552390738E+03  0.29409477380E+03  0.47000000000E+01 0.  1.
         -5    1    3    3    0  502  0.61162405045E+02  0.15868467284E+03  0.15483951807E+03  0.23004136920E+03  0.47000000000E+01 0.  1.
        -11    1    1    2    0    0  0.26830298557E+02 -0.80111887000E+02 -0.28633778442E+02  0.89205788082E+02  0.00000000000E+00 0.  1.
         11    1    1    2    0    0 -0.42300347347E+02 -0.23381409949E+03  0.28083838949E+02  0.23926356705E+03  0.00000000000E+00 0. -1.
<mgrwt>
<rscale>  0 0.33579400E+03</rscale>
<asrwt>0</asrwt>
<pdfrwt beam="1">  1        2 0.96339921E-01 0.33827182E+03</pdfrwt>
<pdfrwt beam="2">  1       -2 0.34830155E-01 0.33827182E+03</pdfrwt>
<totfact> 0.37292359E+02</totfact>
</mgrwt>
</event>
<event>
 7    1  0.6008063E-006  0.1407642E+03  0.7546771E-02  0.1224445E+00
          2   -1    0    0  501    0  0.00000000000E+00  0.00000000000E+00  0.21121222371E+03  0.21121222371E+03  0.00000000000E+00 0. -1.
         -2   -1    0    0    0  501 -0.00000000000E+00 -0.00000000000E+00 -0.10407869270E+03  0.10407869270E+03  0.00000000000E+00 0.  1.
         23    2    1    2    0    0 -0.62858956095E+02 -0.15423273545E+02  0.14287343456E+03  0.20056767531E+03  0.12500179338E+03 0.  0.
          5    1    3    3  502    0 -0.94276325621E+02 -0.27459403237E+01  0.62563645982E+02  0.11327782466E+03  0.47000000000E+01 0.  1.
         -5    1    3    3    0  502  0.31417369525E+02 -0.12677333221E+02  0.80309788577E+02  0.87289850652E+02  0.47000000000E+01 0.  1.
        -11    1    1    2    0    0  0.35035059377E+02  0.24116894370E+02 -0.62201795288E+02  0.75353455904E+02  0.00000000000E+00 0.  1.
         11    1    1    2    0    0  0.27823896718E+02 -0.86936208258E+01  0.26461891746E+02  0.39369785197E+02  0.00000000000E+00 0. -1.
<mgrwt>
<rscale>  0 0.13205048E+03</rscale>
<asrwt>0</asrwt>
<pdfrwt beam="1">  1        2 0.32494188E-01 0.14076425E+03</pdfrwt>
<pdfrwt beam="2">  1       -2 0.16012107E-01 0.14076425E+03</pdfrwt>
<totfact> 0.47274468E+03</totfact>
</mgrwt>
</event>
<event>
 6    1  0.6008063E-006  0.2041295E+03  0.7546771E-02  0.1173071E+00
          2   -1    0    0  501    0  0.00000000000E+00  0.00000000000E+00  0.34074967683E+03  0.34074967683E+03  0.00000000000E+00 0. -1.
         -2   -1    0    0    0  501 -0.00000000000E+00 -0.00000000000E+00 -0.89826818126E+02  0.89826818126E+02  0.00000000000E+00 0.  1.
          5    1    1    2  502    0 -0.10552919858E+03 -0.45507821994E+02  0.22295518884E+03  0.25087542695E+03  0.47000000000E+01 0. -1.
         -5    1    1    2    0  502  0.65423629317E+02  0.31844613451E+01  0.24932635924E+02  0.70243280114E+02  0.47000000000E+01 0.  1.
        -11    1    1    2    0    0  0.47605754026E+02 -0.14994409507E+01 -0.27988260042E+02  0.55243993699E+02  0.00000000000E+00 0.  1.
         11    1    1    2    0    0 -0.75001847646E+01  0.43822801599E+02  0.31023293979E+02  0.54213794193E+02  0.00000000000E+00 0. -1.
<mgrwt>
<rscale>  0 0.17466232E+03</rscale>
<asrwt>0</asrwt>
<pdfrwt beam="1">  1        2 0.52423027E-01 0.20412949E+03</pdfrwt>
<pdfrwt beam="2">  1       -2 0.13819511E-01 0.20412949E+03</pdfrwt>
<totfact> 0.36723622E+03</totfact>
</mgrwt>
</event>
<event>
 6    1  0.6008063E-006  0.1605112E+03  0.7546771E-02  0.1212524E+00
          2   -1    0    0  501    0  0.00000000000E+00  0.00000000000E+00  0.69581287384E+02  0.69581287384E+02  0.00000000000E+00 0.  1.
         -2   -1    0    0    0  501 -0.00000000000E+00 -0.00000000000E+00 -0.30355297320E+03  0.30355297320E+03  0.00000000000E+00 0. -1.
          5    1    1    2  502    0 -0.13301936078E+02  0.11156056330E+02 -0.10288525929E+03  0.10444551535E+03  0.47000000000E+01 0. -1.
         -5    1    1    2    0  502  0.40453993643E+02 -0.62520922647E+01  0.49782283724E+02  0.64621823188E+02  0.47000000000E+01 0.  1.
        -11    1    1    2    0    0  0.16406845100E+02  0.28352973262E+02 -0.10819744427E+03  0.11304761212E+03  0.00000000000E+00 0.  1.
         11    1    1    2    0    0 -0.43558902665E+02 -0.33256937327E+02 -0.72671265977E+02  0.91019309932E+02  0.00000000000E+00 0. -1.
<mgrwt>
<rscale>  0 0.14059967E+03</rscale>
<asrwt>0</asrwt>
<pdfrwt beam="1">  1        2 0.10704814E-01 0.16051118E+03</pdfrwt>
<pdfrwt beam="2">  1       -2 0.46700457E-01 0.16051118E+03</pdfrwt>
<totfact> 0.25178669E+03</totfact>
</mgrwt>
</event>
<event>
 7    1  0.6008063E-006  0.1382404E+03  0.7546771E-02  0.1227150E+00
         -1   -1    0    0    0  501 -0.00000000000E+00  0.00000000000E+00  0.27887038211E+03  0.27887038211E+03  0.00000000000E+00 0. -1.
          1   -1    0    0  501    0  0.00000000000E+00 -0.00000000000E+00 -0.54759020548E+02  0.54759020548E+02  0.00000000000E+00 0.  1.
         23    2    1    2    0    0  0.44471321482E+02 -0.38833885246E+02  0.12045515183E+03  0.18335719157E+03  0.12499858807E+03 0.  0.
          5    1    3    3  502    0  0.26224873937E+02 -0.78187197302E+02  0.39875252484E+02  0.91722993822E+02  0.47000000000E+01 0. -1.
         -5    1    3    3    0  502  0.18246447545E+02  0.39353312056E+02  0.80579899348E+02  0.91634197747E+02  0.47000000000E+01 0. -1.
        -11    1    1    2    0    0  0.26924345723E+02  0.21675987118E+02  0.41971674121E+02  0.54372697548E+02  0.00000000000E+00 0.  1.
         11    1    1    2    0    0 -0.71395667205E+02  0.17157898128E+02  0.61684535606E+02  0.95899513538E+02  0.00000000000E+00 0. -1.
<mgrwt>
<rscale>  0 0.13020633E+03</rscale>
<asrwt>0</asrwt>
<pdfrwt beam="2">  1        1 0.84244648E-02 0.13824043E+03</pdfrwt>
<pdfrwt beam="1">  1       -1 0.42903135E-01 0.13824043E+03</pdfrwt>
<totfact> 0.42251995E+03</totfact>
</mgrwt>
</event>
<event>
 7    1  0.6008063E-006  0.1271620E+03  0.7546771E-02  0.1246667E+00
         -2   -1    0    0    0  501 -0.00000000000E+00  0.00000000000E+00  0.89633148785E+01  0.89633148785E+01  0.00000000000E+00 0.  1.
          2   -1    0    0  501    0  0.00000000000E+00 -0.00000000000E+00 -0.14307830944E+04  0.14307830944E+04  0.00000000000E+00 0. -1.
         23    2    1    2    0    0 -0.75202410898E+01  0.22104914840E+02 -0.96866997573E+03  0.97698091182E+03  0.12499999556E+03 0.  0.
          5    1    3    3  502    0  0.24355829337E+02  0.55960250132E+02 -0.27462457876E+03  0.28136365308E+03  0.47000000000E+01 0.  1.
         -5    1    3    3    0  502 -0.31876070427E+02 -0.33855335292E+02 -0.69404539697E+03  0.69561725873E+03  0.47000000000E+01 0.  1.
        -11    1    1    2    0    0 -0.25798846899E+02  0.24246275231E+02 -0.13682964286E+03  0.14133581828E+03  0.00000000000E+00 0.  1.
         11    1    1    2    0    0  0.33319087989E+02 -0.46351190070E+02 -0.31632016089E+03  0.32142967913E+03  0.00000000000E+00 0. -1.
<mgrwt>
<rscale>  0 0.11786166E+03</rscale>
<asrwt>0</asrwt>
<pdfrwt beam="2">  1        2 0.22012046E+00 0.12716202E+03</pdfrwt>
<pdfrwt beam="1">  1       -2 0.13789717E-02 0.12716202E+03</pdfrwt>
<totfact> 0.19047917E+04</totfact>
</mgrwt>
</event>
<event>
 7    1  0.6008063E-006  0.1634390E+03  0.7546771E-02  0.1195187E+00
         -1   -1    0    0    0  501 -0.00000000000E+00  0.00000000000E+00  0.37953772901E+02  0.37953772901E+02  0.00000000000E+00 0. -1.
          1   -1    0    0  501    0  0.00000000000E+00 -0.00000000000E+00 -0.56907013856E+03  0.56907013856E+03  0.00000000000E+00 0.  1.
         23    2    1    2    0    0  0.97519734157E+02  0.39750034608E+02 -0.31070171154E+03  0.35106676070E+03  0.12498861194E+03 0.  0.
          5    1    3    3  502    0  0.25587588910E+02  0.75984539228E+02 -0.18525282035E+03  0.20191352692E+03  0.47000000000E+01 0. -1.
         -5    1    3    3    0  502  0.71932145247E+02 -0.36234504620E+02 -0.12544889119E+03  0.14915323378E+03  0.47000000000E+01 0. -1.
        -11    1    1    2    0    0 -0.18526411661E+02  0.19033266918E+02 -0.81245347109E+02  0.85476895156E+02  0.00000000000E+00 0.  1.
         11    1    1    2    0    0 -0.78993322495E+02 -0.58783301526E+02 -0.13916930701E+03  0.17048025560E+03  0.00000000000E+00 0. -1.
<mgrwt>
<rscale>  0 0.15438446E+03</rscale>
<asrwt>0</asrwt>
<pdfrwt beam="2">  1        1 0.87549252E-01 0.16343903E+03</pdfrwt>
<pdfrwt beam="1">  1       -1 0.58390420E-02 0.16343903E+03</pdfrwt>
<totfact> 0.51376729E+03</totfact>
</mgrwt>
</event>
<event>
 7    1  0.6008063E-006  0.1322447E+03  0.7546771E-02  0.1237010E+00
         -1   -1    0    0    0  501 -0.00000000000E+00  0.00000000000E+00  0.60733762776E+02  0.60733762776E+02  0.00000000000E+00 0.  1.
          1   -1    0    0  501    0  0.00000000000E+00 -0.00000000000E+00 -0.22629784173E+03  0.22629784173E+03  0.00000000000E+00 0. -1.
         23    2    1    2    0    0  0.25550735108E+02  0.34794367035E+02 -0.82106019926E+02  0.15566006375E+03  0.12500067558E+03 0.  0.
          5    1    3    3  502    0  0.42564424974E+02  0.55399106442E+02 -0.10078447840E+03  0.12272079023E+03  0.47000000000E+01 0. -1.
         -5    1    3    3    0  502 -0.17013689866E+02 -0.20604739406E+02  0.18678458477E+02  0.32939273519E+02  0.47000000000E+01 0. -1.
        -11    1    1    2    0    0 -0.43282697578E+02 -0.38622714894E+02 -0.14124811619E+02  0.59704407866E+02  0.00000000000E+00 0.  1.
         11    1    1    2    0    0  0.17731962471E+02  0.38283478581E+01 -0.69333247407E+02  0.71667132888E+02  0.00000000000E+00 0. -1.
<mgrwt>
<rscale>  0 0.12376637E+03</rscale>
<asrwt>0</asrwt>
<pdfrwt beam="2">  1        1 0.34815053E-01 0.13224469E+03</pdfrwt>
<pdfrwt beam="1">  1       -1 0.93436558E-02 0.13224469E+03</pdfrwt>
<totfact> 0.80298282E+03</totfact>
</mgrwt>
</event>
<event>
 7    1  0.6008063E-006  0.1559794E+03  0.7546771E-02  0.1199316E+00
          1   -1    0    0  501    0  0.00000000000E+00  0.00000000000E+00  0.47352456589E+03  0.47352456589E+03  0.00000000000E+00 0. -1.
         -1   -1    0    0    0  501 -0.00000000000E+00 -0.00000000000E+00 -0.49000590538E+02  0.49000590538E+02  0.00000000000E+00 0.  1.
         23    2    1    2    0    0  0.90636367003E+02 -0.22136490100E+02  0.29718588683E+03  0.33563226277E+03  0.12499835705E+03 0.  0.
          5    1    3    3  502    0 -0.16949029105E+02  0.30341583820E+01  0.15240296222E+03  0.15344454568E+03  0.47000000000E+01 0. -1.
         -5    1    3    3    0  502  0.10758539611E+03 -0.25170648482E+02  0.14478292461E+03  0.18218771709E+03  0.47000000000E+01 0. -1.
        -11    1    1    2    0    0 -0.61964194073E+02  0.61495910152E+02  0.91232062489E+02  0.12627191904E+03  0.00000000000E+00 0.  1.
         11    1    1    2    0    0 -0.28672172931E+02 -0.39359420052E+02  0.36106026032E+02  0.60620974614E+02  0.00000000000E+00 0. -1.
<mgrwt>
<rscale>  0 0.15094582E+03</rscale>
<asrwt>0</asrwt>
<pdfrwt beam="1">  1        1 0.72849930E-01 0.15597937E+03</pdfrwt>
<pdfrwt beam="2">  1       -1 0.75385527E-02 0.15597937E+03</pdfrwt>
<totfact> 0.44538221E+03</totfact>
</mgrwt>
</event>
<event>
 7    1  0.6008063E-006  0.1654866E+03  0.7546771E-02  0.1189448E+00
         -2   -1    0    0    0  501 -0.00000000000E+00  0.00000000000E+00  0.16990519872E+03  0.16990519872E+03  0.00000000000E+00 0.  1.
          2   -1    0    0  501    0  0.00000000000E+00 -0.00000000000E+00 -0.16176543690E+03  0.16176543690E+03  0.00000000000E+00 0. -1.
         23    2    1    2    0    0 -0.84209064704E+02 -0.68345579343E+02 -0.57284440683E+02  0.17512084969E+03  0.12499408009E+03 0.  0.
          5    1    3    3  502    0 -0.11639462234E+03 -0.49208480275E+02 -0.34662917546E+02  0.13112128162E+03  0.47000000000E+01 0.  1.
         -5    1    3    3    0  502  0.32185557639E+02 -0.19137099068E+02 -0.22621523137E+02  0.43999568069E+02  0.47000000000E+01 0.  1.
        -11    1    1    2    0    0  0.52099724403E+02  0.77309299707E+02  0.77357162201E+02  0.12114140352E+03  0.00000000000E+00 0.  1.
         11    1    1    2    0    0  0.32109340301E+02 -0.89637203646E+01 -0.11932959700E+02  0.35408382405E+02  0.00000000000E+00 0. -1.
<mgrwt>
<rscale>  0 0.15933635E+03</rscale>
<asrwt>0</asrwt>
<pdfrwt beam="2">  1        2 0.24886990E-01 0.16548657E+03</pdfrwt>
<pdfrwt beam="1">  1       -2 0.26139261E-01 0.16548657E+03</pdfrwt>
<totfact> 0.27690675E+03</totfact>
</mgrwt>
</event>
<event>
 7    1  0.6008063E-006  0.1310628E+03  0.7546771E-02  0.1239117E+00
          1   -1    0    0  501    0  0.00000000000E+00  0.00000000000E+00  0.33151485176E+02  0.33151485176E+02  0.00000000000E+00 0. -1.
         -1   -1    0    0    0  501 -0.00000000000E+00 -0.00000000000E+00 -0.41627735286E+03  0.41627735286E+03  0.00000000000E+00 0.  1.
         23    2    1    2    0    0  0.33803783612E+02  0.20029542880E+02 -0.17545100638E+03  0.21899887283E+03  0.12503428444E+03 0.  0.
          5    1    3    3  502    0  0.26747926846E+01 -0.10985745496E+02  0.17328840618E+02  0.21218384415E+02  0.47000000000E+01 0. -1.
         -5    1    3    3    0  502  0.31128990927E+02  0.31015288376E+02 -0.19277984700E+03  0.19778048841E+03  0.47000000000E+01 0. -1.
        -11    1    1    2    0    0 -0.30694485906E+02  0.33646561024E+02 -0.10720908776E+03  0.11648189143E+03  0.00000000000E+00 0.  1.
         11    1    1    2    0    0 -0.31092977063E+01 -0.53676103904E+02 -0.10046577355E+03  0.11394807378E+03  0.00000000000E+00 0. -1.
<mgrwt>
<rscale>  0 0.12244516E+03</rscale>
<asrwt>0</asrwt>
<pdfrwt beam="1">  1        1 0.51002283E-02 0.13106277E+03</pdfrwt>
<pdfrwt beam="2">  1       -1 0.64042672E-01 0.13106277E+03</pdfrwt>
<totfact> 0.39630972E+03</totfact>
</mgrwt>
</event>
<event>
 7    1  0.6008063E-006  0.1485034E+03  0.7546771E-02  0.1212034E+00
          2   -1    0    0  501    0  0.00000000000E+00  0.00000000000E+00  0.13547132337E+03  0.13547132337E+03  0.00000000000E+00 0. -1.
         -2   -1    0    0    0  501 -0.00000000000E+00 -0.00000000000E+00 -0.13621283544E+03  0.13621283544E+03  0.00000000000E+00 0.  1.
         23    2    1    2    0    0  0.35996188154E+02  0.71645646783E+02  0.18257394348E+02  0.14962144897E+03  0.12499768509E+03 0.  0.
          5    1    3    3  502    0  0.77382295567E+02  0.22616747223E+02 -0.57355282220E+01  0.80960009919E+02  0.47000000000E+01 0. -1.
         -5    1    3    3    0  502 -0.41386107413E+02  0.49028899560E+02  0.23992922570E+02  0.68661439049E+02  0.47000000000E+01 0. -1.
        -11    1    1    2    0    0 -0.32588351625E+02 -0.11188151486E+02 -0.44566752481E+02  0.56332679876E+02  0.00000000000E+00 0.  1.
         11    1    1    2    0    0 -0.34078365292E+01 -0.60457495297E+02  0.25567846066E+02  0.65730029970E+02  0.00000000000E+00 0. -1.
<mgrwt>
<rscale>  0 0.14096671E+03</rscale>
<asrwt>0</asrwt>
<pdfrwt beam="1">  1        2 0.20841742E-01 0.14850335E+03</pdfrwt>
<pdfrwt beam="2">  1       -2 0.20955821E-01 0.14850335E+03</pdfrwt>
<totfact> 0.49268760E+03</totfact>
</mgrwt>
</event>
<event>
 7    1  0.6008063E-006  0.1855554E+03  0.7546771E-02  0.1167946E+00
          2   -1    0    0  501    0  0.00000000000E+00  0.00000000000E+00  0.19268123795E+04  0.19268123795E+04  0.00000000000E+00 0. -1.
         -2   -1    0    0    0  501 -0.00000000000E+00 -0.00000000000E+00 -0.31929765900E+02  0.31929765900E+02  0.00000000000E+00 0.  1.
         23    2    1    2    0    0  0.36550913642E+02 -0.13217563930E+03  0.16714323792E+04  0.16817006321E+04  0.12499779512E+03 0.  0.
          5    1    3    3  502    0  0.28430202536E+02 -0.39749313445E+02  0.15875534344E+03  0.16617350392E+03  0.47000000000E+01 0.  1.
         -5    1    3    3    0  502  0.81207111058E+01 -0.92426325853E+02  0.15126770358E+04  0.15155271282E+04  0.47000000000E+01 0.  1.
        -11    1    1    2    0    0  0.10946551369E+02  0.20314616742E+02  0.45423366526E+00  0.23080662219E+02  0.00000000000E+00 0.  1.
         11    1    1    2    0    0 -0.47497465011E+02  0.11186102256E+03  0.22299600075E+03  0.25396085112E+03  0.00000000000E+00 0. -1.
<mgrwt>
<rscale>  0 0.17985256E+03</rscale>
<asrwt>0</asrwt>
<pdfrwt beam="1">  1        2 0.29643258E+00 0.18555543E+03</pdfrwt>
<pdfrwt beam="2">  1       -2 0.49122732E-02 0.18555543E+03</pdfrwt>
<totfact> 0.16442282E+03</totfact>
</mgrwt>
</event>
<event>
 7    1  0.6008063E-006  0.1410869E+03  0.7546771E-02  0.1222549E+00
         -3   -1    0    0    0  501 -0.00000000000E+00  0.00000000000E+00  0.62951900712E+02  0.62951900712E+02  0.00000000000E+00 0.  1.
          3   -1    0    0  501    0  0.00000000000E+00 -0.00000000000E+00 -0.26631294229E+03  0.26631294229E+03  0.00000000000E+00 0. -1.
         23    2    1    2    0    0  0.87045796744E+01 -0.64852704404E+02 -0.14535851744E+03  0.20257003263E+03  0.12499550612E+03 0.  0.
          5    1    3    3  502    0  0.21722336136E+02  0.64910924061E+01  0.14255469309E+02  0.27190119034E+02  0.47000000000E+01 0.  1.
         -5    1    3    3    0  502 -0.13017756462E+02 -0.71343796810E+02 -0.15961398675E+03  0.17537991360E+03  0.47000000000E+01 0.  1.
        -11    1    1    2    0    0 -0.50303213997E+01 -0.22477448930E+02 -0.25331789143E+01  0.23172329171E+02  0.00000000000E+00 0.  1.
         11    1    1    2    0    0 -0.36742582746E+01  0.87330153334E+02 -0.55469345227E+02  0.10352248121E+03  0.00000000000E+00 0. -1.
<mgrwt>
<rscale>  0 0.13336324E+03</rscale>
<asrwt>0</asrwt>
<pdfrwt beam="2">  1        3 0.40971222E-01 0.14108692E+03</pdfrwt>
<pdfrwt beam="1">  1       -3 0.96849077E-02 0.14108692E+03</pdfrwt>
<totfact> 0.10699044E+03</totfact>
</mgrwt>
</event>
<event>
 7    1  0.6008063E-006  0.1266022E+03  0.7546771E-02  0.1247033E+00
         -1   -1    0    0    0  501 -0.00000000000E+00  0.00000000000E+00  0.73547268418E+02  0.73547268418E+02  0.00000000000E+00 0.  1.
          1   -1    0    0  501    0  0.00000000000E+00 -0.00000000000E+00 -0.16636126817E+03  0.16636126817E+03  0.00000000000E+00 0. -1.
         23    2    1    2    0    0 -0.17518118349E+02  0.98204632396E+01 -0.58511832088E+02  0.13946955502E+03  0.12499918525E+03 0.  0.
          5    1    3    3  502    0 -0.49705719180E+02  0.31969324967E+02 -0.76013779592E+02  0.96399589968E+02  0.47000000000E+01 0. -1.
         -5    1    3    3    0  502  0.32187600831E+02 -0.22148861727E+02  0.17501947504E+02  0.43069965051E+02  0.47000000000E+01 0. -1.
        -11    1    1    2    0    0  0.17606350307E+02  0.27927578288E+02 -0.49704315804E+02  0.59669524966E+02  0.00000000000E+00 0. -1.
         11    1    1    2    0    0 -0.88231957651E-01 -0.37748041527E+02  0.15402148143E+02  0.40769456600E+02  0.00000000000E+00 0.  1.
<mgrwt>
<rscale>  0 0.11764512E+03</rscale>
<asrwt>0</asrwt>
<pdfrwt beam="2">  1        1 0.25594041E-01 0.12660222E+03</pdfrwt>
<pdfrwt beam="1">  1       -1 0.11314965E-01 0.12660222E+03</pdfrwt>
<totfact> 0.87581873E+03</totfact>
</mgrwt>
</event>
<event>
 7    1  0.6008063E-006  0.1393911E+03  0.7546771E-02  0.1225402E+00
          2   -1    0    0  501    0  0.00000000000E+00  0.00000000000E+00  0.33859504334E+02  0.33859504334E+02  0.00000000000E+00 0. -1.
         -2   -1    0    0    0  501 -0.00000000000E+00 -0.00000000000E+00 -0.50152207092E+03  0.50152207092E+03  0.00000000000E+00 0.  1.
         23    2    1    2    0    0 -0.28931293581E+02  0.54482724939E+02 -0.18194940988E+03  0.22920616860E+03  0.12499797161E+03 0.  0.
          5    1    3    3  502    0 -0.59783448355E+02  0.79027811747E+02 -0.12105770894E+03  0.15651362439E+03  0.47000000000E+01 0.  1.
         -5    1    3    3    0  502  0.30852154774E+02 -0.24545086808E+02 -0.60891700944E+02  0.72692544215E+02  0.47000000000E+01 0.  1.
        -11    1    1    2    0    0  0.58136900057E+02 -0.24228221440E+02 -0.21365130920E+03  0.22274152686E+03  0.00000000000E+00 0.  1.
         11    1    1    2    0    0 -0.29205606476E+02 -0.30254503499E+02 -0.72061847502E+02  0.83433879791E+02  0.00000000000E+00 0. -1.
<mgrwt>
<rscale>  0 0.13139398E+03</rscale>
<asrwt>0</asrwt>
<pdfrwt beam="1">  1        2 0.52091545E-02 0.13939110E+03</pdfrwt>
<pdfrwt beam="2">  1       -2 0.77157243E-01 0.13939110E+03</pdfrwt>
<totfact> 0.22092675E+03</totfact>
</mgrwt>
</event>
<event>
 7    1  0.6008063E-006  0.1261591E+03  0.7546771E-02  0.1249267E+00
          1   -1    0    0  501    0  0.00000000000E+00  0.00000000000E+00  0.89785262763E+02  0.89785262763E+02  0.00000000000E+00 0. -1.
         -1   -1    0    0    0  501 -0.00000000000E+00 -0.00000000000E+00 -0.17277127553E+03  0.17277127553E+03  0.00000000000E+00 0.  1.
         23    2    1    2    0    0 -0.16955458648E+02  0.18018213229E+01  0.16897033743E+02  0.12728557028E+03  0.12500149005E+03 0.  0.
          5    1    3    3  502    0 -0.27490747468E+02  0.59786904271E+02  0.66142906808E+00  0.65975318166E+02  0.47000000000E+01 0. -1.
         -5    1    3    3    0  502  0.10535288820E+02 -0.57985082948E+02  0.16235604675E+02  0.61310252113E+02  0.47000000000E+01 0. -1.
        -11    1    1    2    0    0  0.42870406341E+02  0.27282859715E+02 -0.68249314733E+02  0.85089336204E+02  0.00000000000E+00 0.  1.
         11    1    1    2    0    0 -0.25914947693E+02 -0.29084681038E+02 -0.31633731774E+02  0.50181631808E+02  0.00000000000E+00 0. -1.
<mgrwt>
<rscale>  0 0.11633617E+03</rscale>
<asrwt>0</asrwt>
<pdfrwt beam="1">  1        1 0.13813118E-01 0.12615905E+03</pdfrwt>
<pdfrwt beam="2">  1       -1 0.26580196E-01 0.12615905E+03</pdfrwt>
<totfact> 0.49579012E+03</totfact>
</mgrwt>
</event>
<event>
 7    1  0.6008063E-006  0.1397479E+03  0.7546771E-02  0.1224135E+00
          2   -1    0    0  501    0  0.00000000000E+00  0.00000000000E+00  0.39066745927E+03  0.39066745927E+03  0.00000000000E+00 0. -1.
         -2   -1    0    0    0  501 -0.00000000000E+00 -0.00000000000E+00 -0.42383197837E+02  0.42383197837E+02  0.00000000000E+00 0.  1.
         23    2    1    2    0    0  0.35795726398E+02 -0.51227820709E+02  0.23659875251E+03  0.27478800660E+03  0.12499542086E+03 0.  0.
          5    1    3    3  502    0 -0.12590844938E+02 -0.62647376479E+02  0.49014596954E+02  0.80670588634E+02  0.47000000000E+01 0.  1.
         -5    1    3    3    0  502  0.48386571336E+02  0.11419555770E+02  0.18758415556E+03  0.19411741796E+03  0.47000000000E+01 0.  1.
        -11    1    1    2    0    0 -0.62626653873E+02  0.25581145268E+02  0.42910550033E+02  0.80111223138E+02  0.00000000000E+00 0.  1.
         11    1    1    2    0    0  0.26830927475E+02  0.25646675441E+02  0.68774958889E+02  0.78151427374E+02  0.00000000000E+00 0. -1.
<mgrwt>
<rscale>  0 0.13226369E+03</rscale>
<asrwt>0</asrwt>
<pdfrwt beam="1">  1        2 0.60102684E-01 0.13974791E+03</pdfrwt>
<pdfrwt beam="2">  1       -2 0.65204922E-02 0.13974791E+03</pdfrwt>
<totfact> 0.10137019E+04</totfact>
</mgrwt>
</event>
<event>
 7    1  0.6008063E-006  0.1252854E+03  0.7546771E-02  0.1249296E+00
         -2   -1    0    0    0  501 -0.00000000000E+00  0.00000000000E+00  0.11955182946E+03  0.11955182946E+03  0.00000000000E+00 0.  1.
          2   -1    0    0  501    0  0.00000000000E+00 -0.00000000000E+00 -0.99963581697E+02  0.99963581697E+02  0.00000000000E+00 0. -1.
         23    2    1    2    0    0  0.39147850195E+01 -0.73747771571E+01  0.58960875260E+01  0.12542407955E+03  0.12500689182E+03 0.  0.
          5    1    3    3  502    0 -0.42837047809E+02 -0.18010821502E+02  0.43871865235E+02  0.64079894783E+02  0.47000000000E+01 0.  1.
         -5    1    3    3    0  502  0.46751832829E+02  0.10636044345E+02 -0.37975777709E+02  0.61344184767E+02  0.47000000000E+01 0.  1.
        -11    1    1    2    0    0  0.14315642211E+02 -0.38797513950E+02  0.16134245350E+02  0.44390298192E+02  0.00000000000E+00 0.  1.
         11    1    1    2    0    0 -0.18230427231E+02  0.46172291107E+02 -0.24420851105E+01  0.49701033417E+02  0.00000000000E+00 0. -1.
<mgrwt>
<rscale>  0 0.11631906E+03</rscale>
<asrwt>0</asrwt>
<pdfrwt beam="2">  1        2 0.15379013E-01 0.12528542E+03</pdfrwt>
<pdfrwt beam="1">  1       -2 0.18392589E-01 0.12528542E+03</pdfrwt>
<totfact> 0.85958881E+03</totfact>
</mgrwt>
</event>
<event>
 7    1  0.6008063E-006  0.1267685E+03  0.7546771E-02  0.1248171E+00
          2   -1    0    0  501    0  0.00000000000E+00  0.00000000000E+00  0.28487308622E+03  0.28487308622E+03  0.00000000000E+00 0. -1.
         -2   -1    0    0    0  501 -0.00000000000E+00 -0.00000000000E+00 -0.42017285062E+02  0.42017285062E+02  0.00000000000E+00 0.  1.
         23    2    1    2    0    0  0.15180206429E+02 -0.14847800250E+02  0.13508976575E+03  0.18525518998E+03  0.12497737701E+03 0.  0.
          5    1    3    3  502    0 -0.56673141937E+01 -0.49143902680E+02  0.60778112867E+01  0.50062674827E+02  0.47000000000E+01 0. -1.
         -5    1    3    3    0  502  0.20847520623E+02  0.34296102431E+02  0.12901195446E+03  0.13519251515E+03  0.47000000000E+01 0. -1.
        -11    1    1    2    0    0  0.18503170057E+02  0.12299939524E+02  0.10546206570E+03  0.10777709922E+03  0.00000000000E+00 0. -1.
         11    1    1    2    0    0 -0.33683376486E+02  0.25478607259E+01  0.23039697028E+01  0.33858082080E+02  0.00000000000E+00 0.  1.
<mgrwt>
<rscale>  0 0.11697586E+03</rscale>
<asrwt>0</asrwt>
<pdfrwt beam="1">  1        2 0.43826628E-01 0.12676845E+03</pdfrwt>
<pdfrwt beam="2">  1       -2 0.64641979E-02 0.12676845E+03</pdfrwt>
<totfact> 0.14250422E+04</totfact>
</mgrwt>
</event>
<event>
 7    1  0.6008063E-006  0.1283803E+03  0.7546771E-02  0.1244073E+00
         -2   -1    0    0    0  501 -0.00000000000E+00  0.00000000000E+00  0.11667158771E+02  0.11667158771E+02  0.00000000000E+00 0.  1.
          2   -1    0    0  501    0  0.00000000000E+00 -0.00000000000E+00 -0.11009272957E+04  0.11009272957E+04  0.00000000000E+00 0. -1.
         23    2    1    2    0    0  0.27164422150E+02 -0.10881077914E+02 -0.69800772983E+03  0.70971563725E+03  0.12500076465E+03 0.  0.
          5    1    3    3  502    0  0.68517892273E+02 -0.33496819161E+02 -0.51683833062E+03  0.52245639861E+03  0.47000000000E+01 0. -1.
         -5    1    3    3    0  502 -0.41353470122E+02  0.22615741248E+02 -0.18116939921E+03  0.18725923863E+03  0.47000000000E+01 0. -1.
        -11    1    1    2    0    0 -0.42577793694E+02 -0.25588566343E+02 -0.28881920036E+03  0.29306001730E+03  0.00000000000E+00 0. -1.
         11    1    1    2    0    0  0.15413371543E+02  0.36469644257E+02 -0.10243320679E+03  0.10981879997E+03  0.00000000000E+00 0.  1.
<mgrwt>
<rscale>  0 0.11941007E+03</rscale>
<asrwt>0</asrwt>
<pdfrwt beam="2">  1        2 0.16937339E+00 0.12838027E+03</pdfrwt>
<pdfrwt beam="1">  1       -2 0.17949479E-02 0.12838027E+03</pdfrwt>
<totfact> 0.19701380E+04</totfact>
</mgrwt>
</event>
<event>
 7    1  0.6008063E-006  0.1281866E+03  0.7546771E-02  0.1244560E+00
          1   -1    0    0  501    0  0.00000000000E+00  0.00000000000E+00  0.23858332863E+03  0.23858332863E+03  0.00000000000E+00 0. -1.
         -1   -1    0    0    0  501 -0.00000000000E+00 -0.00000000000E+00 -0.54485826371E+02  0.54485826371E+02  0.00000000000E+00 0.  1.
         23    2    1    2    0    0 -0.27977452629E+02 -0.48648696650E+01  0.13287082323E+03  0.18462516519E+03  0.12500156456E+03 0.  0.
          5    1    3    3  502    0 -0.36117483980E+01 -0.51435963909E+02  0.12600682511E+02  0.53287618726E+02  0.47000000000E+01 0.  1.
         -5    1    3    3    0  502 -0.24365704231E+02  0.46571094244E+02  0.12027014072E+03  0.13133754646E+03  0.47000000000E+01 0.  1.
        -11    1    1    2    0    0  0.59148291549E+02  0.48010990574E+01  0.49410433142E+02  0.77220216580E+02  0.00000000000E+00 0.  1.
         11    1    1    2    0    0 -0.31170838921E+02  0.63770607619E-01  0.18162458840E+01  0.31223773232E+02  0.00000000000E+00 0. -1.
<mgrwt>
<rscale>  0 0.11911761E+03</rscale>
<asrwt>0</asrwt>
<pdfrwt beam="1">  1        1 0.36705127E-01 0.12818657E+03</pdfrwt>
<pdfrwt beam="2">  1       -1 0.83824350E-02 0.12818657E+03</pdfrwt>
<totfact> 0.88451639E+03</totfact>
</mgrwt>
</event>
<event>
 7    1  0.6008063E-006  0.1475178E+03  0.7546771E-02  0.1214094E+00
         -2   -1    0    0    0  501 -0.00000000000E+00  0.00000000000E+00  0.18877239246E+03  0.18877239246E+03  0.00000000000E+00 0.  1.
          2   -1    0    0  501    0  0.00000000000E+00 -0.00000000000E+00 -0.93522363997E+02  0.93522363997E+02  0.00000000000E+00 0. -1.
         23    2    1    2    0    0 -0.27165402153E+02 -0.73477744176E+02  0.44513246581E+02  0.15408740023E+03  0.12499823928E+03 0.  0.
          5    1    3    3  502    0 -0.76963535827E+02 -0.50483484360E+02  0.23067882694E+02  0.95006237964E+02  0.47000000000E+01 0.  1.
         -5    1    3    3    0  502  0.49798133674E+02 -0.22994259816E+02  0.21445363887E+02  0.59081162261E+02  0.47000000000E+01 0.  1.
        -11    1    1    2    0    0 -0.17754337377E+02  0.65804513765E+02  0.13784100724E+02  0.69537414104E+02  0.00000000000E+00 0. -1.
         11    1    1    2    0    0  0.44919739530E+02  0.76732304116E+01  0.36952681154E+02  0.58669942124E+02  0.00000000000E+00 0.  1.
<mgrwt>
<rscale>  0 0.13943284E+03</rscale>
<asrwt>0</asrwt>
<pdfrwt beam="2">  1        2 0.14388056E-01 0.14751779E+03</pdfrwt>
<pdfrwt beam="1">  1       -2 0.29041906E-01 0.14751779E+03</pdfrwt>
<totfact> 0.42700688E+03</totfact>
</mgrwt>
</event>
<event>
 7    1  0.6008063E-006  0.1344273E+03  0.7546771E-02  0.1234849E+00
         -2   -1    0    0    0  501 -0.00000000000E+00  0.00000000000E+00  0.24467344416E+02  0.24467344416E+02  0.00000000000E+00 0.  1.
          2   -1    0    0  501    0  0.00000000000E+00 -0.00000000000E+00 -0.56617440958E+03  0.56617440958E+03  0.00000000000E+00 0. -1.
         23    2    1    2    0    0  0.29406546077E+02  0.39762006346E+02 -0.30663175428E+03  0.33480400831E+03  0.12499971659E+03 0.  0.
          5    1    3    3  502    0  0.33525651617E+02 -0.37029305577E+02 -0.17730654173E+03  0.18426838722E+03  0.47000000000E+01 0.  1.
         -5    1    3    3    0  502 -0.41191055400E+01  0.76791311923E+02 -0.12932521255E+03  0.15053562110E+03  0.47000000000E+01 0.  1.
        -11    1    1    2    0    0 -0.35107567066E+02  0.19721228065E+02 -0.78017554276E+02  0.87796394441E+02  0.00000000000E+00 0.  1.
         11    1    1    2    0    0  0.57010209888E+01 -0.59483234412E+02 -0.15705775661E+03  0.16804135124E+03  0.00000000000E+00 0. -1.
<mgrwt>
<rscale>  0 0.12514137E+03</rscale>
<asrwt>0</asrwt>
<pdfrwt beam="2">  1        2 0.87103744E-01 0.13442727E+03</pdfrwt>
<pdfrwt beam="1">  1       -2 0.37642073E-02 0.13442727E+03</pdfrwt>
<totfact> 0.15390871E+04</totfact>
</mgrwt>
</event>
<event>
 7    1  0.6008063E-006  0.1755019E+03  0.7546771E-02  0.1175865E+00
          3   -1    0    0  501    0  0.00000000000E+00  0.00000000000E+00  0.26507553648E+02  0.26507553648E+02  0.00000000000E+00 0. -1.
         -3   -1    0    0    0  501 -0.00000000000E+00 -0.00000000000E+00 -0.10716904384E+04  0.10716904384E+04  0.00000000000E+00 0.  1.
         23    2    1    2    0    0  0.91766760244E+02 -0.98817732344E+02 -0.54630674561E+03  0.57380481260E+03  0.11231571642E+03 0.  0.
          5    1    3    3  502    0  0.25645412687E+02 -0.38015454114E+02 -0.44749164433E+02  0.64245152820E+02  0.47000000000E+01 0. -1.
         -5    1    3    3    0  502  0.66121347556E+02 -0.60802278230E+02 -0.50155758117E+03  0.50955965978E+03  0.47000000000E+01 0.  1.
        -11    1    1    2    0    0  0.57606425744E+01  0.46242314509E+02 -0.98456442573E+02  0.10892753434E+03  0.00000000000E+00 0.  1.
         11    1    1    2    0    0 -0.97527402818E+02  0.52575417835E+02 -0.40041969659E+03  0.41546564513E+03  0.00000000000E+00 0. -1.
<mgrwt>
<rscale>  0 0.17191502E+03</rscale>
<asrwt>0</asrwt>
<pdfrwt beam="1">  1        3 0.40780862E-02 0.17550186E+03</pdfrwt>
<pdfrwt beam="2">  1       -3 0.16487541E+00 0.17550186E+03</pdfrwt>
<totfact> 0.20431150E+02</totfact>
</mgrwt>
</event>
<event>
 7    1  0.6008063E-006  0.1376291E+03  0.7546771E-02  0.1227915E+00
          4   -1    0    0  501    0  0.00000000000E+00  0.00000000000E+00  0.93097511081E+02  0.93097511081E+02  0.00000000000E+00 0.  1.
         -4   -1    0    0    0  501 -0.00000000000E+00 -0.00000000000E+00 -0.16476553089E+03  0.16476553089E+03  0.00000000000E+00 0. -1.
         23    2    1    2    0    0  0.56478106087E+02  0.11300630945E+02 -0.25692330709E+02  0.14000667599E+03  0.12499717092E+03 0.  0.
          5    1    3    3  502    0  0.35568844827E+02  0.11188840643E+02 -0.76297026942E+02  0.85050921203E+02  0.47000000000E+01 0. -1.
         -5    1    3    3    0  502  0.20909261260E+02  0.11179030210E+00  0.50604696233E+02  0.54955754789E+02  0.47000000000E+01 0. -1.
        -11    1    1    2    0    0 -0.29019414329E+02 -0.31257744832E+02 -0.65898235517E+02  0.78496818179E+02  0.00000000000E+00 0. -1.
         11    1    1    2    0    0 -0.27458691758E+02  0.19957113887E+02  0.19922546412E+02  0.39359547804E+02  0.00000000000E+00 0.  1.
<mgrwt>
<rscale>  0 0.12969079E+03</rscale>
<asrwt>0</asrwt>
<pdfrwt beam="1">  1        4 0.14322694E-01 0.13762912E+03</pdfrwt>
<pdfrwt beam="2">  1       -4 0.25348543E-01 0.13762912E+03</pdfrwt>
<totfact> 0.98813629E+02</totfact>
</mgrwt>
</event>
<event>
 7    1  0.6008063E-006  0.1551580E+03  0.7546771E-02  0.1202773E+00
          3   -1    0    0  501    0  0.00000000000E+00  0.00000000000E+00  0.44034117453E+02  0.44034117453E+02  0.00000000000E+00 0. -1.
         -3   -1    0    0    0  501 -0.00000000000E+00 -0.00000000000E+00 -0.49020000969E+03  0.49020000969E+03  0.00000000000E+00 0.  1.
         23    2    1    2    0    0 -0.29893112339E+02  0.86913765063E+02 -0.17440717843E+03  0.23343496571E+03  0.12500567430E+03 0.  0.
          5    1    3    3  502    0  0.46949586530E+01 -0.17683524745E+02  0.78181514623E+01  0.20444147731E+02  0.47000000000E+01 0.  1.
         -5    1    3    3    0  502 -0.34588070992E+02  0.10459728981E+03 -0.18222532989E+03  0.21299081798E+03  0.47000000000E+01 0.  1.
        -11    1    1    2    0    0 -0.20212299935E+02 -0.52285589798E+02 -0.19451484445E+03  0.20243108625E+03  0.00000000000E+00 0.  1.
         11    1    1    2    0    0  0.50105412274E+02 -0.34628175266E+02 -0.77243869360E+02  0.98368075183E+02  0.00000000000E+00 0. -1.
<mgrwt>
<rscale>  0 0.14814383E+03</rscale>
<asrwt>0</asrwt>
<pdfrwt beam="1">  1        3 0.67744795E-02 0.15515805E+03</pdfrwt>
<pdfrwt beam="2">  1       -3 0.75415388E-01 0.15515805E+03</pdfrwt>
<totfact> 0.56026754E+02</totfact>
</mgrwt>
</event>
<event>
 7    1  0.6008063E-006  0.1212789E+03  0.7546771E-02  0.1256053E+00
         -1   -1    0    0    0  501 -0.00000000000E+00  0.00000000000E+00  0.59810263171E+02  0.59810263171E+02  0.00000000000E+00 0.  1.
          1   -1    0    0  501    0  0.00000000000E+00 -0.00000000000E+00 -0.19384136184E+03  0.19384136184E+03  0.00000000000E+00 0. -1.
         23    2    1    2    0    0  0.97736633766E+01  0.53648981469E+01 -0.10173219329E+03  0.15829725758E+03  0.12076537574E+03 0.  0.
          5    1    3    3  502    0 -0.31100118802E+01  0.42746507038E+02  0.59165276528E+01  0.43520470325E+02  0.47000000000E+01 0. -1.
         -5    1    3    3    0  502  0.12883675257E+02 -0.37381608891E+02 -0.10764872095E+03  0.11477678726E+03  0.47000000000E+01 0.  1.
        -11    1    1    2    0    0 -0.28988343467E+02 -0.16079155987E+02  0.19931441767E+02  0.38679783933E+02  0.00000000000E+00 0.  1.
         11    1    1    2    0    0  0.19214680090E+02  0.10714257841E+02 -0.52230347144E+02  0.56674583499E+02  0.00000000000E+00 0. -1.
<mgrwt>
<rscale>  0 0.11247562E+03</rscale>
<asrwt>0</asrwt>
<pdfrwt beam="2">  1        1 0.29821748E-01 0.12127895E+03</pdfrwt>
<pdfrwt beam="1">  1       -1 0.92015789E-02 0.12127895E+03</pdfrwt>
<totfact> 0.98886448E+03</totfact>
</mgrwt>
</event>
<event>
 6    1  0.6008063E-006  0.1430043E+03  0.7546771E-02  0.1221796E+00
         -4   -1    0    0    0  501 -0.00000000000E+00  0.00000000000E+00  0.11154519692E+03  0.11154519692E+03  0.00000000000E+00 0. -1.
          4   -1    0    0  501    0  0.00000000000E+00 -0.00000000000E+00 -0.15969906145E+03  0.15969906145E+03  0.00000000000E+00 0.  1.
          5    1    1    2  502    0 -0.13956775547E+02 -0.29099588116E+02  0.32085436129E+02  0.45750877847E+02  0.47000000000E+01 0. -1.
         -5    1    1    2    0  502  0.46612279100E+02 -0.16124587232E+02 -0.10207068979E+03  0.11346022470E+03  0.47000000000E+01 0.  1.
        -11    1    1    2    0    0  0.31097990547E+02  0.32234985384E+02  0.75773620254E+01  0.45426817124E+02  0.00000000000E+00 0. -1.
         11    1    1    2    0    0 -0.63753494099E+02  0.12989189963E+02  0.14254027096E+02  0.66606338694E+02  0.00000000000E+00 0.  1.
<mgrwt>
<rscale>  0 0.13388964E+03</rscale>
<asrwt>0</asrwt>
<pdfrwt beam="2">  1        4 0.24569086E-01 0.14300433E+03</pdfrwt>
<pdfrwt beam="1">  1       -4 0.17160799E-01 0.14300433E+03</pdfrwt>
<totfact> 0.76814747E+02</totfact>
</mgrwt>
</event>
<event>
 7    1  0.6008063E-006  0.1255230E+03  0.7546771E-02  0.1250348E+00
          1   -1    0    0  501    0  0.00000000000E+00  0.00000000000E+00  0.54933647133E+02  0.54933647133E+02  0.00000000000E+00 0. -1.
         -1   -1    0    0    0  501 -0.00000000000E+00 -0.00000000000E+00 -0.21380417975E+03  0.21380417975E+03  0.00000000000E+00 0.  1.
         23    2    1    2    0    0 -0.11304965037E+02 -0.18912287434E+01 -0.82412539211E+02  0.15015942628E+03  0.12499859080E+03 0.  0.
          5    1    3    3  502    0  0.31970077353E+02 -0.38692954863E+02 -0.55999202679E+00  0.50414622810E+02  0.47000000000E+01 0. -1.
         -5    1    3    3    0  502 -0.43275042390E+02  0.36801726120E+02 -0.81852547184E+02  0.99744803473E+02  0.47000000000E+01 0. -1.
        -11    1    1    2    0    0  0.15811079196E+02  0.39752148994E+02 -0.13294610651E+02  0.44799221504E+02  0.00000000000E+00 0.  1.
         11    1    1    2    0    0 -0.45061141582E+01 -0.37860920251E+02 -0.63163382754E+02  0.73779179095E+02  0.00000000000E+00 0. -1.
<mgrwt>
<rscale>  0 0.11570937E+03</rscale>
<asrwt>0</asrwt>
<pdfrwt beam="1">  1        1 0.84513305E-02 0.12552301E+03</pdfrwt>
<pdfrwt beam="2">  1       -1 0.32892950E-01 0.12552301E+03</pdfrwt>
<totfact> 0.66255593E+03</totfact>
</mgrwt>
</event>
<event>
 7    1  0.6008063E-006  0.1464014E+03  0.7546771E-02  0.1210240E+00
          1   -1    0    0  501    0  0.00000000000E+00  0.00000000000E+00  0.61162273734E+03  0.61162273734E+03  0.00000000000E+00 0. -1.
         -1   -1    0    0    0  501 -0.00000000000E+00 -0.00000000000E+00 -0.44138500272E+02  0.44138500272E+02  0.00000000000E+00 0.  1.
         23    2    1    2    0    0 -0.88361339206E+02  0.26371742713E+02  0.47110752207E+03  0.49333118262E+03  0.11371087599E+03 0.  0.
          5    1    3    3  502    0 -0.60695610354E+01 -0.25312074611E+02  0.23852671010E+02  0.35617139226E+02  0.47000000000E+01 0.  1.
         -5    1    3    3    0  502 -0.82291778170E+02  0.51683817325E+02  0.44725485106E+03  0.45771404340E+03  0.47000000000E+01 0. -1.
        -11    1    1    2    0    0  0.34867604278E+01 -0.38164003876E+02  0.76477397208E+01  0.39078595330E+02  0.00000000000E+00 0. -1.
         11    1    1    2    0    0  0.84874578778E+02  0.11792261163E+02  0.88728975279E+02  0.12335145966E+03  0.00000000000E+00 0.  1.
<mgrwt>
<rscale>  0 0.14232056E+03</rscale>
<asrwt>0</asrwt>
<pdfrwt beam="1">  1        1 0.94095800E-01 0.14640136E+03</pdfrwt>
<pdfrwt beam="2">  1       -1 0.67905389E-02 0.14640136E+03</pdfrwt>
<totfact> 0.36970154E+03</totfact>
</mgrwt>
</event>
<event>
 7    1  0.6008063E-006  0.1981174E+03  0.7546771E-02  0.1155890E+00
         -1   -1    0    0    0  501 -0.00000000000E+00  0.00000000000E+00  0.34092764801E+03  0.34092764801E+03  0.00000000000E+00 0.  1.
          1   -1    0    0  501    0  0.00000000000E+00 -0.00000000000E+00 -0.11061601079E+03  0.11061601079E+03  0.00000000000E+00 0. -1.
         23    2    1    2    0    0  0.28570546813E+02 -0.15102790558E+03  0.64660724990E+02  0.20840226173E+03  0.12499915571E+03 0.  0.
          5    1    3    3  502    0 -0.36520752023E+01 -0.15618687069E+03  0.27459913114E+02  0.15869408640E+03  0.47000000000E+01 0.  1.
         -5    1    3    3    0  502  0.32222622015E+02  0.51589651096E+01  0.37200811876E+02  0.49708175332E+02  0.47000000000E+01 0.  1.
        -11    1    1    2    0    0 -0.33470293506E+01  0.29812957963E+02 -0.68835555450E+01  0.30779837636E+02  0.00000000000E+00 0. -1.
         11    1    1    2    0    0 -0.25223517462E+02  0.12121494762E+03  0.17253446777E+03  0.21236155944E+03  0.00000000000E+00 0.  1.
<mgrwt>
<rscale>  0 0.19287938E+03</rscale>
<asrwt>0</asrwt>
<pdfrwt beam="2">  1        1 0.17017848E-01 0.19811737E+03</pdfrwt>
<pdfrwt beam="1">  1       -1 0.52450407E-01 0.19811737E+03</pdfrwt>
<totfact> 0.11773772E+03</totfact>
</mgrwt>
</event>
<event>
 7    1  0.6008063E-006  0.1443193E+03  0.7546771E-02  0.1217552E+00
         -2   -1    0    0    0  501 -0.00000000000E+00  0.00000000000E+00  0.17406797434E+02  0.17406797434E+02  0.00000000000E+00 0.  1.
          2   -1    0    0  501    0  0.00000000000E+00 -0.00000000000E+00 -0.10254914390E+04  0.10254914390E+04  0.00000000000E+00 0. -1.
         23    2    1    2    0    0 -0.56112871660E+02  0.45333035273E+02 -0.66406701458E+03  0.67956828328E+03  0.12499725330E+03 0.  0.
          5    1    3    3  502    0 -0.15728012031E+02 -0.33504049047E+02 -0.74021623989E+02  0.82892596068E+02  0.47000000000E+01 0. -1.
         -5    1    3    3    0  502 -0.40384859629E+02  0.78837084321E+02 -0.59004539059E+03  0.59667568721E+03  0.47000000000E+01 0. -1.
        -11    1    1    2    0    0 -0.22689262887E+02 -0.27250418208E+02 -0.89043236381E+02  0.95844070698E+02  0.00000000000E+00 0.  1.
         11    1    1    2    0    0  0.78802134547E+02 -0.18082617065E+02 -0.25497439062E+03  0.26748588247E+03  0.00000000000E+00 0. -1.
<mgrwt>
<rscale>  0 0.13690732E+03</rscale>
<asrwt>0</asrwt>
<pdfrwt beam="2">  1        2 0.15776793E+00 0.14431927E+03</pdfrwt>
<pdfrwt beam="1">  1       -2 0.26779686E-02 0.14431927E+03</pdfrwt>
<totfact> 0.12265039E+04</totfact>
</mgrwt>
</event>
<event>
 7    1  0.6008063E-006  0.1740342E+03  0.7546771E-02  0.1179966E+00
         -2   -1    0    0    0  501 -0.00000000000E+00  0.00000000000E+00  0.29278662671E+03  0.29278662671E+03  0.00000000000E+00 0.  1.
          2   -1    0    0  501    0  0.00000000000E+00 -0.00000000000E+00 -0.10404476600E+03  0.10404476600E+03  0.00000000000E+00 0. -1.
         23    2    1    2    0    0 -0.12108326294E+03 -0.14955168509E+01  0.28052114968E+02  0.17628048334E+03  0.12499797805E+03 0.  0.
          5    1    3    3  502    0 -0.18093344280E+02 -0.13941480460E+02 -0.44061030280E+02  0.49851764001E+02  0.47000000000E+01 0. -1.
         -5    1    3    3    0  502 -0.10298991866E+03  0.12445963609E+02  0.72113145248E+02  0.12642871934E+03  0.47000000000E+01 0. -1.
        -11    1    1    2    0    0  0.88588223643E+02  0.30662055734E+02  0.14780148818E+03  0.17502375536E+03  0.00000000000E+00 0.  1.
         11    1    1    2    0    0  0.32495039298E+02 -0.29166538883E+02  0.12888257555E+02  0.45527154010E+02  0.00000000000E+00 0. -1.
<mgrwt>
<rscale>  0 0.16798439E+03</rscale>
<asrwt>0</asrwt>
<pdfrwt beam="2">  1        2 0.16006887E-01 0.17403416E+03</pdfrwt>
<pdfrwt beam="1">  1       -2 0.45044096E-01 0.17403416E+03</pdfrwt>
<totfact> 0.16751944E+03</totfact>
</mgrwt>
</event>
<event>
 7    1  0.6008063E-006  0.1470937E+03  0.7546771E-02  0.1212604E+00
         -1   -1    0    0    0  501 -0.00000000000E+00  0.00000000000E+00  0.14465225700E+03  0.14465225700E+03  0.00000000000E+00 0.  1.
          1   -1    0    0  501    0  0.00000000000E+00 -0.00000000000E+00 -0.12623128860E+03  0.12623128860E+03  0.00000000000E+00 0. -1.
         23    2    1    2    0    0  0.66193477767E+02 -0.40368644802E+02  0.18899308250E+02  0.14830288938E+03  0.12500143665E+03 0.  0.
          5    1    3    3  502    0  0.54185329321E+02  0.70271706661E+01 -0.42709705584E+02  0.69509999225E+02  0.47000000000E+01 0.  1.
         -5    1    3    3    0  502  0.12008148446E+02 -0.47395815468E+02  0.61609013834E+02  0.78792890153E+02  0.47000000000E+01 0.  1.
        -11    1    1    2    0    0 -0.85218483549E+02  0.22671392225E+02  0.18876945769E+02  0.90180491490E+02  0.00000000000E+00 0.  1.
         11    1    1    2    0    0  0.19025005782E+02  0.17697252576E+02 -0.19355285619E+02  0.32400164740E+02  0.00000000000E+00 0. -1.
<mgrwt>
<rscale>  0 0.14054010E+03</rscale>
<asrwt>0</asrwt>
<pdfrwt beam="2">  1        1 0.19420198E-01 0.14709372E+03</pdfrwt>
<pdfrwt beam="1">  1       -1 0.22254194E-01 0.14709372E+03</pdfrwt>
<totfact> 0.43178656E+03</totfact>
</mgrwt>
</event>
<event>
 7    1  0.6008063E-006  0.1269287E+03  0.7546771E-02  0.1249566E+00
         -1   -1    0    0    0  501 -0.00000000000E+00  0.00000000000E+00  0.37377040430E+03  0.37377040430E+03  0.00000000000E+00 0.  1.
          1   -1    0    0  501    0  0.00000000000E+00 -0.00000000000E+00 -0.37678865322E+02  0.37678865322E+02  0.00000000000E+00 0. -1.
         23    2    1    2    0    0 -0.11604869620E+02 -0.18732761941E+02  0.10822308907E+03  0.16680269546E+03  0.12500125134E+03 0.  0.
          5    1    3    3  502    0 -0.20061966501E+02 -0.52618424190E+02  0.38488675176E+01  0.56639958027E+02  0.47000000000E+01 0.  1.
         -5    1    3    3    0  502  0.84570968809E+01  0.33885662249E+02  0.10437422156E+03  0.11016273743E+03  0.47000000000E+01 0.  1.
        -11    1    1    2    0    0 -0.78441507013E+01  0.43642138986E+02  0.19103531356E+03  0.19611389044E+03  0.00000000000E+00 0.  1.
         11    1    1    2    0    0  0.19449020321E+02 -0.24909377045E+02  0.36833136344E+02  0.48532683721E+02  0.00000000000E+00 0. -1.
<mgrwt>
<rscale>  0 0.11616220E+03</rscale>
<asrwt>0</asrwt>
<pdfrwt beam="2">  1        1 0.57967488E-02 0.12692873E+03</pdfrwt>
<pdfrwt beam="1">  1       -1 0.57503137E-01 0.12692873E+03</pdfrwt>
<totfact> 0.40781625E+03</totfact>
</mgrwt>
</event>
<event>
 7    1  0.6008063E-006  0.1554915E+03  0.7546771E-02  0.1202769E+00
          1   -1    0    0  501    0  0.00000000000E+00  0.00000000000E+00  0.59012841527E+03  0.59012841527E+03  0.00000000000E+00 0. -1.
         -1   -1    0    0    0  501 -0.00000000000E+00 -0.00000000000E+00 -0.38427771361E+02  0.38427771361E+02  0.00000000000E+00 0.  1.
         23    2    1    2    0    0 -0.78428879229E+02 -0.49007537203E+02  0.40475502835E+03  0.43359455856E+03  0.12499912174E+03 0.  0.
          5    1    3    3  502    0 -0.20238788690E+02 -0.51738369965E+02  0.52692567569E+02  0.76714171906E+02  0.47000000000E+01 0.  1.
         -5    1    3    3    0  502 -0.58190090540E+02  0.27308327615E+01  0.35206246079E+03  0.35688038666E+03  0.47000000000E+01 0.  1.
        -11    1    1    2    0    0  0.52197541777E+02  0.34781889291E+02  0.21951251497E+02  0.66454650947E+02  0.00000000000E+00 0.  1.
         11    1    1    2    0    0  0.26231337452E+02  0.14225647912E+02  0.12499436406E+03  0.12850697712E+03  0.00000000000E+00 0. -1.
<mgrwt>
<rscale>  0 0.14814664E+03</rscale>
<asrwt>0</asrwt>
<pdfrwt beam="1">  1        1 0.90788981E-01 0.15549151E+03</pdfrwt>
<pdfrwt beam="2">  1       -1 0.59119652E-02 0.15549151E+03</pdfrwt>
<totfact> 0.47895861E+03</totfact>
</mgrwt>
</event>
<event>
 7    1  0.6008063E-006  0.2486838E+03  0.7546771E-02  0.1116550E+00
         -2   -1    0    0    0  501 -0.00000000000E+00  0.00000000000E+00  0.43348692083E+03  0.43348692083E+03  0.00000000000E+00 0.  1.
          2   -1    0    0  501    0  0.00000000000E+00 -0.00000000000E+00 -0.22738271114E+03  0.22738271114E+03  0.00000000000E+00 0. -1.
         23    2    1    2    0    0  0.16626479014E+03 -0.13629336659E+03 -0.10637287878E+03  0.27047891175E+03  0.12499516050E+03 0.  0.
          5    1    3    3  502    0  0.18232805282E+03 -0.13818232924E+03 -0.86989779733E+02  0.24480029971E+03  0.47000000000E+01 0. -1.
         -5    1    3    3    0  502 -0.16063262682E+02  0.18889626523E+01 -0.19383099048E+02  0.25678612046E+02  0.47000000000E+01 0. -1.
        -11    1    1    2    0    0 -0.10772512497E+03  0.79059752227E+02  0.11383098575E+03  0.17553529641E+03  0.00000000000E+00 0. -1.
         11    1    1    2    0    0 -0.58539665175E+02  0.57233614359E+02  0.19864610272E+03  0.21485542381E+03  0.00000000000E+00 0.  1.
<mgrwt>
<rscale>  0 0.24493258E+03</rscale>
<asrwt>0</asrwt>
<pdfrwt beam="2">  1        2 0.34981956E-01 0.24868384E+03</pdfrwt>
<pdfrwt beam="1">  1       -2 0.66690295E-01 0.24868384E+03</pdfrwt>
<totfact> 0.31493296E+02</totfact>
</mgrwt>
</event>
<event>
 7    1  0.6008063E-006  0.1589421E+03  0.7546771E-02  0.1198381E+00
          2   -1    0    0  501    0  0.00000000000E+00  0.00000000000E+00  0.10239190780E+04  0.10239190780E+04  0.00000000000E+00 0. -1.
         -2   -1    0    0    0  501 -0.00000000000E+00 -0.00000000000E+00 -0.41740125612E+02  0.41740125612E+02  0.00000000000E+00 0.  1.
         23    2    1    2    0    0 -0.23187970669E+02 -0.95397819312E+02  0.89149591178E+03  0.90555373452E+03  0.12499671782E+03 0.  0.
          5    1    3    3  502    0  0.13842658646E+02 -0.35512985431E+02  0.70670447241E+03  0.70774719544E+03  0.47000000000E+01 0. -1.
         -5    1    3    3    0  502 -0.37030629315E+02 -0.59884833881E+02  0.18479143937E+03  0.19780653908E+03  0.47000000000E+01 0. -1.
        -11    1    1    2    0    0  0.52131169006E+02  0.87486167257E+02  0.72656315432E+02  0.12510167231E+03  0.00000000000E+00 0.  1.
         11    1    1    2    0    0 -0.28943198337E+02  0.79116520549E+01  0.18026725167E+02  0.35003796772E+02  0.00000000000E+00 0. -1.
<mgrwt>
<rscale>  0 0.15171560E+03</rscale>
<asrwt>0</asrwt>
<pdfrwt beam="1">  1        2 0.15752599E+00 0.15894214E+03</pdfrwt>
<pdfrwt beam="2">  1       -2 0.64215586E-02 0.15894214E+03</pdfrwt>
<totfact> 0.33406472E+03</totfact>
</mgrwt>
</event>
<event>
 7    1  0.6008063E-006  0.1412452E+03  0.7546771E-02  0.1222486E+00
         -4   -1    0    0    0  501 -0.00000000000E+00  0.00000000000E+00  0.27821028513E+03  0.27821028513E+03  0.00000000000E+00 0.  1.
          4   -1    0    0  501    0  0.00000000000E+00 -0.00000000000E+00 -0.77179160870E+02  0.77179160870E+02  0.00000000000E+00 0. -1.
         23    2    1    2    0    0 -0.31034988295E+02 -0.57968654918E+02  0.20502199559E+02  0.14272541753E+03  0.12500667651E+03 0.  0.
          5    1    3    3  502    0 -0.62157904294E+02  0.12376484365E+02  0.25883552636E+01  0.63604811252E+02  0.47000000000E+01 0. -1.
         -5    1    3    3    0  502  0.31122915999E+02 -0.70345139283E+02  0.17913844295E+02  0.79120606282E+02  0.47000000000E+01 0. -1.
        -11    1    1    2    0    0 -0.16229450548E+02 -0.17091459562E+02  0.42288271475E+02  0.48412921409E+02  0.00000000000E+00 0.  1.
         11    1    1    2    0    0  0.47264438842E+02  0.75060114480E+02  0.13824065322E+03  0.16425110705E+03  0.00000000000E+00 0. -1.
<mgrwt>
<rscale>  0 0.13340694E+03</rscale>
<asrwt>0</asrwt>
<pdfrwt beam="2">  1        4 0.11873717E-01 0.14124519E+03</pdfrwt>
<pdfrwt beam="1">  1       -4 0.42801582E-01 0.14124519E+03</pdfrwt>
<totfact> 0.50286856E+02</totfact>
</mgrwt>
</event>
<event>
 7    1  0.6008063E-006  0.1251980E+03  0.7546771E-02  0.1249505E+00
          2   -1    0    0  501    0  0.00000000000E+00  0.00000000000E+00  0.13534405398E+03  0.13534405398E+03  0.00000000000E+00 0. -1.
         -2   -1    0    0    0  501 -0.00000000000E+00 -0.00000000000E+00 -0.14811738757E+03  0.14811738757E+03  0.00000000000E+00 0.  1.
         23    2    1    2    0    0  0.67382397441E+01  0.19031671398E+01  0.82862057750E+02  0.15013549031E+03  0.12500207565E+03 0.  0.
          5    1    3    3  502    0 -0.52057813998E+02 -0.79824982047E+01  0.72033367760E+02  0.89356770010E+02  0.47000000000E+01 0. -1.
         -5    1    3    3    0  502  0.58796053742E+02  0.98856653445E+01  0.10828689990E+02  0.60778720304E+02  0.47000000000E+01 0. -1.
        -11    1    1    2    0    0  0.85569190321E+01  0.28418740444E+02 -0.94818593616E+02  0.99354976559E+02  0.00000000000E+00 0.  1.
         11    1    1    2    0    0 -0.15295158776E+02 -0.30321907584E+02 -0.81679772344E+00  0.33970974670E+02  0.00000000000E+00 0. -1.
<mgrwt>
<rscale>  0 0.11619768E+03</rscale>
<asrwt>0</asrwt>
<pdfrwt beam="1">  1        2 0.20822162E-01 0.12519802E+03</pdfrwt>
<pdfrwt beam="2">  1       -2 0.22787290E-01 0.12519802E+03</pdfrwt>
<totfact> 0.42278939E+03</totfact>
</mgrwt>
</event>
<event>
 7    1  0.6008063E-006  0.1362058E+03  0.7546771E-02  0.1230196E+00
          2   -1    0    0  501    0  0.00000000000E+00  0.00000000000E+00  0.10142136101E+04  0.10142136101E+04  0.00000000000E+00 0.  1.
         -2   -1    0    0    0  501 -0.00000000000E+00 -0.00000000000E+00 -0.16120955693E+02  0.16120955693E+02  0.00000000000E+00 0. -1.
         23    2    1    2    0    0  0.15693233139E+02 -0.51789125660E+02  0.71303477203E+03  0.72592740375E+03  0.12499447306E+03 0.  0.
          5    1    3    3  502    0 -0.25548581986E+02 -0.79192428617E+02  0.36757274283E+03  0.37690314679E+03  0.47000000000E+01 0.  1.
         -5    1    3    3    0  502  0.41241815126E+02  0.27403302957E+02  0.34546202920E+03  0.34902425696E+03  0.47000000000E+01 0.  1.
        -11    1    1    2    0    0 -0.52148694514E+02  0.14608213428E+02  0.12959314505E+03  0.14045379839E+03  0.00000000000E+00 0. -1.
         11    1    1    2    0    0  0.36455461375E+02  0.37180912232E+02  0.15546473733E+03  0.16395336365E+03  0.00000000000E+00 0.  1.
<mgrwt>
<rscale>  0 0.12817017E+03</rscale>
<asrwt>0</asrwt>
<pdfrwt beam="1">  1        2 0.15603281E+00 0.13620576E+03</pdfrwt>
<pdfrwt beam="2">  1       -2 0.24801478E-02 0.13620576E+03</pdfrwt>
<totfact> 0.13887212E+04</totfact>
</mgrwt>
</event>
<event>
 6    1  0.6008063E-006  0.2511090E+03  0.7546771E-02  0.1192185E+00
         -2   -1    0    0    0  501 -0.00000000000E+00  0.00000000000E+00  0.11837141099E+03  0.11837141099E+03  0.00000000000E+00 0.  1.
          2   -1    0    0  501    0  0.00000000000E+00 -0.00000000000E+00 -0.17994067073E+03  0.17994067073E+03  0.00000000000E+00 0. -1.
          5    1    1    2  502    0 -0.38795573044E+01 -0.99648928154E+02 -0.12576577055E+03  0.16057421614E+03  0.47000000000E+01 0. -1.
         -5    1    1    2    0  502 -0.77427734289E+01  0.78763426856E+02  0.59506015526E+02  0.99129631464E+02  0.47000000000E+01 0.  1.
        -11    1    1    2    0    0 -0.10141418656E+02  0.87830686210E+01  0.13833996142E+01  0.13487196197E+02  0.00000000000E+00 0.  1.
         11    1    1    2    0    0  0.21763749390E+02  0.12102432677E+02  0.33070956768E+01  0.25121037917E+02  0.00000000000E+00 0. -1.
<mgrwt>
<rscale>  0 0.15694933E+03</rscale>
<asrwt>0</asrwt>
<pdfrwt beam="2">  1        2 0.27683180E-01 0.25110901E+03</pdfrwt>
<pdfrwt beam="1">  1       -2 0.18210986E-01 0.25110901E+03</pdfrwt>
<totfact> 0.46843112E+03</totfact>
</mgrwt>
</event>
<event>
 7    1  0.6008063E-006  0.2848191E+03  0.7546771E-02  0.1094836E+00
         -1   -1    0    0    0  501 -0.00000000000E+00  0.00000000000E+00  0.38431889992E+02  0.38431889992E+02  0.00000000000E+00 0.  1.
          1   -1    0    0  501    0  0.00000000000E+00 -0.00000000000E+00 -0.20934445000E+04  0.20934445000E+04  0.00000000000E+00 0. -1.
         23    2    1    2    0    0 -0.25312360974E+03 -0.37707781307E+02 -0.12537353470E+04  0.12856804608E+04  0.12501395301E+03 0.  0.
          5    1    3    3  502    0 -0.35935879092E+02 -0.55743029528E+02 -0.26707573977E+03  0.27522756679E+03  0.47000000000E+01 0. -1.
         -5    1    3    3    0  502 -0.21718773065E+03  0.18035248221E+02 -0.98665960719E+03  0.10104528940E+04  0.47000000000E+01 0. -1.
        -11    1    1    2    0    0  0.16704145840E+03 -0.98581024663E+01 -0.58778599659E+03  0.61114025296E+03  0.00000000000E+00 0. -1.
         11    1    1    2    0    0  0.86082151342E+02  0.47565883773E+02 -0.21349126643E+03  0.23505567621E+03  0.00000000000E+00 0.  1.
<mgrwt>
<rscale>  0 0.28156748E+03</rscale>
<asrwt>0</asrwt>
<pdfrwt beam="2">  1        1 0.32206832E+00 0.28481911E+03</pdfrwt>
<pdfrwt beam="1">  1       -1 0.59125996E-02 0.28481911E+03</pdfrwt>
<totfact> 0.39979372E+02</totfact>
</mgrwt>
</event>
<event>
 7    1  0.6008063E-006  0.1266547E+03  0.7546771E-02  0.1245215E+00
          1   -1    0    0  501    0  0.00000000000E+00  0.00000000000E+00  0.77481372967E+02  0.77481372967E+02  0.00000000000E+00 0. -1.
         -1   -1    0    0    0  501 -0.00000000000E+00 -0.00000000000E+00 -0.16548678220E+03  0.16548678220E+03  0.00000000000E+00 0.  1.
         23    2    1    2    0    0  0.18458374838E+02  0.86134089871E+01 -0.33494021894E+02  0.13100861979E+03  0.12500602602E+03 0.  0.
          5    1    3    3  502    0  0.13538356966E+02  0.49348571520E+00 -0.81038905912E+02  0.82297781920E+02  0.47000000000E+01 0. -1.
         -5    1    3    3    0  502  0.49200178721E+01  0.81199232719E+01  0.47544884018E+02  0.48710837871E+02  0.47000000000E+01 0. -1.
        -11    1    1    2    0    0 -0.74844324516E+01  0.11294176116E+02 -0.78061197097E+02  0.79228313345E+02  0.00000000000E+00 0.  1.
         11    1    1    2    0    0 -0.10973942387E+02 -0.19907585103E+02  0.23549809757E+02  0.32731222032E+02  0.00000000000E+00 0. -1.
<mgrwt>
<rscale>  0 0.11872515E+03</rscale>
<asrwt>0</asrwt>
<pdfrwt beam="1">  1        1 0.11920211E-01 0.12665468E+03</pdfrwt>
<pdfrwt beam="2">  1       -1 0.25459505E-01 0.12665468E+03</pdfrwt>
<totfact> 0.64521558E+03</totfact>
</mgrwt>
</event>
<event>
 7    1  0.6008063E-006  0.1819098E+03  0.7546771E-02  0.1171375E+00
         -2   -1    0    0    0  501 -0.00000000000E+00  0.00000000000E+00  0.29613805287E+02  0.29613805287E+02  0.00000000000E+00 0.  1.
          2   -1    0    0  501    0  0.00000000000E+00 -0.00000000000E+00 -0.10267198016E+04  0.10267198016E+04  0.00000000000E+00 0. -1.
         23    2    1    2    0    0 -0.69861350359E+02 -0.11218758427E+03 -0.62678638722E+03  0.65265026340E+03  0.12499811504E+03 0.  0.
          5    1    3    3  502    0 -0.89135167330E+02 -0.75294698227E+02 -0.28045838299E+03  0.30379822946E+03  0.47000000000E+01 0.  1.
         -5    1    3    3    0  502  0.19273816971E+02 -0.36892886040E+02 -0.34632800423E+03  0.34885203393E+03  0.47000000000E+01 0.  1.
        -11    1    1    2    0    0  0.29351381322E+02  0.48112640705E+02 -0.28070109574E+03  0.28630304736E+03  0.00000000000E+00 0. -1.
         11    1    1    2    0    0  0.40509969037E+02  0.64074943561E+02 -0.89618513345E+02  0.11738029612E+03  0.00000000000E+00 0.  1.
<mgrwt>
<rscale>  0 0.17635765E+03</rscale>
<asrwt>0</asrwt>
<pdfrwt beam="2">  1        2 0.15795689E+00 0.18190984E+03</pdfrwt>
<pdfrwt beam="1">  1       -2 0.45559701E-02 0.18190984E+03</pdfrwt>
<totfact> 0.56217126E+03</totfact>
</mgrwt>
</event>
<event>
 7    1  0.6008063E-006  0.1351065E+03  0.7546771E-02  0.1238257E+00
          2   -1    0    0  501    0  0.00000000000E+00  0.00000000000E+00  0.41485478410E+03  0.41485478410E+03  0.00000000000E+00 0.  1.
         -2   -1    0    0    0  501 -0.00000000000E+00 -0.00000000000E+00 -0.50609867059E+02  0.50609867059E+02  0.00000000000E+00 0. -1.
         23    2    1    2    0    0 -0.53264673311E+02  0.46571342993E+02  0.34530606983E+03  0.37079652124E+03  0.11509892655E+03 0.  0.
          5    1    3    3  502    0 -0.36239968122E+02  0.68541843232E+02  0.11501815456E+03  0.13878971663E+03  0.47000000000E+01 0. -1.
         -5    1    3    3    0  502 -0.17024705189E+02 -0.21970500239E+02  0.23028791527E+03  0.23200680462E+03  0.47000000000E+01 0.  1.
        -11    1    1    2    0    0  0.14286856286E+02 -0.38371419132E+02  0.32833150427E+02  0.52483291014E+02  0.00000000000E+00 0.  1.
         11    1    1    2    0    0  0.38977817026E+02 -0.81999238614E+01 -0.13894303216E+02  0.42184838903E+02  0.00000000000E+00 0. -1.
<mgrwt>
<rscale>  0 0.12298181E+03</rscale>
<asrwt>0</asrwt>
<pdfrwt beam="1">  1        2 0.63823811E-01 0.13510654E+03</pdfrwt>
<pdfrwt beam="2">  1       -2 0.77861336E-02 0.13510654E+03</pdfrwt>
<totfact> 0.72265581E+03</totfact>
</mgrwt>
</event>
<event>
 7    1  0.6008063E-006  0.1661301E+03  0.7546771E-02  0.1189963E+00
         -2   -1    0    0    0  501 -0.00000000000E+00  0.00000000000E+00  0.21745557659E+02  0.21745557659E+02  0.00000000000E+00 0.  1.
          2   -1    0    0  501    0  0.00000000000E+00 -0.00000000000E+00 -0.17531059229E+04  0.17531059229E+04  0.00000000000E+00 0. -1.
         23    2    1    2    0    0 -0.10538637783E+03 -0.29482885831E+02 -0.14651986192E+04  0.14745867948E+04  0.12499476966E+03 0.  0.
          5    1    3    3  502    0 -0.16742522241E+02 -0.92907478294E+01 -0.26597378147E+02  0.33108013690E+02  0.47000000000E+01 0.  1.
         -5    1    3    3    0  502 -0.88643855590E+02 -0.20192138002E+02 -0.14386012411E+04  0.14414787811E+04  0.47000000000E+01 0.  1.
        -11    1    1    2    0    0  0.75439539146E+02 -0.91895051488E+01 -0.22096221091E+03  0.23366615014E+03  0.00000000000E+00 0. -1.
         11    1    1    2    0    0  0.29946838685E+02  0.38672390980E+02 -0.45199535088E+02  0.66598535595E+02  0.00000000000E+00 0.  1.
<mgrwt>
<rscale>  0 0.15888329E+03</rscale>
<asrwt>0</asrwt>
<pdfrwt beam="2">  1        2 0.26970864E+00 0.16613013E+03</pdfrwt>
<pdfrwt beam="1">  1       -2 0.33454699E-02 0.16613013E+03</pdfrwt>
<totfact> 0.35939613E+03</totfact>
</mgrwt>
</event>
<event>
 7    1  0.6008063E-006  0.2693452E+03  0.7546771E-02  0.1101655E+00
         -2   -1    0    0    0  501 -0.00000000000E+00  0.00000000000E+00  0.20089848831E+02  0.20089848831E+02  0.00000000000E+00 0.  1.
          2   -1    0    0  501    0  0.00000000000E+00 -0.00000000000E+00 -0.90277997983E+03  0.90277997983E+03  0.00000000000E+00 0. -1.
         23    2    1    2    0    0 -0.98528217337E+01 -0.16151512059E+02 -0.51612038932E+03  0.53022825453E+03  0.12001581642E+03 0.  0.
          5    1    3    3  502    0 -0.35529031405E+02  0.55489057684E+01 -0.44581566354E+02  0.57469195979E+02  0.47000000000E+01 0. -1.
         -5    1    3    3    0  502  0.25676209672E+02 -0.21700417827E+02 -0.47153882297E+03  0.47275905855E+03  0.47000000000E+01 0.  1.
        -11    1    1    2    0    0  0.14695754169E+02 -0.43598702234E+02 -0.41086256681E+02  0.61683810803E+02  0.00000000000E+00 0.  1.
         11    1    1    2    0    0 -0.48429324355E+01  0.59750214292E+02 -0.32548348500E+03  0.33095776333E+03  0.00000000000E+00 0. -1.
<mgrwt>
<rscale>  0 0.26934523E+03</rscale>
<asrwt>0</asrwt>
<pdfrwt beam="2">  1        2 0.13888919E+00 0.26934523E+03</pdfrwt>
<pdfrwt beam="1">  1       -2 0.30907468E-02 0.26934523E+03</pdfrwt>
<totfact> 0.12207340E+04</totfact>
</mgrwt>
</event>
<event>
 7    1  0.6008063E-006  0.1288503E+03  0.7546771E-02  0.1243044E+00
         -2   -1    0    0    0  501 -0.00000000000E+00  0.00000000000E+00  0.18134393785E+02  0.18134393785E+02  0.00000000000E+00 0.  1.
          2   -1    0    0  501    0  0.00000000000E+00 -0.00000000000E+00 -0.70449302541E+03  0.70449302541E+03  0.00000000000E+00 0. -1.
         23    2    1    2    0    0  0.52600625969E+01  0.30820110669E+02 -0.40533608950E+03  0.42532311117E+03  0.12499942385E+03 0.  0.
          5    1    3    3  502    0 -0.57701299892E+02  0.10274734637E+01 -0.15604175346E+03  0.16643802010E+03  0.47000000000E+01 0.  1.
         -5    1    3    3    0  502  0.62961362489E+02  0.29792637206E+02 -0.24929433604E+03  0.25888509107E+03  0.47000000000E+01 0.  1.
        -11    1    1    2    0    0  0.64424627554E+01 -0.51526277113E+02 -0.26129058962E+03  0.26640051573E+03  0.00000000000E+00 0. -1.
         11    1    1    2    0    0 -0.11702525352E+02  0.20706166444E+02 -0.19731952508E+02  0.30903792294E+02  0.00000000000E+00 0.  1.
<mgrwt>
<rscale>  0 0.12003239E+03</rscale>
<asrwt>0</asrwt>
<pdfrwt beam="2">  1        2 0.10838354E+00 0.12885031E+03</pdfrwt>
<pdfrwt beam="1">  1       -2 0.27899069E-02 0.12885031E+03</pdfrwt>
<totfact> 0.18534628E+04</totfact>
</mgrwt>
</event>
<event>
 7    1  0.6008063E-006  0.1488398E+03  0.7546771E-02  0.1210908E+00
         -1   -1    0    0    0  501 -0.00000000000E+00  0.00000000000E+00  0.49629002094E+02  0.49629002094E+02  0.00000000000E+00 0.  1.
          1   -1    0    0  501    0  0.00000000000E+00 -0.00000000000E+00 -0.40763053702E+03  0.40763053702E+03  0.00000000000E+00 0. -1.
         23    2    1    2    0    0 -0.63415600256E+02 -0.50315211376E+02 -0.26265222813E+03  0.30189314580E+03  0.12490043910E+03 0.  0.
          5    1    3    3  502    0  0.71361407391E+00 -0.73374905663E+02 -0.18143205359E+03  0.19576533425E+03  0.47000000000E+01 0. -1.
         -5    1    3    3    0  502 -0.64129214329E+02  0.23059694287E+02 -0.81220174542E+02  0.10612781155E+03  0.47000000000E+01 0. -1.
        -11    1    1    2    0    0  0.20146458425E+02  0.66950432482E+02 -0.32060561538E+02  0.76916316882E+02  0.00000000000E+00 0.  1.
         11    1    1    2    0    0  0.43269141831E+02 -0.16635221106E+02 -0.63288745265E+02  0.78450076438E+02  0.00000000000E+00 0. -1.
<mgrwt>
<rscale>  0 0.14181472E+03</rscale>
<asrwt>0</asrwt>
<pdfrwt beam="2">  1        1 0.62712391E-01 0.14883977E+03</pdfrwt>
<pdfrwt beam="1">  1       -1 0.76352310E-02 0.14883977E+03</pdfrwt>
<totfact> 0.52811905E+03</totfact>
</mgrwt>
</event>
<event>
 7    1  0.6008063E-006  0.1324901E+03  0.7546771E-02  0.1231337E+00
          2   -1    0    0  501    0  0.00000000000E+00  0.00000000000E+00  0.81578307456E+03  0.81578307456E+03  0.00000000000E+00 0.  1.
         -2   -1    0    0    0  501 -0.00000000000E+00 -0.00000000000E+00 -0.19693690161E+02  0.19693690161E+02  0.00000000000E+00 0. -1.
         23    2    1    2    0    0  0.70501425103E+02 -0.19029399241E+02  0.52890725747E+03  0.54524903372E+03  0.11054887058E+03 0.  0.
          5    1    3    3  502    0  0.57926517367E+02  0.29516674409E+02  0.15770055920E+03  0.17064076844E+03  0.47000000000E+01 0. -1.
         -5    1    3    3    0  502  0.12574907736E+02 -0.48546073650E+02  0.37120669827E+03  0.37460826527E+03  0.47000000000E+01 0.  1.
        -11    1    1    2    0    0 -0.13571301899E+02 -0.33108221175E+02  0.74161606594E+02  0.82342446146E+02  0.00000000000E+00 0.  1.
         11    1    1    2    0    0 -0.56930123204E+02  0.52137620416E+02  0.19302052034E+03  0.20788528486E+03  0.00000000000E+00 0. -1.
<mgrwt>
<rscale>  0 0.12741861E+03</rscale>
<asrwt>0</asrwt>
<pdfrwt beam="1">  1        2 0.12550506E+00 0.13249008E+03</pdfrwt>
<pdfrwt beam="2">  1       -2 0.30297991E-02 0.13249008E+03</pdfrwt>
<totfact> 0.13765029E+04</totfact>
</mgrwt>
</event>
<event>
 7    1  0.6008063E-006  0.1410668E+03  0.7546771E-02  0.1226731E+00
          2   -1    0    0  501    0  0.00000000000E+00  0.00000000000E+00  0.44068937524E+02  0.44068937524E+02  0.00000000000E+00 0. -1.
         -2   -1    0    0    0  501 -0.00000000000E+00 -0.00000000000E+00 -0.39312436558E+03  0.39312436558E+03  0.00000000000E+00 0.  1.
         23    2    1    2    0    0 -0.28120937900E+02  0.59030489921E+02 -0.11729537229E+03  0.18346129202E+03  0.12499782167E+03 0.  0.
          5    1    3    3  502    0  0.23761446405E+02  0.42276247789E+02  0.54916825011E+01  0.49031989956E+02  0.47000000000E+01 0. -1.
         -5    1    3    3    0  502 -0.51882384305E+02  0.16754242132E+02 -0.12278705479E+03  0.13442930207E+03  0.47000000000E+01 0. -1.
        -11    1    1    2    0    0  0.50240275390E+02 -0.24457351211E+02 -0.88115466889E+02  0.10433878859E+03  0.00000000000E+00 0. -1.
         11    1    1    2    0    0 -0.22119337490E+02 -0.34573138710E+02 -0.14364458888E+03  0.14939322249E+03  0.00000000000E+00 0.  1.
<mgrwt>
<rscale>  0 0.13048932E+03</rscale>
<asrwt>0</asrwt>
<pdfrwt beam="1">  1        2 0.67798366E-02 0.14106680E+03</pdfrwt>
<pdfrwt beam="2">  1       -2 0.60480671E-01 0.14106680E+03</pdfrwt>
<totfact> 0.26336680E+03</totfact>
</mgrwt>
</event>
<event>
 7    1  0.6008063E-006  0.1532247E+03  0.7546771E-02  0.1201887E+00
          2   -1    0    0  501    0  0.00000000000E+00  0.00000000000E+00  0.47308864415E+03  0.47308864415E+03  0.00000000000E+00 0. -1.
         -2   -1    0    0    0  501 -0.00000000000E+00 -0.00000000000E+00 -0.51176510989E+02  0.51176510989E+02  0.00000000000E+00 0.  1.
         23    2    1    2    0    0 -0.88530113841E+02  0.39122555933E+01  0.31711064719E+03  0.35218881598E+03  0.12499965095E+03 0.  0.
          5    1    3    3  502    0 -0.22340902522E+02 -0.22179401601E+02  0.25690403048E+03  0.25886833074E+03  0.47000000000E+01 0.  1.
         -5    1    3    3    0  502 -0.66189211319E+02  0.26091657194E+02  0.60206616708E+02  0.93320485241E+02  0.47000000000E+01 0.  1.
        -11    1    1    2    0    0  0.74478195686E+01  0.14882601390E+02 -0.17493525813E+02  0.24145088234E+02  0.00000000000E+00 0.  1.
         11    1    1    2    0    0  0.81082294272E+02 -0.18794856984E+02  0.12229501178E+03  0.14793125093E+03  0.00000000000E+00 0. -1.
<mgrwt>
<rscale>  0 0.14885524E+03</rscale>
<asrwt>0</asrwt>
<pdfrwt beam="1">  1        2 0.72782865E-01 0.15322467E+03</pdfrwt>
<pdfrwt beam="2">  1       -2 0.78733097E-02 0.15322467E+03</pdfrwt>
<totfact> 0.62078084E+03</totfact>
</mgrwt>
</event>
<event>
 7    1  0.6008063E-006  0.1290205E+03  0.7546771E-02  0.1230797E+00
         -1   -1    0    0    0  501 -0.00000000000E+00  0.00000000000E+00  0.29794827904E+03  0.29794827904E+03  0.00000000000E+00 0.  1.
          1   -1    0    0  501    0  0.00000000000E+00 -0.00000000000E+00 -0.67684514488E+02  0.67684514488E+02  0.00000000000E+00 0. -1.
         23    2    1    2    0    0  0.11876558217E+01 -0.38298062304E+02  0.34004526696E+02  0.13342639506E+03  0.12319960617E+03 0.  0.
          5    1    3    3  502    0  0.30701425797E+00 -0.67314924753E+01 -0.46292049712E+02  0.47015434862E+02  0.47000000000E+01 0. -1.
         -5    1    3    3    0  502  0.88064156374E+00 -0.31566569829E+02  0.80296576408E+02  0.86410960203E+02  0.47000000000E+01 0.  1.
        -11    1    1    2    0    0  0.53134695380E+02  0.66533339236E+01  0.13133464158E+03  0.14183212184E+03  0.00000000000E+00 0.  1.
         11    1    1    2    0    0 -0.54322351201E+02  0.31644728381E+02  0.64924596276E+02  0.90374276628E+02  0.00000000000E+00 0. -1.
<mgrwt>
<rscale>  0 0.12777376E+03</rscale>
<asrwt>0</asrwt>
<pdfrwt beam="2">  1        1 0.10413002E-01 0.12902052E+03</pdfrwt>
<pdfrwt beam="1">  1       -1 0.45838196E-01 0.12902052E+03</pdfrwt>
<totfact> 0.28216099E+03</totfact>
</mgrwt>
</event>
<event>
 7    1  0.6008063E-006  0.1254746E+03  0.7546771E-02  0.1249530E+00
         -2   -1    0    0    0  501 -0.00000000000E+00  0.00000000000E+00  0.12890493706E+02  0.12890493706E+02  0.00000000000E+00 0.  1.
          2   -1    0    0  501    0  0.00000000000E+00 -0.00000000000E+00 -0.10254821060E+04  0.10254821060E+04  0.00000000000E+00 0. -1.
         23    2    1    2    0    0  0.58899209981E+01  0.92169021494E+01 -0.74092846553E+03  0.75147778539E+03  0.12499691371E+03 0.  0.
          5    1    3    3  502    0 -0.29479131280E+02 -0.11987817266E+02 -0.50972131202E+02  0.60274166134E+02  0.47000000000E+01 0.  1.
         -5    1    3    3    0  502  0.35369052278E+02  0.21204719416E+02 -0.68995633433E+03  0.69120361925E+03  0.47000000000E+01 0.  1.
        -11    1    1    2    0    0  0.35745444339E+02 -0.29053123251E+02 -0.13078910492E+03  0.13866366044E+03  0.00000000000E+00 0. -1.
         11    1    1    2    0    0 -0.41635365337E+02  0.19836221101E+02 -0.14087404181E+03  0.14823115385E+03  0.00000000000E+00 0.  1.
<mgrwt>
<rscale>  0 0.11618332E+03</rscale>
<asrwt>0</asrwt>
<pdfrwt beam="2">  1        2 0.15776652E+00 0.12547458E+03</pdfrwt>
<pdfrwt beam="1">  1       -2 0.19831524E-02 0.12547458E+03</pdfrwt>
<totfact> 0.18827989E+04</totfact>
</mgrwt>
</event>
<event>
 6    1  0.6008063E-006  0.1897414E+03  0.7546771E-02  0.1182448E+00
         -2   -1    0    0    0  501 -0.00000000000E+00  0.00000000000E+00  0.27216006342E+02  0.27216006342E+02  0.00000000000E+00 0.  1.
          2   -1    0    0  501    0  0.00000000000E+00 -0.00000000000E+00 -0.92836868415E+03  0.92836868415E+03  0.00000000000E+00 0. -1.
          5    1    1    2  502    0  0.25602339838E+02 -0.32993607780E+02 -0.65035004065E+03  0.65170647023E+03  0.47000000000E+01 0. -1.
         -5    1    1    2    0  502  0.34140846846E+02  0.46652102872E+02 -0.59610560185E+02  0.83171659905E+02  0.47000000000E+01 0.  1.
        -11    1    1    2    0    0 -0.72374134817E+02 -0.21138431050E+02 -0.19172450953E+03  0.20601732017E+03  0.00000000000E+00 0. -1.
         11    1    1    2    0    0  0.12630948132E+02  0.74799359579E+01  0.53243256225E+00  0.14689240181E+02  0.00000000000E+00 0.  1.
<mgrwt>
<rscale>  0 0.16566273E+03</rscale>
<asrwt>0</asrwt>
<pdfrwt beam="2">  1        2 0.14282597E+00 0.18974143E+03</pdfrwt>
<pdfrwt beam="1">  1       -2 0.41870773E-02 0.18974143E+03</pdfrwt>
<totfact> 0.73444005E+03</totfact>
</mgrwt>
</event>
<event>
 7    1  0.6008063E-006  0.1299267E+03  0.7546771E-02  0.1240762E+00
         -2   -1    0    0    0  501 -0.00000000000E+00  0.00000000000E+00  0.13054020374E+02  0.13054020374E+02  0.00000000000E+00 0.  1.
          2   -1    0    0  501    0  0.00000000000E+00 -0.00000000000E+00 -0.10326484026E+04  0.10326484026E+04  0.00000000000E+00 0. -1.
         23    2    1    2    0    0 -0.32937154016E+02 -0.13058061403E+02 -0.66174114902E+03  0.67437549389E+03  0.12500235743E+03 0.  0.
          5    1    3    3  502    0  0.30096151067E+00 -0.40090665231E+01  0.42328056085E+01  0.74946537970E+01  0.47000000000E+01 0.  1.
         -5    1    3    3    0  502 -0.33238115526E+02 -0.90489948794E+01 -0.66597395463E+03  0.66688084009E+03  0.47000000000E+01 0.  1.
        -11    1    1    2    0    0 -0.30857032982E+02  0.11421304468E+02 -0.16307508730E+03  0.16636131395E+03  0.00000000000E+00 0.  1.
         11    1    1    2    0    0  0.63794186997E+02  0.16367569349E+01 -0.19477814588E+03  0.20496561512E+03  0.00000000000E+00 0. -1.
<mgrwt>
<rscale>  0 0.12142668E+03</rscale>
<asrwt>0</asrwt>
<pdfrwt beam="2">  1        2 0.15886899E+00 0.12992674E+03</pdfrwt>
<pdfrwt beam="1">  1       -2 0.20083108E-02 0.12992674E+03</pdfrwt>
<totfact> 0.18354941E+04</totfact>
</mgrwt>
</event>
<event>
 7    1  0.6008063E-006  0.2210896E+03  0.7546771E-02  0.1136616E+00
          1   -1    0    0  501    0  0.00000000000E+00  0.00000000000E+00  0.12127735371E+04  0.12127735371E+04  0.00000000000E+00 0. -1.
         -1   -1    0    0    0  501 -0.00000000000E+00 -0.00000000000E+00 -0.39984670766E+02  0.39984670766E+02  0.00000000000E+00 0.  1.
         23    2    1    2    0    0 -0.33087944189E+02 -0.17934624444E+03  0.77955252867E+03  0.81029794826E+03  0.12498292905E+03 0.  0.
          5    1    3    3  502    0 -0.70102069791E+02 -0.52908048446E+02  0.26974224609E+03  0.28371910599E+03  0.47000000000E+01 0.  1.
         -5    1    3    3    0  502  0.37014125602E+02 -0.12643819599E+03  0.50981028258E+03  0.52657884227E+03  0.47000000000E+01 0.  1.
        -11    1    1    2    0    0  0.47210733919E+02  0.18219649529E+03  0.36999926506E+03  0.41511910633E+03  0.00000000000E+00 0. -1.
         11    1    1    2    0    0 -0.14122789730E+02 -0.28502508556E+01  0.23237072645E+02  0.27341153318E+02  0.00000000000E+00 0.  1.
<mgrwt>
<rscale>  0 0.21637365E+03</rscale>
<asrwt>0</asrwt>
<pdfrwt beam="1">  1        1 0.18658052E+00 0.22108962E+03</pdfrwt>
<pdfrwt beam="2">  1       -1 0.61514887E-02 0.22108962E+03</pdfrwt>
<totfact> 0.14445773E+03</totfact>
</mgrwt>
</event>
<event>
 7    1  0.6064596E-006  0.3211473E+03  0.7546771E-02  0.1076506E+00
         -1   -1    0    0    0  501 -0.00000000000E+00  0.00000000000E+00  0.44418389367E+02  0.44418389367E+02  0.00000000000E+00 0.  1.
          1   -1    0    0  501    0  0.00000000000E+00 -0.00000000000E+00 -0.22801868264E+04  0.22801868264E+04  0.00000000000E+00 0. -1.
         23    2    1    2    0    0  0.13466160021E+03  0.26339448379E+03 -0.12981805546E+04  0.13373138619E+04  0.12500084856E+03 0.  0.
          5    1    3    3  502    0  0.15665936706E+03  0.20398159873E+03 -0.10142800936E+04  0.10463923013E+04  0.47000000000E+01 0.  1.
         -5    1    3    3    0  502 -0.21997766856E+02  0.59412885063E+02 -0.28390046095E+03  0.29092156054E+03  0.47000000000E+01 0.  1.
        -11    1    1    2    0    0  0.48569355934E+01 -0.65403226562E+02 -0.24249447424E+03  0.25120657218E+03  0.00000000000E+00 0. -1.
         11    1    1    2    0    0 -0.13951853580E+03 -0.19799125723E+03 -0.69509340824E+03  0.73608478177E+03  0.00000000000E+00 0.  1.
<mgrwt>
<rscale>  0 0.31814641E+03</rscale>
<asrwt>0</asrwt>
<pdfrwt beam="2">  1        1 0.35079802E+00 0.32114734E+03</pdfrwt>
<pdfrwt beam="1">  1       -1 0.68335974E-02 0.32114734E+03</pdfrwt>
<totfact> 0.24043423E+02</totfact>
</mgrwt>
</event>
<event>
 7    1  0.6008063E-006  0.1814286E+03  0.7546771E-02  0.1171857E+00
          1   -1    0    0  501    0  0.00000000000E+00  0.00000000000E+00  0.46168366134E+03  0.46168366134E+03  0.00000000000E+00 0. -1.
         -1   -1    0    0    0  501 -0.00000000000E+00 -0.00000000000E+00 -0.63202136266E+02  0.63202136266E+02  0.00000000000E+00 0.  1.
         23    2    1    2    0    0 -0.10562225992E+03 -0.78339417219E+02  0.21241996378E+03  0.27935382557E+03  0.12499277085E+03 0.  0.
          5    1    3    3  502    0 -0.10855428071E+03 -0.64409705495E+02  0.22614463613E+03  0.25902920390E+03  0.47000000000E+01 0. -1.
         -5    1    3    3    0  502  0.29320207894E+01 -0.13929711724E+02 -0.13724672352E+02  0.20324621664E+02  0.47000000000E+01 0. -1.
        -11    1    1    2    0    0  0.29204346044E+02  0.18467838758E+02  0.12762986886E+03  0.13222457533E+03  0.00000000000E+00 0. -1.
         11    1    1    2    0    0  0.76417913876E+02  0.59871578461E+02  0.58431692433E+02  0.11330739671E+03  0.00000000000E+00 0.  1.
<mgrwt>
<rscale>  0 0.17587382E+03</rscale>
<asrwt>0</asrwt>
<pdfrwt beam="1">  1        1 0.71028254E-01 0.18142855E+03</pdfrwt>
<pdfrwt beam="2">  1       -1 0.97234058E-02 0.18142855E+03</pdfrwt>
<totfact> 0.31439639E+03</totfact>
</mgrwt>
</event>
<event>
 7    1  0.6008063E-006  0.1302549E+03  0.7546771E-02  0.1240536E+00
         -1   -1    0    0    0  501 -0.00000000000E+00  0.00000000000E+00  0.17562804594E+02  0.17562804594E+02  0.00000000000E+00 0.  1.
          1   -1    0    0  501    0  0.00000000000E+00 -0.00000000000E+00 -0.74701305148E+03  0.74701305148E+03  0.00000000000E+00 0. -1.
         23    2    1    2    0    0  0.36584277842E+02 -0.44527986510E+00 -0.41664633490E+03  0.43653237161E+03  0.12501094119E+03 0.  0.
          5    1    3    3  502    0  0.78260417326E+02  0.11818342299E+02 -0.33123649530E+03  0.34059370510E+03  0.47000000000E+01 0. -1.
         -5    1    3    3    0  502 -0.41676139484E+02 -0.12263622164E+02 -0.85409839600E+02  0.95938666508E+02  0.47000000000E+01 0. -1.
        -11    1    1    2    0    0  0.14770018758E+02 -0.74426274339E+01 -0.71728701175E+01  0.18027651621E+02  0.00000000000E+00 0.  1.
         11    1    1    2    0    0 -0.51354296600E+02  0.78879072990E+01 -0.30563104187E+03  0.31001583285E+03  0.00000000000E+00 0. -1.
<mgrwt>
<rscale>  0 0.12156583E+03</rscale>
<asrwt>0</asrwt>
<pdfrwt beam="2">  1        1 0.11492509E+00 0.13025492E+03</pdfrwt>
<pdfrwt beam="1">  1       -1 0.27019698E-02 0.13025492E+03</pdfrwt>
<totfact> 0.10763596E+04</totfact>
</mgrwt>
</event>
<event>
 7    1  0.6008063E-006  0.1641549E+03  0.7546771E-02  0.1191526E+00
          3   -1    0    0  501    0  0.00000000000E+00  0.00000000000E+00  0.57920157345E+03  0.57920157345E+03  0.00000000000E+00 0. -1.
         -3   -1    0    0    0  501 -0.00000000000E+00 -0.00000000000E+00 -0.40044784024E+02  0.40044784024E+02  0.00000000000E+00 0.  1.
         23    2    1    2    0    0  0.10635175940E+03  0.35504221363E+01  0.31960137599E+03  0.35929358476E+03  0.12499415304E+03 0.  0.
          5    1    3    3  502    0  0.46791982116E+02 -0.93410558885E+01  0.17450744194E+02  0.51023165213E+02  0.47000000000E+01 0.  1.
         -5    1    3    3    0  502  0.59559777281E+02  0.12891478025E+02  0.30215063180E+03  0.30827041955E+03  0.47000000000E+01 0.  1.
        -11    1    1    2    0    0 -0.62826498478E+02 -0.42968554566E+02  0.15503104238E+03  0.17270810547E+03  0.00000000000E+00 0. -1.
         11    1    1    2    0    0 -0.43525260919E+02  0.39418132429E+02  0.64524371057E+02  0.87244667245E+02  0.00000000000E+00 0.  1.
<mgrwt>
<rscale>  0 0.15751941E+03</rscale>
<asrwt>0</asrwt>
<pdfrwt beam="1">  1        3 0.89107928E-01 0.16415493E+03</pdfrwt>
<pdfrwt beam="2">  1       -3 0.61607364E-02 0.16415493E+03</pdfrwt>
<totfact> 0.45738259E+02</totfact>
</mgrwt>
</event>
<event>
 7    1  0.6008063E-006  0.1957465E+03  0.7546771E-02  0.1157484E+00
          2   -1    0    0  501    0  0.00000000000E+00  0.00000000000E+00  0.37850732920E+03  0.37850732920E+03  0.00000000000E+00 0. -1.
         -2   -1    0    0    0  501 -0.00000000000E+00 -0.00000000000E+00 -0.92366771802E+02  0.92366771802E+02  0.00000000000E+00 0.  1.
         23    2    1    2    0    0  0.14269464361E+03 -0.48279431918E+02  0.16145864408E+03  0.25374311751E+03  0.12499604424E+03 0.  0.
          5    1    3    3  502    0  0.29070182172E+02 -0.24414908077E+02 -0.16132415658E+02  0.41515154617E+02  0.47000000000E+01 0.  1.
         -5    1    3    3    0  502  0.11362446144E+03 -0.23864523842E+02  0.17759105974E+03  0.21222796289E+03  0.47000000000E+01 0.  1.
        -11    1    1    2    0    0 -0.58313232551E+02  0.51471488158E+00  0.10208998649E+03  0.11757152445E+03  0.00000000000E+00 0.  1.
         11    1    1    2    0    0 -0.84381411056E+02  0.47764717037E+02  0.22591926829E+02  0.99559459034E+02  0.00000000000E+00 0. -1.
<mgrwt>
<rscale>  0 0.19108729E+03</rscale>
<asrwt>0</asrwt>
<pdfrwt beam="1">  1        2 0.58231896E-01 0.19574646E+03</pdfrwt>
<pdfrwt beam="2">  1       -2 0.14210273E-01 0.19574646E+03</pdfrwt>
<totfact> 0.31280247E+03</totfact>
</mgrwt>
</event>
<event>
 7    1  0.6008063E-006  0.1401261E+03  0.7546771E-02  0.1224045E+00
          1   -1    0    0  501    0  0.00000000000E+00  0.00000000000E+00  0.13814568294E+03  0.13814568294E+03  0.00000000000E+00 0. -1.
         -1   -1    0    0    0  501 -0.00000000000E+00 -0.00000000000E+00 -0.14737421917E+03  0.14737421917E+03  0.00000000000E+00 0.  1.
         23    2    1    2    0    0  0.28465635375E+02  0.56554128866E+02  0.62038923227E+02  0.15324537652E+03  0.12500662199E+03 0.  0.
          5    1    3    3  502    0 -0.16493120354E+02  0.73078876092E+02  0.43003017954E+00  0.75065438625E+02  0.47000000000E+01 0.  1.
         -5    1    3    3    0  502  0.44958755729E+02 -0.16524747227E+02  0.61608893047E+02  0.78179937900E+02  0.47000000000E+01 0.  1.
        -11    1    1    2    0    0 -0.50682279737E+02 -0.33327469587E+01 -0.48630296112E+02  0.70318606226E+02  0.00000000000E+00 0.  1.
         11    1    1    2    0    0  0.22216644362E+02 -0.53221381907E+02 -0.22637163346E+02  0.61955919355E+02  0.00000000000E+00 0. -1.
<mgrwt>
<rscale>  0 0.13232548E+03</rscale>
<asrwt>0</asrwt>
<pdfrwt beam="1">  1        1 0.21253182E-01 0.14012608E+03</pdfrwt>
<pdfrwt beam="2">  1       -1 0.22672957E-01 0.14012608E+03</pdfrwt>
<totfact> 0.37249305E+03</totfact>
</mgrwt>
</event>
<event>
 7    1  0.6008063E-006  0.1674465E+03  0.7546771E-02  0.1187370E+00
          1   -1    0    0  501    0  0.00000000000E+00  0.00000000000E+00  0.11951296774E+03  0.11951296774E+03  0.00000000000E+00 0. -1.
         -1   -1    0    0    0  501 -0.00000000000E+00 -0.00000000000E+00 -0.20549895497E+03  0.20549895497E+03  0.00000000000E+00 0.  1.
         23    2    1    2    0    0 -0.96666787084E+02 -0.55438482212E+02 -0.26923814601E+02  0.16959720990E+03  0.12498171378E+03 0.  0.
          5    1    3    3  502    0 -0.12427332516E+03 -0.30479667240E+02 -0.31350345936E+02  0.13182489770E+03  0.47000000000E+01 0. -1.
         -5    1    3    3    0  502  0.27606538081E+02 -0.24958814971E+02  0.44265313352E+01  0.37772312204E+02  0.47000000000E+01 0. -1.
        -11    1    1    2    0    0  0.76193157104E+02  0.20786448230E+02  0.56799695834E+01  0.79181662485E+02  0.00000000000E+00 0. -1.
         11    1    1    2    0    0  0.20473629980E+02  0.34652033982E+02 -0.64742142208E+02  0.76233050322E+02  0.00000000000E+00 0.  1.
<mgrwt>
<rscale>  0 0.16118049E+03</rscale>
<asrwt>0</asrwt>
<pdfrwt beam="1">  1        1 0.18386611E-01 0.16744647E+03</pdfrwt>
<pdfrwt beam="2">  1       -1 0.31615224E-01 0.16744647E+03</pdfrwt>
<totfact> 0.26013537E+03</totfact>
</mgrwt>
</event>
<event>
 6    1  0.6008063E-006  0.1593876E+03  0.7546771E-02  0.1204688E+00
         -1   -1    0    0    0  501 -0.00000000000E+00  0.00000000000E+00  0.20270831566E+03  0.20270831566E+03  0.00000000000E+00 0.  1.
          1   -1    0    0  501    0  0.00000000000E+00 -0.00000000000E+00 -0.10862116410E+03  0.10862116410E+03  0.00000000000E+00 0. -1.
          5    1    1    2  502    0  0.54852829995E+02 -0.41434656875E+02 -0.66684552651E+02  0.95888389866E+02  0.47000000000E+01 0. -1.
         -5    1    1    2    0  502 -0.12814732577E+02 -0.13499844231E+02  0.60647520287E+02  0.63613480350E+02  0.47000000000E+01 0.  1.
        -11    1    1    2    0    0 -0.44858652735E+02  0.67597643548E+02  0.40249613584E+02  0.90563632503E+02  0.00000000000E+00 0.  1.
         11    1    1    2    0    0  0.28205553172E+01 -0.12663142442E+02  0.59874570346E+02  0.61263977041E+02  0.00000000000E+00 0. -1.
<mgrwt>
<rscale>  0 0.14662076E+03</rscale>
<asrwt>0</asrwt>
<pdfrwt beam="2">  1        1 0.16710948E-01 0.15938758E+03</pdfrwt>
<pdfrwt beam="1">  1       -1 0.31185895E-01 0.15938758E+03</pdfrwt>
<totfact> 0.30049143E+03</totfact>
</mgrwt>
</event>
<event>
 7    1  0.6008063E-006  0.1755479E+03  0.7546771E-02  0.1178032E+00
          1   -1    0    0  501    0  0.00000000000E+00  0.00000000000E+00  0.44454849146E+03  0.44454849146E+03  0.00000000000E+00 0. -1.
         -1   -1    0    0    0  501 -0.00000000000E+00 -0.00000000000E+00 -0.64194668759E+02  0.64194668759E+02  0.00000000000E+00 0.  1.
         23    2    1    2    0    0  0.12091777158E+03  0.23887288217E+02  0.25894024063E+03  0.31283717550E+03  0.12500136051E+03 0.  0.
          5    1    3    3  502    0  0.16397161958E+02 -0.10778407225E+02  0.17004133252E+03  0.17123430073E+03  0.47000000000E+01 0. -1.
         -5    1    3    3    0  502  0.10452060962E+03  0.34665695442E+02  0.88898908113E+02  0.14160287476E+03  0.47000000000E+01 0. -1.
        -11    1    1    2    0    0 -0.76889737760E+02  0.23349371278E+02  0.34062266378E+02  0.87278078018E+02  0.00000000000E+00 0.  1.
         11    1    1    2    0    0 -0.44028033824E+02 -0.47236659495E+02  0.87351315688E+02  0.10862790670E+03  0.00000000000E+00 0. -1.
<mgrwt>
<rscale>  0 0.16982349E+03</rscale>
<asrwt>0</asrwt>
<pdfrwt beam="1">  1        1 0.68392074E-01 0.17554786E+03</pdfrwt>
<pdfrwt beam="2">  1       -1 0.98761032E-02 0.17554786E+03</pdfrwt>
<totfact> 0.32197104E+03</totfact>
</mgrwt>
</event>
<event>
 7    1  0.6008063E-006  0.1625005E+03  0.7546771E-02  0.1193031E+00
          2   -1    0    0  501    0  0.00000000000E+00  0.00000000000E+00  0.13420363644E+04  0.13420363644E+04  0.00000000000E+00 0.  1.
         -2   -1    0    0    0  501 -0.00000000000E+00 -0.00000000000E+00 -0.18754342802E+02  0.18754342802E+02  0.00000000000E+00 0. -1.
         23    2    1    2    0    0  0.15036903382E+02  0.10274308712E+03  0.92128742385E+03  0.93550891852E+03  0.12499667551E+03 0.  0.
          5    1    3    3  502    0 -0.32398051813E+02  0.89640750350E+02  0.37363195261E+03  0.38562679354E+03  0.47000000000E+01 0. -1.
         -5    1    3    3    0  502  0.47434955195E+02  0.13102336767E+02  0.54765547123E+03  0.54988212498E+03  0.47000000000E+01 0. -1.
        -11    1    1    2    0    0 -0.51291020635E+02 -0.80906871331E+02  0.29746437391E+03  0.31250879087E+03  0.00000000000E+00 0. -1.
         11    1    1    2    0    0  0.36254117253E+02 -0.21836215785E+02  0.10453022385E+03  0.11277299781E+03  0.00000000000E+00 0.  1.
<mgrwt>
<rscale>  0 0.15622014E+03</rscale>
<asrwt>0</asrwt>
<pdfrwt beam="1">  1        2 0.20646706E+00 0.16250052E+03</pdfrwt>
<pdfrwt beam="2">  1       -2 0.28852846E-02 0.16250052E+03</pdfrwt>
<totfact> 0.73419950E+03</totfact>
</mgrwt>
</event>
<event>
 7    1  0.6008063E-006  0.1416995E+03  0.7546771E-02  0.1221562E+00
         -2   -1    0    0    0  501 -0.00000000000E+00  0.00000000000E+00  0.12825011757E+02  0.12825011757E+02  0.00000000000E+00 0.  1.
          2   -1    0    0  501    0  0.00000000000E+00 -0.00000000000E+00 -0.15365969042E+04  0.15365969042E+04  0.00000000000E+00 0. -1.
         23    2    1    2    0    0 -0.66264589322E+02 -0.77684557995E+01 -0.11527611273E+04  0.11614374529E+04  0.12500958224E+03 0.  0.
          5    1    3    3  502    0 -0.80249864504E+02  0.17987636042E+02 -0.41593467453E+03  0.42401337158E+03  0.47000000000E+01 0. -1.
         -5    1    3    3    0  502  0.13985275181E+02 -0.25756091842E+02 -0.73682645279E+03  0.73742408133E+03  0.47000000000E+01 0. -1.
        -11    1    1    2    0    0 -0.23404172229E+02 -0.21010366764E+00 -0.82407205673E+02  0.85666486843E+02  0.00000000000E+00 0.  1.
         11    1    1    2    0    0  0.89668761552E+02  0.79785594671E+01 -0.28860355943E+03  0.30231797619E+03  0.00000000000E+00 0. -1.
<mgrwt>
<rscale>  0 0.13405349E+03</rscale>
<asrwt>0</asrwt>
<pdfrwt beam="2">  1        2 0.23639933E+00 0.14169947E+03</pdfrwt>
<pdfrwt beam="1">  1       -2 0.19730803E-02 0.14169947E+03</pdfrwt>
<totfact> 0.10052946E+04</totfact>
</mgrwt>
</event>
<event>
 7    1  0.6008063E-006  0.1503520E+03  0.7546771E-02  0.1208577E+00
         -1   -1    0    0    0  501 -0.00000000000E+00  0.00000000000E+00  0.36671362028E+03  0.36671362028E+03  0.00000000000E+00 0.  1.
          1   -1    0    0  501    0  0.00000000000E+00 -0.00000000000E+00 -0.62146858561E+02  0.62146858561E+02  0.00000000000E+00 0. -1.
         23    2    1    2    0    0  0.78298863120E+02 -0.29135922458E+02  0.76375843740E+02  0.16863861890E+03  0.12500440126E+03 0.  0.
          5    1    3    3  502    0  0.47002371529E+02  0.21795692366E+01  0.10537937199E+03  0.11550270773E+03  0.47000000000E+01 0.  1.
         -5    1    3    3    0  502  0.31296491591E+02 -0.31315491694E+02 -0.29003528247E+02  0.53135911178E+02  0.47000000000E+01 0.  1.
        -11    1    1    2    0    0 -0.62500569716E+02  0.60992055971E+02  0.13842724240E+03  0.16367178604E+03  0.00000000000E+00 0. -1.
         11    1    1    2    0    0 -0.15798293404E+02 -0.31856133513E+02  0.89763675574E+02  0.96550073896E+02  0.00000000000E+00 0.  1.
<mgrwt>
<rscale>  0 0.14359074E+03</rscale>
<asrwt>0</asrwt>
<pdfrwt beam="2">  1        1 0.95610554E-02 0.15035197E+03</pdfrwt>
<pdfrwt beam="1">  1       -1 0.56417479E-01 0.15035197E+03</pdfrwt>
<totfact> 0.21751349E+03</totfact>
</mgrwt>
</event>
<event>
 7    1  0.6008063E-006  0.1259303E+03  0.7546771E-02  0.1246399E+00
          2   -1    0    0  501    0  0.00000000000E+00  0.00000000000E+00  0.19993845938E+03  0.19993845938E+03  0.00000000000E+00 0. -1.
         -2   -1    0    0    0  501 -0.00000000000E+00 -0.00000000000E+00 -0.64758480191E+02  0.64758480191E+02  0.00000000000E+00 0.  1.
         23    2    1    2    0    0 -0.15298223582E+02 -0.11162743921E+01  0.10193769053E+03  0.16201772297E+03  0.12499267216E+03 0.  0.
          5    1    3    3  502    0  0.18828214695E+02 -0.27775518358E+02 -0.15130679806E+02  0.37108065971E+02  0.47000000000E+01 0. -1.
         -5    1    3    3    0  502 -0.34126438277E+02  0.26659243966E+02  0.11706837034E+03  0.12490965700E+03  0.47000000000E+01 0. -1.
        -11    1    1    2    0    0  0.43527954530E+01 -0.13567528610E+02  0.64715328426E+02  0.66265363457E+02  0.00000000000E+00 0. -1.
         11    1    1    2    0    0  0.10945428129E+02  0.14683803003E+02 -0.31473039775E+02  0.36413853136E+02  0.00000000000E+00 0.  1.
<mgrwt>
<rscale>  0 0.11802054E+03</rscale>
<asrwt>0</asrwt>
<pdfrwt beam="1">  1        2 0.30759763E-01 0.12593034E+03</pdfrwt>
<pdfrwt beam="2">  1       -2 0.99628432E-02 0.12593034E+03</pdfrwt>
<totfact> 0.10658704E+04</totfact>
</mgrwt>
</event>
<event>
 7    1  0.6008063E-006  0.1352400E+03  0.7546771E-02  0.1231590E+00
          3   -1    0    0  501    0  0.00000000000E+00  0.00000000000E+00  0.39694919624E+02  0.39694919624E+02  0.00000000000E+00 0. -1.
         -3   -1    0    0    0  501 -0.00000000000E+00 -0.00000000000E+00 -0.36736020090E+03  0.36736020090E+03  0.00000000000E+00 0.  1.
         23    2    1    2    0    0 -0.47008265481E+02  0.21325685840E+02 -0.19307832591E+03  0.23573100255E+03  0.12500121490E+03 0.  0.
          5    1    3    3  502    0 -0.83152611867E+02  0.48027418360E+01 -0.17041905995E+03  0.18974237582E+03  0.47000000000E+01 0. -1.
         -5    1    3    3    0  502  0.36144346385E+02  0.16522944004E+02 -0.22659265965E+02  0.45988626727E+02  0.47000000000E+01 0. -1.
        -11    1    1    2    0    0  0.63448566124E+02  0.84608504514E+00 -0.12812303256E+03  0.14297534010E+03  0.00000000000E+00 0.  1.
         11    1    1    2    0    0 -0.16440300643E+02 -0.22171770885E+02 -0.64639228084E+01  0.28348777883E+02  0.00000000000E+00 0. -1.
<mgrwt>
<rscale>  0 0.12725256E+03</rscale>
<asrwt>0</asrwt>
<pdfrwt beam="1">  1        3 0.61069109E-02 0.13524003E+03</pdfrwt>
<pdfrwt beam="2">  1       -3 0.56516952E-01 0.13524003E+03</pdfrwt>
<totfact> 0.11862453E+03</totfact>
</mgrwt>
</event>
<event>
 7    1  0.6008063E-006  0.1961129E+03  0.7546771E-02  0.1154829E+00
          3   -1    0    0  501    0  0.00000000000E+00  0.00000000000E+00  0.11715962077E+04  0.11715962077E+04  0.00000000000E+00 0. -1.
         -3   -1    0    0    0  501 -0.00000000000E+00 -0.00000000000E+00 -0.32395521294E+02  0.32395521294E+02  0.00000000000E+00 0.  1.
         23    2    1    2    0    0 -0.34023105336E+02 -0.13641614670E+03  0.65797584321E+03  0.68434029711E+03  0.12498998052E+03 0.  0.
          5    1    3    3  502    0 -0.63938008593E+02 -0.52812858660E+02  0.45822360888E+03  0.46569113446E+03  0.47000000000E+01 0. -1.
         -5    1    3    3    0  502  0.29914903257E+02 -0.83603288045E+02  0.19975223433E+03  0.21864916265E+03  0.47000000000E+01 0. -1.
        -11    1    1    2    0    0 -0.44766928681E+02  0.10829489760E+02  0.86410457436E+02  0.97918960913E+02  0.00000000000E+00 0.  1.
         11    1    1    2    0    0  0.78790034017E+02  0.12558665694E+03  0.39481438577E+03  0.42173247097E+03  0.00000000000E+00 0. -1.
<mgrwt>
<rscale>  0 0.19408358E+03</rscale>
<asrwt>0</asrwt>
<pdfrwt beam="1">  1        3 0.18024554E+00 0.19611288E+03</pdfrwt>
<pdfrwt beam="2">  1       -3 0.49839272E-02 0.19611288E+03</pdfrwt>
<totfact> 0.11954792E+02</totfact>
</mgrwt>
</event>
<event>
 7    1  0.6008063E-006  0.1443528E+03  0.7546771E-02  0.1217526E+00
         -2   -1    0    0    0  501 -0.00000000000E+00  0.00000000000E+00  0.58238373685E+02  0.58238373685E+02  0.00000000000E+00 0.  1.
          2   -1    0    0  501    0  0.00000000000E+00 -0.00000000000E+00 -0.29601489176E+03  0.29601489176E+03  0.00000000000E+00 0. -1.
         23    2    1    2    0    0 -0.19238113396E+02 -0.69580378997E+02 -0.14933457563E+03  0.20769820752E+03  0.12500478304E+03 0.  0.
          5    1    3    3  502    0 -0.42400399099E+02 -0.11409041435E+02  0.16374090201E+01  0.44189718018E+02  0.47000000000E+01 0.  1.
         -5    1    3    3    0  502  0.23162285703E+02 -0.58171337562E+02 -0.15097198465E+03  0.16350848951E+03  0.47000000000E+01 0.  1.
        -11    1    1    2    0    0 -0.84132143560E+01  0.19510212987E+02  0.16591295808E+02  0.26957404978E+02  0.00000000000E+00 0.  1.
         11    1    1    2    0    0  0.27651327752E+02  0.50070166010E+02 -0.10503323826E+03  0.11959765295E+03  0.00000000000E+00 0. -1.
<mgrwt>
<rscale>  0 0.13692601E+03</rscale>
<asrwt>0</asrwt>
<pdfrwt beam="2">  1        2 0.45540752E-01 0.14435280E+03</pdfrwt>
<pdfrwt beam="1">  1       -2 0.89597499E-02 0.14435280E+03</pdfrwt>
<totfact> 0.83616226E+03</totfact>
</mgrwt>
</event>
<event>
 7    1  0.6008063E-006  0.1428778E+03  0.7546771E-02  0.1221043E+00
         -1   -1    0    0    0  501 -0.00000000000E+00  0.00000000000E+00  0.85533136086E+02  0.85533136086E+02  0.00000000000E+00 0.  1.
          1   -1    0    0  501    0  0.00000000000E+00 -0.00000000000E+00 -0.19518698896E+03  0.19518698896E+03  0.00000000000E+00 0. -1.
         23    2    1    2    0    0  0.68347167068E+02 -0.10919130332E+02 -0.84515822502E+02  0.16600294737E+03  0.12499396638E+03 0.  0.
          5    1    3    3  502    0  0.85898319177E+02 -0.49913137025E+02 -0.53200486630E+02  0.11279283782E+03  0.47000000000E+01 0. -1.
         -5    1    3    3    0  502 -0.17551152109E+02  0.38994006693E+02 -0.31315335872E+02  0.53210109558E+02  0.47000000000E+01 0. -1.
        -11    1    1    2    0    0  0.12550371613E+02  0.21067256476E+02 -0.22285304611E+02  0.33135719769E+02  0.00000000000E+00 0. -1.
         11    1    1    2    0    0 -0.80897538681E+02 -0.10148126144E+02 -0.28527257589E+01  0.81581457900E+02  0.00000000000E+00 0.  1.
<mgrwt>
<rscale>  0 0.13441854E+03</rscale>
<asrwt>0</asrwt>
<pdfrwt beam="2">  1        1 0.30028767E-01 0.14287776E+03</pdfrwt>
<pdfrwt beam="1">  1       -1 0.13158944E-01 0.14287776E+03</pdfrwt>
<totfact> 0.57309521E+03</totfact>
</mgrwt>
</event>
<event>
 7    1  0.6008063E-006  0.1279453E+03  0.7546771E-02  0.1244577E+00
         -2   -1    0    0    0  501 -0.00000000000E+00  0.00000000000E+00  0.12364840621E+03  0.12364840621E+03  0.00000000000E+00 0.  1.
          2   -1    0    0  501    0  0.00000000000E+00 -0.00000000000E+00 -0.11744374086E+03  0.11744374086E+03  0.00000000000E+00 0. -1.
         23    2    1    2    0    0 -0.11911820907E+02 -0.24550931088E+02 -0.40568153475E+02  0.13422285272E+03  0.12500143768E+03 0.  0.
          5    1    3    3  502    0 -0.20228707714E+02 -0.65926415635E+02 -0.56085801842E+02  0.89012359044E+02  0.47000000000E+01 0.  1.
         -5    1    3    3    0  502  0.83168868067E+01  0.41375484547E+02  0.15517648367E+02  0.45210493676E+02  0.47000000000E+01 0.  1.
        -11    1    1    2    0    0 -0.27397562347E+02 -0.64528025852E+01  0.49269173363E+02  0.56742546009E+02  0.00000000000E+00 0.  1.
         11    1    1    2    0    0  0.39309383255E+02  0.31003733674E+02 -0.24963545368E+01  0.50126748344E+02  0.00000000000E+00 0. -1.
<mgrwt>
<rscale>  0 0.11910724E+03</rscale>
<asrwt>0</asrwt>
<pdfrwt beam="2">  1        2 0.18068268E-01 0.12794530E+03</pdfrwt>
<pdfrwt beam="1">  1       -2 0.19022832E-01 0.12794530E+03</pdfrwt>
<totfact> 0.67571464E+03</totfact>
</mgrwt>
</event>
<event>
 7    1  0.6008063E-006  0.1259271E+03  0.7546771E-02  0.1247226E+00
          1   -1    0    0  501    0  0.00000000000E+00  0.00000000000E+00  0.66175536864E+02  0.66175536864E+02  0.00000000000E+00 0. -1.
         -1   -1    0    0    0  501 -0.00000000000E+00 -0.00000000000E+00 -0.18568341384E+03  0.18568341384E+03  0.00000000000E+00 0.  1.
         23    2    1    2    0    0  0.91290896591E+01  0.12253471886E+02 -0.73456994259E+02  0.14578603436E+03  0.12499659979E+03 0.  0.
          5    1    3    3  502    0  0.50989067790E+02 -0.35430370333E+02 -0.34624316559E+02  0.71246961151E+02  0.47000000000E+01 0. -1.
         -5    1    3    3    0  502 -0.41859978131E+02  0.47683842218E+02 -0.38832677700E+02  0.74539073211E+02  0.47000000000E+01 0. -1.
        -11    1    1    2    0    0 -0.21743392430E+02  0.35156516675E+02 -0.38399253836E+02  0.56420372865E+02  0.00000000000E+00 0.  1.
         11    1    1    2    0    0  0.12614302770E+02 -0.47409988560E+02 -0.76516288859E+01  0.49652543482E+02  0.00000000000E+00 0. -1.
<mgrwt>
<rscale>  0 0.11753113E+03</rscale>
<asrwt>0</asrwt>
<pdfrwt beam="1">  1        1 0.10180852E-01 0.12592711E+03</pdfrwt>
<pdfrwt beam="2">  1       -1 0.28566679E-01 0.12592711E+03</pdfrwt>
<totfact> 0.65602131E+03</totfact>
</mgrwt>
</event>
<event>
 7    1  0.6008063E-006  0.1561650E+03  0.7546771E-02  0.1200031E+00
         -2   -1    0    0    0  501 -0.00000000000E+00  0.00000000000E+00  0.94823677804E+02  0.94823677804E+02  0.00000000000E+00 0.  1.
          2   -1    0    0  501    0  0.00000000000E+00 -0.00000000000E+00 -0.26390659008E+03  0.26390659008E+03  0.00000000000E+00 0. -1.
         23    2    1    2    0    0  0.92463865391E+01  0.97952479315E+02 -0.16097439813E+03  0.22427717423E+03  0.12127369937E+03 0.  0.
          5    1    3    3  502    0  0.50572029876E+02  0.69227493813E+02 -0.14956545921E+03  0.17245837960E+03  0.47000000000E+01 0. -1.
         -5    1    3    3    0  502 -0.41325643337E+02  0.28724985502E+02 -0.11408938911E+02  0.51818794625E+02  0.47000000000E+01 0.  1.
        -11    1    1    2    0    0  0.16659521307E+02 -0.10211346949E+03 -0.20437673099E+02  0.10546278388E+03  0.00000000000E+00 0. -1.
         11    1    1    2    0    0 -0.25905907846E+02  0.41609901776E+01  0.12329158948E+02  0.28990309777E+02  0.00000000000E+00 0.  1.
<mgrwt>
<rscale>  0 0.15036009E+03</rscale>
<asrwt>0</asrwt>
<pdfrwt beam="2">  1        2 0.40601014E-01 0.15616496E+03</pdfrwt>
<pdfrwt beam="1">  1       -2 0.14588258E-01 0.15616496E+03</pdfrwt>
<totfact> 0.43632248E+03</totfact>
</mgrwt>
</event>
<event>
 7    1  0.6008063E-006  0.1474042E+03  0.7546771E-02  0.1213319E+00
          2   -1    0    0  501    0  0.00000000000E+00  0.00000000000E+00  0.11257896026E+03  0.11257896026E+03  0.00000000000E+00 0. -1.
         -2   -1    0    0    0  501 -0.00000000000E+00 -0.00000000000E+00 -0.16525636986E+03  0.16525636986E+03  0.00000000000E+00 0.  1.
         23    2    1    2    0    0 -0.41285902670E+02  0.66316444099E+02 -0.56352969539E+02  0.15780895053E+03  0.12500244467E+03 0.  0.
          5    1    3    3  502    0  0.76053780704E+01  0.87127305334E+02 -0.11936349280E+02  0.88394431638E+02  0.47000000000E+01 0. -1.
         -5    1    3    3    0  502 -0.48891280740E+02 -0.20810861235E+02 -0.44416620259E+02  0.69414518892E+02  0.47000000000E+01 0. -1.
        -11    1    1    2    0    0  0.60802467461E+02 -0.18518499296E+02  0.18703602445E+02  0.66254808202E+02  0.00000000000E+00 0. -1.
         11    1    1    2    0    0 -0.19516564791E+02 -0.47797944803E+02 -0.15028042509E+02  0.53771571395E+02  0.00000000000E+00 0.  1.
<mgrwt>
<rscale>  0 0.14000731E+03</rscale>
<asrwt>0</asrwt>
<pdfrwt beam="1">  1        2 0.17319840E-01 0.14740423E+03</pdfrwt>
<pdfrwt beam="2">  1       -2 0.25424057E-01 0.14740423E+03</pdfrwt>
<totfact> 0.43540260E+03</totfact>
</mgrwt>
</event>
<event>
 7    1  0.6008063E-006  0.1420624E+03  0.7546771E-02  0.1221405E+00
          2   -1    0    0  501    0  0.00000000000E+00  0.00000000000E+00  0.15646332345E+04  0.15646332345E+04  0.00000000000E+00 0. -1.
         -2   -1    0    0    0  501 -0.00000000000E+00 -0.00000000000E+00 -0.15845843297E+02  0.15845843297E+02  0.00000000000E+00 0.  1.
         23    2    1    2    0    0  0.61765852691E+02 -0.27230943854E+02  0.12937536641E+04  0.13015299684E+04  0.12500068223E+03 0.  0.
          5    1    3    3  502    0  0.98582597705E+02 -0.66446429086E+01  0.96205358592E+03  0.96712557201E+03  0.47000000000E+01 0.  1.
         -5    1    3    3    0  502 -0.36816745014E+02 -0.20586300946E+02  0.33170007815E+03  0.33440439642E+03  0.47000000000E+01 0.  1.
        -11    1    1    2    0    0 -0.73400211421E+02  0.14673250813E+02  0.25020586427E+03  0.26116253530E+03  0.00000000000E+00 0. -1.
         11    1    1    2    0    0  0.11634358730E+02  0.12557693041E+02  0.48278628629E+01  0.17786574077E+02  0.00000000000E+00 0.  1.
<mgrwt>
<rscale>  0 0.13416365E+03</rscale>
<asrwt>0</asrwt>
<pdfrwt beam="1">  1        2 0.24071268E+00 0.14206236E+03</pdfrwt>
<pdfrwt beam="2">  1       -2 0.24378233E-02 0.14206236E+03</pdfrwt>
<totfact> 0.71438498E+03</totfact>
</mgrwt>
</event>
<event>
 7    1  0.6008063E-006  0.1527857E+03  0.7546771E-02  0.1205689E+00
          2   -1    0    0  501    0  0.00000000000E+00  0.00000000000E+00  0.63780759114E+03  0.63780759114E+03  0.00000000000E+00 0. -1.
         -2   -1    0    0    0  501 -0.00000000000E+00 -0.00000000000E+00 -0.34835074978E+02  0.34835074978E+02  0.00000000000E+00 0.  1.
         23    2    1    2    0    0  0.60542005757E+02  0.63618072397E+02  0.44234385879E+03  0.46798671677E+03  0.12502353406E+03 0.  0.
          5    1    3    3  502    0  0.54868573225E+02  0.61403708257E+02  0.12035184823E+03  0.14590282070E+03  0.47000000000E+01 0.  1.
         -5    1    3    3    0  502  0.56734325316E+01  0.22143641396E+01  0.32199201056E+03  0.32208389607E+03  0.47000000000E+01 0.  1.
        -11    1    1    2    0    0  0.20199937375E+02 -0.36269812401E+02  0.55418508431E+02  0.69244117716E+02  0.00000000000E+00 0.  1.
         11    1    1    2    0    0 -0.80741943132E+02 -0.27348259996E+02  0.10521014895E+03  0.13541183164E+03  0.00000000000E+00 0. -1.
<mgrwt>
<rscale>  0 0.14583315E+03</rscale>
<asrwt>0</asrwt>
<pdfrwt beam="1">  1        2 0.98124236E-01 0.15278572E+03</pdfrwt>
<pdfrwt beam="2">  1       -2 0.53592428E-02 0.15278572E+03</pdfrwt>
<totfact> 0.79874789E+03</totfact>
</mgrwt>
</event>
<event>
 7    1  0.6008063E-006  0.3104630E+03  0.7546771E-02  0.1080124E+00
          2   -1    0    0  501    0  0.00000000000E+00  0.00000000000E+00  0.91389624418E+03  0.91389624418E+03  0.00000000000E+00 0. -1.
         -2   -1    0    0    0  501 -0.00000000000E+00 -0.00000000000E+00 -0.26367134031E+02  0.26367134031E+02  0.00000000000E+00 0.  1.
         23    2    1    2    0    0  0.50482049723E+02 -0.65146566215E+01  0.70638887446E+03  0.71679036509E+03  0.11050930927E+03 0.  0.
          5    1    3    3  502    0  0.32498957882E+02 -0.88596915833E+01  0.69282950497E+03  0.69366381580E+03  0.47000000000E+01 0. -1.
         -5    1    3    3    0  502  0.17983091840E+02  0.23450349618E+01  0.13559369490E+02  0.23126549290E+02  0.47000000000E+01 0.  1.
        -11    1    1    2    0    0 -0.12834929688E+02  0.62255989370E+02  0.90991247398E+02  0.11099527348E+03  0.00000000000E+00 0.  1.
         11    1    1    2    0    0 -0.37647120035E+02 -0.55741332748E+02  0.90148988297E+02  0.11247773964E+03  0.00000000000E+00 0. -1.
<mgrwt>
<rscale>  0 0.31046304E+03</rscale>
<asrwt>0</asrwt>
<pdfrwt beam="1">  1        2 0.14059940E+00 0.31046304E+03</pdfrwt>
<pdfrwt beam="2">  1       -2 0.40564829E-02 0.31046304E+03</pdfrwt>
<totfact> 0.80204133E+03</totfact>
</mgrwt>
</event>
<event>
 7    1  0.6008063E-006  0.1287257E+03  0.7546771E-02  0.1241521E+00
          1   -1    0    0  501    0  0.00000000000E+00  0.00000000000E+00  0.25564648975E+04  0.25564648975E+04  0.00000000000E+00 0. -1.
         -1   -1    0    0    0  501 -0.00000000000E+00 -0.00000000000E+00 -0.94942283038E+01  0.94942283038E+01  0.00000000000E+00 0.  1.
         23    2    1    2    0    0 -0.30745422686E+02 -0.84576209018E+00  0.22247218276E+04  0.22284428471E+04  0.12499726488E+03 0.  0.
          5    1    3    3  502    0 -0.62396253912E+02  0.18202070000E+02  0.64530859046E+03  0.64859068354E+03  0.47000000000E+01 0.  1.
         -5    1    3    3    0  502  0.31650831226E+02 -0.19047832091E+02  0.15794132371E+04  0.15798521635E+04  0.47000000000E+01 0.  1.
        -11    1    1    2    0    0  0.34240548983E+02  0.44307148370E+02  0.20152597473E+03  0.20916084022E+03  0.00000000000E+00 0.  1.
         11    1    1    2    0    0 -0.34951262971E+01 -0.43461386280E+02  0.12072286684E+03  0.12835543847E+03  0.00000000000E+00 0. -1.
<mgrwt>
<rscale>  0 0.12096047E+03</rscale>
<asrwt>0</asrwt>
<pdfrwt beam="1">  1        1 0.39330174E+00 0.12872573E+03</pdfrwt>
<pdfrwt beam="2">  1       -1 0.14606525E-02 0.12872573E+03</pdfrwt>
<totfact> 0.15958472E+03</totfact>
</mgrwt>
</event>
<event>
 7    1  0.6008063E-006  0.1442654E+03  0.7546771E-02  0.1217671E+00
          2   -1    0    0  501    0  0.00000000000E+00  0.00000000000E+00  0.17157893843E+04  0.17157893843E+04  0.00000000000E+00 0. -1.
         -2   -1    0    0    0  501 -0.00000000000E+00 -0.00000000000E+00 -0.10455000234E+02  0.10455000234E+02  0.00000000000E+00 0.  1.
         23    2    1    2    0    0  0.59880428606E+02  0.40034149238E+02  0.11315551731E+04  0.11407145164E+04  0.12499639659E+03 0.  0.
          5    1    3    3  502    0  0.22487440680E+02  0.78349785623E+02  0.47526145426E+03  0.48222392496E+03  0.47000000000E+01 0. -1.
         -5    1    3    3    0  502  0.37392987926E+02 -0.38315636385E+02  0.65629371886E+03  0.65849059139E+03  0.47000000000E+01 0. -1.
        -11    1    1    2    0    0  0.22498982107E+02 -0.11848422048E+02  0.74609623397E+02  0.78823760405E+02  0.00000000000E+00 0.  1.
         11    1    1    2    0    0 -0.82379410713E+02 -0.28185727190E+02  0.49916958752E+03  0.50670610775E+03  0.00000000000E+00 0. -1.
<mgrwt>
<rscale>  0 0.13682147E+03</rscale>
<asrwt>0</asrwt>
<pdfrwt beam="1">  1        2 0.26396737E+00 0.14426537E+03</pdfrwt>
<pdfrwt beam="2">  1       -2 0.16084629E-02 0.14426537E+03</pdfrwt>
<totfact> 0.10933692E+04</totfact>
</mgrwt>
</event>
<event>
 7    1  0.6008063E-006  0.1393111E+03  0.7546771E-02  0.1225343E+00
          2   -1    0    0  501    0  0.00000000000E+00  0.00000000000E+00  0.36750896083E+03  0.36750896083E+03  0.00000000000E+00 0. -1.
         -2   -1    0    0    0  501 -0.00000000000E+00 -0.00000000000E+00 -0.42447769924E+02  0.42447769924E+02  0.00000000000E+00 0.  1.
         23    2    1    2    0    0 -0.95183122608E+01 -0.60763788197E+02  0.18744867675E+03  0.23354780172E+03  0.12499893219E+03 0.  0.
          5    1    3    3  502    0 -0.85022255455E+00 -0.71438857337E+02  0.33733380091E+02  0.79147104485E+02  0.47000000000E+01 0. -1.
         -5    1    3    3    0  502 -0.86680897062E+01  0.10675069140E+02  0.15371529665E+03  0.15440069723E+03  0.47000000000E+01 0. -1.
        -11    1    1    2    0    0  0.21197913578E+00 -0.21147763328E+02  0.58279230384E+02  0.61997915473E+02  0.00000000000E+00 0. -1.
         11    1    1    2    0    0  0.93063331250E+01  0.81911551525E+02  0.79333283772E+02  0.11441101356E+03  0.00000000000E+00 0.  1.
<mgrwt>
<rscale>  0 0.13143410E+03</rscale>
<asrwt>0</asrwt>
<pdfrwt beam="1">  1        2 0.56539838E-01 0.13931105E+03</pdfrwt>
<pdfrwt beam="2">  1       -2 0.65304264E-02 0.13931105E+03</pdfrwt>
<totfact> 0.10791911E+04</totfact>
</mgrwt>
</event>
<event>
 7    1  0.6008063E-006  0.1800486E+03  0.7546771E-02  0.1173312E+00
         -1   -1    0    0    0  501 -0.00000000000E+00  0.00000000000E+00  0.66647355940E+02  0.66647355940E+02  0.00000000000E+00 0.  1.
          1   -1    0    0  501    0  0.00000000000E+00 -0.00000000000E+00 -0.43374943051E+03  0.43374943051E+03  0.00000000000E+00 0. -1.
         23    2    1    2    0    0  0.86217917604E+01 -0.12929939547E+03 -0.21788820613E+03  0.28265306410E+03  0.12499926126E+03 0.  0.
          5    1    3    3  502    0  0.99532923935E+01  0.14261547219E+02  0.38799171954E+01  0.18428334596E+02  0.47000000000E+01 0.  1.
         -5    1    3    3    0  502 -0.13315006331E+01 -0.14356094269E+03 -0.22176812333E+03  0.26422472951E+03  0.47000000000E+01 0.  1.
        -11    1    1    2    0    0 -0.36355966364E+01  0.14182193522E+03 -0.14661587912E+03  0.20401689852E+03  0.00000000000E+00 0.  1.
         11    1    1    2    0    0 -0.49861951240E+01 -0.12522539754E+02 -0.25979893168E+01  0.13726823820E+02  0.00000000000E+00 0. -1.
<mgrwt>
<rscale>  0 0.17442318E+03</rscale>
<asrwt>0</asrwt>
<pdfrwt beam="2">  1        1 0.66730683E-01 0.18004856E+03</pdfrwt>
<pdfrwt beam="1">  1       -1 0.10253439E-01 0.18004856E+03</pdfrwt>
<totfact> 0.31401082E+03</totfact>
</mgrwt>
</event>
<event>
 7    1  0.6008063E-006  0.2422290E+03  0.7546771E-02  0.1120961E+00
          2   -1    0    0  501    0  0.00000000000E+00  0.00000000000E+00  0.34571740551E+03  0.34571740551E+03  0.00000000000E+00 0. -1.
         -2   -1    0    0    0  501 -0.00000000000E+00 -0.00000000000E+00 -0.21566544528E+03  0.21566544528E+03  0.00000000000E+00 0.  1.
         23    2    1    2    0    0 -0.17656567570E+03  0.10896979994E+03  0.21040192304E+03  0.32084867559E+03  0.12500019311E+03 0.  0.
          5    1    3    3  502    0 -0.19227244988E+03  0.89139490200E+02  0.20429701764E+03  0.29440432252E+03  0.47000000000E+01 0. -1.
         -5    1    3    3    0  502  0.15706774187E+02  0.19830309740E+02  0.61049053932E+01  0.26444353076E+02  0.47000000000E+01 0. -1.
        -11    1    1    2    0    0  0.25077817105E+02 -0.60113526354E+02 -0.77717455785E+01  0.65596745276E+02  0.00000000000E+00 0. -1.
         11    1    1    2    0    0  0.15148785859E+03 -0.48856273586E+02 -0.72578217235E+02  0.17493742992E+03  0.00000000000E+00 0.  1.
<mgrwt>
<rscale>  0 0.23825424E+03</rscale>
<asrwt>0</asrwt>
<pdfrwt beam="1">  1        2 0.53187293E-01 0.24222903E+03</pdfrwt>
<pdfrwt beam="2">  1       -2 0.33179299E-01 0.24222903E+03</pdfrwt>
<totfact> 0.79665268E+02</totfact>
</mgrwt>
</event>
<event>
 7    1  0.6008063E-006  0.1273883E+03  0.7546771E-02  0.1246339E+00
          2   -1    0    0  501    0  0.00000000000E+00  0.00000000000E+00  0.72160580455E+03  0.72160580455E+03  0.00000000000E+00 0. -1.
         -2   -1    0    0    0  501 -0.00000000000E+00 -0.00000000000E+00 -0.24922485794E+02  0.24922485794E+02  0.00000000000E+00 0.  1.
         23    2    1    2    0    0 -0.11007241217E+01  0.24546244813E+02  0.59330899358E+03  0.60683056527E+03  0.12499617336E+03 0.  0.
          5    1    3    3  502    0  0.43823147835E+02 -0.32283954043E+02  0.23979984567E+03  0.24594466443E+03  0.47000000000E+01 0.  1.
         -5    1    3    3    0  502 -0.44923871957E+02  0.56830198856E+02  0.35350914791E+03  0.36088590084E+03  0.47000000000E+01 0.  1.
        -11    1    1    2    0    0 -0.36063455206E+02  0.15278258872E+02  0.37562905680E+02  0.54267576679E+02  0.00000000000E+00 0.  1.
         11    1    1    2    0    0  0.37164179327E+02 -0.39824503685E+02  0.65811419499E+02  0.85430148398E+02  0.00000000000E+00 0. -1.
<mgrwt>
<rscale>  0 0.11805579E+03</rscale>
<asrwt>0</asrwt>
<pdfrwt beam="1">  1        2 0.11101626E+00 0.12738828E+03</pdfrwt>
<pdfrwt beam="2">  1       -2 0.38342291E-02 0.12738828E+03</pdfrwt>
<totfact> 0.11269345E+04</totfact>
</mgrwt>
</event>
<event>
 7    1  0.6008063E-006  0.1398429E+03  0.7546771E-02  0.1223456E+00
          1   -1    0    0  501    0  0.00000000000E+00  0.00000000000E+00  0.38617826107E+03  0.38617826107E+03  0.00000000000E+00 0. -1.
         -1   -1    0    0    0  501 -0.00000000000E+00 -0.00000000000E+00 -0.43851148467E+02  0.43851148467E+02  0.00000000000E+00 0.  1.
         23    2    1    2    0    0 -0.60034977668E+02  0.18079525801E+02  0.23703372636E+03  0.27521088495E+03  0.12499990386E+03 0.  0.
          5    1    3    3  502    0  0.26656806475E+01  0.42444413684E+02  0.18688856899E+02  0.46690443117E+02  0.47000000000E+01 0. -1.
         -5    1    3    3    0  502 -0.62700658315E+02 -0.24364887883E+02  0.21834486946E+03  0.22852044183E+03  0.47000000000E+01 0. -1.
        -11    1    1    2    0    0 -0.20299591423E+02 -0.22064814368E+02  0.13826856963E+02  0.33016835380E+02  0.00000000000E+00 0.  1.
         11    1    1    2    0    0  0.80334569091E+02  0.39852885667E+01  0.91466529281E+02  0.12180168921E+03  0.00000000000E+00 0. -1.
<mgrwt>
<rscale>  0 0.13273291E+03</rscale>
<asrwt>0</asrwt>
<pdfrwt beam="1">  1        1 0.59412038E-01 0.13984293E+03</pdfrwt>
<pdfrwt beam="2">  1       -1 0.67463308E-02 0.13984293E+03</pdfrwt>
<totfact> 0.67859893E+03</totfact>
</mgrwt>
</event>
<event>
 7    1  0.6008063E-006  0.1389035E+03  0.7546771E-02  0.1224999E+00
          1   -1    0    0  501    0  0.00000000000E+00  0.00000000000E+00  0.26412346902E+03  0.26412346902E+03  0.00000000000E+00 0. -1.
         -1   -1    0    0    0  501 -0.00000000000E+00 -0.00000000000E+00 -0.87245086221E+02  0.87245086221E+02  0.00000000000E+00 0.  1.
         23    2    1    2    0    0 -0.25162297811E+02  0.55096908976E+02  0.19328904186E+03  0.23802275768E+03  0.12500147542E+03 0.  0.
          5    1    3    3  502    0 -0.78386400947E+00  0.68711619902E+02  0.19771044265E+03  0.20936430041E+03  0.47000000000E+01 0.  1.
         -5    1    3    3    0  502 -0.24378433801E+02 -0.13614710925E+02 -0.44214007862E+01  0.28658457270E+02  0.47000000000E+01 0.  1.
        -11    1    1    2    0    0  0.17740009077E+02 -0.42389541532E+02 -0.55220628504E+02  0.71839397030E+02  0.00000000000E+00 0.  1.
         11    1    1    2    0    0  0.74222887334E+01 -0.12707367445E+02  0.38809969440E+02  0.41506400534E+02  0.00000000000E+00 0. -1.
<mgrwt>
<rscale>  0 0.13166979E+03</rscale>
<asrwt>0</asrwt>
<pdfrwt beam="1">  1        1 0.40634380E-01 0.13890349E+03</pdfrwt>
<pdfrwt beam="2">  1       -1 0.13422321E-01 0.13890349E+03</pdfrwt>
<totfact> 0.38127658E+03</totfact>
</mgrwt>
</event>
<event>
 7    1  0.6008063E-006  0.1326399E+03  0.7546771E-02  0.1235273E+00
         -2   -1    0    0    0  501 -0.00000000000E+00  0.00000000000E+00  0.32175462284E+02  0.32175462284E+02  0.00000000000E+00 0.  1.
          2   -1    0    0  501    0  0.00000000000E+00 -0.00000000000E+00 -0.44138868243E+03  0.44138868243E+03  0.00000000000E+00 0. -1.
         23    2    1    2    0    0 -0.15107713707E+02 -0.41718091866E+02 -0.25536345301E+03  0.28775655767E+03  0.12499880458E+03 0.  0.
          5    1    3    3  502    0  0.48539611231E+02 -0.25234785319E+02 -0.17718945651E+03  0.18550224190E+03  0.47000000000E+01 0. -1.
         -5    1    3    3    0  502 -0.63647324938E+02 -0.16483306548E+02 -0.78173996499E+02  0.10225431578E+03  0.47000000000E+01 0. -1.
        -11    1    1    2    0    0 -0.35779687655E+02  0.10205220235E+02 -0.28388591267E+02  0.46800050030E+02  0.00000000000E+00 0.  1.
         11    1    1    2    0    0  0.50887401361E+02  0.31512871632E+02 -0.12546117587E+03  0.13900753701E+03  0.00000000000E+00 0. -1.
<mgrwt>
<rscale>  0 0.12486994E+03</rscale>
<asrwt>0</asrwt>
<pdfrwt beam="2">  1        2 0.67905949E-01 0.13263990E+03</pdfrwt>
<pdfrwt beam="1">  1       -2 0.49500713E-02 0.13263990E+03</pdfrwt>
<totfact> 0.13436776E+04</totfact>
</mgrwt>
</event>
<event>
 6    1  0.6008063E-006  0.1554569E+03  0.7546771E-02  0.1203458E+00
          3   -1    0    0  501    0  0.00000000000E+00  0.00000000000E+00  0.11199993648E+03  0.11199993648E+03  0.00000000000E+00 0. -1.
         -3   -1    0    0    0  501 -0.00000000000E+00 -0.00000000000E+00 -0.18033657934E+03  0.18033657934E+03  0.00000000000E+00 0.  1.
          5    1    1    2  502    0 -0.74348443426E+02  0.35483689473E+02  0.24789812546E+02  0.86159201857E+02  0.47000000000E+01 0. -1.
         -5    1    1    2    0  502 -0.10097926185E+02 -0.54344760561E+02 -0.43346752987E+02  0.70401364392E+02  0.47000000000E+01 0.  1.
        -11    1    1    2    0    0  0.48872268292E+02 -0.17877347036E+02  0.14130752103E+02  0.53923800868E+02  0.00000000000E+00 0. -1.
         11    1    1    2    0    0  0.35574101320E+02  0.36738418124E+02 -0.63910454514E+02  0.81852148702E+02  0.00000000000E+00 0.  1.
<mgrwt>
<rscale>  0 0.14759673E+03</rscale>
<asrwt>0</asrwt>
<pdfrwt beam="1">  1        3 0.17230760E-01 0.15545691E+03</pdfrwt>
<pdfrwt beam="2">  1       -3 0.27744089E-01 0.15545691E+03</pdfrwt>
<totfact> 0.85355689E+02</totfact>
</mgrwt>
</event>
<event>
 7    1  0.6008063E-006  0.1396920E+03  0.7546771E-02  0.1224704E+00
         -2   -1    0    0    0  501 -0.00000000000E+00  0.00000000000E+00  0.17252217357E+02  0.17252217357E+02  0.00000000000E+00 0.  1.
          2   -1    0    0  501    0  0.00000000000E+00 -0.00000000000E+00 -0.91333475315E+03  0.91333475315E+03  0.00000000000E+00 0. -1.
         23    2    1    2    0    0 -0.61887483121E+02 -0.93947993950E+01 -0.47254761348E+03  0.49276272161E+03  0.12488206431E+03 0.  0.
          5    1    3    3  502    0  0.32216926730E+02  0.21098484751E+02 -0.17192603382E+03  0.17624904974E+03  0.47000000000E+01 0. -1.
         -5    1    3    3    0  502 -0.94104409851E+02 -0.30493284146E+02 -0.30062157965E+03  0.31651367188E+03  0.47000000000E+01 0. -1.
        -11    1    1    2    0    0  0.76609181260E+02 -0.15428243699E+02 -0.35428047379E+03  0.36279698382E+03  0.00000000000E+00 0. -1.
         11    1    1    2    0    0 -0.14721698139E+02  0.24823043094E+02 -0.69254448524E+02  0.75027265077E+02  0.00000000000E+00 0.  1.
<mgrwt>
<rscale>  0 0.13187217E+03</rscale>
<asrwt>0</asrwt>
<pdfrwt beam="2">  1        2 0.14051303E+00 0.13969199E+03</pdfrwt>
<pdfrwt beam="1">  1       -2 0.26541874E-02 0.13969199E+03</pdfrwt>
<totfact> 0.14510387E+04</totfact>
</mgrwt>
</event>
<event>
 7    1  0.6008063E-006  0.1828635E+03  0.7546771E-02  0.1170506E+00
          2   -1    0    0  501    0  0.00000000000E+00  0.00000000000E+00  0.39934358824E+03  0.39934358824E+03  0.00000000000E+00 0. -1.
         -2   -1    0    0    0  501 -0.00000000000E+00 -0.00000000000E+00 -0.80621263315E+02  0.80621263315E+02  0.00000000000E+00 0.  1.
         23    2    1    2    0    0 -0.59530435288E+01  0.13333578705E+03  0.23622348774E+03  0.29873161535E+03  0.12500068405E+03 0.  0.
          5    1    3    3  502    0  0.91865623156E+01  0.13672573504E+03  0.12252262370E+03  0.18388094754E+03  0.47000000000E+01 0.  1.
         -5    1    3    3    0  502 -0.15139605844E+02 -0.33899479932E+01  0.11370086404E+03  0.11485066781E+03  0.47000000000E+01 0.  1.
        -11    1    1    2    0    0 -0.95830237597E+01 -0.17201051029E+02 -0.18143112231E+02  0.26774671283E+02  0.00000000000E+00 0.  1.
         11    1    1    2    0    0  0.15536067289E+02 -0.11613473602E+03  0.10064194941E+03  0.15445856492E+03  0.00000000000E+00 0. -1.
<mgrwt>
<rscale>  0 0.17723485E+03</rscale>
<asrwt>0</asrwt>
<pdfrwt beam="1">  1        2 0.61437474E-01 0.18286345E+03</pdfrwt>
<pdfrwt beam="2">  1       -2 0.12403271E-01 0.18286345E+03</pdfrwt>
<totfact> 0.36728529E+03</totfact>
</mgrwt>
</event>
<event>
 7    1  0.6008063E-006  0.1287568E+03  0.7546771E-02  0.1235926E+00
         -1   -1    0    0    0  501 -0.00000000000E+00  0.00000000000E+00  0.33116069298E+02  0.33116069298E+02  0.00000000000E+00 0.  1.
          1   -1    0    0  501    0  0.00000000000E+00 -0.00000000000E+00 -0.44705260135E+03  0.44705260135E+03  0.00000000000E+00 0. -1.
         23    2    1    2    0    0  0.52454377401E+02 -0.40200167958E+02 -0.25293843872E+03  0.28382418902E+03  0.11050249445E+03 0.  0.
          5    1    3    3  502    0  0.71237754045E+02 -0.65029738100E+02 -0.17729735660E+03  0.20189137450E+03  0.47000000000E+01 0. -1.
         -5    1    3    3    0  502 -0.18783376644E+02  0.24829570142E+02 -0.75641082120E+02  0.81932814525E+02  0.47000000000E+01 0.  1.
        -11    1    1    2    0    0 -0.11178131136E+02  0.55585221255E+02 -0.45390659018E+02  0.72629053166E+02  0.00000000000E+00 0.  1.
         11    1    1    2    0    0 -0.41276246265E+02 -0.15385053297E+02 -0.11560743431E+03  0.12371542846E+03  0.00000000000E+00 0. -1.
<mgrwt>
<rscale>  0 0.12445329E+03</rscale>
<asrwt>0</asrwt>
<pdfrwt beam="2">  1        1 0.68777317E-01 0.12875681E+03</pdfrwt>
<pdfrwt beam="1">  1       -1 0.50947804E-02 0.12875681E+03</pdfrwt>
<totfact> 0.85155911E+03</totfact>
</mgrwt>
</event>
<event>
 7    1  0.6008063E-006  0.1475513E+03  0.7546771E-02  0.1213332E+00
         -2   -1    0    0    0  501 -0.00000000000E+00  0.00000000000E+00  0.74493367423E+02  0.74493367423E+02  0.00000000000E+00 0.  1.
          2   -1    0    0  501    0  0.00000000000E+00 -0.00000000000E+00 -0.25648732990E+03  0.25648732990E+03  0.00000000000E+00 0. -1.
         23    2    1    2    0    0  0.14723606382E+02  0.77004582511E+02 -0.57496073096E+02  0.15835777604E+03  0.12499958600E+03 0.  0.
          5    1    3    3  502    0 -0.11195798837E+02  0.15967385311E+01  0.34449649459E+02  0.36561781048E+02  0.47000000000E+01 0.  1.
         -5    1    3    3    0  502  0.25919405219E+02  0.75407843980E+02 -0.91945722555E+02  0.12179599499E+03  0.47000000000E+01 0.  1.
        -11    1    1    2    0    0 -0.88120082346E+01 -0.65144457740E+02 -0.13852149757E+03  0.15332859209E+03  0.00000000000E+00 0. -1.
         11    1    1    2    0    0 -0.59115981476E+01 -0.11860124771E+02  0.14023608188E+02  0.19294329189E+02  0.00000000000E+00 0.  1.
<mgrwt>
<rscale>  0 0.13999751E+03</rscale>
<asrwt>0</asrwt>
<pdfrwt beam="2">  1        2 0.39459589E-01 0.14755130E+03</pdfrwt>
<pdfrwt beam="1">  1       -2 0.11460518E-01 0.14755130E+03</pdfrwt>
<totfact> 0.66162267E+03</totfact>
</mgrwt>
</event>
<event>
 7    1  0.6008063E-006  0.2026808E+03  0.7546771E-02  0.1152478E+00
         -1   -1    0    0    0  501 -0.00000000000E+00  0.00000000000E+00  0.35001660896E+03  0.35001660896E+03  0.00000000000E+00 0.  1.
          1   -1    0    0  501    0  0.00000000000E+00 -0.00000000000E+00 -0.14160622909E+03  0.14160622909E+03  0.00000000000E+00 0. -1.
         23    2    1    2    0    0 -0.71824284026E+02  0.14246896956E+03 -0.16649977126E+02  0.20336352446E+03  0.12499346496E+03 0.  0.
          5    1    3    3  502    0  0.12552145471E+02  0.23866494975E+02 -0.47201072423E+02  0.54563698337E+02  0.47000000000E+01 0.  1.
         -5    1    3    3    0  502 -0.84376429497E+02  0.11860247458E+03  0.30551095297E+02  0.14879982613E+03  0.47000000000E+01 0.  1.
        -11    1    1    2    0    0  0.85645385684E+02 -0.14036644402E+03  0.21650866365E+03  0.27187105791E+03  0.00000000000E+00 0.  1.
         11    1    1    2    0    0 -0.13821101658E+02 -0.21025255379E+01  0.85516933536E+01  0.16388255670E+02  0.00000000000E+00 0. -1.
<mgrwt>
<rscale>  0 0.19678712E+03</rscale>
<asrwt>0</asrwt>
<pdfrwt beam="2">  1        1 0.21785574E-01 0.20268079E+03</pdfrwt>
<pdfrwt beam="1">  1       -1 0.53848709E-01 0.20268079E+03</pdfrwt>
<totfact> 0.81575302E+02</totfact>
</mgrwt>
</event>
<event>
 7    1  0.6008063E-006  0.2198441E+03  0.7546771E-02  0.1137165E+00
          1   -1    0    0  501    0  0.00000000000E+00  0.00000000000E+00  0.41857376312E+03  0.41857376312E+03  0.00000000000E+00 0. -1.
         -1   -1    0    0    0  501 -0.00000000000E+00 -0.00000000000E+00 -0.20496585477E+03  0.20496585477E+03  0.00000000000E+00 0.  1.
         23    2    1    2    0    0  0.21263751521E+02 -0.17959165966E+03  0.32432984029E+03  0.39181792305E+03  0.12500451262E+03 0.  0.
          5    1    3    3  502    0 -0.29538739416E+02  0.26946274618E+01  0.35673811532E+02  0.46631630603E+02  0.47000000000E+01 0. -1.
         -5    1    3    3    0  502  0.50802490937E+02 -0.18228628712E+03  0.28865602876E+03  0.34518629245E+03  0.47000000000E+01 0. -1.
        -11    1    1    2    0    0 -0.88968607876E+01  0.80648881110E+02 -0.10382773045E+03  0.13177098985E+03  0.00000000000E+00 0.  1.
         11    1    1    2    0    0 -0.12366890733E+02  0.98942778548E+02 -0.68942014898E+01  0.99950704987E+02  0.00000000000E+00 0. -1.
<mgrwt>
<rscale>  0 0.21565416E+03</rscale>
<asrwt>0</asrwt>
<pdfrwt beam="1">  1        1 0.64395964E-01 0.21984413E+03</pdfrwt>
<pdfrwt beam="2">  1       -1 0.31533208E-01 0.21984413E+03</pdfrwt>
<totfact> 0.53921890E+02</totfact>
</mgrwt>
</event>
<event>
 7    1  0.6008063E-006  0.2839786E+03  0.7546771E-02  0.1095289E+00
          2   -1    0    0  501    0  0.00000000000E+00  0.00000000000E+00  0.25227580315E+03  0.25227580315E+03  0.00000000000E+00 0.  1.
         -2   -1    0    0    0  501 -0.00000000000E+00 -0.00000000000E+00 -0.30598308540E+03  0.30598308540E+03  0.00000000000E+00 0. -1.
         23    2    1    2    0    0 -0.76014364517E+02  0.24339705640E+03 -0.38969054613E+02  0.28663988483E+03  0.12499410259E+03 0.  0.
          5    1    3    3  502    0 -0.71968087098E+02  0.60675872191E+02  0.16284763122E+02  0.95646487320E+02  0.47000000000E+01 0.  1.
         -5    1    3    3    0  502 -0.40462774191E+01  0.18272118421E+03 -0.55253817735E+02  0.19099339751E+03  0.47000000000E+01 0.  1.
        -11    1    1    2    0    0  0.19052381875E+02 -0.65370386378E+02  0.37240445309E+02  0.77608836076E+02  0.00000000000E+00 0.  1.
         11    1    1    2    0    0  0.56961982643E+02 -0.17802667002E+03 -0.51978672953E+02  0.19401016764E+03  0.00000000000E+00 0. -1.
<mgrwt>
<rscale>  0 0.28073345E+03</rscale>
<asrwt>0</asrwt>
<pdfrwt beam="1">  1        2 0.38811662E-01 0.28397858E+03</pdfrwt>
<pdfrwt beam="2">  1       -2 0.47074321E-01 0.28397858E+03</pdfrwt>
<totfact> 0.57426510E+02</totfact>
</mgrwt>
</event>
<event>
 7    1  0.6008063E-006  0.1164972E+03  0.7546771E-02  0.1257224E+00
         -4   -1    0    0    0  501 -0.00000000000E+00  0.00000000000E+00  0.32898799693E+03  0.32898799693E+03  0.00000000000E+00 0.  1.
          4   -1    0    0  501    0  0.00000000000E+00 -0.00000000000E+00 -0.35266378729E+02  0.35266378729E+02  0.00000000000E+00 0. -1.
         23    2    1    2    0    0  0.24844839741E+02 -0.26833435086E+02  0.15629992053E+03  0.19493914406E+03  0.11060879454E+03 0.  0.
          5    1    3    3  502    0  0.36281171564E+02  0.22636143450E+02  0.16408245977E+02  0.46043880554E+02  0.47000000000E+01 0. -1.
         -5    1    3    3    0  502 -0.11436331824E+02 -0.49469578536E+02  0.13989167455E+03  0.14889526351E+03  0.47000000000E+01 0.  1.
        -11    1    1    2    0    0 -0.44369221614E+02 -0.15431399231E+02  0.96516314821E+02  0.10734130116E+03  0.00000000000E+00 0.  1.
         11    1    1    2    0    0  0.19524381874E+02  0.42264834317E+02  0.40905382853E+02  0.61973930436E+02  0.00000000000E+00 0. -1.
<mgrwt>
<rscale>  0 0.11182664E+03</rscale>
<asrwt>0</asrwt>
<pdfrwt beam="2">  1        4 0.54255969E-02 0.11649723E+03</pdfrwt>
<pdfrwt beam="1">  1       -4 0.50613536E-01 0.11649723E+03</pdfrwt>
<totfact> 0.12618403E+03</totfact>
</mgrwt>
</event>
<event>
 7    1  0.6008063E-006  0.1417292E+03  0.7546771E-02  0.1222167E+00
          2   -1    0    0  501    0  0.00000000000E+00  0.00000000000E+00  0.57090023638E+03  0.57090023638E+03  0.00000000000E+00 0.  1.
         -2   -1    0    0    0  501 -0.00000000000E+00 -0.00000000000E+00 -0.44761536761E+02  0.44761536761E+02  0.00000000000E+00 0. -1.
         23    2    1    2    0    0 -0.65218169733E+02  0.14504816749E+02  0.46895301611E+03  0.48990211864E+03  0.12499342046E+03 0.  0.
          5    1    3    3  502    0 -0.39108056368E+02 -0.43043003361E+02  0.10192037790E+03  0.11743931898E+03  0.47000000000E+01 0.  1.
         -5    1    3    3    0  502 -0.26110113364E+02  0.57547820110E+02  0.36703263821E+03  0.37246279966E+03  0.47000000000E+01 0.  1.
        -11    1    1    2    0    0  0.20876435004E+02 -0.50655056477E+02  0.28679097247E+02  0.61840528006E+02  0.00000000000E+00 0. -1.
         11    1    1    2    0    0  0.44341734728E+02  0.36150239728E+02  0.28506586258E+02  0.63919126489E+02  0.00000000000E+00 0.  1.
<mgrwt>
<rscale>  0 0.13363016E+03</rscale>
<asrwt>0</asrwt>
<pdfrwt beam="1">  1        2 0.87830800E-01 0.14172916E+03</pdfrwt>
<pdfrwt beam="2">  1       -2 0.68863907E-02 0.14172916E+03</pdfrwt>
<totfact> 0.61669344E+03</totfact>
</mgrwt>
</event>
<event>
 7    1  0.6008063E-006  0.1520071E+03  0.7546771E-02  0.1204607E+00
         -1   -1    0    0    0  501 -0.00000000000E+00  0.00000000000E+00  0.20708018841E+03  0.20708018841E+03  0.00000000000E+00 0.  1.
          1   -1    0    0  501    0  0.00000000000E+00 -0.00000000000E+00 -0.97360537779E+02  0.97360537779E+02  0.00000000000E+00 0. -1.
         23    2    1    2    0    0  0.86399338108E+02  0.35525760669E+01  0.63924179671E+02  0.16490135228E+03  0.12501475439E+03 0.  0.
          5    1    3    3  502    0  0.64781040734E+02 -0.30152725839E+02 -0.17786858740E+02  0.73785042237E+02  0.47000000000E+01 0.  1.
         -5    1    3    3    0  502  0.21618297374E+02  0.33705301906E+02  0.81711038411E+02  0.91116310045E+02  0.47000000000E+01 0.  1.
        -11    1    1    2    0    0 -0.16416856529E+01 -0.27414406552E+02 -0.16168589359E+02  0.31869548165E+02  0.00000000000E+00 0. -1.
         11    1    1    2    0    0 -0.84757652455E+02  0.23861830485E+02  0.61964060313E+02  0.10766982574E+03  0.00000000000E+00 0.  1.
<mgrwt>
<rscale>  0 0.14668490E+03</rscale>
<asrwt>0</asrwt>
<pdfrwt beam="2">  1        1 0.14978544E-01 0.15200709E+03</pdfrwt>
<pdfrwt beam="1">  1       -1 0.31858490E-01 0.15200709E+03</pdfrwt>
<totfact> 0.33314708E+03</totfact>
</mgrwt>
</event>
<event>
 7    1  0.6008063E-006  0.1538974E+03  0.7546771E-02  0.1201931E+00
          1   -1    0    0  501    0  0.00000000000E+00  0.00000000000E+00  0.36744231646E+02  0.36744231646E+02  0.00000000000E+00 0. -1.
         -1   -1    0    0    0  501 -0.00000000000E+00 -0.00000000000E+00 -0.57787532199E+03  0.57787532199E+03  0.00000000000E+00 0.  1.
         23    2    1    2    0    0  0.50998519715E+02 -0.73919861733E+02 -0.24467624610E+03  0.28905168668E+03  0.12497766680E+03 0.  0.
          5    1    3    3  502    0 -0.29749734004E+02 -0.12753468778E+02 -0.13817409567E+03  0.14199249401E+03  0.47000000000E+01 0. -1.
         -5    1    3    3    0  502  0.80748253718E+02 -0.61166392955E+02 -0.10650215042E+03  0.14705919268E+03  0.47000000000E+01 0. -1.
        -11    1    1    2    0    0  0.22619918210E+02  0.48344277894E+02 -0.15684888121E+03  0.16568162675E+03  0.00000000000E+00 0. -1.
         11    1    1    2    0    0 -0.73618437925E+02  0.25575583840E+02 -0.13960596303E+03  0.15988624020E+03  0.00000000000E+00 0.  1.
<mgrwt>
<rscale>  0 0.14881961E+03</rscale>
<asrwt>0</asrwt>
<pdfrwt beam="1">  1        1 0.56529587E-02 0.15389741E+03</pdfrwt>
<pdfrwt beam="2">  1       -1 0.88903896E-01 0.15389741E+03</pdfrwt>
<totfact> 0.17913966E+03</totfact>
</mgrwt>
</event>
<event>
 7    1  0.6008063E-006  0.1256192E+03  0.7546771E-02  0.1250126E+00
         -1   -1    0    0    0  501 -0.00000000000E+00  0.00000000000E+00  0.93473064330E+01  0.93473064330E+01  0.00000000000E+00 0.  1.
          1   -1    0    0  501    0  0.00000000000E+00 -0.00000000000E+00 -0.18278894665E+04  0.18278894665E+04  0.00000000000E+00 0. -1.
         23    2    1    2    0    0 -0.10884987644E+02  0.60813835075E+01 -0.15200298688E+04  0.15252117840E+04  0.12499887115E+03 0.  0.
          5    1    3    3  502    0 -0.37460890343E+02  0.21081594088E+02 -0.19142773561E+03  0.19625091051E+03  0.47000000000E+01 0. -1.
         -5    1    3    3    0  502  0.26575902698E+02 -0.15000210580E+02 -0.13286021332E+04  0.13289608735E+04  0.47000000000E+01 0. -1.
        -11    1    1    2    0    0 -0.19619951738E+02 -0.33862302748E+02 -0.73584424588E+02  0.83344259523E+02  0.00000000000E+00 0.  1.
         11    1    1    2    0    0  0.30504939382E+02  0.27780919240E+02 -0.22492786673E+03  0.22868072947E+03  0.00000000000E+00 0. -1.
<mgrwt>
<rscale>  0 0.11583740E+03</rscale>
<asrwt>0</asrwt>
<pdfrwt beam="2">  1        1 0.28121362E+00 0.12561920E+03</pdfrwt>
<pdfrwt beam="1">  1       -1 0.14380479E-02 0.12561920E+03</pdfrwt>
<totfact> 0.47750493E+03</totfact>
</mgrwt>
</event>
<event>
 7    1  0.6008063E-006  0.1412332E+03  0.7546771E-02  0.1222383E+00
         -2   -1    0    0    0  501 -0.00000000000E+00  0.00000000000E+00  0.14471620952E+02  0.14471620952E+02  0.00000000000E+00 0.  1.
          2   -1    0    0  501    0  0.00000000000E+00 -0.00000000000E+00 -0.11679044887E+04  0.11679044887E+04  0.00000000000E+00 0. -1.
         23    2    1    2    0    0  0.65349181015E+02 -0.71114830010E+01 -0.76510688505E+03  0.77803300022E+03  0.12500286087E+03 0.  0.
          5    1    3    3  502    0  0.14847552277E+02 -0.38137251223E+02 -0.76693202149E+02  0.87056516099E+02  0.47000000000E+01 0. -1.
         -5    1    3    3    0  502  0.50501628738E+02  0.31025768222E+02 -0.68841368290E+03  0.69097648412E+03  0.47000000000E+01 0. -1.
        -11    1    1    2    0    0 -0.56736716619E+02  0.42778021494E+02 -0.30711659960E+03  0.31522947179E+03  0.00000000000E+00 0.  1.
         11    1    1    2    0    0 -0.86124643959E+01 -0.35666538493E+02 -0.81209383109E+02  0.89113637654E+02  0.00000000000E+00 0. -1.
<mgrwt>
<rscale>  0 0.13347873E+03</rscale>
<asrwt>0</asrwt>
<pdfrwt beam="2">  1        2 0.17967767E+00 0.14123315E+03</pdfrwt>
<pdfrwt beam="1">  1       -2 0.22264025E-02 0.14123315E+03</pdfrwt>
<totfact> 0.13289428E+04</totfact>
</mgrwt>
</event>
<event>
 7    1  0.6008063E-006  0.1269290E+03  0.7546771E-02  0.1245406E+00
          2   -1    0    0  501    0  0.00000000000E+00  0.00000000000E+00  0.67116477277E+03  0.67116477277E+03  0.00000000000E+00 0. -1.
         -2   -1    0    0    0  501 -0.00000000000E+00 -0.00000000000E+00 -0.22604918494E+02  0.22604918494E+02  0.00000000000E+00 0.  1.
         23    2    1    2    0    0  0.21645690907E+02 -0.43447100386E+01  0.50445061499E+03  0.52017439417E+03  0.12499425964E+03 0.  0.
          5    1    3    3  502    0 -0.47379348702E+02  0.18683028069E+02  0.26408606679E+03  0.26899330641E+03  0.47000000000E+01 0. -1.
         -5    1    3    3    0  502  0.69025039609E+02 -0.23027738108E+02  0.24036454821E+03  0.25118108776E+03  0.47000000000E+01 0. -1.
        -11    1    1    2    0    0 -0.19489753937E+02 -0.22381199543E+02  0.14374853806E+03  0.14678014442E+03  0.00000000000E+00 0. -1.
         11    1    1    2    0    0 -0.21559369702E+01  0.26725909582E+02  0.36070121620E+00  0.26815152667E+02  0.00000000000E+00 0.  1.
<mgrwt>
<rscale>  0 0.11861121E+03</rscale>
<asrwt>0</asrwt>
<pdfrwt beam="1">  1        2 0.10325610E+00 0.12692902E+03</pdfrwt>
<pdfrwt beam="2">  1       -2 0.34776803E-02 0.12692902E+03</pdfrwt>
<totfact> 0.14178559E+04</totfact>
</mgrwt>
</event>
<event>
 7    1  0.6008063E-006  0.1838447E+03  0.7546771E-02  0.1169510E+00
          2   -1    0    0  501    0  0.00000000000E+00  0.00000000000E+00  0.93326765588E+03  0.93326765588E+03  0.00000000000E+00 0. -1.
         -2   -1    0    0    0  501 -0.00000000000E+00 -0.00000000000E+00 -0.32203676708E+02  0.32203676708E+02  0.00000000000E+00 0.  1.
         23    2    1    2    0    0 -0.12416013856E+03 -0.52468373304E+02  0.45448288738E+03  0.49025866527E+03  0.12502077326E+03 0.  0.
          5    1    3    3  502    0 -0.55221033362E+02 -0.81570649651E+02  0.33486983075E+03  0.34908885252E+03  0.47000000000E+01 0.  1.
         -5    1    3    3    0  502 -0.68939105202E+02  0.29102276347E+02  0.11961305663E+03  0.14116981275E+03  0.47000000000E+01 0.  1.
        -11    1    1    2    0    0 -0.10968010672E+02  0.17682589187E+02  0.36142940252E+02  0.41704716142E+02  0.00000000000E+00 0.  1.
         11    1    1    2    0    0  0.13512814924E+03  0.34785784118E+02  0.41043815154E+03  0.43350795117E+03  0.00000000000E+00 0. -1.
<mgrwt>
<rscale>  0 0.17824738E+03</rscale>
<asrwt>0</asrwt>
<pdfrwt beam="1">  1        2 0.14357962E+00 0.18384467E+03</pdfrwt>
<pdfrwt beam="2">  1       -2 0.49544125E-02 0.18384467E+03</pdfrwt>
<totfact> 0.56523643E+03</totfact>
</mgrwt>
</event>
<event>
 7    1  0.6008063E-006  0.1256115E+03  0.7546771E-02  0.1249329E+00
         -2   -1    0    0    0  501 -0.00000000000E+00  0.00000000000E+00  0.20839318805E+02  0.20839318805E+02  0.00000000000E+00 0.  1.
          2   -1    0    0  501    0  0.00000000000E+00 -0.00000000000E+00 -0.63463654904E+03  0.63463654904E+03  0.00000000000E+00 0. -1.
         23    2    1    2    0    0  0.11303050832E+02 -0.51435701453E+01 -0.45274299278E+03  0.46984514806E+03  0.12499612145E+03 0.  0.
          5    1    3    3  502    0  0.38662429319E+02 -0.50891885137E+02 -0.32648775654E+03  0.33271776716E+03  0.47000000000E+01 0. -1.
         -5    1    3    3    0  502 -0.27359378486E+02  0.45748314992E+02 -0.12625523623E+03  0.13712738090E+03  0.47000000000E+01 0. -1.
        -11    1    1    2    0    0  0.27894267478E+02  0.41455265610E+00 -0.13608736229E+03  0.13891735740E+03  0.00000000000E+00 0. -1.
         11    1    1    2    0    0 -0.39197318311E+02  0.47290174892E+01 -0.24966875163E+02  0.46713362377E+02  0.00000000000E+00 0.  1.
<mgrwt>
<rscale>  0 0.11629977E+03</rscale>
<asrwt>0</asrwt>
<pdfrwt beam="2">  1        2 0.97636391E-01 0.12561149E+03</pdfrwt>
<pdfrwt beam="1">  1       -2 0.32060491E-02 0.12561149E+03</pdfrwt>
<totfact> 0.17040141E+04</totfact>
</mgrwt>
</event>
<event>
 7    1  0.6008063E-006  0.1472427E+03  0.7546771E-02  0.1213697E+00
          1   -1    0    0  501    0  0.00000000000E+00  0.00000000000E+00  0.19997660194E+03  0.19997660194E+03  0.00000000000E+00 0. -1.
         -1   -1    0    0    0  501 -0.00000000000E+00 -0.00000000000E+00 -0.10594323265E+03  0.10594323265E+03  0.00000000000E+00 0.  1.
         23    2    1    2    0    0  0.77792443124E+02 -0.18408102061E+01  0.11223057082E+03  0.18513805489E+03  0.12500138220E+03 0.  0.
          5    1    3    3  502    0 -0.24633002578E+02 -0.25865982956E+02  0.53670628262E+02  0.64641010422E+02  0.47000000000E+01 0. -1.
         -5    1    3    3    0  502  0.10242544570E+03  0.24025172750E+02  0.58559942562E+02  0.12049704447E+03  0.47000000000E+01 0. -1.
        -11    1    1    2    0    0 -0.12884003877E+01 -0.28526259536E+02  0.14728573093E+02  0.32130022160E+02  0.00000000000E+00 0. -1.
         11    1    1    2    0    0 -0.76504042737E+02  0.30367069742E+02 -0.32925774629E+02  0.88651757539E+02  0.00000000000E+00 0.  1.
<mgrwt>
<rscale>  0 0.13972661E+03</rscale>
<asrwt>0</asrwt>
<pdfrwt beam="1">  1        1 0.30765631E-01 0.14724265E+03</pdfrwt>
<pdfrwt beam="2">  1       -1 0.16298959E-01 0.14724265E+03</pdfrwt>
<totfact> 0.39831063E+03</totfact>
</mgrwt>
</event>
<event>
 7    1  0.6008063E-006  0.1523024E+03  0.7546771E-02  0.1206368E+00
         -3   -1    0    0    0  501 -0.00000000000E+00  0.00000000000E+00  0.73134544627E+02  0.73134544627E+02  0.00000000000E+00 0.  1.
          3   -1    0    0  501    0  0.00000000000E+00 -0.00000000000E+00 -0.28734662509E+03  0.28734662509E+03  0.00000000000E+00 0. -1.
         23    2    1    2    0    0 -0.59388587885E+02 -0.63602473129E+02 -0.16634051681E+03  0.22553312967E+03  0.12499498424E+03 0.  0.
          5    1    3    3  502    0 -0.98068907989E+02 -0.37339797329E+02 -0.12103248218E+03  0.16025830063E+03  0.47000000000E+01 0. -1.
         -5    1    3    3    0  502  0.38680320103E+02 -0.26262675800E+02 -0.45308034633E+02  0.65274829037E+02  0.47000000000E+01 0. -1.
        -11    1    1    2    0    0  0.32780002900E+02  0.14560243905E+02  0.24594517893E+02  0.43490454161E+02  0.00000000000E+00 0.  1.
         11    1    1    2    0    0  0.26608584985E+02  0.49042229224E+02 -0.72466081541E+02  0.91457585886E+02  0.00000000000E+00 0. -1.
<mgrwt>
<rscale>  0 0.14530165E+03</rscale>
<asrwt>0</asrwt>
<pdfrwt beam="2">  1        3 0.44207174E-01 0.15230241E+03</pdfrwt>
<pdfrwt beam="1">  1       -3 0.11251468E-01 0.15230241E+03</pdfrwt>
<totfact> 0.72764845E+02</totfact>
</mgrwt>
</event>
<event>
 7    1  0.6008063E-006  0.2290909E+03  0.7546771E-02  0.1130322E+00
          3   -1    0    0  501    0  0.00000000000E+00  0.00000000000E+00  0.15969297036E+04  0.15969297036E+04  0.00000000000E+00 0. -1.
         -3   -1    0    0    0  501 -0.00000000000E+00 -0.00000000000E+00 -0.32708093915E+02  0.32708093915E+02  0.00000000000E+00 0.  1.
         23    2    1    2    0    0 -0.10234406907E+03 -0.16243402567E+03  0.10191765513E+04  0.10446068629E+04  0.12499413611E+03 0.  0.
          5    1    3    3  502    0 -0.67526421080E+02 -0.27288385818E+02  0.55802867783E+03  0.56278110205E+03  0.47000000000E+01 0. -1.
         -5    1    3    3    0  502 -0.34817647992E+02 -0.13514563985E+03  0.46114787347E+03  0.48182576082E+03  0.47000000000E+01 0. -1.
        -11    1    1    2    0    0  0.86154396844E+02  0.74463133414E+02  0.38725977592E+03  0.40365514041E+03  0.00000000000E+00 0.  1.
         11    1    1    2    0    0  0.16189672227E+02  0.87970892252E+02  0.15778528242E+03  0.18137579419E+03  0.00000000000E+00 0. -1.
<mgrwt>
<rscale>  0 0.22484473E+03</rscale>
<asrwt>0</asrwt>
<pdfrwt beam="1">  1        3 0.24568143E+00 0.22909093E+03</pdfrwt>
<pdfrwt beam="2">  1       -3 0.50320157E-02 0.22909093E+03</pdfrwt>
<totfact> 0.48964236E+01</totfact>
</mgrwt>
</event>
<event>
 7    1  0.6008063E-006  0.1301994E+03  0.7546771E-02  0.1241362E+00
          1   -1    0    0  501    0  0.00000000000E+00  0.00000000000E+00  0.54053835018E+03  0.54053835018E+03  0.00000000000E+00 0. -1.
         -1   -1    0    0    0  501 -0.00000000000E+00 -0.00000000000E+00 -0.36378893367E+02  0.36378893367E+02  0.00000000000E+00 0.  1.
         23    2    1    2    0    0  0.24963383555E+02 -0.26570294172E+02  0.44357887482E+03  0.46229221934E+03  0.12499090697E+03 0.  0.
          5    1    3    3  502    0  0.46917978271E+02 -0.53450341478E+02  0.40040218505E+03  0.40669673650E+03  0.47000000000E+01 0.  1.
         -5    1    3    3    0  502 -0.21954594716E+02  0.26880047307E+02  0.43176689766E+02  0.55595482833E+02  0.47000000000E+01 0.  1.
        -11    1    1    2    0    0  0.78056290117E+01  0.46801898887E+02  0.59494638256E+02  0.76098341408E+02  0.00000000000E+00 0.  1.
         11    1    1    2    0    0 -0.32769012567E+02 -0.20231604716E+02  0.10859437402E+01  0.38526682803E+02  0.00000000000E+00 0. -1.
<mgrwt>
<rscale>  0 0.12105816E+03</rscale>
<asrwt>0</asrwt>
<pdfrwt beam="1">  1        1 0.83159740E-01 0.13019938E+03</pdfrwt>
<pdfrwt beam="2">  1       -1 0.55967532E-02 0.13019938E+03</pdfrwt>
<totfact> 0.57942426E+03</totfact>
</mgrwt>
</event>
<event>
 7    1  0.6008063E-006  0.1628502E+03  0.7546771E-02  0.1193473E+00
         -2   -1    0    0    0  501 -0.00000000000E+00  0.00000000000E+00  0.26334872574E+02  0.26334872574E+02  0.00000000000E+00 0.  1.
          2   -1    0    0  501    0  0.00000000000E+00 -0.00000000000E+00 -0.11793401607E+04  0.11793401607E+04  0.00000000000E+00 0. -1.
         23    2    1    2    0    0  0.53224080176E+02 -0.89767138836E+02 -0.93015468532E+03  0.94430288511E+03  0.12501703193E+03 0.  0.
          5    1    3    3  502    0 -0.24446326384E+01 -0.10440352218E+03 -0.56075246251E+03  0.57041343418E+03  0.47000000000E+01 0. -1.
         -5    1    3    3    0  502  0.55668712814E+02  0.14636383343E+02 -0.36940222281E+03  0.37388945094E+03  0.47000000000E+01 0. -1.
        -11    1    1    2    0    0 -0.38364691497E+01  0.82591980152E+02 -0.16782117955E+03  0.18708314191E+03  0.00000000000E+00 0.  1.
         11    1    1    2    0    0 -0.49387611026E+02  0.71751586841E+01 -0.55029423201E+02  0.74289006204E+02  0.00000000000E+00 0. -1.
<mgrwt>
<rscale>  0 0.15584214E+03</rscale>
<asrwt>0</asrwt>
<pdfrwt beam="2">  1        2 0.18143695E+00 0.16285024E+03</pdfrwt>
<pdfrwt beam="1">  1       -2 0.40515188E-02 0.16285024E+03</pdfrwt>
<totfact> 0.54507951E+03</totfact>
</mgrwt>
</event>
<event>
 7    1  0.6008063E-006  0.1693158E+03  0.7546771E-02  0.1186633E+00
          2   -1    0    0  501    0  0.00000000000E+00  0.00000000000E+00  0.39681834180E+02  0.39681834180E+02  0.00000000000E+00 0. -1.
         -2   -1    0    0    0  501 -0.00000000000E+00 -0.00000000000E+00 -0.60871948657E+03  0.60871948657E+03  0.00000000000E+00 0.  1.
         23    2    1    2    0    0  0.74734203515E+02  0.86365311552E+02 -0.32108548885E+03  0.36299273082E+03  0.12499465292E+03 0.  0.
          5    1    3    3  502    0  0.25328094963E+02  0.12181477312E+02 -0.24221123526E+03  0.24388167883E+03  0.47000000000E+01 0.  1.
         -5    1    3    3    0  502  0.49406108552E+02  0.74183834239E+02 -0.78874253594E+02  0.11911105198E+03  0.47000000000E+01 0.  1.
        -11    1    1    2    0    0  0.64754863605E+01 -0.30086578451E+02 -0.19311939720E+02  0.36332975962E+02  0.00000000000E+00 0. -1.
         11    1    1    2    0    0 -0.81209689876E+02 -0.56278733101E+02 -0.22864022381E+03  0.24907561397E+03  0.00000000000E+00 0.  1.
<mgrwt>
<rscale>  0 0.16184209E+03</rscale>
<asrwt>0</asrwt>
<pdfrwt beam="1">  1        2 0.61048978E-02 0.16931577E+03</pdfrwt>
<pdfrwt beam="2">  1       -2 0.93649149E-01 0.16931577E+03</pdfrwt>
<totfact> 0.11813044E+03</totfact>
</mgrwt>
</event>
<event>
 7    1  0.6008063E-006  0.1440705E+03  0.7546771E-02  0.1217731E+00
         -1   -1    0    0    0  501 -0.00000000000E+00  0.00000000000E+00  0.28198254169E+02  0.28198254169E+02  0.00000000000E+00 0.  1.
          1   -1    0    0  501    0  0.00000000000E+00 -0.00000000000E+00 -0.61698522777E+03  0.61698522777E+03  0.00000000000E+00 0. -1.
         23    2    1    2    0    0  0.70289328289E+02 -0.14405533075E+02 -0.36995865452E+03  0.39702105882E+03  0.12493280611E+03 0.  0.
          5    1    3    3  502    0  0.56725219678E+01 -0.20239154531E+02 -0.15388570404E+00  0.21538675967E+02  0.47000000000E+01 0.  1.
         -5    1    3    3    0  502  0.64616806322E+02  0.58336214554E+01 -0.36980476881E+03  0.37548238286E+03  0.47000000000E+01 0.  1.
        -11    1    1    2    0    0  0.15583428587E+02 -0.82536297684E+01 -0.89851085023E+02  0.91565185146E+02  0.00000000000E+00 0. -1.
         11    1    1    2    0    0 -0.85872756876E+02  0.22659162844E+02 -0.12897723406E+03  0.15659723797E+03  0.00000000000E+00 0.  1.
<mgrwt>
<rscale>  0 0.13677807E+03</rscale>
<asrwt>0</asrwt>
<pdfrwt beam="2">  1        1 0.94920801E-01 0.14407052E+03</pdfrwt>
<pdfrwt beam="1">  1       -1 0.43381931E-02 0.14407052E+03</pdfrwt>
<totfact> 0.71057176E+03</totfact>
</mgrwt>
</event>
<event>
 7    1  0.6008063E-006  0.2419835E+03  0.7546771E-02  0.1121063E+00
         -2   -1    0    0    0  501 -0.00000000000E+00  0.00000000000E+00  0.77671167811E+03  0.77671167811E+03  0.00000000000E+00 0.  1.
          2   -1    0    0  501    0  0.00000000000E+00 -0.00000000000E+00 -0.71100905877E+02  0.71100905877E+02  0.00000000000E+00 0. -1.
         23    2    1    2    0    0  0.20285976582E+03  0.42171310236E+02  0.33411547837E+03  0.41253988617E+03  0.12500200320E+03 0.  0.
          5    1    3    3  502    0  0.10461634703E+03  0.47017605244E+02  0.79745530241E+02  0.13977365582E+03  0.47000000000E+01 0. -1.
         -5    1    3    3    0  502  0.98243418791E+02 -0.48462950081E+01  0.25436994813E+03  0.27276623035E+03  0.47000000000E+01 0. -1.
        -11    1    1    2    0    0 -0.63989376578E+02  0.18124203373E+02  0.17504871252E+03  0.18725698603E+03  0.00000000000E+00 0.  1.
         11    1    1    2    0    0 -0.13887038924E+03 -0.60295513608E+02  0.19644658135E+03  0.24801571179E+03  0.00000000000E+00 0. -1.
<mgrwt>
<rscale>  0 0.23810374E+03</rscale>
<asrwt>0</asrwt>
<pdfrwt beam="2">  1        2 0.10938601E-01 0.24198348E+03</pdfrwt>
<pdfrwt beam="1">  1       -2 0.11949410E+00 0.24198348E+03</pdfrwt>
<totfact> 0.32149925E+02</totfact>
</mgrwt>
</event>
<event>
 7    1  0.6008063E-006  0.1729577E+03  0.7546771E-02  0.1181110E+00
          1   -1    0    0  501    0  0.00000000000E+00  0.00000000000E+00  0.55276985275E+03  0.55276985275E+03  0.00000000000E+00 0. -1.
         -1   -1    0    0    0  501 -0.00000000000E+00 -0.00000000000E+00 -0.48942617104E+02  0.48942617104E+02  0.00000000000E+00 0.  1.
         23    2    1    2    0    0  0.81769947811E+02  0.87200261099E+02  0.32623735505E+03  0.36924948305E+03  0.12499663594E+03 0.  0.
          5    1    3    3  502    0  0.75357854995E+02  0.26172599374E+02  0.71651439912E+02  0.10733047148E+03  0.47000000000E+01 0.  1.
         -5    1    3    3    0  502  0.64120928159E+01  0.61027661725E+02  0.25458591514E+03  0.26191901156E+03  0.47000000000E+01 0.  1.
        -11    1    1    2    0    0 -0.52983935269E+02 -0.10098587437E+03  0.11366363119E+03  0.16101200351E+03  0.00000000000E+00 0.  1.
         11    1    1    2    0    0 -0.28786012541E+02  0.13785613272E+02  0.63926249409E+02  0.71450983302E+02  0.00000000000E+00 0. -1.
<mgrwt>
<rscale>  0 0.16690904E+03</rscale>
<asrwt>0</asrwt>
<pdfrwt beam="1">  1        1 0.85041512E-01 0.17295771E+03</pdfrwt>
<pdfrwt beam="2">  1       -1 0.75296338E-02 0.17295771E+03</pdfrwt>
<totfact> 0.36535684E+03</totfact>
</mgrwt>
</event>
<event>
 7    1  0.6008063E-006  0.1298441E+03  0.7546771E-02  0.1241909E+00
         -1   -1    0    0    0  501 -0.00000000000E+00  0.00000000000E+00  0.23481560039E+02  0.23481560039E+02  0.00000000000E+00 0.  1.
          1   -1    0    0  501    0  0.00000000000E+00 -0.00000000000E+00 -0.65853219368E+03  0.65853219368E+03  0.00000000000E+00 0. -1.
         23    2    1    2    0    0 -0.63430009666E+01 -0.34497772672E+02 -0.49423920885E+03  0.51101064169E+03  0.12501660042E+03 0.  0.
          5    1    3    3  502    0  0.40467575815E+02  0.13123548947E+02 -0.34246913263E+03  0.34513337862E+03  0.47000000000E+01 0.  1.
         -5    1    3    3    0  502 -0.46810576781E+02 -0.47621321619E+02 -0.15177007622E+03  0.16587726308E+03  0.47000000000E+01 0.  1.
        -11    1    1    2    0    0  0.25844042121E+02  0.12829689410E+02 -0.13881677553E+03  0.14178368246E+03  0.00000000000E+00 0. -1.
         11    1    1    2    0    0 -0.19501041155E+02  0.21668083262E+02 -0.19946492614E+01  0.29219429564E+02  0.00000000000E+00 0.  1.
<mgrwt>
<rscale>  0 0.12072287E+03</rscale>
<asrwt>0</asrwt>
<pdfrwt beam="2">  1        1 0.10131264E+00 0.12984406E+03</pdfrwt>
<pdfrwt beam="1">  1       -1 0.36125477E-02 0.12984406E+03</pdfrwt>
<totfact> 0.84412270E+03</totfact>
</mgrwt>
</event>
<event>
 7    1  0.6008063E-006  0.1334192E+03  0.7546771E-02  0.1248616E+00
         -2   -1    0    0    0  501 -0.00000000000E+00  0.00000000000E+00  0.12341955369E+02  0.12341955369E+02  0.00000000000E+00 0.  1.
          2   -1    0    0  501    0  0.00000000000E+00 -0.00000000000E+00 -0.97294004871E+03  0.97294004871E+03  0.00000000000E+00 0. -1.
         23    2    1    2    0    0 -0.35942785517E+02 -0.29721890321E+02 -0.72174617455E+03  0.73397427256E+03  0.12500167086E+03 0.  0.
          5    1    3    3  502    0 -0.66840403856E+02 -0.57405772672E+02 -0.56091344041E+03  0.56781074308E+03  0.47000000000E+01 0. -1.
         -5    1    3    3    0  502  0.30897618339E+02  0.27683882351E+02 -0.16083273414E+03  0.16616352949E+03  0.47000000000E+01 0. -1.
        -11    1    1    2    0    0 -0.17744718310E+02  0.65808736726E+01 -0.44610257445E+02  0.48458827838E+02  0.00000000000E+00 0.  1.
         11    1    1    2    0    0  0.53687503826E+02  0.23141016648E+02 -0.19424166135E+03  0.20284890367E+03  0.00000000000E+00 0. -1.
<mgrwt>
<rscale>  0 0.11671523E+03</rscale>
<asrwt>0</asrwt>
<pdfrwt beam="2">  1        2 0.14968315E+00 0.13341924E+03</pdfrwt>
<pdfrwt beam="1">  1       -2 0.18987615E-02 0.13341924E+03</pdfrwt>
<totfact> 0.21651910E+04</totfact>
</mgrwt>
</event>
<event>
 7    1  0.6008063E-006  0.1311687E+03  0.7546771E-02  0.1240001E+00
         -1   -1    0    0    0  501 -0.00000000000E+00  0.00000000000E+00  0.17955092135E+03  0.17955092135E+03  0.00000000000E+00 0.  1.
          1   -1    0    0  501    0  0.00000000000E+00 -0.00000000000E+00 -0.77556026730E+02  0.77556026730E+02  0.00000000000E+00 0. -1.
         23    2    1    2    0    0  0.24453469760E+02 -0.31333409835E+02  0.27197216277E+02  0.13395865701E+03  0.12500191383E+03 0.  0.
          5    1    3    3  502    0 -0.36172513281E+02  0.19766933421E+02 -0.14877026139E+02  0.44074916683E+02  0.47000000000E+01 0. -1.
         -5    1    3    3    0  502  0.60625983041E+02 -0.51100343256E+02  0.42074242416E+02  0.89883740328E+02  0.47000000000E+01 0. -1.
        -11    1    1    2    0    0  0.15015471122E+02  0.39884350296E+02  0.70706675503E+02  0.82557008983E+02  0.00000000000E+00 0.  1.
         11    1    1    2    0    0 -0.39468940881E+02 -0.85509404612E+01  0.40910028390E+01  0.40591282085E+02  0.00000000000E+00 0. -1.
<mgrwt>
<rscale>  0 0.12189652E+03</rscale>
<asrwt>0</asrwt>
<pdfrwt beam="2">  1        1 0.11931696E-01 0.13116872E+03</pdfrwt>
<pdfrwt beam="1">  1       -1 0.27623218E-01 0.13116872E+03</pdfrwt>
<totfact> 0.56460900E+03</totfact>
</mgrwt>
</event>
<event>
 6    1  0.6008063E-006  0.4600818E+03  0.7546771E-02  0.1024757E+00
         -4   -1    0    0    0  501 -0.00000000000E+00  0.00000000000E+00  0.11325570942E+03  0.11325570942E+03  0.00000000000E+00 0.  1.
          4   -1    0    0  501    0  0.00000000000E+00 -0.00000000000E+00 -0.46725085038E+03  0.46725085038E+03  0.00000000000E+00 0. -1.
          5    1    1    2  502    0  0.23665925972E+02 -0.54805087665E+02 -0.43628974238E+03  0.44037995299E+03  0.47000000000E+01 0. -1.
         -5    1    1    2    0  502 -0.39039587555E+01  0.92643957830E+01  0.86282173903E+01  0.14057242209E+02  0.47000000000E+01 0.  1.
        -11    1    1    2    0    0 -0.40116015566E+02 -0.57165051524E+01  0.98061152236E+01  0.41690922655E+02  0.00000000000E+00 0.  1.
         11    1    1    2    0    0  0.20354048349E+02  0.51257197035E+02  0.63860268814E+02  0.84378441945E+02  0.00000000000E+00 0. -1.
<mgrwt>
<rscale>  0 0.46008185E+03</rscale>
<asrwt>0</asrwt>
<pdfrwt beam="2">  1        4 0.71884745E-01 0.46008185E+03</pdfrwt>
<pdfrwt beam="1">  1       -4 0.17423956E-01 0.46008185E+03</pdfrwt>
<totfact> 0.10146107E+02</totfact>
</mgrwt>
</event>
<event>
 7    1  0.6008063E-006  0.1894588E+03  0.7546771E-02  0.1163723E+00
         -3   -1    0    0    0  501 -0.00000000000E+00  0.00000000000E+00  0.29321075069E+03  0.29321075069E+03  0.00000000000E+00 0.  1.
          3   -1    0    0  501    0  0.00000000000E+00 -0.00000000000E+00 -0.11522000610E+03  0.11522000610E+03  0.00000000000E+00 0. -1.
         23    2    1    2    0    0 -0.27017026140E+02  0.13978445684E+03  0.49925465386E+02  0.19592646272E+03  0.12500005050E+03 0.  0.
          5    1    3    3  502    0 -0.57190835669E+02  0.14723616556E+03  0.41327308671E+02  0.16333804387E+03  0.47000000000E+01 0. -1.
         -5    1    3    3    0  502  0.30173809529E+02 -0.74517087165E+01  0.85981567159E+01  0.32588418851E+02  0.47000000000E+01 0. -1.
        -11    1    1    2    0    0  0.59253345866E+02 -0.93496689792E+02  0.10138817054E+03  0.15010713215E+03  0.00000000000E+00 0. -1.
         11    1    1    2    0    0 -0.32236319726E+02 -0.46287767052E+02  0.26677108663E+02  0.62397161912E+02  0.00000000000E+00 0.  1.
<mgrwt>
<rscale>  0 0.18428062E+03</rscale>
<asrwt>0</asrwt>
<pdfrwt beam="2">  1        3 0.17726155E-01 0.18945877E+03</pdfrwt>
<pdfrwt beam="1">  1       -3 0.45109346E-01 0.18945877E+03</pdfrwt>
<totfact> 0.33060409E+02</totfact>
</mgrwt>
</event>
<event>
 7    1  0.6008063E-006  0.1482551E+03  0.7546771E-02  0.1212057E+00
          1   -1    0    0  501    0  0.00000000000E+00  0.00000000000E+00  0.11500196664E+03  0.11500196664E+03  0.00000000000E+00 0. -1.
         -1   -1    0    0    0  501 -0.00000000000E+00 -0.00000000000E+00 -0.16502029713E+03  0.16502029713E+03  0.00000000000E+00 0.  1.
         23    2    1    2    0    0  0.30924519263E+02 -0.73503035893E+02  0.18357213995E+01  0.14826646969E+03  0.12498221467E+03 0.  0.
          5    1    3    3  502    0 -0.15211651703E+02 -0.42838525276E+02 -0.53133090738E+02  0.70083870660E+02  0.47000000000E+01 0.  1.
         -5    1    3    3    0  502  0.46136170967E+02 -0.30664510617E+02  0.54968812137E+02  0.78182599027E+02  0.47000000000E+01 0.  1.
        -11    1    1    2    0    0  0.17064548991E+02  0.70677659937E+02 -0.36030449222E+02  0.81146310560E+02  0.00000000000E+00 0. -1.
         11    1    1    2    0    0 -0.47989068255E+02  0.28253759567E+01 -0.15823602661E+02  0.50609483522E+02  0.00000000000E+00 0.  1.
<mgrwt>
<rscale>  0 0.14094957E+03</rscale>
<asrwt>0</asrwt>
<pdfrwt beam="1">  1        1 0.17692610E-01 0.14825511E+03</pdfrwt>
<pdfrwt beam="2">  1       -1 0.25387738E-01 0.14825511E+03</pdfrwt>
<totfact> 0.39228298E+03</totfact>
</mgrwt>
</event>
<event>
 7    1  0.6008063E-006  0.1272173E+03  0.7546771E-02  0.1247360E+00
         -2   -1    0    0    0  501 -0.00000000000E+00  0.00000000000E+00  0.11064756914E+03  0.11064756914E+03  0.00000000000E+00 0.  1.
          2   -1    0    0  501    0  0.00000000000E+00 -0.00000000000E+00 -0.10944014952E+03  0.10944014952E+03  0.00000000000E+00 0. -1.
         23    2    1    2    0    0 -0.10388313189E+02 -0.21239267815E+02 -0.61544946627E+01  0.12736612223E+03  0.12500091095E+03 0.  0.
          5    1    3    3  502    0 -0.26605097573E+02 -0.57595482057E+02  0.32709495175E+02  0.71533711248E+02  0.47000000000E+01 0.  1.
         -5    1    3    3    0  502  0.16216784384E+02  0.36356214243E+02 -0.38863989838E+02  0.55832410981E+02  0.47000000000E+01 0.  1.
        -11    1    1    2    0    0 -0.31485543140E+02 -0.13935218670E+02  0.14900663787E+02  0.37517456304E+02  0.00000000000E+00 0.  1.
         11    1    1    2    0    0  0.41873856329E+02  0.35174486485E+02 -0.75387494977E+01  0.55204140128E+02  0.00000000000E+00 0. -1.
<mgrwt>
<rscale>  0 0.11745233E+03</rscale>
<asrwt>0</asrwt>
<pdfrwt beam="2">  1        2 0.16836946E-01 0.12721734E+03</pdfrwt>
<pdfrwt beam="1">  1       -2 0.17022703E-01 0.12721734E+03</pdfrwt>
<totfact> 0.88135845E+03</totfact>
</mgrwt>
</event>
<event>
 7    1  0.6008063E-006  0.1334882E+03  0.7546771E-02  0.1235473E+00
          2   -1    0    0  501    0  0.00000000000E+00  0.00000000000E+00  0.28372287183E+03  0.28372287183E+03  0.00000000000E+00 0.  1.
         -2   -1    0    0    0  501 -0.00000000000E+00 -0.00000000000E+00 -0.48972931606E+02  0.48972931606E+02  0.00000000000E+00 0. -1.
         23    2    1    2    0    0  0.22402019881E+02 -0.41130036989E+02  0.12273475958E+03  0.18133649200E+03  0.12500228671E+03 0.  0.
          5    1    3    3  502    0 -0.32597531046E+02 -0.61201723715E+02  0.41022015055E+02  0.80704062693E+02  0.47000000000E+01 0.  1.
         -5    1    3    3    0  502  0.54999550927E+02  0.20071686726E+02  0.81712744523E+02  0.10063242930E+03  0.47000000000E+01 0.  1.
        -11    1    1    2    0    0 -0.33105530010E+02  0.16721367416E+02  0.11829854035E+03  0.12397630779E+03  0.00000000000E+00 0.  1.
         11    1    1    2    0    0  0.10703510129E+02  0.24408669573E+02 -0.62833597043E+01  0.27383003644E+02  0.00000000000E+00 0. -1.
<mgrwt>
<rscale>  0 0.12474234E+03</rscale>
<asrwt>0</asrwt>
<pdfrwt beam="1">  1        2 0.43649672E-01 0.13348821E+03</pdfrwt>
<pdfrwt beam="2">  1       -2 0.75342973E-02 0.13348821E+03</pdfrwt>
<totfact> 0.11372436E+04</totfact>
</mgrwt>
</event>
<event>
 7    1  0.6008063E-006  0.1304242E+03  0.7546771E-02  0.1240146E+00
         -2   -1    0    0    0  501 -0.00000000000E+00  0.00000000000E+00  0.39222885410E+02  0.39222885410E+02  0.00000000000E+00 0.  1.
          2   -1    0    0  501    0  0.00000000000E+00 -0.00000000000E+00 -0.67538431631E+03  0.67538431631E+03  0.00000000000E+00 0. -1.
         23    2    1    2    0    0 -0.37220808573E+02 -0.73347834633E+00 -0.59165702506E+03  0.60586179404E+03  0.12499820639E+03 0.  0.
          5    1    3    3  502    0 -0.22443431664E+02  0.58562894983E+01 -0.58818240907E+03  0.58865833902E+03  0.47000000000E+01 0.  1.
         -5    1    3    3    0  502 -0.14777376909E+02 -0.65897678447E+01 -0.34746159837E+01  0.17203455025E+02  0.47000000000E+01 0.  1.
        -11    1    1    2    0    0  0.19052619471E+02 -0.28561671030E+02 -0.61406653705E+02  0.70353027511E+02  0.00000000000E+00 0. -1.
         11    1    1    2    0    0  0.18168189102E+02  0.29295149376E+02  0.16902247861E+02  0.38392380168E+02  0.00000000000E+00 0.  1.
<mgrwt>
<rscale>  0 0.12180643E+03</rscale>
<asrwt>0</asrwt>
<pdfrwt beam="2">  1        2 0.10390527E+00 0.13042422E+03</pdfrwt>
<pdfrwt beam="1">  1       -2 0.60342906E-02 0.13042422E+03</pdfrwt>
<totfact> 0.61902005E+03</totfact>
</mgrwt>
</event>
<event>
 7    1  0.6008063E-006  0.2299590E+03  0.7546771E-02  0.1129662E+00
          1   -1    0    0  501    0  0.00000000000E+00  0.00000000000E+00  0.12489655015E+04  0.12489655015E+04  0.00000000000E+00 0. -1.
         -1   -1    0    0    0  501 -0.00000000000E+00 -0.00000000000E+00 -0.46822661356E+02  0.46822661356E+02  0.00000000000E+00 0.  1.
         23    2    1    2    0    0 -0.29440093205E+02 -0.19076936234E+03  0.87782195953E+03  0.90744284920E+03  0.12498585211E+03 0.  0.
          5    1    3    3  502    0 -0.46422171100E+02 -0.31215311837E+02  0.38667529598E+03  0.39072917498E+03  0.47000000000E+01 0.  1.
         -5    1    3    3    0  502  0.16982077894E+02 -0.15955405050E+03  0.49114666356E+03  0.51671367422E+03  0.47000000000E+01 0.  1.
        -11    1    1    2    0    0 -0.29753059295E+01  0.14911339823E+03  0.17478976933E+03  0.22977189001E+03  0.00000000000E+00 0.  1.
         11    1    1    2    0    0  0.32415399135E+02  0.41655964110E+02  0.14953111131E+03  0.15857342368E+03  0.00000000000E+00 0. -1.
<mgrwt>
<rscale>  0 0.22575728E+03</rscale>
<asrwt>0</asrwt>
<pdfrwt beam="1">  1        1 0.19214851E+00 0.22995898E+03</pdfrwt>
<pdfrwt beam="2">  1       -1 0.72034873E-02 0.22995898E+03</pdfrwt>
<totfact> 0.10733278E+03</totfact>
</mgrwt>
</event>
<event>
 7    1  0.6008063E-006  0.1264441E+03  0.7546771E-02  0.1247828E+00
         -2   -1    0    0    0  501 -0.00000000000E+00  0.00000000000E+00  0.16386521455E+02  0.16386521455E+02  0.00000000000E+00 0.  1.
          2   -1    0    0  501    0  0.00000000000E+00 -0.00000000000E+00 -0.14143110859E+04  0.14143110859E+04  0.00000000000E+00 0. -1.
         23    2    1    2    0    0  0.40222574380E+01  0.18674606627E+02 -0.12462467737E+04  0.12526448563E+04  0.12499278153E+03 0.  0.
          5    1    3    3  502    0  0.21104961934E+02 -0.50537134774E+02 -0.52790953458E+03  0.53076358966E+03  0.47000000000E+01 0.  1.
         -5    1    3    3    0  502 -0.17082704496E+02  0.69211741401E+02 -0.71833723916E+03  0.72188126662E+03  0.47000000000E+01 0.  1.
        -11    1    1    2    0    0  0.39410225208E+02  0.33656185924E+01 -0.97408833364E+02  0.10513312540E+03  0.00000000000E+00 0. -1.
         11    1    1    2    0    0 -0.43432482646E+02 -0.22040225220E+02 -0.54268957340E+02  0.72919625666E+02  0.00000000000E+00 0.  1.
<mgrwt>
<rscale>  0 0.11717713E+03</rscale>
<asrwt>0</asrwt>
<pdfrwt beam="2">  1        2 0.21758636E+00 0.12644412E+03</pdfrwt>
<pdfrwt beam="1">  1       -2 0.25210029E-02 0.12644412E+03</pdfrwt>
<totfact> 0.81135139E+03</totfact>
</mgrwt>
</event>
<event>
 7    1  0.6008063E-006  0.1487136E+03  0.7546771E-02  0.1211492E+00
         -2   -1    0    0    0  501 -0.00000000000E+00  0.00000000000E+00  0.53334253301E+02  0.53334253301E+02  0.00000000000E+00 0.  1.
          2   -1    0    0  501    0  0.00000000000E+00 -0.00000000000E+00 -0.34447326878E+03  0.34447326878E+03  0.00000000000E+00 0. -1.
         23    2    1    2    0    0  0.75327356852E+02  0.28562465696E+02 -0.17641600265E+03  0.23073436467E+03  0.12500286361E+03 0.  0.
          5    1    3    3  502    0  0.30913959073E+02 -0.35274884262E+02 -0.13395184626E+03  0.14200414586E+03  0.47000000000E+01 0.  1.
         -5    1    3    3    0  502  0.44413397779E+02  0.63837349958E+02 -0.42464156394E+02  0.88730218811E+02  0.47000000000E+01 0.  1.
        -11    1    1    2    0    0 -0.38508632220E+02 -0.57609086824E+02 -0.91395830805E+02  0.11469489757E+03  0.00000000000E+00 0.  1.
         11    1    1    2    0    0 -0.36818724632E+02  0.29046621128E+02 -0.23327182016E+02  0.52378259835E+02  0.00000000000E+00 0. -1.
<mgrwt>
<rscale>  0 0.14137404E+03</rscale>
<asrwt>0</asrwt>
<pdfrwt beam="2">  1        2 0.52995886E-01 0.14871362E+03</pdfrwt>
<pdfrwt beam="1">  1       -2 0.82052700E-02 0.14871362E+03</pdfrwt>
<totfact> 0.81769366E+03</totfact>
</mgrwt>
</event>
<event>
 7    1  0.6008063E-006  0.1523615E+03  0.7546771E-02  0.1206175E+00
          1   -1    0    0  501    0  0.00000000000E+00  0.00000000000E+00  0.29156852382E+02  0.29156852382E+02  0.00000000000E+00 0. -1.
         -1   -1    0    0    0  501 -0.00000000000E+00 -0.00000000000E+00 -0.66912155834E+03  0.66912155834E+03  0.00000000000E+00 0.  1.
         23    2    1    2    0    0  0.78516729885E+02 -0.37742597418E+02 -0.36907765861E+03  0.39928980639E+03  0.12499860347E+03 0.  0.
          5    1    3    3  502    0  0.10693189414E+03 -0.14383647795E+02 -0.21235271834E+03  0.23823745779E+03  0.47000000000E+01 0. -1.
         -5    1    3    3    0  502 -0.28415164251E+02 -0.23358949623E+02 -0.15672494028E+03  0.16105234861E+03  0.47000000000E+01 0. -1.
        -11    1    1    2    0    0 -0.63653075191E+02  0.11756731524E+02 -0.25868546609E+03  0.26666103031E+03  0.00000000000E+00 0.  1.
         11    1    1    2    0    0 -0.14863654695E+02  0.25985865894E+02 -0.12201581253E+02  0.32327574023E+02  0.00000000000E+00 0. -1.
<mgrwt>
<rscale>  0 0.14545219E+03</rscale>
<asrwt>0</asrwt>
<pdfrwt beam="1">  1        1 0.44856691E-02 0.15236152E+03</pdfrwt>
<pdfrwt beam="2">  1       -1 0.10294179E+00 0.15236152E+03</pdfrwt>
<totfact> 0.17882576E+03</totfact>
</mgrwt>
</event>
<event>
 7    1  0.6008063E-006  0.1298969E+03  0.7546771E-02  0.1241608E+00
         -2   -1    0    0    0  501 -0.00000000000E+00  0.00000000000E+00  0.54867383046E+02  0.54867383046E+02  0.00000000000E+00 0.  1.
          2   -1    0    0  501    0  0.00000000000E+00 -0.00000000000E+00 -0.31956757071E+03  0.31956757071E+03  0.00000000000E+00 0. -1.
         23    2    1    2    0    0  0.34799630488E+02 -0.60467353450E+01 -0.24149048618E+03  0.27420951530E+03  0.12500250427E+03 0.  0.
          5    1    3    3  502    0  0.17168632952E+02 -0.10792692167E+02  0.92370935554E+01  0.22774065491E+02  0.47000000000E+01 0.  1.
         -5    1    3    3    0  502  0.17630997537E+02  0.47459568217E+01 -0.25072757973E+03  0.25143544981E+03  0.47000000000E+01 0.  1.
        -11    1    1    2    0    0  0.26262654456E+02  0.19660904987E+02  0.17861364343E+01  0.32855265747E+02  0.00000000000E+00 0.  1.
         11    1    1    2    0    0 -0.61062284944E+02 -0.13614169642E+02 -0.24995837917E+02  0.67370172709E+02  0.00000000000E+00 0. -1.
<mgrwt>
<rscale>  0 0.12090698E+03</rscale>
<asrwt>0</asrwt>
<pdfrwt beam="2">  1        2 0.49164241E-01 0.12989690E+03</pdfrwt>
<pdfrwt beam="1">  1       -2 0.84411359E-02 0.12989690E+03</pdfrwt>
<totfact> 0.83969678E+03</totfact>
</mgrwt>
</event>
<event>
 7    1  0.6008063E-006  0.1352137E+03  0.7546771E-02  0.1231987E+00
          4   -1    0    0  501    0  0.00000000000E+00  0.00000000000E+00  0.13920171371E+03  0.13920171371E+03  0.00000000000E+00 0. -1.
         -4   -1    0    0    0  501 -0.00000000000E+00 -0.00000000000E+00 -0.11932821745E+03  0.11932821745E+03  0.00000000000E+00 0.  1.
         23    2    1    2    0    0  0.15295681233E+02 -0.49223804954E+02  0.57310359465E+02  0.14685784384E+03  0.12500323258E+03 0.  0.
          5    1    3    3  502    0 -0.86723127173E+01  0.74818507060E+01  0.80094697329E+02  0.81045898342E+02  0.47000000000E+01 0. -1.
         -5    1    3    3    0  502  0.23967993950E+02 -0.56705655660E+02 -0.22784337864E+02  0.65811945494E+02  0.47000000000E+01 0. -1.
        -11    1    1    2    0    0  0.63947551832E+01  0.35299073838E+02  0.25266007673E+02  0.43878111301E+02  0.00000000000E+00 0. -1.
         11    1    1    2    0    0 -0.21690436416E+02  0.13924731117E+02 -0.62702870883E+02  0.67793976027E+02  0.00000000000E+00 0.  1.
<mgrwt>
<rscale>  0 0.12699300E+03</rscale>
<asrwt>0</asrwt>
<pdfrwt beam="1">  1        4 0.21415648E-01 0.13521372E+03</pdfrwt>
<pdfrwt beam="2">  1       -4 0.18358187E-01 0.13521372E+03</pdfrwt>
<totfact> 0.86616331E+02</totfact>
</mgrwt>
</event>
<event>
 7    1  0.6008063E-006  0.1425783E+03  0.7546771E-02  0.1220535E+00
         -2   -1    0    0    0  501 -0.00000000000E+00  0.00000000000E+00  0.73143740022E+02  0.73143740022E+02  0.00000000000E+00 0.  1.
          2   -1    0    0  501    0  0.00000000000E+00 -0.00000000000E+00 -0.22675261378E+03  0.22675261378E+03  0.00000000000E+00 0. -1.
         23    2    1    2    0    0  0.10264942473E+02 -0.67805467634E+02 -0.99398112030E+02  0.17380612743E+03  0.12500253907E+03 0.  0.
          5    1    3    3  502    0  0.33794583658E+02 -0.19714681663E+02 -0.11189236892E+03  0.11862855803E+03  0.47000000000E+01 0.  1.
         -5    1    3    3    0  502 -0.23529641185E+02 -0.48090785971E+02  0.12494256892E+02  0.55177569400E+02  0.47000000000E+01 0.  1.
        -11    1    1    2    0    0 -0.10243828837E+02 -0.20760461000E+02 -0.18967507352E+01  0.23227794418E+02  0.00000000000E+00 0. -1.
         11    1    1    2    0    0 -0.21113636038E-01  0.88565928634E+02 -0.52314010990E+02  0.10286243195E+03  0.00000000000E+00 0.  1.
<mgrwt>
<rscale>  0 0.13477693E+03</rscale>
<asrwt>0</asrwt>
<pdfrwt beam="2">  1        2 0.34885018E-01 0.14257835E+03</pdfrwt>
<pdfrwt beam="1">  1       -2 0.11252883E-01 0.14257835E+03</pdfrwt>
<totfact> 0.77538101E+03</totfact>
</mgrwt>
</event>
<event>
 7    1  0.6008063E-006  0.1381639E+03  0.7546771E-02  0.1227888E+00
          2   -1    0    0  501    0  0.00000000000E+00  0.00000000000E+00  0.10328799023E+03  0.10328799023E+03  0.00000000000E+00 0.  1.
         -2   -1    0    0    0  501 -0.00000000000E+00 -0.00000000000E+00 -0.14586978431E+03  0.14586978431E+03  0.00000000000E+00 0. -1.
         23    2    1    2    0    0  0.38758047847E+02  0.44288764338E+02 -0.24655446617E+02  0.14034656099E+03  0.12500234083E+03 0.  0.
          5    1    3    3  502    0 -0.49847206387E+01  0.14691727223E+02 -0.69213630359E+02  0.71086643725E+02  0.47000000000E+01 0. -1.
         -5    1    3    3    0  502  0.43742768486E+02  0.29597037116E+02  0.44558183742E+02  0.69259917262E+02  0.47000000000E+01 0. -1.
        -11    1    1    2    0    0  0.98327758522E+01  0.60438798732E+01  0.24436151557E+02  0.27024756572E+02  0.00000000000E+00 0.  1.
         11    1    1    2    0    0 -0.48590823699E+02 -0.50332644212E+02 -0.42362499022E+02  0.81786456975E+02  0.00000000000E+00 0. -1.
<mgrwt>
<rscale>  0 0.12970914E+03</rscale>
<asrwt>0</asrwt>
<pdfrwt beam="1">  1        2 0.15890460E-01 0.13816391E+03</pdfrwt>
<pdfrwt beam="2">  1       -2 0.22441505E-01 0.13816391E+03</pdfrwt>
<totfact> 0.59499593E+03</totfact>
</mgrwt>
</event>
<event>
 6    1  0.6008063E-006  0.6652786E+03  0.7546771E-02  0.1002080E+00
          1   -1    0    0  501    0  0.00000000000E+00  0.00000000000E+00  0.98330436071E+03  0.98330436071E+03  0.00000000000E+00 0. -1.
         -1   -1    0    0    0  501 -0.00000000000E+00 -0.00000000000E+00 -0.41632475710E+03  0.41632475710E+03  0.00000000000E+00 0.  1.
          5    1    1    2  502    0  0.21223772806E+03 -0.40205352332E+03  0.68252108534E+03  0.82009085519E+03  0.47000000000E+01 0. -1.
         -5    1    1    2    0  502 -0.13431313860E+03  0.12125201387E+03  0.99233030799E+02  0.20642517887E+03  0.47000000000E+01 0.  1.
        -11    1    1    2    0    0 -0.66823180312E+02  0.13563182297E+03 -0.66081018590E+02  0.16500918110E+03  0.00000000000E+00 0. -1.
         11    1    1    2    0    0 -0.11101409152E+02  0.14516968648E+03 -0.14869349394E+03  0.20810390265E+03  0.00000000000E+00 0.  1.
<mgrwt>
<rscale>  0 0.54747313E+03</rscale>
<asrwt>0</asrwt>
<pdfrwt beam="1">  1        1 0.15127759E+00 0.66527864E+03</pdfrwt>
<pdfrwt beam="2">  1       -1 0.64049963E-01 0.66527864E+03</pdfrwt>
<totfact> 0.39899132E+01</totfact>
</mgrwt>
</event>
<event>
 7    1  0.6008063E-006  0.1254583E+03  0.7546771E-02  0.1250277E+00
          2   -1    0    0  501    0  0.00000000000E+00  0.00000000000E+00  0.44985596279E+02  0.44985596279E+02  0.00000000000E+00 0. -1.
         -2   -1    0    0    0  501 -0.00000000000E+00 -0.00000000000E+00 -0.28747311215E+03  0.28747311215E+03  0.00000000000E+00 0.  1.
         23    2    1    2    0    0  0.89482865273E+01  0.23822896547E+01 -0.88118856599E+02  0.15331246036E+03  0.12511606803E+03 0.  0.
          5    1    3    3  502    0 -0.26103880429E+02  0.11997399038E+02 -0.10783559860E+03  0.11169582124E+03  0.47000000000E+01 0.  1.
         -5    1    3    3    0  502  0.35052166956E+02 -0.96151093836E+01  0.19716742001E+02  0.41616639123E+02  0.47000000000E+01 0.  1.
        -11    1    1    2    0    0  0.25413986619E+02  0.32548883655E+02 -0.60364131700E+02  0.73137739498E+02  0.00000000000E+00 0.  1.
         11    1    1    2    0    0 -0.34362273146E+02 -0.34931173309E+02 -0.94004527570E+02  0.10600850857E+03  0.00000000000E+00 0. -1.
<mgrwt>
<rscale>  0 0.11575007E+03</rscale>
<asrwt>0</asrwt>
<pdfrwt beam="1">  1        2 0.69208611E-02 0.12545827E+03</pdfrwt>
<pdfrwt beam="2">  1       -2 0.44226632E-01 0.12545827E+03</pdfrwt>
<totfact> 0.47465466E+03</totfact>
</mgrwt>
</event>
<event>
 6    1  0.6008063E-006  0.2751811E+03  0.7546771E-02  0.1121695E+00
         -2   -1    0    0    0  501 -0.00000000000E+00  0.00000000000E+00  0.55570956894E+02  0.55570956894E+02  0.00000000000E+00 0.  1.
          2   -1    0    0  501    0  0.00000000000E+00 -0.00000000000E+00 -0.82038796530E+03  0.82038796530E+03  0.00000000000E+00 0. -1.
          5    1    1    2  502    0 -0.32576987639E+02 -0.15828293697E+03 -0.47283439112E+03  0.49970911507E+03  0.47000000000E+01 0. -1.
         -5    1    1    2    0  502  0.44729544527E+02  0.37801321030E+02 -0.15402603285E+02  0.60737156775E+02  0.47000000000E+01 0.  1.
        -11    1    1    2    0    0 -0.30431087175E+02  0.41951303445E+02 -0.39694562132E+02  0.65281093666E+02  0.00000000000E+00 0. -1.
         11    1    1    2    0    0  0.18278530287E+02  0.78530312499E+02 -0.23688545187E+03  0.25023155668E+03  0.00000000000E+00 0.  1.
<mgrwt>
<rscale>  0 0.23716573E+03</rscale>
<asrwt>0</asrwt>
<pdfrwt beam="2">  1        2 0.12621352E+00 0.27518114E+03</pdfrwt>
<pdfrwt beam="1">  1       -2 0.85493786E-02 0.27518114E+03</pdfrwt>
<totfact> 0.29186545E+03</totfact>
</mgrwt>
</event>
<event>
 6    1  0.6008063E-006  0.2456431E+03  0.7546771E-02  0.1134713E+00
         -2   -1    0    0    0  501 -0.00000000000E+00  0.00000000000E+00  0.35598633179E+02  0.35598633179E+02  0.00000000000E+00 0.  1.
          2   -1    0    0  501    0  0.00000000000E+00 -0.00000000000E+00 -0.12151118459E+04  0.12151118459E+04  0.00000000000E+00 0. -1.
          5    1    1    2  502    0  0.75824660974E+02  0.33535736871E+02 -0.77905459476E+03  0.78346804432E+03  0.47000000000E+01 0. -1.
         -5    1    1    2    0  502  0.45697244105E+02 -0.67574957897E+02 -0.99344070402E+02  0.12863105137E+03  0.47000000000E+01 0.  1.
        -11    1    1    2    0    0 -0.23061866978E+02 -0.27712831303E+02 -0.10038496766E+03  0.10666298542E+03  0.00000000000E+00 0.  1.
         11    1    1    2    0    0 -0.98460038102E+02  0.61752052329E+02 -0.20072957991E+03  0.23194839797E+03  0.00000000000E+00 0. -1.
<mgrwt>
<rscale>  0 0.21889056E+03</rscale>
<asrwt>0</asrwt>
<pdfrwt beam="2">  1        2 0.18694027E+00 0.24564313E+03</pdfrwt>
<pdfrwt beam="1">  1       -2 0.54767131E-02 0.24564313E+03</pdfrwt>
<totfact> 0.33290742E+03</totfact>
</mgrwt>
</event>
<event>
 7    1  0.6008063E-006  0.1274624E+03  0.7546771E-02  0.1235464E+00
         -1   -1    0    0    0  501 -0.00000000000E+00  0.00000000000E+00  0.26556664302E+02  0.26556664302E+02  0.00000000000E+00 0.  1.
          1   -1    0    0  501    0  0.00000000000E+00 -0.00000000000E+00 -0.59728275299E+03  0.59728275299E+03  0.00000000000E+00 0. -1.
         23    2    1    2    0    0 -0.23734904135E+02  0.75212784741E+01 -0.37230052361E+03  0.39351535803E+03  0.12500696710E+03 0.  0.
          5    1    3    3  502    0  0.96156757634E+01 -0.23928696127E+02 -0.96255663929E+01  0.27924635129E+02  0.47000000000E+01 0. -1.
         -5    1    3    3    0  502 -0.33350579898E+02  0.31449974601E+02 -0.36267495721E+03  0.36559072290E+03  0.47000000000E+01 0. -1.
        -11    1    1    2    0    0  0.54897280495E+02  0.24916542381E+02 -0.61168410986E+02  0.85884340788E+02  0.00000000000E+00 0.  1.
         11    1    1    2    0    0 -0.31162376360E+02 -0.32437820855E+02 -0.13725715410E+03  0.14443971847E+03  0.00000000000E+00 0. -1.
<mgrwt>
<rscale>  0 0.12474790E+03</rscale>
<asrwt>0</asrwt>
<pdfrwt beam="2">  1        1 0.91889651E-01 0.12746238E+03</pdfrwt>
<pdfrwt beam="1">  1       -1 0.40856408E-02 0.12746238E+03</pdfrwt>
<totfact> 0.80533830E+03</totfact>
</mgrwt>
</event>
<event>
 7    1  0.6008063E-006  0.1524485E+03  0.7546771E-02  0.1203427E+00
         -2   -1    0    0    0  501 -0.00000000000E+00  0.00000000000E+00  0.45394253812E+02  0.45394253812E+02  0.00000000000E+00 0.  1.
          2   -1    0    0  501    0  0.00000000000E+00 -0.00000000000E+00 -0.46164313495E+03  0.46164313495E+03  0.00000000000E+00 0. -1.
         23    2    1    2    0    0  0.19359053888E+02  0.95728906667E+02 -0.25777771199E+03  0.29948270392E+03  0.11705445147E+03 0.  0.
          5    1    3    3  502    0  0.28883651542E+02  0.12070706666E+03 -0.22421732700E+03  0.25632003628E+03  0.47000000000E+01 0. -1.
         -5    1    3    3    0  502 -0.95245976548E+01 -0.24978159998E+02 -0.33560384988E+02  0.43162667641E+02  0.47000000000E+01 0.  1.
        -11    1    1    2    0    0 -0.53948585296E+02 -0.48123837010E+02 -0.10837124807E+03  0.13027156617E+03  0.00000000000E+00 0.  1.
         11    1    1    2    0    0  0.34589531408E+02 -0.47605069657E+02 -0.50099921077E+02  0.77283118674E+02  0.00000000000E+00 0. -1.
<mgrwt>
<rscale>  0 0.14762104E+03</rscale>
<asrwt>0</asrwt>
<pdfrwt beam="2">  1        2 0.71022021E-01 0.15244849E+03</pdfrwt>
<pdfrwt beam="1">  1       -2 0.69837314E-02 0.15244849E+03</pdfrwt>
<totfact> 0.76674968E+03</totfact>
</mgrwt>
</event>
<event>
 7    1  0.6008063E-006  0.1434683E+03  0.7546771E-02  0.1220086E+00
         -4   -1    0    0    0  501 -0.00000000000E+00  0.00000000000E+00  0.11568140746E+03  0.11568140746E+03  0.00000000000E+00 0. -1.
          4   -1    0    0  501    0  0.00000000000E+00 -0.00000000000E+00 -0.14296371537E+03  0.14296371537E+03  0.00000000000E+00 0.  1.
         23    2    1    2    0    0 -0.36834741567E+02  0.60010479258E+02 -0.26223325809E+02  0.14584516835E+03  0.12500037803E+03 0.  0.
          5    1    3    3  502    0 -0.57139605510E+02  0.28738814224E+02 -0.65372412959E+02  0.91577815747E+02  0.47000000000E+01 0. -1.
         -5    1    3    3    0  502  0.20304863944E+02  0.31271665034E+02  0.39149087151E+02  0.54267352603E+02  0.47000000000E+01 0. -1.
        -11    1    1    2    0    0 -0.22894118382E+02 -0.33842745818E+02 -0.19154635872E+02  0.45126180609E+02  0.00000000000E+00 0.  1.
         11    1    1    2    0    0  0.59728859949E+02 -0.26167733440E+02  0.18095653770E+02  0.67673773868E+02  0.00000000000E+00 0. -1.
<mgrwt>
<rscale>  0 0.13509504E+03</rscale>
<asrwt>0</asrwt>
<pdfrwt beam="2">  1        4 0.21994418E-01 0.14346829E+03</pdfrwt>
<pdfrwt beam="1">  1       -4 0.17797140E-01 0.14346829E+03</pdfrwt>
<totfact> 0.88257355E+02</totfact>
</mgrwt>
</event>
<event>
 7    1  0.6008063E-006  0.1603387E+03  0.7546771E-02  0.1202537E+00
          1   -1    0    0  501    0  0.00000000000E+00  0.00000000000E+00  0.86181724425E+02  0.86181724425E+02  0.00000000000E+00 0. -1.
         -1   -1    0    0    0  501 -0.00000000000E+00 -0.00000000000E+00 -0.25686072377E+03  0.25686072377E+03  0.00000000000E+00 0.  1.
         23    2    1    2    0    0 -0.17814314056E+02 -0.98821886879E+02 -0.35966329568E+02  0.16432304701E+03  0.12500148721E+03 0.  0.
          5    1    3    3  502    0 -0.64640478307E+02 -0.88142083837E+02 -0.38543716905E+02  0.11599623482E+03  0.47000000000E+01 0. -1.
         -5    1    3    3    0  502  0.46826164250E+02 -0.10679803042E+02  0.25773873378E+01  0.48326812195E+02  0.47000000000E+01 0. -1.
        -11    1    1    2    0    0  0.26719452454E+02  0.19132226165E+02 -0.63396913904E+02  0.71408262197E+02  0.00000000000E+00 0. -1.
         11    1    1    2    0    0 -0.89051383979E+01  0.79689660715E+02 -0.71315755876E+02  0.10731113899E+03  0.00000000000E+00 0.  1.
<mgrwt>
<rscale>  0 0.14833257E+03</rscale>
<asrwt>0</asrwt>
<pdfrwt beam="1">  1        1 0.13258727E-01 0.16033866E+03</pdfrwt>
<pdfrwt beam="2">  1       -1 0.39517034E-01 0.16033866E+03</pdfrwt>
<totfact> 0.27002063E+03</totfact>
</mgrwt>
</event>
<event>
 6    1  0.6008063E-006  0.1454837E+03  0.7546771E-02  0.1220311E+00
          1   -1    0    0  501    0  0.00000000000E+00  0.00000000000E+00  0.11089663269E+04  0.11089663269E+04  0.00000000000E+00 0. -1.
         -1   -1    0    0    0  501 -0.00000000000E+00 -0.00000000000E+00 -0.15447769069E+02  0.15447769069E+02  0.00000000000E+00 0.  1.
          5    1    1    2  502    0  0.41052212551E+02  0.88974642794E+02  0.64875122092E+03  0.65612651818E+03  0.47000000000E+01 0. -1.
         -5    1    1    2    0  502 -0.42423730835E+01 -0.38357090976E+02  0.11603675997E+03  0.12237599365E+03  0.47000000000E+01 0.  1.
        -11    1    1    2    0    0  0.11048558915E+02 -0.39261978187E+02  0.58955354753E+02  0.71688963162E+02  0.00000000000E+00 0.  1.
         11    1    1    2    0    0 -0.47858398383E+02 -0.11355573631E+02  0.26977522220E+03  0.27422262098E+03  0.00000000000E+00 0. -1.
<mgrwt>
<rscale>  0 0.13493543E+03</rscale>
<asrwt>0</asrwt>
<pdfrwt beam="1">  1        1 0.17061014E+00 0.14548369E+03</pdfrwt>
<pdfrwt beam="2">  1       -1 0.23765807E-02 0.14548369E+03</pdfrwt>
<totfact> 0.69011336E+03</totfact>
</mgrwt>
</event>
<event>
 7    1  0.6008063E-006  0.2074709E+03  0.7546771E-02  0.1147434E+00
         -2   -1    0    0    0  501 -0.00000000000E+00  0.00000000000E+00  0.19508553129E+03  0.19508553129E+03  0.00000000000E+00 0. -1.
          2   -1    0    0  501    0  0.00000000000E+00 -0.00000000000E+00 -0.31345135848E+03  0.31345135848E+03  0.00000000000E+00 0.  1.
         23    2    1    2    0    0 -0.14185083501E+03 -0.85423865055E+02 -0.21266117080E+03  0.29710090159E+03  0.12500110419E+03 0.  0.
          5    1    3    3  502    0 -0.74562993714E+01 -0.61526480507E+02 -0.29984443730E+02  0.69009137581E+02  0.47000000000E+01 0. -1.
         -5    1    3    3    0  502 -0.13439453564E+03 -0.23897384548E+02 -0.18267672707E+03  0.22809176401E+03  0.47000000000E+01 0. -1.
        -11    1    1    2    0    0  0.41865977005E+02 -0.16498213048E+02  0.34232810058E+02  0.56540572590E+02  0.00000000000E+00 0. -1.
         11    1    1    2    0    0  0.99984858006E+02  0.10192207810E+03  0.60062533543E+02  0.15489541559E+03  0.00000000000E+00 0.  1.
<mgrwt>
<rscale>  0 0.20275605E+03</rscale>
<asrwt>0</asrwt>
<pdfrwt beam="2">  1        2 0.48223285E-01 0.20747089E+03</pdfrwt>
<pdfrwt beam="1">  1       -2 0.30013159E-01 0.20747089E+03</pdfrwt>
<totfact> 0.10621506E+03</totfact>
</mgrwt>
</event>
<event>
 7    1  0.6008063E-006  0.1189510E+03  0.7546771E-02  0.1256211E+00
         -1   -1    0    0    0  501 -0.00000000000E+00  0.00000000000E+00  0.88815332351E+02  0.88815332351E+02  0.00000000000E+00 0.  1.
          1   -1    0    0  501    0  0.00000000000E+00 -0.00000000000E+00 -0.12942198596E+03  0.12942198596E+03  0.00000000000E+00 0. -1.
         23    2    1    2    0    0 -0.25526932401E+02  0.18860494893E+01 -0.31235707652E+02  0.12298381723E+03  0.11616440250E+03 0.  0.
          5    1    3    3  502    0  0.14530389028E+02 -0.50370491893E+02 -0.18242997457E+02  0.55706513219E+02  0.47000000000E+01 0. -1.
         -5    1    3    3    0  502 -0.40057321430E+02  0.52256541382E+02 -0.12992710195E+02  0.67277304015E+02  0.47000000000E+01 0.  1.
        -11    1    1    2    0    0  0.46967571748E+02  0.21491693158E+02  0.16604125738E+02  0.54254425278E+02  0.00000000000E+00 0.  1.
         11    1    1    2    0    0 -0.21440639347E+02 -0.23377742647E+02 -0.25975071699E+02  0.40999075803E+02  0.00000000000E+00 0. -1.
<mgrwt>
<rscale>  0 0.11238761E+03</rscale>
<asrwt>0</asrwt>
<pdfrwt beam="2">  1        1 0.19911075E-01 0.11895104E+03</pdfrwt>
<pdfrwt beam="1">  1       -1 0.13663897E-01 0.11895104E+03</pdfrwt>
<totfact> 0.89353657E+03</totfact>
</mgrwt>
</event>
<event>
 7    1  0.6008063E-006  0.2007477E+03  0.7546771E-02  0.1152993E+00
         -2   -1    0    0    0  501 -0.00000000000E+00  0.00000000000E+00  0.37863371089E+02  0.37863371089E+02  0.00000000000E+00 0.  1.
          2   -1    0    0  501    0  0.00000000000E+00 -0.00000000000E+00 -0.98724330698E+03  0.98724330698E+03  0.00000000000E+00 0. -1.
         23    2    1    2    0    0  0.33033139496E+02  0.15356056859E+03 -0.55768129848E+03  0.59271246030E+03  0.12501037313E+03 0.  0.
          5    1    3    3  502    0  0.19295953968E+02  0.79346470521E+01 -0.63810697893E+01  0.22318165584E+02  0.47000000000E+01 0. -1.
         -5    1    3    3    0  502  0.13737185528E+02  0.14562592154E+03 -0.55130022869E+03  0.57039429471E+03  0.47000000000E+01 0. -1.
        -11    1    1    2    0    0 -0.28306814709E+02 -0.35449850870E+02 -0.37071279645E+02  0.58585386063E+02  0.00000000000E+00 0.  1.
         11    1    1    2    0    0 -0.47263247875E+01 -0.11811071772E+03 -0.35462735777E+03  0.37380883171E+03  0.00000000000E+00 0. -1.
<mgrwt>
<rscale>  0 0.19619066E+03</rscale>
<asrwt>0</asrwt>
<pdfrwt beam="2">  1        2 0.15188360E+00 0.20074768E+03</pdfrwt>
<pdfrwt beam="1">  1       -2 0.58251335E-02 0.20074768E+03</pdfrwt>
<totfact> 0.41035638E+03</totfact>
</mgrwt>
</event>
<event>
 7    1  0.6008063E-006  0.1286044E+03  0.7546771E-02  0.1244135E+00
          1   -1    0    0  501    0  0.00000000000E+00  0.00000000000E+00  0.17838923705E+03  0.17838923705E+03  0.00000000000E+00 0. -1.
         -1   -1    0    0    0  501 -0.00000000000E+00 -0.00000000000E+00 -0.86081382974E+02  0.86081382974E+02  0.00000000000E+00 0.  1.
         23    2    1    2    0    0  0.32947999063E+01  0.30049278822E+02  0.10773154589E+03  0.16776521345E+03  0.12500106399E+03 0.  0.
          5    1    3    3  502    0 -0.45968815935E+02  0.88641466871E+01 -0.31413081957E+00  0.47052033039E+02  0.47000000000E+01 0. -1.
         -5    1    3    3    0  502  0.49263615841E+02  0.21185132135E+02  0.10804567670E+03  0.12071318041E+03  0.47000000000E+01 0. -1.
        -11    1    1    2    0    0 -0.43593832139E+02 -0.26195275982E+02 -0.22491620026E+02  0.55610139864E+02  0.00000000000E+00 0. -1.
         11    1    1    2    0    0  0.40299032232E+02 -0.38540028400E+01  0.70679282133E+01  0.41095266710E+02  0.00000000000E+00 0.  1.
<mgrwt>
<rscale>  0 0.11937288E+03</rscale>
<asrwt>0</asrwt>
<pdfrwt beam="1">  1        1 0.27444498E-01 0.12860436E+03</pdfrwt>
<pdfrwt beam="2">  1       -1 0.13243290E-01 0.12860436E+03</pdfrwt>
<totfact> 0.63043118E+03</totfact>
</mgrwt>
</event>
<event>
 7    1  0.6008063E-006  0.1274322E+03  0.7546771E-02  0.1243967E+00
          2   -1    0    0  501    0  0.00000000000E+00  0.00000000000E+00  0.38246914095E+02  0.38246914095E+02  0.00000000000E+00 0. -1.
         -2   -1    0    0    0  501 -0.00000000000E+00 -0.00000000000E+00 -0.34521050641E+03  0.34521050641E+03  0.00000000000E+00 0.  1.
         23    2    1    2    0    0 -0.13261308856E+02 -0.84532702755E+00 -0.13752924403E+03  0.18749204563E+03  0.12673751347E+03 0.  0.
          5    1    3    3  502    0  0.26941668897E+01  0.41532887424E+02  0.77061327009E+00  0.41891802513E+02  0.47000000000E+01 0. -1.
         -5    1    3    3    0  502 -0.15955475746E+02 -0.42378214451E+02 -0.13829985730E+03  0.14560024312E+03  0.47000000000E+01 0.  1.
        -11    1    1    2    0    0  0.33163398907E+02  0.37906584982E+02 -0.57784732462E+02  0.76653737794E+02  0.00000000000E+00 0.  1.
         11    1    1    2    0    0 -0.19902090051E+02 -0.37061257954E+02 -0.11164961583E+03  0.11931163708E+03  0.00000000000E+00 0. -1.
<mgrwt>
<rscale>  0 0.11947437E+03</rscale>
<asrwt>0</asrwt>
<pdfrwt beam="1">  1        2 0.58841404E-02 0.12743223E+03</pdfrwt>
<pdfrwt beam="2">  1       -2 0.53109310E-01 0.12743223E+03</pdfrwt>
<totfact> 0.40830684E+03</totfact>
</mgrwt>
</event>
<event>
 7    1  0.6008063E-006  0.2647358E+03  0.7546771E-02  0.1106472E+00
         -2   -1    0    0    0  501 -0.00000000000E+00  0.00000000000E+00  0.73968426980E+02  0.73968426980E+02  0.00000000000E+00 0.  1.
          2   -1    0    0  501    0  0.00000000000E+00 -0.00000000000E+00 -0.12380954883E+04  0.12380954883E+04  0.00000000000E+00 0. -1.
         23    2    1    2    0    0 -0.23258265434E+03  0.19024802517E+02 -0.93767577704E+03  0.97433100627E+03  0.12501365014E+03 0.  0.
          5    1    3    3  502    0 -0.10619391507E+02  0.64995238912E+01 -0.27539406164E+03  0.27571542299E+03  0.47000000000E+01 0.  1.
         -5    1    3    3    0  502 -0.22196326283E+03  0.12525278626E+02 -0.66228171540E+03  0.69861558328E+03  0.47000000000E+01 0.  1.
        -11    1    1    2    0    0  0.17503345341E+03 -0.27315003241E+01 -0.10979606898E+03  0.20663820477E+03  0.00000000000E+00 0.  1.
         11    1    1    2    0    0  0.57549200931E+02 -0.16293302193E+02 -0.11665521533E+03  0.13109470427E+03  0.00000000000E+00 0. -1.
<mgrwt>
<rscale>  0 0.26111995E+03</rscale>
<asrwt>0</asrwt>
<pdfrwt beam="2">  1        2 0.19047623E+00 0.26473581E+03</pdfrwt>
<pdfrwt beam="1">  1       -2 0.11379758E-01 0.26473581E+03</pdfrwt>
<totfact> 0.10265110E+03</totfact>
</mgrwt>
</event>
<event>
 7    1  0.6008063E-006  0.1667528E+03  0.7546771E-02  0.1187788E+00
          2   -1    0    0  501    0  0.00000000000E+00  0.00000000000E+00  0.65656374778E+03  0.65656374778E+03  0.00000000000E+00 0. -1.
         -2   -1    0    0    0  501 -0.00000000000E+00 -0.00000000000E+00 -0.36893631731E+02  0.36893631731E+02  0.00000000000E+00 0.  1.
         23    2    1    2    0    0 -0.97369228381E+02 -0.52004404369E+02  0.34761096700E+03  0.38553842958E+03  0.12498508550E+03 0.  0.
          5    1    3    3  502    0  0.12246678186E+02 -0.42850774584E+02  0.44941590609E+02  0.63466578413E+02  0.47000000000E+01 0. -1.
         -5    1    3    3    0  502 -0.10961590657E+03 -0.91536297847E+01  0.30266937639E+03  0.32207185117E+03  0.47000000000E+01 0. -1.
        -11    1    1    2    0    0 -0.14766646556E+02  0.20476858907E+02  0.73492916905E+02  0.77708200574E+02  0.00000000000E+00 0. -1.
         11    1    1    2    0    0  0.11213587494E+03  0.31527545462E+02  0.19856623215E+03  0.23021074936E+03  0.00000000000E+00 0.  1.
<mgrwt>
<rscale>  0 0.16080786E+03</rscale>
<asrwt>0</asrwt>
<pdfrwt beam="1">  1        2 0.10100980E+00 0.16675280E+03</pdfrwt>
<pdfrwt beam="2">  1       -2 0.56759438E-02 0.16675280E+03</pdfrwt>
<totfact> 0.71117747E+03</totfact>
</mgrwt>
</event>
<event>
 6    1  0.6008063E-006  0.2611261E+03  0.7546771E-02  0.1125844E+00
          2   -1    0    0  501    0  0.00000000000E+00  0.00000000000E+00  0.85376973689E+03  0.85376973689E+03  0.00000000000E+00 0. -1.
         -2   -1    0    0    0  501 -0.00000000000E+00 -0.00000000000E+00 -0.58770042045E+02  0.58770042045E+02  0.00000000000E+00 0.  1.
          5    1    1    2  502    0  0.19261148511E+03  0.13900836762E+02  0.50637821274E+03  0.54197177214E+03  0.47000000000E+01 0. -1.
         -5    1    1    2    0  502 -0.64519132233E+02  0.12694182048E+02  0.12614025218E+03  0.14232819082E+03  0.47000000000E+01 0.  1.
        -11    1    1    2    0    0 -0.13104192461E+03 -0.73972465136E+01  0.10662311148E+03  0.16910113294E+03  0.00000000000E+00 0.  1.
         11    1    1    2    0    0  0.29495717261E+01 -0.19197772297E+02  0.55858118438E+02  0.59138683026E+02  0.00000000000E+00 0. -1.
<mgrwt>
<rscale>  0 0.23113467E+03</rscale>
<asrwt>0</asrwt>
<pdfrwt beam="1">  1        2 0.13134918E+00 0.26112608E+03</pdfrwt>
<pdfrwt beam="2">  1       -2 0.90415455E-02 0.26112608E+03</pdfrwt>
<totfact> 0.25342953E+03</totfact>
</mgrwt>
</event>
<event>
 7    1  0.6008063E-006  0.2022474E+03  0.7546771E-02  0.1152107E+00
          2   -1    0    0  501    0  0.00000000000E+00  0.00000000000E+00  0.35476364169E+03  0.35476364169E+03  0.00000000000E+00 0.  1.
         -2   -1    0    0    0  501 -0.00000000000E+00 -0.00000000000E+00 -0.12132140092E+03  0.12132140092E+03  0.00000000000E+00 0. -1.
         23    2    1    2    0    0  0.60153145253E+01 -0.15887949514E+03  0.21027291297E+03  0.29175107905E+03  0.12500046485E+03 0.  0.
          5    1    3    3  502    0 -0.50076818927E+02 -0.25411484491E+02  0.46060492479E+02  0.72781112284E+02  0.47000000000E+01 0. -1.
         -5    1    3    3    0  502  0.56092133452E+02 -0.13346801065E+03  0.16421242049E+03  0.21896996676E+03  0.47000000000E+01 0. -1.
        -11    1    1    2    0    0 -0.33712670593E+02  0.17410882139E+02 -0.20128064958E+01  0.37996504646E+02  0.00000000000E+00 0. -1.
         11    1    1    2    0    0  0.27697356067E+02  0.14146861300E+03  0.25182134295E+02  0.14633745892E+03  0.00000000000E+00 0.  1.
<mgrwt>
<rscale>  0 0.19721911E+03</rscale>
<asrwt>0</asrwt>
<pdfrwt beam="1">  1        2 0.54579021E-01 0.20224736E+03</pdfrwt>
<pdfrwt beam="2">  1       -2 0.18664831E-01 0.20224736E+03</pdfrwt>
<totfact> 0.21331376E+03</totfact>
</mgrwt>
</event>
<event>
 7    1  0.6008063E-006  0.1578878E+03  0.7546771E-02  0.1199771E+00
         -2   -1    0    0    0  501 -0.00000000000E+00  0.00000000000E+00  0.26300587233E+02  0.26300587233E+02  0.00000000000E+00 0.  1.
          2   -1    0    0  501    0  0.00000000000E+00 -0.00000000000E+00 -0.92246212758E+03  0.92246212758E+03  0.00000000000E+00 0. -1.
         23    2    1    2    0    0  0.96410624845E+02 -0.26690277363E+01 -0.66276002766E+03  0.68130713112E+03  0.12500568130E+03 0.  0.
          5    1    3    3  502    0  0.11502736183E+03  0.29687062586E+02 -0.53890509709E+03  0.55186357855E+03  0.47000000000E+01 0.  1.
         -5    1    3    3    0  502 -0.18616736982E+02 -0.32356090322E+02 -0.12385493057E+03  0.12944355257E+03  0.47000000000E+01 0.  1.
        -11    1    1    2    0    0 -0.10366907799E+03 -0.11339456213E+02 -0.15072012888E+03  0.18328234571E+03  0.00000000000E+00 0.  1.
         11    1    1    2    0    0  0.72584531467E+01  0.14008483950E+02 -0.82681383807E+02  0.84173237985E+02  0.00000000000E+00 0. -1.
<mgrwt>
<rscale>  0 0.15057288E+03</rscale>
<asrwt>0</asrwt>
<pdfrwt beam="2">  1        2 0.14191722E+00 0.15788778E+03</pdfrwt>
<pdfrwt beam="1">  1       -2 0.40462449E-02 0.15788778E+03</pdfrwt>
<totfact> 0.77327799E+03</totfact>
</mgrwt>
</event>
<event>
 7    1  0.6008063E-006  0.1440390E+03  0.7546771E-02  0.1218701E+00
          1   -1    0    0  501    0  0.00000000000E+00  0.00000000000E+00  0.53307783285E+03  0.53307783285E+03  0.00000000000E+00 0. -1.
         -1   -1    0    0    0  501 -0.00000000000E+00 -0.00000000000E+00 -0.32228264265E+02  0.32228264265E+02  0.00000000000E+00 0.  1.
         23    2    1    2    0    0  0.71599011265E+02  0.88455868821E+00  0.32285721326E+03  0.35353078963E+03  0.12498015124E+03 0.  0.
          5    1    3    3  502    0  0.76076328171E+02 -0.46972388507E+02  0.25485062420E+03  0.27012023924E+03  0.47000000000E+01 0.  1.
         -5    1    3    3    0  502 -0.44773169051E+01  0.47856947196E+02  0.68006589063E+02  0.83410550397E+02  0.47000000000E+01 0.  1.
        -11    1    1    2    0    0 -0.45256267562E+02 -0.22102176704E+02  0.27209426543E+02  0.57244989838E+02  0.00000000000E+00 0.  1.
         11    1    1    2    0    0 -0.26342743703E+02  0.21217618016E+02  0.15078292878E+03  0.15453031765E+03  0.00000000000E+00 0. -1.
<mgrwt>
<rscale>  0 0.13608117E+03</rscale>
<asrwt>0</asrwt>
<pdfrwt beam="1">  1        1 0.82011968E-01 0.14403902E+03</pdfrwt>
<pdfrwt beam="2">  1       -1 0.49581949E-02 0.14403902E+03</pdfrwt>
<totfact> 0.71036465E+03</totfact>
</mgrwt>
</event>
<event>
 7    1  0.6008063E-006  0.1669488E+03  0.7546771E-02  0.1187680E+00
          2   -1    0    0  501    0  0.00000000000E+00  0.00000000000E+00  0.43462359895E+03  0.43462359895E+03  0.00000000000E+00 0. -1.
         -2   -1    0    0    0  501 -0.00000000000E+00 -0.00000000000E+00 -0.66365771032E+02  0.66365771032E+02  0.00000000000E+00 0.  1.
         23    2    1    2    0    0 -0.10016420389E+03 -0.47050211804E+02  0.29599325512E+03  0.33982923488E+03  0.12500124652E+03 0.  0.
          5    1    3    3  502    0 -0.99046928803E+02  0.16629968557E+02  0.15119889992E+03  0.18157656043E+03  0.47000000000E+01 0. -1.
         -5    1    3    3    0  502 -0.11172750873E+01 -0.63680180361E+02  0.14479435520E+03  0.15825267445E+03  0.47000000000E+01 0. -1.
        -11    1    1    2    0    0  0.41252127459E+02  0.58287996174E+02  0.58112216950E+01  0.71644949685E+02  0.00000000000E+00 0.  1.
         11    1    1    2    0    0  0.58912076431E+02 -0.11237784369E+02  0.66453351100E+02  0.89515185412E+02  0.00000000000E+00 0. -1.
<mgrwt>
<rscale>  0 0.16090363E+03</rscale>
<asrwt>0</asrwt>
<pdfrwt beam="1">  1        2 0.66865167E-01 0.16694880E+03</pdfrwt>
<pdfrwt beam="2">  1       -2 0.10210119E-01 0.16694880E+03</pdfrwt>
<totfact> 0.45543516E+03</totfact>
</mgrwt>
</event>
<event>
 7    1  0.6008063E-006  0.2375293E+03  0.7546771E-02  0.1124392E+00
          2   -1    0    0  501    0  0.00000000000E+00  0.00000000000E+00  0.63289523434E+03  0.63289523434E+03  0.00000000000E+00 0. -1.
         -2   -1    0    0    0  501 -0.00000000000E+00 -0.00000000000E+00 -0.96286866512E+02  0.96286866512E+02  0.00000000000E+00 0.  1.
         23    2    1    2    0    0 -0.16579146002E+03 -0.11536287336E+03  0.41229705969E+03  0.47582456208E+03  0.12499899075E+03 0.  0.
          5    1    3    3  502    0 -0.10068456153E+03 -0.73778258379E+02  0.36341745718E+03  0.38428498607E+03  0.47000000000E+01 0. -1.
         -5    1    3    3    0  502 -0.65106898493E+02 -0.41584614976E+02  0.48879602510E+02  0.91539576007E+02  0.47000000000E+01 0. -1.
        -11    1    1    2    0    0  0.98742303383E+02  0.10095512661E+03  0.44352706222E+02  0.14801737268E+03  0.00000000000E+00 0.  1.
         11    1    1    2    0    0  0.67049156638E+02  0.14407746750E+02  0.79958601920E+02  0.10534016610E+03  0.00000000000E+00 0. -1.
<mgrwt>
<rscale>  0 0.23322220E+03</rscale>
<asrwt>0</asrwt>
<pdfrwt beam="1">  1        2 0.97368495E-01 0.23752926E+03</pdfrwt>
<pdfrwt beam="2">  1       -2 0.14813365E-01 0.23752926E+03</pdfrwt>
<totfact> 0.16523751E+03</totfact>
</mgrwt>
</event>
<event>
 7    1  0.6008063E-006  0.1514681E+03  0.7546771E-02  0.1207351E+00
          2   -1    0    0  501    0  0.00000000000E+00  0.00000000000E+00  0.54257077702E+03  0.54257077702E+03  0.00000000000E+00 0. -1.
         -2   -1    0    0    0  501 -0.00000000000E+00 -0.00000000000E+00 -0.35969779768E+02  0.35969779768E+02  0.00000000000E+00 0.  1.
         23    2    1    2    0    0  0.78024706629E+02 -0.35038451953E+02  0.23934555984E+03  0.28324703232E+03  0.12500814510E+03 0.  0.
          5    1    3    3  502    0  0.33158126696E+02 -0.70130381367E+02  0.70276497628E+02  0.10477885223E+03  0.47000000000E+01 0. -1.
         -5    1    3    3    0  502  0.44866579933E+02  0.35091929414E+02  0.16906906221E+03  0.17846818008E+03  0.47000000000E+01 0. -1.
        -11    1    1    2    0    0 -0.12166931400E+02 -0.42320572485E+00 -0.48424702449E+01  0.13102016671E+02  0.00000000000E+00 0.  1.
         11    1    1    2    0    0 -0.65857775230E+02  0.35461657678E+02  0.27209790766E+03  0.28219150780E+03  0.00000000000E+00 0. -1.
<mgrwt>
<rscale>  0 0.14453714E+03</rscale>
<asrwt>0</asrwt>
<pdfrwt beam="1">  1        2 0.83472422E-01 0.15146810E+03</pdfrwt>
<pdfrwt beam="2">  1       -2 0.55338126E-02 0.15146810E+03</pdfrwt>
<totfact> 0.91427692E+03</totfact>
</mgrwt>
</event>
<event>
 7    1  0.6008063E-006  0.3000843E+03  0.7546771E-02  0.1086594E+00
         -1   -1    0    0    0  501 -0.00000000000E+00  0.00000000000E+00  0.70840501301E+02  0.70840501301E+02  0.00000000000E+00 0.  1.
          1   -1    0    0  501    0  0.00000000000E+00 -0.00000000000E+00 -0.12480954995E+04  0.12480954995E+04  0.00000000000E+00 0. -1.
         23    2    1    2    0    0  0.27252889346E+03 -0.12425067865E+02 -0.68862494498E+03  0.75116904329E+03  0.12499694661E+03 0.  0.
          5    1    3    3  502    0  0.11992208657E+03  0.38590459158E+02 -0.41477438904E+03  0.43350941649E+03  0.47000000000E+01 0. -1.
         -5    1    3    3    0  502  0.15260680689E+03 -0.51015527023E+02 -0.27385055595E+03  0.31765962680E+03  0.47000000000E+01 0. -1.
        -11    1    1    2    0    0 -0.10956597453E+03 -0.38181915806E+02 -0.23491258300E+03  0.26200473874E+03  0.00000000000E+00 0.  1.
         11    1    1    2    0    0 -0.16296291892E+03  0.50606983671E+02 -0.25371747026E+03  0.30576221882E+03  0.00000000000E+00 0. -1.
<mgrwt>
<rscale>  0 0.29730916E+03</rscale>
<asrwt>0</asrwt>
<pdfrwt beam="2">  1        1 0.19201469E+00 0.30008435E+03</pdfrwt>
<pdfrwt beam="1">  1       -1 0.10898539E-01 0.30008435E+03</pdfrwt>
<totfact> 0.56489242E+02</totfact>
</mgrwt>
</event>
<event>
 6    1  0.6008063E-006  0.1390080E+03  0.7546771E-02  0.1234582E+00
         -1   -1    0    0    0  501 -0.00000000000E+00  0.00000000000E+00  0.20540734818E+02  0.20540734818E+02  0.00000000000E+00 0.  1.
          1   -1    0    0  501    0  0.00000000000E+00 -0.00000000000E+00 -0.12400731552E+04  0.12400731552E+04  0.00000000000E+00 0. -1.
          5    1    1    2  502    0 -0.64660905188E+02 -0.23745464655E+02 -0.67108167210E+03  0.67462402890E+03  0.47000000000E+01 0. -1.
         -5    1    1    2    0  502  0.64686416926E+02  0.17499454103E+02 -0.43448577124E+03  0.43964819895E+03  0.47000000000E+01 0.  1.
        -11    1    1    2    0    0 -0.41731483118E+02  0.53314482137E+01 -0.27279706109E+02  0.50141034978E+02  0.00000000000E+00 0. -1.
         11    1    1    2    0    0  0.41705971380E+02  0.91456233892E+00 -0.86685270898E+02  0.96200627148E+02  0.00000000000E+00 0.  1.
<mgrwt>
<rscale>  0 0.12531255E+03</rscale>
<asrwt>0</asrwt>
<pdfrwt beam="2">  1        1 0.19078050E+00 0.13900801E+03</pdfrwt>
<pdfrwt beam="1">  1       -1 0.31601128E-02 0.13900801E+03</pdfrwt>
<totfact> 0.36958712E+03</totfact>
</mgrwt>
</event>
<event>
 7    1  0.6008063E-006  0.1304926E+03  0.7546771E-02  0.1245455E+00
          2   -1    0    0  501    0  0.00000000000E+00  0.00000000000E+00  0.21543244115E+03  0.21543244115E+03  0.00000000000E+00 0. -1.
         -2   -1    0    0    0  501 -0.00000000000E+00 -0.00000000000E+00 -0.19313021296E+03  0.19313021296E+03  0.00000000000E+00 0.  1.
         23    2    1    2    0    0 -0.23581068765E+02  0.12504073984E+02  0.18306628256E+03  0.22481457199E+03  0.12773374377E+03 0.  0.
          5    1    3    3  502    0 -0.58545825962E+02  0.45133962724E+02  0.14741465469E+03  0.16497835841E+03  0.47000000000E+01 0. -1.
         -5    1    3    3    0  502  0.34964757197E+02 -0.32629888740E+02  0.35651627875E+02  0.59836213576E+02  0.47000000000E+01 0.  1.
        -11    1    1    2    0    0  0.51899976822E+02  0.82529807831E+01 -0.80435713437E+02  0.96081336804E+02  0.00000000000E+00 0.  1.
         11    1    1    2    0    0 -0.28318908057E+02 -0.20757054767E+02 -0.80328340938E+02  0.87666745314E+02  0.00000000000E+00 0. -1.
<mgrwt>
<rscale>  0 0.11858188E+03</rscale>
<asrwt>0</asrwt>
<pdfrwt beam="1">  1        2 0.33143452E-01 0.13049264E+03</pdfrwt>
<pdfrwt beam="2">  1       -2 0.29712340E-01 0.13049264E+03</pdfrwt>
<totfact> 0.15975483E+03</totfact>
</mgrwt>
</event>
<event>
 7    1  0.6008063E-006  0.1257926E+03  0.7546771E-02  0.1248504E+00
         -2   -1    0    0    0  501 -0.00000000000E+00  0.00000000000E+00  0.79250997651E+02  0.79250997651E+02  0.00000000000E+00 0.  1.
          2   -1    0    0  501    0  0.00000000000E+00 -0.00000000000E+00 -0.15697609793E+03  0.15697609793E+03  0.00000000000E+00 0. -1.
         23    2    1    2    0    0 -0.16609882646E+01 -0.14008928200E+02 -0.66000748759E+02  0.14205589994E+03  0.12499908367E+03 0.  0.
          5    1    3    3  502    0 -0.15107864222E+02  0.46819307781E+02  0.23236514440E+01  0.49475089677E+02  0.47000000000E+01 0. -1.
         -5    1    3    3    0  502  0.13446875958E+02 -0.60828235982E+02 -0.68324400203E+02  0.92580810262E+02  0.47000000000E+01 0. -1.
        -11    1    1    2    0    0 -0.36100877469E+02 -0.37156469258E+01  0.20298357295E+02  0.41582480625E+02  0.00000000000E+00 0.  1.
         11    1    1    2    0    0  0.37761865734E+02  0.17724575126E+02 -0.32022708810E+02  0.52588715012E+02  0.00000000000E+00 0. -1.
<mgrwt>
<rscale>  0 0.11678117E+03</rscale>
<asrwt>0</asrwt>
<pdfrwt beam="2">  1        2 0.24150169E-01 0.12579261E+03</pdfrwt>
<pdfrwt beam="1">  1       -2 0.12192461E-01 0.12579261E+03</pdfrwt>
<totfact> 0.10082140E+04</totfact>
</mgrwt>
</event>
<event>
 7    1  0.6008063E-006  0.1271567E+03  0.7546771E-02  0.1246449E+00
          2   -1    0    0  501    0  0.00000000000E+00  0.00000000000E+00  0.60514312578E+03  0.60514312578E+03  0.00000000000E+00 0. -1.
         -2   -1    0    0    0  501 -0.00000000000E+00 -0.00000000000E+00 -0.23416942215E+02  0.23416942215E+02  0.00000000000E+00 0.  1.
         23    2    1    2    0    0 -0.12982290783E+02  0.19367862401E+02  0.44260153292E+03  0.46050508902E+03  0.12500066442E+03 0.  0.
          5    1    3    3  502    0 -0.28224179845E+02 -0.39605071046E+02  0.87772570359E+02  0.10045536366E+03  0.47000000000E+01 0.  1.
         -5    1    3    3    0  502  0.15241889062E+02  0.58972933447E+02  0.35482896256E+03  0.36004972537E+03  0.47000000000E+01 0.  1.
        -11    1    1    2    0    0 -0.45238232163E+01 -0.36687142533E+02  0.13857787208E+03  0.14342328275E+03  0.00000000000E+00 0. -1.
         11    1    1    2    0    0  0.17506113999E+02  0.17319280132E+02  0.54677855517E+00  0.24631696216E+02  0.00000000000E+00 0.  1.
<mgrwt>
<rscale>  0 0.11799065E+03</rscale>
<asrwt>0</asrwt>
<pdfrwt beam="1">  1        2 0.93098931E-01 0.12715668E+03</pdfrwt>
<pdfrwt beam="2">  1       -2 0.36026070E-02 0.12715668E+03</pdfrwt>
<totfact> 0.15166983E+04</totfact>
</mgrwt>
</event>
<event>
 7    1  0.6008063E-006  0.1351949E+03  0.7546771E-02  0.1232259E+00
          2   -1    0    0  501    0  0.00000000000E+00  0.00000000000E+00  0.36413359083E+03  0.36413359083E+03  0.00000000000E+00 0. -1.
         -2   -1    0    0    0  501 -0.00000000000E+00 -0.00000000000E+00 -0.40008796455E+02  0.40008796455E+02  0.00000000000E+00 0.  1.
         23    2    1    2    0    0  0.50247530872E+02  0.11355311097E+02  0.15982492285E+03  0.20933627414E+03  0.12499564896E+03 0.  0.
          5    1    3    3  502    0 -0.29354944857E+02  0.35182305956E+02  0.88333127954E+02  0.99620976376E+02  0.47000000000E+01 0.  1.
         -5    1    3    3    0  502  0.79602475728E+02 -0.23826994859E+02  0.71491794899E+02  0.10971529777E+03  0.47000000000E+01 0.  1.
        -11    1    1    2    0    0  0.12283448335E+02 -0.35531046023E+02  0.61278743845E+02  0.71891743488E+02  0.00000000000E+00 0.  1.
         11    1    1    2    0    0 -0.62530979207E+02  0.24175734926E+02  0.10302112768E+03  0.12291436966E+03  0.00000000000E+00 0. -1.
<mgrwt>
<rscale>  0 0.12681532E+03</rscale>
<asrwt>0</asrwt>
<pdfrwt beam="1">  1        2 0.56020550E-01 0.13519493E+03</pdfrwt>
<pdfrwt beam="2">  1       -2 0.61551997E-02 0.13519493E+03</pdfrwt>
<totfact> 0.11898826E+04</totfact>
</mgrwt>
</event>
<event>
 7    1  0.6008063E-006  0.1485070E+03  0.7546771E-02  0.1211670E+00
          2   -1    0    0  501    0  0.00000000000E+00  0.00000000000E+00  0.24380118895E+03  0.24380118895E+03  0.00000000000E+00 0. -1.
         -2   -1    0    0    0  501 -0.00000000000E+00 -0.00000000000E+00 -0.19358204467E+03  0.19358204467E+03  0.00000000000E+00 0.  1.
         23    2    1    2    0    0  0.35523889242E+02  0.71885149315E+02  0.19708402940E+03  0.24677204874E+03  0.12499963198E+03 0.  0.
          5    1    3    3  502    0  0.14639599633E+02  0.36910185425E+02  0.20159190654E+03  0.20551901724E+03  0.47000000000E+01 0. -1.
         -5    1    3    3    0  502  0.20884289609E+02  0.34974963891E+02 -0.45078771386E+01  0.41253031500E+02  0.47000000000E+01 0. -1.
        -11    1    1    2    0    0 -0.16525595055E+02  0.79562875886E+01  0.40873103610E+01  0.18791059313E+02  0.00000000000E+00 0. -1.
         11    1    1    2    0    0 -0.18998294187E+02 -0.79841436904E+02 -0.15095219548E+03  0.17182012556E+03  0.00000000000E+00 0.  1.
<mgrwt>
<rscale>  0 0.14124017E+03</rscale>
<asrwt>0</asrwt>
<pdfrwt beam="1">  1        2 0.37507875E-01 0.14850700E+03</pdfrwt>
<pdfrwt beam="2">  1       -2 0.29781853E-01 0.14850700E+03</pdfrwt>
<totfact> 0.13990713E+03</totfact>
</mgrwt>
</event>
<event>
 7    1  0.6008063E-006  0.1314195E+03  0.7546771E-02  0.1236583E+00
          1   -1    0    0  501    0  0.00000000000E+00  0.00000000000E+00  0.10867418848E+03  0.10867418848E+03  0.00000000000E+00 0. -1.
         -1   -1    0    0    0  501 -0.00000000000E+00 -0.00000000000E+00 -0.35449571772E+03  0.35449571772E+03  0.00000000000E+00 0.  1.
         23    2    1    2    0    0 -0.41451584115E+02  0.33111470777E+02  0.56736613876E+02  0.14314375804E+03  0.12023513957E+03 0.  0.
          5    1    3    3  502    0 -0.75460974073E+02  0.84869325132E+01  0.65030283867E+02  0.10008703438E+03  0.47000000000E+01 0. -1.
         -5    1    3    3    0  502  0.34009389958E+02  0.24624538264E+02 -0.82936699908E+01  0.43056723656E+02  0.47000000000E+01 0.  1.
        -11    1    1    2    0    0  0.23933014869E+02  0.30163011286E+02 -0.11951465351E+03  0.12556412248E+03  0.00000000000E+00 0. -1.
         11    1    1    2    0    0  0.17518569246E+02 -0.63274482063E+02 -0.18304348960E+03  0.19446202569E+03  0.00000000000E+00 0.  1.
<mgrwt>
<rscale>  0 0.12403667E+03</rscale>
<asrwt>0</asrwt>
<pdfrwt beam="1">  1        1 0.16719106E-01 0.13141953E+03</pdfrwt>
<pdfrwt beam="2">  1       -1 0.54537802E-01 0.13141953E+03</pdfrwt>
<totfact> 0.11097899E+03</totfact>
</mgrwt>
</event>
<event>
 6    1  0.6008063E-006  0.1681420E+03  0.7546771E-02  0.1188724E+00
          1   -1    0    0  501    0  0.00000000000E+00  0.00000000000E+00  0.16247200373E+04  0.16247200373E+04  0.00000000000E+00 0. -1.
         -1   -1    0    0    0  501 -0.00000000000E+00 -0.00000000000E+00 -0.14874540697E+02  0.14874540697E+02  0.00000000000E+00 0.  1.
          5    1    1    2  502    0  0.20580898564E+02 -0.34984126152E+02  0.53775126800E+03  0.53930138021E+03  0.47000000000E+01 0. -1.
         -5    1    1    2    0  502 -0.10718912818E+03 -0.22525597999E+02  0.49011845115E+03  0.50223012447E+03  0.47000000000E+01 0.  1.
        -11    1    1    2    0    0  0.98057207688E+02  0.69593309996E+02  0.48597101866E+03  0.50062588402E+03  0.00000000000E+00 0.  1.
         11    1    1    2    0    0 -0.11448978069E+02 -0.12083585845E+02  0.96004758827E+02  0.97437189323E+02  0.00000000000E+00 0. -1.
<mgrwt>
<rscale>  0 0.15997587E+03</rscale>
<asrwt>0</asrwt>
<pdfrwt beam="1">  1        1 0.24995679E+00 0.16814195E+03</pdfrwt>
<pdfrwt beam="2">  1       -1 0.22883922E-02 0.16814195E+03</pdfrwt>
<totfact> 0.33137860E+03</totfact>
</mgrwt>
</event>
<event>
 7    1  0.6008063E-006  0.2014913E+03  0.7546771E-02  0.1152843E+00
         -1   -1    0    0    0  501 -0.00000000000E+00  0.00000000000E+00  0.56241248429E+03  0.56241248429E+03  0.00000000000E+00 0.  1.
          1   -1    0    0  501    0  0.00000000000E+00 -0.00000000000E+00 -0.65562410125E+02  0.65562410125E+02  0.00000000000E+00 0. -1.
         23    2    1    2    0    0  0.45385497057E+02 -0.15136619106E+03  0.28141043552E+03  0.34610778225E+03  0.12500878599E+03 0.  0.
          5    1    3    3  502    0  0.29976815725E+02  0.47655610810E+01  0.95078282492E+01  0.32152898026E+02  0.47000000000E+01 0. -1.
         -5    1    3    3    0  502  0.15408681332E+02 -0.15613175214E+03  0.27190260728E+03  0.31395488423E+03  0.47000000000E+01 0. -1.
        -11    1    1    2    0    0 -0.66853771330E+01  0.10303783435E+03  0.18726297181E+03  0.21384319065E+03  0.00000000000E+00 0.  1.
         11    1    1    2    0    0 -0.38700119924E+02  0.48328356705E+02  0.28176666823E+02  0.68023921507E+02  0.00000000000E+00 0. -1.
<mgrwt>
<rscale>  0 0.19636488E+03</rscale>
<asrwt>0</asrwt>
<pdfrwt beam="2">  1        1 0.10086525E-01 0.20149135E+03</pdfrwt>
<pdfrwt beam="1">  1       -1 0.86524994E-01 0.20149135E+03</pdfrwt>
<totfact> 0.87287847E+02</totfact>
</mgrwt>
</event>
<event>
 7    1  0.6008063E-006  0.1312075E+03  0.7546771E-02  0.1238348E+00
         -1   -1    0    0    0  501 -0.00000000000E+00  0.00000000000E+00  0.42382006845E+02  0.42382006845E+02  0.00000000000E+00 0.  1.
          1   -1    0    0  501    0  0.00000000000E+00 -0.00000000000E+00 -0.38838009796E+03  0.38838009796E+03  0.00000000000E+00 0. -1.
         23    2    1    2    0    0 -0.38016431460E+02 -0.11881779323E+02 -0.28224704020E+03  0.31125358254E+03  0.12501589978E+03 0.  0.
          5    1    3    3  502    0 -0.62608638194E+02  0.29883572764E+02 -0.22795023641E+03  0.23831967980E+03  0.47000000000E+01 0.  1.
         -5    1    3    3    0  502  0.24592206735E+02 -0.41765352087E+02 -0.54296803791E+02  0.72933902740E+02  0.47000000000E+01 0.  1.
        -11    1    1    2    0    0  0.21624272015E+02  0.24593683788E+02 -0.84221992098E+02  0.90364829306E+02  0.00000000000E+00 0. -1.
         11    1    1    2    0    0  0.16392159444E+02 -0.12711904465E+02  0.20470941187E+02  0.29143692962E+02  0.00000000000E+00 0.  1.
<mgrwt>
<rscale>  0 0.12292498E+03</rscale>
<asrwt>0</asrwt>
<pdfrwt beam="2">  1        1 0.59750782E-01 0.13120747E+03</pdfrwt>
<pdfrwt beam="1">  1       -1 0.65203090E-02 0.13120747E+03</pdfrwt>
<totfact> 0.70616941E+03</totfact>
</mgrwt>
</event>
<event>
 7    1  0.6008063E-006  0.1501317E+03  0.7546771E-02  0.1209473E+00
          1   -1    0    0  501    0  0.00000000000E+00  0.00000000000E+00  0.81003249551E+03  0.81003249551E+03  0.00000000000E+00 0. -1.
         -1   -1    0    0    0  501 -0.00000000000E+00 -0.00000000000E+00 -0.64740986373E+02  0.64740986373E+02  0.00000000000E+00 0.  1.
         23    2    1    2    0    0  0.47979289588E+02 -0.67912958735E+02  0.73602349678E+03  0.75117914871E+03  0.12500137378E+03 0.  0.
          5    1    3    3  502    0  0.78897526106E+02 -0.29669654381E+02  0.61007159658E+03  0.61588517677E+03  0.47000000000E+01 0. -1.
         -5    1    3    3    0  502 -0.30918236518E+02 -0.38243304354E+02  0.12595190021E+03  0.13529397194E+03  0.47000000000E+01 0. -1.
        -11    1    1    2    0    0 -0.51332077141E+01  0.74757179241E+02 -0.10944246389E+02  0.75728212698E+02  0.00000000000E+00 0. -1.
         11    1    1    2    0    0 -0.42846081873E+02 -0.68442205058E+01  0.20212258750E+02  0.47866120482E+02  0.00000000000E+00 0.  1.
<mgrwt>
<rscale>  0 0.14290513E+03</rscale>
<asrwt>0</asrwt>
<pdfrwt beam="1">  1        1 0.12462038E+00 0.15013169E+03</pdfrwt>
<pdfrwt beam="2">  1       -1 0.99601523E-02 0.15013169E+03</pdfrwt>
<totfact> 0.13819256E+03</totfact>
</mgrwt>
</event>
<event>
 7    1  0.6008063E-006  0.1291328E+03  0.7546771E-02  0.1240373E+00
         -1   -1    0    0    0  501 -0.00000000000E+00  0.00000000000E+00  0.28686582392E+03  0.28686582392E+03  0.00000000000E+00 0.  1.
          1   -1    0    0  501    0  0.00000000000E+00 -0.00000000000E+00 -0.47070318192E+02  0.47070318192E+02  0.00000000000E+00 0. -1.
         23    2    1    2    0    0 -0.28879556826E+02 -0.14621628116E+02  0.11504169212E+03  0.17294471347E+03  0.12500984834E+03 0.  0.
          5    1    3    3  502    0 -0.23787574550E+02 -0.68338941014E+02  0.82158081727E+02  0.10958147633E+03  0.47000000000E+01 0. -1.
         -5    1    3    3    0  502 -0.50919822753E+01  0.53717312898E+02  0.32883610397E+02  0.63363237143E+02  0.47000000000E+01 0. -1.
        -11    1    1    2    0    0  0.31098601191E+02 -0.36459560949E+02  0.78899416143E+02  0.92312190139E+02  0.00000000000E+00 0.  1.
         11    1    1    2    0    0 -0.22190443656E+01  0.51081189065E+02  0.45854397465E+02  0.68679238501E+02  0.00000000000E+00 0. -1.
<mgrwt>
<rscale>  0 0.12166615E+03</rscale>
<asrwt>0</asrwt>
<pdfrwt beam="2">  1        1 0.72415876E-02 0.12913281E+03</pdfrwt>
<pdfrwt beam="1">  1       -1 0.44133203E-01 0.12913281E+03</pdfrwt>
<totfact> 0.49009333E+03</totfact>
</mgrwt>
</event>
<event>
 7    1  0.6008063E-006  0.1491417E+03  0.7546771E-02  0.1210689E+00
          1   -1    0    0  501    0  0.00000000000E+00  0.00000000000E+00  0.56792272843E+03  0.56792272843E+03  0.00000000000E+00 0. -1.
         -1   -1    0    0    0  501 -0.00000000000E+00 -0.00000000000E+00 -0.33459500218E+02  0.33459500218E+02  0.00000000000E+00 0.  1.
         23    2    1    2    0    0  0.59013072963E+02  0.56009210264E+02  0.34386286833E+03  0.37481319312E+03  0.12499473232E+03 0.  0.
          5    1    3    3  502    0  0.91019247557E+02  0.16271448985E+02  0.17022725873E+03  0.19377479994E+03  0.47000000000E+01 0.  1.
         -5    1    3    3    0  502 -0.32006174594E+02  0.39737761279E+02  0.17363560961E+03  0.18103839319E+03  0.47000000000E+01 0.  1.
        -11    1    1    2    0    0 -0.14396688814E+02  0.20368707105E+02  0.86192173050E+02  0.89728699830E+02  0.00000000000E+00 0. -1.
         11    1    1    2    0    0 -0.44616384149E+02 -0.76377917369E+02  0.10440818683E+03  0.13684033569E+03  0.00000000000E+00 0.  1.
<mgrwt>
<rscale>  0 0.14198060E+03</rscale>
<asrwt>0</asrwt>
<pdfrwt beam="1">  1        1 0.87372720E-01 0.14914174E+03</pdfrwt>
<pdfrwt beam="2">  1       -1 0.51476159E-02 0.14914174E+03</pdfrwt>
<totfact> 0.61868991E+03</totfact>
</mgrwt>
</event>
<event>
 7    1  0.6008063E-006  0.1376374E+03  0.7546771E-02  0.1229176E+00
          2   -1    0    0  501    0  0.00000000000E+00  0.00000000000E+00  0.87546836469E+03  0.87546836469E+03  0.00000000000E+00 0. -1.
         -2   -1    0    0    0  501 -0.00000000000E+00 -0.00000000000E+00 -0.22086235408E+02  0.22086235408E+02  0.00000000000E+00 0.  1.
         23    2    1    2    0    0 -0.43498422093E+02 -0.37769656244E+02  0.68538861316E+03  0.69907196252E+03  0.12500159227E+03 0.  0.
          5    1    3    3  502    0 -0.36177194089E+02 -0.53791005564E+02  0.15126542246E+03  0.16463772255E+03  0.47000000000E+01 0.  1.
         -5    1    3    3    0  502 -0.73212280034E+01  0.16021349320E+02  0.53412319070E+03  0.53443423997E+03  0.47000000000E+01 0.  1.
        -11    1    1    2    0    0  0.13445698119E+02 -0.23206820569E+02  0.14229232771E+02  0.30361396280E+02  0.00000000000E+00 0.  1.
         11    1    1    2    0    0  0.30052723974E+02  0.60976476813E+02  0.15376428335E+03  0.16812124131E+03  0.00000000000E+00 0. -1.
<mgrwt>
<rscale>  0 0.12884756E+03</rscale>
<asrwt>0</asrwt>
<pdfrwt beam="1">  1        2 0.13468741E+00 0.13763741E+03</pdfrwt>
<pdfrwt beam="2">  1       -2 0.33978830E-02 0.13763741E+03</pdfrwt>
<totfact> 0.10653473E+04</totfact>
</mgrwt>
</event>
<event>
 7    1  0.6008063E-006  0.1361664E+03  0.7546771E-02  0.1230195E+00
          1   -1    0    0  501    0  0.00000000000E+00  0.00000000000E+00  0.75323959309E+02  0.75323959309E+02  0.00000000000E+00 0. -1.
         -1   -1    0    0    0  501 -0.00000000000E+00 -0.00000000000E+00 -0.21076726465E+03  0.21076726465E+03  0.00000000000E+00 0.  1.
         23    2    1    2    0    0 -0.49473082200E+02  0.21627410053E+02 -0.37802952940E+02  0.14131651918E+03  0.12500385840E+03 0.  0.
          5    1    3    3  502    0  0.24343059606E+00  0.30934820922E+02  0.38524093761E+02  0.49630819095E+02  0.47000000000E+01 0.  1.
         -5    1    3    3    0  502 -0.49716512796E+02 -0.93074108687E+01 -0.76327046701E+02  0.91685700084E+02  0.47000000000E+01 0.  1.
        -11    1    1    2    0    0  0.32485159566E+02  0.16914539246E+02 -0.95858893353E+02  0.10261732147E+03  0.00000000000E+00 0.  1.
         11    1    1    2    0    0  0.16987922635E+02 -0.38541949299E+02 -0.17814590432E+01  0.42157383310E+02  0.00000000000E+00 0. -1.
<mgrwt>
<rscale>  0 0.12817097E+03</rscale>
<asrwt>0</asrwt>
<pdfrwt beam="1">  1        1 0.11588302E-01 0.13616643E+03</pdfrwt>
<pdfrwt beam="2">  1       -1 0.32425733E-01 0.13616643E+03</pdfrwt>
<totfact> 0.44934725E+03</totfact>
</mgrwt>
</event>
<event>
 7    1  0.6008063E-006  0.1449824E+03  0.7546771E-02  0.1217104E+00
         -2   -1    0    0    0  501 -0.00000000000E+00  0.00000000000E+00  0.37164937162E+03  0.37164937162E+03  0.00000000000E+00 0.  1.
          2   -1    0    0  501    0  0.00000000000E+00 -0.00000000000E+00 -0.46682439693E+02  0.46682439693E+02  0.00000000000E+00 0. -1.
         23    2    1    2    0    0  0.73098237604E+02  0.72373238592E+01  0.15393717946E+03  0.21146285891E+03  0.12499661708E+03 0.  0.
          5    1    3    3  502    0  0.16054530337E+02  0.16670258866E+02 -0.18198992954E+02  0.29815077051E+02  0.47000000000E+01 0.  1.
         -5    1    3    3    0  502  0.57043707267E+02 -0.94329350066E+01  0.17213617242E+03  0.18164778186E+03  0.47000000000E+01 0.  1.
        -11    1    1    2    0    0 -0.31899035517E+02 -0.17645063838E+00  0.16066776032E+03  0.16380387299E+03  0.00000000000E+00 0.  1.
         11    1    1    2    0    0 -0.41199202087E+02 -0.70608732209E+01  0.10361992149E+02  0.43065079409E+02  0.00000000000E+00 0. -1.
<mgrwt>
<rscale>  0 0.13723127E+03</rscale>
<asrwt>0</asrwt>
<pdfrwt beam="2">  1        2 0.71819141E-02 0.14498236E+03</pdfrwt>
<pdfrwt beam="1">  1       -2 0.57176824E-01 0.14498236E+03</pdfrwt>
<totfact> 0.27501766E+03</totfact>
</mgrwt>
</event>
<event>
 7    1  0.6008063E-006  0.1929952E+03  0.7546771E-02  0.1160387E+00
          2   -1    0    0  501    0  0.00000000000E+00  0.00000000000E+00  0.11198364213E+03  0.11198364213E+03  0.00000000000E+00 0. -1.
         -2   -1    0    0    0  501 -0.00000000000E+00 -0.00000000000E+00 -0.29959343891E+03  0.29959343891E+03  0.00000000000E+00 0.  1.
         23    2    1    2    0    0  0.14432177537E+03 -0.28188984890E+02 -0.99349630728E+02  0.21706561140E+03  0.12499494713E+03 0.  0.
          5    1    3    3  502    0  0.81626625996E+02  0.16877261615E+02  0.89643293165E+01  0.83965452606E+02  0.47000000000E+01 0. -1.
         -5    1    3    3    0  502  0.62695149377E+02 -0.45066246505E+02 -0.10831396004E+03  0.13310015879E+03  0.47000000000E+01 0. -1.
        -11    1    1    2    0    0 -0.18912552058E+02  0.30308367511E+01 -0.60724051372E+02  0.63673236228E+02  0.00000000000E+00 0.  1.
         11    1    1    2    0    0 -0.12540922331E+03  0.25158148139E+02 -0.27536114681E+02  0.13083823341E+03  0.00000000000E+00 0. -1.
<mgrwt>
<rscale>  0 0.18788023E+03</rscale>
<asrwt>0</asrwt>
<pdfrwt beam="1">  1        2 0.17228253E-01 0.19299516E+03</pdfrwt>
<pdfrwt beam="2">  1       -2 0.46091298E-01 0.19299516E+03</pdfrwt>
<totfact> 0.14756156E+03</totfact>
</mgrwt>
</event>
<event>
 7    1  0.6008063E-006  0.1476935E+03  0.7546771E-02  0.1212882E+00
         -1   -1    0    0    0  501 -0.00000000000E+00  0.00000000000E+00  0.15107547980E+03  0.15107547980E+03  0.00000000000E+00 0.  1.
          1   -1    0    0  501    0  0.00000000000E+00 -0.00000000000E+00 -0.12504886648E+03  0.12504886648E+03  0.00000000000E+00 0. -1.
         23    2    1    2    0    0  0.55180190253E+00  0.78669588760E+02 -0.16144796105E+02  0.14857327507E+03  0.12499661973E+03 0.  0.
          5    1    3    3  502    0 -0.52020530608E+02  0.74309891161E+02 -0.26481706195E+02  0.94612188919E+02  0.47000000000E+01 0. -1.
         -5    1    3    3    0  502  0.52572332510E+02  0.43596975991E+01  0.10336910090E+02  0.53961086154E+02  0.47000000000E+01 0. -1.
        -11    1    1    2    0    0  0.13632517706E+02 -0.48332988360E+02  0.68510878773E+02  0.84945063500E+02  0.00000000000E+00 0.  1.
         11    1    1    2    0    0 -0.14184319608E+02 -0.30336600400E+02 -0.26339469358E+02  0.42606007706E+02  0.00000000000E+00 0. -1.
<mgrwt>
<rscale>  0 0.14033232E+03</rscale>
<asrwt>0</asrwt>
<pdfrwt beam="2">  1        1 0.19238287E-01 0.14769348E+03</pdfrwt>
<pdfrwt beam="1">  1       -1 0.23242381E-01 0.14769348E+03</pdfrwt>
<totfact> 0.40723159E+03</totfact>
</mgrwt>
</event>
<event>
 7    1  0.6008063E-006  0.2015516E+03  0.7546771E-02  0.1152572E+00
          1   -1    0    0  501    0  0.00000000000E+00  0.00000000000E+00  0.10234991623E+04  0.10234991623E+04  0.00000000000E+00 0. -1.
         -1   -1    0    0    0  501 -0.00000000000E+00 -0.00000000000E+00 -0.38140902108E+02  0.38140902108E+02  0.00000000000E+00 0.  1.
         23    2    1    2    0    0 -0.30864473946E+02  0.15506852768E+03  0.63886547786E+03  0.66990458990E+03  0.12499678693E+03 0.  0.
          5    1    3    3  502    0  0.42090596947E+02  0.78697106925E+02  0.21050189408E+03  0.22868753879E+03  0.47000000000E+01 0. -1.
         -5    1    3    3    0  502 -0.72955070893E+02  0.76371420751E+02  0.42836358378E+03  0.44121705110E+03  0.47000000000E+01 0. -1.
        -11    1    1    2    0    0 -0.47457578867E+01 -0.13363273015E+03  0.20915499106E+03  0.24824592458E+03  0.00000000000E+00 0.  1.
         11    1    1    2    0    0  0.35610231833E+02 -0.21435797522E+02  0.13733779130E+03  0.14348954995E+03  0.00000000000E+00 0. -1.
<mgrwt>
<rscale>  0 0.19667861E+03</rscale>
<asrwt>0</asrwt>
<pdfrwt beam="1">  1        1 0.15746139E+00 0.20155163E+03</pdfrwt>
<pdfrwt beam="2">  1       -1 0.58678319E-02 0.20155163E+03</pdfrwt>
<totfact> 0.21154595E+03</totfact>
</mgrwt>
</event>
<event>
 7    1  0.6008063E-006  0.1129257E+03  0.7546771E-02  0.1265090E+00
          1   -1    0    0  501    0  0.00000000000E+00  0.00000000000E+00  0.11969678233E+04  0.11969678233E+04  0.00000000000E+00 0. -1.
         -1   -1    0    0    0  501 -0.00000000000E+00 -0.00000000000E+00 -0.14525807657E+02  0.14525807657E+02  0.00000000000E+00 0.  1.
         23    2    1    2    0    0 -0.19531352276E+02 -0.16203265081E+02  0.10031590238E+04  0.10094950425E+04  0.11003724035E+03 0.  0.
          5    1    3    3  502    0 -0.17797265434E+02 -0.62618630012E+02  0.64861308777E+03  0.65188868920E+03  0.47000000000E+01 0. -1.
         -5    1    3    3    0  502 -0.17340868428E+01  0.46415364931E+02  0.35454593603E+03  0.35760635330E+03  0.47000000000E+01 0.  1.
        -11    1    1    2    0    0  0.49053251190E+02  0.79809668323E+01  0.55592997117E+02  0.74568750911E+02  0.00000000000E+00 0. -1.
         11    1    1    2    0    0 -0.29521898914E+02  0.82222982488E+01  0.12368999476E+03  0.12742983759E+03  0.00000000000E+00 0.  1.
<mgrwt>
<rscale>  0 0.10759469E+03</rscale>
<asrwt>0</asrwt>
<pdfrwt beam="1">  1        1 0.18414882E+00 0.11292570E+03</pdfrwt>
<pdfrwt beam="2">  1       -1 0.22347406E-02 0.11292570E+03</pdfrwt>
<totfact> 0.64817874E+03</totfact>
</mgrwt>
</event>
<event>
 7    1  0.6008063E-006  0.1585867E+03  0.7546771E-02  0.1197951E+00
         -1   -1    0    0    0  501 -0.00000000000E+00  0.00000000000E+00  0.57322627596E+03  0.57322627596E+03  0.00000000000E+00 0.  1.
          1   -1    0    0  501    0  0.00000000000E+00 -0.00000000000E+00 -0.42676500423E+02  0.42676500423E+02  0.00000000000E+00 0. -1.
         23    2    1    2    0    0 -0.81896315475E+02 -0.53073462539E+02  0.17633147978E+03  0.23715508080E+03  0.12500377063E+03 0.  0.
          5    1    3    3  502    0 -0.10143271365E+03 -0.40657319857E+02  0.18247763266E+03  0.21274818325E+03  0.47000000000E+01 0.  1.
         -5    1    3    3    0  502  0.19536398177E+02 -0.12416142682E+02 -0.61461528726E+01  0.24406897549E+02  0.47000000000E+01 0.  1.
        -11    1    1    2    0    0  0.33271451223E+02  0.53219897112E+02  0.29745662065E+03  0.30400623034E+03  0.00000000000E+00 0.  1.
         11    1    1    2    0    0  0.48624864252E+02 -0.14643457292E+00  0.56761675109E+02  0.74741465250E+02  0.00000000000E+00 0. -1.
<mgrwt>
<rscale>  0 0.15207100E+03</rscale>
<asrwt>0</asrwt>
<pdfrwt beam="2">  1        1 0.65656158E-02 0.15858670E+03</pdfrwt>
<pdfrwt beam="1">  1       -1 0.88188653E-01 0.15858670E+03</pdfrwt>
<totfact> 0.14878807E+03</totfact>
</mgrwt>
</event>
<event>
 7    1  0.6008063E-006  0.1562298E+03  0.7546771E-02  0.1199632E+00
          2   -1    0    0  501    0  0.00000000000E+00  0.00000000000E+00  0.20662302612E+03  0.20662302612E+03  0.00000000000E+00 0. -1.
         -2   -1    0    0    0  501 -0.00000000000E+00 -0.00000000000E+00 -0.10382389920E+03  0.10382389920E+03  0.00000000000E+00 0.  1.
         23    2    1    2    0    0  0.75917653487E+02 -0.54920762065E+02  0.70681157663E+02  0.17147470070E+03  0.12501186630E+03 0.  0.
          5    1    3    3  502    0 -0.22108442333E+02 -0.12992264094E+02  0.58519121907E+02  0.64063716544E+02  0.47000000000E+01 0.  1.
         -5    1    3    3    0  502  0.98026095820E+02 -0.41928497972E+02  0.12162035756E+02  0.10741098416E+03  0.47000000000E+01 0.  1.
        -11    1    1    2    0    0 -0.17703612460E+02  0.70912631819E+02  0.64556004718E+01  0.73373660281E+02  0.00000000000E+00 0. -1.
         11    1    1    2    0    0 -0.58214041027E+02 -0.15991869754E+02  0.25662368787E+02  0.65598564333E+02  0.00000000000E+00 0.  1.
<mgrwt>
<rscale>  0 0.15068673E+03</rscale>
<asrwt>0</asrwt>
<pdfrwt beam="1">  1        2 0.31788158E-01 0.15622979E+03</pdfrwt>
<pdfrwt beam="2">  1       -2 0.15972908E-01 0.15622979E+03</pdfrwt>
<totfact> 0.48900758E+03</totfact>
</mgrwt>
</event>
<event>
 7    1  0.6008063E-006  0.2083764E+03  0.7546771E-02  0.1147862E+00
          1   -1    0    0  501    0  0.00000000000E+00  0.00000000000E+00  0.18339011444E+04  0.18339011444E+04  0.00000000000E+00 0. -1.
         -1   -1    0    0    0  501 -0.00000000000E+00 -0.00000000000E+00 -0.26978220072E+02  0.26978220072E+02  0.00000000000E+00 0.  1.
         23    2    1    2    0    0 -0.10942460361E+03 -0.12580485330E+03  0.13799111313E+04  0.13955556088E+04  0.12498048563E+03 0.  0.
          5    1    3    3  502    0 -0.57937230942E+01 -0.99691315833E+02  0.74856227896E+03  0.75520825020E+03  0.47000000000E+01 0.  1.
         -5    1    3    3    0  502 -0.10363088052E+03 -0.26113537464E+02  0.63134885239E+03  0.64034735858E+03  0.47000000000E+01 0.  1.
        -11    1    1    2    0    0  0.83435255257E+02  0.12582401479E+03  0.30194794867E+03  0.33758804514E+03  0.00000000000E+00 0.  1.
         11    1    1    2    0    0  0.25989348353E+02 -0.19161496858E-01  0.12506384427E+03  0.12773571050E+03  0.00000000000E+00 0. -1.
<mgrwt>
<rscale>  0 0.20224101E+03</rscale>
<asrwt>0</asrwt>
<pdfrwt beam="1">  1        1 0.28213854E+00 0.20837641E+03</pdfrwt>
<pdfrwt beam="2">  1       -1 0.41504968E-02 0.20837641E+03</pdfrwt>
<totfact> 0.10119763E+03</totfact>
</mgrwt>
</event>
<event>
 7    1  0.6008063E-006  0.1319928E+03  0.7546771E-02  0.1241411E+00
         -2   -1    0    0    0  501 -0.00000000000E+00  0.00000000000E+00  0.79009334613E+02  0.79009334613E+02  0.00000000000E+00 0.  1.
          2   -1    0    0  501    0  0.00000000000E+00 -0.00000000000E+00 -0.16405142124E+03  0.16405142124E+03  0.00000000000E+00 0. -1.
         23    2    1    2    0    0 -0.26474680745E+02  0.33162345130E+02 -0.67023543239E+02  0.14803461093E+03  0.12498576251E+03 0.  0.
          5    1    3    3  502    0  0.24662995757E+01  0.77176405735E+02 -0.27844159015E+02  0.82217196662E+02  0.47000000000E+01 0.  1.
         -5    1    3    3    0  502 -0.28940980321E+02 -0.44014060604E+02 -0.39179384225E+02  0.65817414269E+02  0.47000000000E+01 0.  1.
        -11    1    1    2    0    0 -0.19978008441E+02  0.48804516524E+01 -0.27395610578E+02  0.34255789416E+02  0.00000000000E+00 0. -1.
         11    1    1    2    0    0  0.46452689186E+02 -0.38042796783E+02  0.93770671873E+01  0.60770355509E+02  0.00000000000E+00 0.  1.
<mgrwt>
<rscale>  0 0.12102792E+03</rscale>
<asrwt>0</asrwt>
<pdfrwt beam="2">  1        2 0.25238680E-01 0.13199277E+03</pdfrwt>
<pdfrwt beam="1">  1       -2 0.12155282E-01 0.13199277E+03</pdfrwt>
<totfact> 0.96886368E+03</totfact>
</mgrwt>
</event>
<event>
 7    1  0.6008063E-006  0.1825963E+03  0.7546771E-02  0.1170853E+00
          2   -1    0    0  501    0  0.00000000000E+00  0.00000000000E+00  0.53729483171E+03  0.53729483171E+03  0.00000000000E+00 0. -1.
         -2   -1    0    0    0  501 -0.00000000000E+00 -0.00000000000E+00 -0.58007159039E+02  0.58007159039E+02  0.00000000000E+00 0.  1.
         23    2    1    2    0    0 -0.29473837297E+02 -0.12979911793E+03  0.32314721690E+03  0.37116780512E+03  0.12499959066E+03 0.  0.
          5    1    3    3  502    0  0.46067905767E+00 -0.41090598442E+01  0.17263660966E+03  0.17275006684E+03  0.47000000000E+01 0.  1.
         -5    1    3    3    0  502 -0.29934516355E+02 -0.12569005809E+03  0.15051060724E+03  0.19841773828E+03  0.47000000000E+01 0.  1.
        -11    1    1    2    0    0 -0.10976080240E+02  0.26364541581E+02  0.91004403473E+02  0.95380107159E+02  0.00000000000E+00 0. -1.
         11    1    1    2    0    0  0.40449917538E+02  0.10343457635E+03  0.65136052299E+02  0.12875407847E+03  0.00000000000E+00 0.  1.
<mgrwt>
<rscale>  0 0.17688451E+03</rscale>
<asrwt>0</asrwt>
<pdfrwt beam="1">  1        2 0.82660740E-01 0.18259632E+03</pdfrwt>
<pdfrwt beam="2">  1       -2 0.89241787E-02 0.18259632E+03</pdfrwt>
<totfact> 0.44731159E+03</totfact>
</mgrwt>
</event>
<event>
 7    1  0.6008063E-006  0.1404069E+03  0.7546771E-02  0.1224220E+00
          2   -1    0    0  501    0  0.00000000000E+00  0.00000000000E+00  0.80609859989E+03  0.80609859989E+03  0.00000000000E+00 0. -1.
         -2   -1    0    0    0  501 -0.00000000000E+00 -0.00000000000E+00 -0.20603931769E+02  0.20603931769E+02  0.00000000000E+00 0.  1.
         23    2    1    2    0    0 -0.31903125034E+02  0.55436397604E+02  0.53217862233E+03  0.55038910822E+03  0.12499232304E+03 0.  0.
          5    1    3    3  502    0  0.39690023258E+02  0.10510975731E+01  0.81170147642E+02  0.90482515551E+02  0.47000000000E+01 0. -1.
         -5    1    3    3    0  502 -0.71593148292E+02  0.54385300030E+02  0.45100847469E+03  0.45990659267E+03  0.47000000000E+01 0. -1.
        -11    1    1    2    0    0 -0.20027697794E+02 -0.28516331359E+02  0.17571054364E+03  0.17913259050E+03  0.00000000000E+00 0. -1.
         11    1    1    2    0    0  0.51930822828E+02 -0.26920066245E+02  0.77605502154E+02  0.97180832939E+02  0.00000000000E+00 0.  1.
<mgrwt>
<rscale>  0 0.13220490E+03</rscale>
<asrwt>0</asrwt>
<pdfrwt beam="1">  1        2 0.12401515E+00 0.14040685E+03</pdfrwt>
<pdfrwt beam="2">  1       -2 0.31698363E-02 0.14040685E+03</pdfrwt>
<totfact> 0.13124131E+04</totfact>
</mgrwt>
</event>
<event>
 7    1  0.6008063E-006  0.1284370E+03  0.7546771E-02  0.1245277E+00
         -2   -1    0    0    0  501 -0.00000000000E+00  0.00000000000E+00  0.41706482731E+02  0.41706482731E+02  0.00000000000E+00 0. -1.
          2   -1    0    0  501    0  0.00000000000E+00 -0.00000000000E+00 -0.51416521421E+03  0.51416521421E+03  0.00000000000E+00 0.  1.
         23    2    1    2    0    0 -0.19600325761E+01 -0.29425468940E+02 -0.43739392298E+03  0.45586129233E+03  0.12500549601E+03 0.  0.
          5    1    3    3  502    0 -0.21166112145E+02  0.24556638411E+02 -0.34825037429E+03  0.34978771560E+03  0.47000000000E+01 0.  1.
         -5    1    3    3    0  502  0.19206079569E+02 -0.53982107352E+02 -0.89143548694E+02  0.10607357673E+03  0.47000000000E+01 0.  1.
        -11    1    1    2    0    0  0.20469435183E+02  0.43591065542E+02  0.10082083039E+02  0.49201902099E+02  0.00000000000E+00 0. -1.
         11    1    1    2    0    0 -0.18509402607E+02 -0.14165596601E+02 -0.45146891537E+02  0.50808502511E+02  0.00000000000E+00 0.  1.
<mgrwt>
<rscale>  0 0.11868843E+03</rscale>
<asrwt>0</asrwt>
<pdfrwt beam="2">  1        2 0.79102345E-01 0.12843704E+03</pdfrwt>
<pdfrwt beam="1">  1       -2 0.64163816E-02 0.12843704E+03</pdfrwt>
<totfact> 0.76740172E+03</totfact>
</mgrwt>
</event>
<event>
 7    1  0.6008063E-006  0.1190077E+03  0.7546771E-02  0.1252092E+00
         -2   -1    0    0    0  501 -0.00000000000E+00  0.00000000000E+00  0.55624464270E+02  0.55624464270E+02  0.00000000000E+00 0.  1.
          2   -1    0    0  501    0  0.00000000000E+00 -0.00000000000E+00 -0.25001026031E+03  0.25001026031E+03  0.00000000000E+00 0. -1.
         23    2    1    2    0    0 -0.27605515127E+02 -0.33158091654E+02 -0.15547310835E+03  0.19579256982E+03  0.11091131353E+03 0.  0.
          5    1    3    3  502    0  0.28161429512E+02  0.22676361309E+02 -0.72716142894E+02  0.81345011597E+02  0.47000000000E+01 0. -1.
         -5    1    3    3    0  502 -0.55766944639E+02 -0.55834452963E+02 -0.82756965454E+02  0.11444755822E+03  0.47000000000E+01 0.  1.
        -11    1    1    2    0    0  0.46344932974E+02 -0.16310921166E+02 -0.12407193697E+02  0.50673833653E+02  0.00000000000E+00 0. -1.
         11    1    1    2    0    0 -0.18739417847E+02  0.49469012820E+02 -0.26505493994E+02  0.59168321106E+02  0.00000000000E+00 0.  1.
<mgrwt>
<rscale>  0 0.11470798E+03</rscale>
<asrwt>0</asrwt>
<pdfrwt beam="2">  1        2 0.38463117E-01 0.11900774E+03</pdfrwt>
<pdfrwt beam="1">  1       -2 0.85576098E-02 0.11900774E+03</pdfrwt>
<totfact> 0.10586534E+04</totfact>
</mgrwt>
</event>
<event>
 7    1  0.6008063E-006  0.1494461E+03  0.7546771E-02  0.1210259E+00
         -2   -1    0    0    0  501 -0.00000000000E+00  0.00000000000E+00  0.41533147054E+02  0.41533147054E+02  0.00000000000E+00 0.  1.
          2   -1    0    0  501    0  0.00000000000E+00 -0.00000000000E+00 -0.50015469333E+03  0.50015469333E+03  0.00000000000E+00 0. -1.
         23    2    1    2    0    0  0.69940412866E+02  0.42648341278E+02 -0.33773061372E+03  0.36931845096E+03  0.12499443353E+03 0.  0.
          5    1    3    3  502    0  0.83414769794E+02  0.75928333344E+02 -0.24461835540E+03  0.26941300158E+03  0.47000000000E+01 0.  1.
         -5    1    3    3    0  502 -0.13474356928E+02 -0.33279992067E+02 -0.93112258318E+02  0.99905449380E+02  0.47000000000E+01 0.  1.
        -11    1    1    2    0    0  0.38626862890E+01 -0.43112817119E+02 -0.71437702495E+02  0.83528322640E+02  0.00000000000E+00 0. -1.
         11    1    1    2    0    0 -0.73803099155E+02  0.46447584129E+00 -0.49453230058E+02  0.88841066776E+02  0.00000000000E+00 0.  1.
<mgrwt>
<rscale>  0 0.14230606E+03</rscale>
<asrwt>0</asrwt>
<pdfrwt beam="2">  1        2 0.76946878E-01 0.14944615E+03</pdfrwt>
<pdfrwt beam="1">  1       -2 0.63897148E-02 0.14944615E+03</pdfrwt>
<totfact> 0.80364645E+03</totfact>
</mgrwt>
</event>
<event>
 7    1  0.6008063E-006  0.2694658E+03  0.7546771E-02  0.1103570E+00
          3   -1    0    0  501    0  0.00000000000E+00  0.00000000000E+00  0.36347651976E+03  0.36347651976E+03  0.00000000000E+00 0. -1.
         -3   -1    0    0    0  501 -0.00000000000E+00 -0.00000000000E+00 -0.21053884077E+03  0.21053884077E+03  0.00000000000E+00 0.  1.
         23    2    1    2    0    0  0.21550532193E+03 -0.10270908441E+03 -0.11562139380E+02  0.26971372708E+03  0.12498044530E+03 0.  0.
          5    1    3    3  502    0  0.24970828710E+02  0.27641783545E+02  0.64980553367E+01  0.38104136353E+02  0.47000000000E+01 0. -1.
         -5    1    3    3    0  502  0.19053449322E+03 -0.13035086795E+03 -0.18060194717E+02  0.23160959073E+03  0.47000000000E+01 0. -1.
        -11    1    1    2    0    0 -0.19285623911E+03  0.53680917767E+02  0.11404875879E+03  0.23039594024E+03  0.00000000000E+00 0.  1.
         11    1    1    2    0    0 -0.22649082817E+02  0.49028166642E+02  0.50451059579E+02  0.73905693213E+02  0.00000000000E+00 0. -1.
<mgrwt>
<rscale>  0 0.26603602E+03</rscale>
<asrwt>0</asrwt>
<pdfrwt beam="1">  1        3 0.55919465E-01 0.26946579E+03</pdfrwt>
<pdfrwt beam="2">  1       -3 0.32390591E-01 0.26946579E+03</pdfrwt>
<totfact> 0.74010924E+01</totfact>
</mgrwt>
</event>
<event>
 7    1  0.6008063E-006  0.1417272E+03  0.7546771E-02  0.1221831E+00
         -2   -1    0    0    0  501 -0.00000000000E+00  0.00000000000E+00  0.29506252963E+02  0.29506252963E+02  0.00000000000E+00 0.  1.
          2   -1    0    0  501    0  0.00000000000E+00 -0.00000000000E+00 -0.59863436654E+03  0.59863436654E+03  0.00000000000E+00 0. -1.
         23    2    1    2    0    0  0.49129394085E+02 -0.45291952614E+02 -0.40420614691E+03  0.42833304500E+03  0.12498611885E+03 0.  0.
          5    1    3    3  502    0  0.59114851077E+02  0.12004451561E+02 -0.88029837280E+02  0.10681767048E+03  0.47000000000E+01 0.  1.
         -5    1    3    3    0  502 -0.99854569919E+01 -0.57296404175E+02 -0.31617630963E+03  0.32151537452E+03  0.47000000000E+01 0.  1.
        -11    1    1    2    0    0 -0.46850363965E+02  0.66179951858E+02 -0.15816084565E+03  0.17773462164E+03  0.00000000000E+00 0. -1.
         11    1    1    2    0    0 -0.22790301203E+01 -0.20887999244E+02 -0.67611210155E+01  0.22072952863E+02  0.00000000000E+00 0.  1.
<mgrwt>
<rscale>  0 0.13386498E+03</rscale>
<asrwt>0</asrwt>
<pdfrwt beam="2">  1        2 0.92097588E-01 0.14172716E+03</pdfrwt>
<pdfrwt beam="1">  1       -2 0.45394239E-02 0.14172716E+03</pdfrwt>
<totfact> 0.10976282E+04</totfact>
</mgrwt>
</event>
<event>
 7    1  0.6008063E-006  0.1699713E+03  0.7546771E-02  0.1183486E+00
          1   -1    0    0  501    0  0.00000000000E+00  0.00000000000E+00  0.24640043850E+03  0.24640043850E+03  0.00000000000E+00 0. -1.
         -1   -1    0    0    0  501 -0.00000000000E+00 -0.00000000000E+00 -0.10465352579E+03  0.10465352579E+03  0.00000000000E+00 0.  1.
         23    2    1    2    0    0  0.11467662333E+03  0.10475635574E+02  0.91238846045E+02  0.19291132953E+03  0.12501914714E+03 0.  0.
          5    1    3    3  502    0  0.59061859801E+02  0.22308806642E+02 -0.21250403876E+02  0.66780654398E+02  0.47000000000E+01 0. -1.
         -5    1    3    3    0  502  0.55614763533E+02 -0.11833171068E+02  0.11248924992E+03  0.12613067513E+03  0.47000000000E+01 0. -1.
        -11    1    1    2    0    0 -0.53525297170E+02  0.29203633160E+02 -0.11967002683E+02  0.62137096650E+02  0.00000000000E+00 0.  1.
         11    1    1    2    0    0 -0.61151326164E+02 -0.39679268734E+02  0.62475069348E+02  0.96005538116E+02  0.00000000000E+00 0. -1.
<mgrwt>
<rscale>  0 0.16470365E+03</rscale>
<asrwt>0</asrwt>
<pdfrwt beam="1">  1        1 0.37907760E-01 0.16997133E+03</pdfrwt>
<pdfrwt beam="2">  1       -1 0.16100542E-01 0.16997133E+03</pdfrwt>
<totfact> 0.31530672E+03</totfact>
</mgrwt>
</event>
<event>
 7    1  0.6008063E-006  0.1472243E+03  0.7546771E-02  0.1212931E+00
         -1   -1    0    0    0  501 -0.00000000000E+00  0.00000000000E+00  0.30507165198E+03  0.30507165198E+03  0.00000000000E+00 0.  1.
          1   -1    0    0  501    0  0.00000000000E+00 -0.00000000000E+00 -0.13893004085E+03  0.13893004085E+03  0.00000000000E+00 0. -1.
         23    2    1    2    0    0 -0.71074171500E+02  0.31456352180E+02 -0.81445054802E+02  0.16825069746E+03  0.12503583605E+03 0.  0.
          5    1    3    3  502    0 -0.97279936060E+01 -0.43625176482E+02 -0.60680835104E+01  0.45350871217E+02  0.47000000000E+01 0.  1.
         -5    1    3    3    0  502 -0.61346177894E+02  0.75081528662E+02 -0.75376971292E+02  0.12289982624E+03  0.47000000000E+01 0.  1.
        -11    1    1    2    0    0  0.11344764223E+02 -0.51871315405E+02  0.15374212673E+03  0.16265293901E+03  0.00000000000E+00 0.  1.
         11    1    1    2    0    0  0.59729407277E+02  0.20414963225E+02  0.93844539201E+02  0.11309805637E+03  0.00000000000E+00 0. -1.
<mgrwt>
<rscale>  0 0.14029586E+03</rscale>
<asrwt>0</asrwt>
<pdfrwt beam="2">  1        1 0.21373853E-01 0.14722432E+03</pdfrwt>
<pdfrwt beam="1">  1       -1 0.46934100E-01 0.14722432E+03</pdfrwt>
<totfact> 0.10705722E+03</totfact>
</mgrwt>
</event>
<event>
 7    1  0.6008063E-006  0.2020994E+03  0.7546771E-02  0.1152169E+00
         -2   -1    0    0    0  501 -0.00000000000E+00  0.00000000000E+00  0.47445537538E+02  0.47445537538E+02  0.00000000000E+00 0.  1.
          2   -1    0    0  501    0  0.00000000000E+00 -0.00000000000E+00 -0.82086083386E+03  0.82086083386E+03  0.00000000000E+00 0. -1.
         23    2    1    2    0    0  0.23632796815E+02 -0.15704176641E+03 -0.49998130577E+03  0.53928237493E+03  0.12499419309E+03 0.  0.
          5    1    3    3  502    0 -0.24054665524E+02 -0.77918991251E+02 -0.10191239154E+03  0.13060712722E+03  0.47000000000E+01 0.  1.
         -5    1    3    3    0  502  0.47687462340E+02 -0.79122775160E+02 -0.39806891424E+03  0.40867524771E+03  0.47000000000E+01 0.  1.
        -11    1    1    2    0    0  0.27466273123E+02  0.20757952736E+02 -0.31396570552E+02  0.46594349480E+02  0.00000000000E+00 0.  1.
         11    1    1    2    0    0 -0.51099069938E+02  0.13628381367E+03 -0.24203742000E+03  0.28242964699E+03  0.00000000000E+00 0. -1.
<mgrwt>
<rscale>  0 0.19714657E+03</rscale>
<asrwt>0</asrwt>
<pdfrwt beam="2">  1        2 0.12628628E+00 0.20209942E+03</pdfrwt>
<pdfrwt beam="1">  1       -2 0.72993134E-02 0.20209942E+03</pdfrwt>
<totfact> 0.37079638E+03</totfact>
</mgrwt>
</event>
<event>
 7    1  0.6008063E-006  0.1518314E+03  0.7546771E-02  0.1206723E+00
         -1   -1    0    0    0  501 -0.00000000000E+00  0.00000000000E+00  0.17995251366E+03  0.17995251366E+03  0.00000000000E+00 0.  1.
          1   -1    0    0  501    0  0.00000000000E+00 -0.00000000000E+00 -0.11103440158E+03  0.11103440158E+03  0.00000000000E+00 0. -1.
         23    2    1    2    0    0 -0.39593402440E+02 -0.76552348191E+02  0.11777758250E+02  0.15228750030E+03  0.12499947051E+03 0.  0.
          5    1    3    3  502    0 -0.61045499011E+02 -0.73107882516E+01 -0.29912305521E+02  0.68533470625E+02  0.47000000000E+01 0. -1.
         -5    1    3    3    0  502  0.21452096572E+02 -0.69241559940E+02  0.41690063770E+02  0.83754029678E+02  0.47000000000E+01 0. -1.
        -11    1    1    2    0    0  0.29073882979E+02  0.21605010936E+02 -0.21550381331E+02  0.42148381992E+02  0.00000000000E+00 0. -1.
         11    1    1    2    0    0  0.10519519461E+02  0.54947337255E+02  0.78690735166E+02  0.96551032942E+02  0.00000000000E+00 0.  1.
<mgrwt>
<rscale>  0 0.14502497E+03</rscale>
<asrwt>0</asrwt>
<pdfrwt beam="2">  1        1 0.17082216E-01 0.15183138E+03</pdfrwt>
<pdfrwt beam="1">  1       -1 0.27685002E-01 0.15183138E+03</pdfrwt>
<totfact> 0.35595371E+03</totfact>
</mgrwt>
</event>
<event>
 7    1  0.6008063E-006  0.1557153E+03  0.7546771E-02  0.1203529E+00
          2   -1    0    0  501    0  0.00000000000E+00  0.00000000000E+00  0.29599437376E+03  0.29599437376E+03  0.00000000000E+00 0. -1.
         -2   -1    0    0    0  501 -0.00000000000E+00 -0.00000000000E+00 -0.71735763790E+02  0.71735763790E+02  0.00000000000E+00 0.  1.
         23    2    1    2    0    0 -0.46693543269E+02 -0.80261801358E+02  0.17134668600E+03  0.23153175258E+03  0.12500008763E+03 0.  0.
          5    1    3    3  502    0 -0.63759111062E+02 -0.17144612609E+02  0.24256411983E+02  0.70495570834E+02  0.47000000000E+01 0.  1.
         -5    1    3    3    0  502  0.17065567793E+02 -0.63117188749E+02  0.14709027402E+03  0.16103618174E+03  0.47000000000E+01 0.  1.
        -11    1    1    2    0    0  0.34646847376E+02  0.95345806621E+02  0.29084741173E+02  0.10553269182E+03  0.00000000000E+00 0.  1.
         11    1    1    2    0    0  0.12046695893E+02 -0.15084005263E+02  0.23827182798E+02  0.30665693158E+02  0.00000000000E+00 0. -1.
<mgrwt>
<rscale>  0 0.14753999E+03</rscale>
<asrwt>0</asrwt>
<pdfrwt beam="1">  1        2 0.45537595E-01 0.15571534E+03</pdfrwt>
<pdfrwt beam="2">  1       -2 0.11036272E-01 0.15571534E+03</pdfrwt>
<totfact> 0.60521321E+03</totfact>
</mgrwt>
</event>
<event>
 7    1  0.6008063E-006  0.1784730E+03  0.7546771E-02  0.1176802E+00
          1   -1    0    0  501    0  0.00000000000E+00  0.00000000000E+00  0.73379575375E+03  0.73379575375E+03  0.00000000000E+00 0. -1.
         -1   -1    0    0    0  501 -0.00000000000E+00 -0.00000000000E+00 -0.45181263782E+02  0.45181263782E+02  0.00000000000E+00 0.  1.
         23    2    1    2    0    0 -0.10644459710E+03 -0.69978220001E+02  0.53495331416E+03  0.56393940409E+03  0.12500079851E+03 0.  0.
          5    1    3    3  502    0 -0.31923873444E+02 -0.22333572019E+02  0.40365405015E+03  0.40555715299E+03  0.47000000000E+01 0.  1.
         -5    1    3    3    0  502 -0.74520723657E+02 -0.47644647982E+02  0.13129926401E+03  0.15838225111E+03  0.47000000000E+01 0.  1.
        -11    1    1    2    0    0  0.47334511696E+02 -0.12455148599E+02  0.47458463287E+02  0.68176186911E+02  0.00000000000E+00 0.  1.
         11    1    1    2    0    0  0.59110085406E+02  0.82433368600E+02  0.10620271251E+03  0.14686142652E+03  0.00000000000E+00 0. -1.
<mgrwt>
<rscale>  0 0.17100686E+03</rscale>
<asrwt>0</asrwt>
<pdfrwt beam="1">  1        1 0.11289165E+00 0.17847298E+03</pdfrwt>
<pdfrwt beam="2">  1       -1 0.69509642E-02 0.17847298E+03</pdfrwt>
<totfact> 0.27748688E+03</totfact>
</mgrwt>
</event>
<event>
 7    1  0.6008063E-006  0.1298528E+03  0.7546771E-02  0.1241394E+00
          2   -1    0    0  501    0  0.00000000000E+00  0.00000000000E+00  0.96031872838E+03  0.96031872838E+03  0.00000000000E+00 0. -1.
         -2   -1    0    0    0  501 -0.00000000000E+00 -0.00000000000E+00 -0.14146140434E+02  0.14146140434E+02  0.00000000000E+00 0.  1.
         23    2    1    2    0    0 -0.32396579353E+02 -0.13669641666E+02  0.63789612081E+03  0.65097865580E+03  0.12500140761E+03 0.  0.
          5    1    3    3  502    0  0.11219114467E+01 -0.62217721055E+02  0.21212261062E+03  0.22111172613E+03  0.47000000000E+01 0. -1.
         -5    1    3    3    0  502 -0.33518490800E+02  0.48548079389E+02  0.42577351019E+03  0.42986692967E+03  0.47000000000E+01 0. -1.
        -11    1    1    2    0    0  0.51362883160E+02 -0.22939341681E+02  0.16083990721E+03  0.17039317743E+03  0.00000000000E+00 0.  1.
         11    1    1    2    0    0 -0.18966303807E+02  0.36608983348E+02  0.14743655992E+03  0.15309303558E+03  0.00000000000E+00 0. -1.
<mgrwt>
<rscale>  0 0.12103834E+03</rscale>
<asrwt>0</asrwt>
<pdfrwt beam="1">  1        2 0.14774129E+00 0.12985280E+03</pdfrwt>
<pdfrwt beam="2">  1       -2 0.21763300E-02 0.12985280E+03</pdfrwt>
<totfact> 0.18041653E+04</totfact>
</mgrwt>
</event>
<event>
 7    1  0.6008063E-006  0.1570627E+03  0.7546771E-02  0.1200264E+00
         -2   -1    0    0    0  501 -0.00000000000E+00  0.00000000000E+00  0.28272021871E+02  0.28272021871E+02  0.00000000000E+00 0.  1.
          2   -1    0    0  501    0  0.00000000000E+00 -0.00000000000E+00 -0.74113595338E+03  0.74113595338E+03  0.00000000000E+00 0. -1.
         23    2    1    2    0    0  0.88377160614E+02  0.35091280860E+02 -0.42277444919E+03  0.45100657013E+03  0.12500708341E+03 0.  0.
          5    1    3    3  502    0  0.17494181734E+01 -0.40499202720E+02 -0.87813219834E+02  0.96832316210E+02  0.47000000000E+01 0. -1.
         -5    1    3    3    0  502  0.86627742440E+02  0.75590483580E+02 -0.33496122935E+03  0.35417425392E+03  0.47000000000E+01 0. -1.
        -11    1    1    2    0    0  0.14519525692E+02 -0.23576300381E+02 -0.63835194968E+02  0.69581539812E+02  0.00000000000E+00 0.  1.
         11    1    1    2    0    0 -0.10289668631E+03 -0.11514980480E+02 -0.22625428736E+03  0.24881986532E+03  0.00000000000E+00 0. -1.
<mgrwt>
<rscale>  0 0.15016984E+03</rscale>
<asrwt>0</asrwt>
<pdfrwt beam="2">  1        2 0.11402091E+00 0.15706270E+03</pdfrwt>
<pdfrwt beam="1">  1       -2 0.43495422E-02 0.15706270E+03</pdfrwt>
<totfact> 0.91621723E+03</totfact>
</mgrwt>
</event>
<event>
 7    1  0.6982687E-006  0.1678319E+03  0.7546771E-02  0.1187056E+00
         -3   -1    0    0    0  501 -0.00000000000E+00  0.00000000000E+00  0.39764177492E+02  0.39764177492E+02  0.00000000000E+00 0.  1.
          3   -1    0    0  501    0  0.00000000000E+00 -0.00000000000E+00 -0.61827986512E+03  0.61827986512E+03  0.00000000000E+00 0. -1.
         23    2    1    2    0    0 -0.10907901858E+03  0.25383612419E+02 -0.34825928102E+03  0.38659032164E+03  0.12499995958E+03 0.  0.
          5    1    3    3  502    0 -0.58032772426E+02 -0.49641234138E+02 -0.14512169069E+03  0.16405624009E+03  0.47000000000E+01 0. -1.
         -5    1    3    3    0  502 -0.51046246153E+02  0.75024846557E+02 -0.20313759034E+03  0.22253408156E+03  0.47000000000E+01 0. -1.
        -11    1    1    2    0    0  0.10966075196E+03 -0.46063783035E+02 -0.16794868457E+03  0.20580114984E+03  0.00000000000E+00 0.  1.
         11    1    1    2    0    0 -0.58173338448E+00  0.20680170616E+02 -0.62307722032E+02  0.65652571124E+02  0.00000000000E+00 0. -1.
<mgrwt>
<rscale>  0 0.16146230E+03</rscale>
<asrwt>0</asrwt>
<pdfrwt beam="2">  1        3 0.95119972E-01 0.16783191E+03</pdfrwt>
<pdfrwt beam="1">  1       -3 0.61175662E-02 0.16783191E+03</pdfrwt>
<totfact> 0.40084650E+02</totfact>
</mgrwt>
</event>
<event>
 7    1  0.6008063E-006  0.1897211E+03  0.7546771E-02  0.1163904E+00
         -3   -1    0    0    0  501 -0.00000000000E+00  0.00000000000E+00  0.32471388060E+03  0.32471388060E+03  0.00000000000E+00 0.  1.
          3   -1    0    0  501    0  0.00000000000E+00 -0.00000000000E+00 -0.18064275702E+03  0.18064275702E+03  0.00000000000E+00 0. -1.
         23    2    1    2    0    0 -0.13954415987E+03 -0.29922205814E+02 -0.95696396589E+02  0.21248979871E+03  0.12500481304E+03 0.  0.
          5    1    3    3  502    0 -0.21789131923E+01 -0.51668992412E+01 -0.70131351309E+02  0.70511991511E+02  0.47000000000E+01 0.  1.
         -5    1    3    3    0  502 -0.13736524667E+03 -0.24755306573E+02 -0.25565045280E+02  0.14197780720E+03  0.47000000000E+01 0.  1.
        -11    1    1    2    0    0  0.98727522693E+01  0.36512155936E+02  0.64046340382E+02  0.74381062676E+02  0.00000000000E+00 0.  1.
         11    1    1    2    0    0  0.12967140760E+03 -0.65899501220E+01  0.17572117979E+03  0.21848577624E+03  0.00000000000E+00 0. -1.
<mgrwt>
<rscale>  0 0.18408846E+03</rscale>
<asrwt>0</asrwt>
<pdfrwt beam="2">  1        3 0.27791193E-01 0.18972115E+03</pdfrwt>
<pdfrwt beam="1">  1       -3 0.49955982E-01 0.18972115E+03</pdfrwt>
<totfact> 0.12035834E+02</totfact>
</mgrwt>
</event>
<event>
 7    1  0.6008063E-006  0.1261687E+03  0.7546771E-02  0.1249215E+00
          2   -1    0    0  501    0  0.00000000000E+00  0.00000000000E+00  0.78031055734E+03  0.78031055734E+03  0.00000000000E+00 0. -1.
         -2   -1    0    0    0  501 -0.00000000000E+00 -0.00000000000E+00 -0.16031168019E+02  0.16031168019E+02  0.00000000000E+00 0.  1.
         23    2    1    2    0    0 -0.17087847560E+02  0.16069256253E+01  0.53220000004E+03  0.54695097505E+03  0.12499580919E+03 0.  0.
          5    1    3    3  502    0 -0.40171103584E+02  0.35015720396E+02  0.10541453449E+03  0.11821223422E+03  0.47000000000E+01 0.  1.
         -5    1    3    3    0  502  0.23083256024E+02 -0.33408794771E+02  0.42678546555E+03  0.42873874082E+03  0.47000000000E+01 0.  1.
        -11    1    1    2    0    0  0.48590354813E+02  0.20253144885E+02  0.12402289700E+03  0.13473266656E+03  0.00000000000E+00 0.  1.
         11    1    1    2    0    0 -0.31502507253E+02 -0.21860070510E+02  0.10805649228E+03  0.11465808376E+03  0.00000000000E+00 0. -1.
<mgrwt>
<rscale>  0 0.11636602E+03</rscale>
<asrwt>0</asrwt>
<pdfrwt beam="1">  1        2 0.12004775E+00 0.12616865E+03</pdfrwt>
<pdfrwt beam="2">  1       -2 0.24663342E-02 0.12616865E+03</pdfrwt>
<totfact> 0.19583063E+04</totfact>
</mgrwt>
</event>
<event>
 7    1  0.6008063E-006  0.2080837E+03  0.7546771E-02  0.1147147E+00
         -1   -1    0    0    0  501 -0.00000000000E+00  0.00000000000E+00  0.67887574231E+03  0.67887574231E+03  0.00000000000E+00 0.  1.
          1   -1    0    0  501    0  0.00000000000E+00 -0.00000000000E+00 -0.58357705458E+02  0.58357705458E+02  0.00000000000E+00 0. -1.
         23    2    1    2    0    0 -0.20765698688E+02 -0.16502485862E+03  0.35295970875E+03  0.40973085449E+03  0.12503759003E+03 0.  0.
          5    1    3    3  502    0  0.34196584279E+02 -0.14484364236E+03  0.24071270136E+03  0.28304378054E+03  0.47000000000E+01 0. -1.
         -5    1    3    3    0  502 -0.54962282967E+02 -0.20181216261E+02  0.11224700739E+03  0.12668707395E+03  0.47000000000E+01 0. -1.
        -11    1    1    2    0    0 -0.17946589646E+02  0.12304905369E+03  0.13709201500E+03  0.18508746654E+03  0.00000000000E+00 0.  1.
         11    1    1    2    0    0  0.38712288333E+02  0.41975804935E+02  0.13046631310E+03  0.14241512673E+03  0.00000000000E+00 0. -1.
<mgrwt>
<rscale>  0 0.20310338E+03</rscale>
<asrwt>0</asrwt>
<pdfrwt beam="2">  1        1 0.89781090E-02 0.20808368E+03</pdfrwt>
<pdfrwt beam="1">  1       -1 0.10444242E+00 0.20808368E+03</pdfrwt>
<totfact> 0.67717168E+02</totfact>
</mgrwt>
</event>
<event>
 7    1  0.6008063E-006  0.1251107E+03  0.7546771E-02  0.1247150E+00
         -2   -1    0    0    0  501 -0.00000000000E+00  0.00000000000E+00  0.15294109247E+02  0.15294109247E+02  0.00000000000E+00 0.  1.
          2   -1    0    0  501    0  0.00000000000E+00 -0.00000000000E+00 -0.10339909934E+04  0.10339909934E+04  0.00000000000E+00 0. -1.
         23    2    1    2    0    0  0.59594452552E+00 -0.51710831115E+01 -0.80105515120E+03  0.81076633699E+03  0.12500241070E+03 0.  0.
          5    1    3    3  502    0  0.19693634035E+02 -0.48794489651E+01 -0.78526954421E+03  0.78554566723E+03  0.47000000000E+01 0. -1.
         -5    1    3    3    0  502 -0.19097689509E+02 -0.29163414646E+00 -0.15785606996E+02  0.25220669763E+02  0.47000000000E+01 0. -1.
        -11    1    1    2    0    0 -0.89988924337E+01 -0.36653186906E+02 -0.17180554375E+03  0.17590219169E+03  0.00000000000E+00 0. -1.
         11    1    1    2    0    0  0.84029479082E+01  0.41824270017E+02 -0.45836189214E+02  0.62616573985E+02  0.00000000000E+00 0.  1.
<mgrwt>
<rscale>  0 0.11757616E+03</rscale>
<asrwt>0</asrwt>
<pdfrwt beam="2">  1        2 0.15907554E+00 0.12511074E+03</pdfrwt>
<pdfrwt beam="1">  1       -2 0.23529399E-02 0.12511074E+03</pdfrwt>
<totfact> 0.14518102E+04</totfact>
</mgrwt>
</event>
<event>
 7    1  0.6008063E-006  0.2011124E+03  0.7546771E-02  0.1153351E+00
          1   -1    0    0  501    0  0.00000000000E+00  0.00000000000E+00  0.12816894653E+03  0.12816894653E+03  0.00000000000E+00 0. -1.
         -1   -1    0    0    0  501 -0.00000000000E+00 -0.00000000000E+00 -0.31247446804E+03  0.31247446804E+03  0.00000000000E+00 0.  1.
         23    2    1    2    0    0  0.15754524569E+03  0.11809773236E+01 -0.30485544962E+02  0.20340986212E+03  0.12499721762E+03 0.  0.
          5    1    3    3  502    0  0.36715606023E+01  0.39182620793E+02 -0.20265245481E+02  0.44514360648E+02  0.47000000000E+01 0. -1.
         -5    1    3    3    0  502  0.15387368509E+03 -0.38001643469E+02 -0.10220299481E+02  0.15889550148E+03  0.47000000000E+01 0. -1.
        -11    1    1    2    0    0 -0.34002356342E+02  0.81132362023E+01  0.55261457016E+01  0.35391003444E+02  0.00000000000E+00 0. -1.
         11    1    1    2    0    0 -0.12354288935E+03 -0.92942135259E+01 -0.15934612225E+03  0.20184254901E+03  0.00000000000E+00 0.  1.
<mgrwt>
<rscale>  0 0.19577773E+03</rscale>
<asrwt>0</asrwt>
<pdfrwt beam="1">  1        1 0.19718300E-01 0.20111242E+03</pdfrwt>
<pdfrwt beam="2">  1       -1 0.48072995E-01 0.20111242E+03</pdfrwt>
<totfact> 0.11433600E+03</totfact>
</mgrwt>
</event>
<event>
 7    1  0.6008063E-006  0.1299235E+03  0.7546771E-02  0.1241324E+00
         -3   -1    0    0    0  501 -0.00000000000E+00  0.00000000000E+00  0.38901680521E+02  0.38901680521E+02  0.00000000000E+00 0.  1.
          3   -1    0    0  501    0  0.00000000000E+00 -0.00000000000E+00 -0.33840697447E+03  0.33840697447E+03  0.00000000000E+00 0. -1.
         23    2    1    2    0    0 -0.37326578672E+01  0.35191332488E+02 -0.19209864181E+03  0.23190948148E+03  0.12501102670E+03 0.  0.
          5    1    3    3  502    0 -0.60523109589E+02 -0.36636636938E+00 -0.70862320986E+02  0.93309911340E+02  0.47000000000E+01 0. -1.
         -5    1    3    3    0  502  0.56790451722E+02  0.35557698858E+02 -0.12123632083E+03  0.13859957014E+03  0.47000000000E+01 0. -1.
        -11    1    1    2    0    0  0.83277178840E+01  0.81923886328E+01  0.12913898047E+02  0.17413640614E+02  0.00000000000E+00 0.  1.
         11    1    1    2    0    0 -0.45950600168E+01 -0.43383721121E+02 -0.12032055018E+03  0.12798553289E+03  0.00000000000E+00 0. -1.
<mgrwt>
<rscale>  0 0.12108113E+03</rscale>
<asrwt>0</asrwt>
<pdfrwt beam="2">  1        3 0.52062612E-01 0.12992351E+03</pdfrwt>
<pdfrwt beam="1">  1       -3 0.59848738E-02 0.12992351E+03</pdfrwt>
<totfact> 0.14375820E+03</totfact>
</mgrwt>
</event>
<event>
 7    1  0.6008063E-006  0.1390894E+03  0.7546771E-02  0.1226044E+00
          2   -1    0    0  501    0  0.00000000000E+00  0.00000000000E+00  0.40248248728E+02  0.40248248728E+02  0.00000000000E+00 0. -1.
         -2   -1    0    0    0  501 -0.00000000000E+00 -0.00000000000E+00 -0.39424691864E+03  0.39424691864E+03  0.00000000000E+00 0.  1.
         23    2    1    2    0    0 -0.59515384744E+02  0.13258609901E+02 -0.16156883870E+03  0.21319089884E+03  0.12501199123E+03 0.  0.
          5    1    3    3  502    0 -0.58015039775E+02 -0.23603990773E+02 -0.18660640966E+02  0.65522536137E+02  0.47000000000E+01 0. -1.
         -5    1    3    3    0  502 -0.15003449693E+01  0.36862600674E+02 -0.14290819773E+03  0.14766836270E+03  0.47000000000E+01 0. -1.
        -11    1    1    2    0    0  0.24075486715E+02 -0.49296561689E+02 -0.12912822127E+03  0.14029924299E+03  0.00000000000E+00 0.  1.
         11    1    1    2    0    0  0.35439898029E+02  0.36037951789E+02 -0.63301609940E+02  0.81005025539E+02  0.00000000000E+00 0. -1.
<mgrwt>
<rscale>  0 0.13095586E+03</rscale>
<asrwt>0</asrwt>
<pdfrwt beam="1">  1        2 0.61920384E-02 0.13908943E+03</pdfrwt>
<pdfrwt beam="2">  1       -2 0.60653371E-01 0.13908943E+03</pdfrwt>
<totfact> 0.29381028E+03</totfact>
</mgrwt>
</event>
<event>
 7    1  0.6008063E-006  0.1433378E+03  0.7546771E-02  0.1219150E+00
          1   -1    0    0  501    0  0.00000000000E+00  0.00000000000E+00  0.95152119620E+02  0.95152119620E+02  0.00000000000E+00 0. -1.
         -1   -1    0    0    0  501 -0.00000000000E+00 -0.00000000000E+00 -0.18273088439E+03  0.18273088439E+03  0.00000000000E+00 0.  1.
         23    2    1    2    0    0  0.35709477098E+02  0.60371558839E+02 -0.21482854740E+02  0.14493877293E+03  0.12500337188E+03 0.  0.
          5    1    3    3  502    0  0.82174254912E+01  0.37570754111E+02  0.50969805008E+02  0.64024203773E+02  0.47000000000E+01 0.  1.
         -5    1    3    3    0  502  0.27492051607E+02  0.22800804728E+02 -0.72452659749E+02  0.80914569161E+02  0.47000000000E+01 0.  1.
        -11    1    1    2    0    0 -0.26967044050E+02 -0.20458265059E+02 -0.82299856957E+02  0.88988923632E+02  0.00000000000E+00 0.  1.
         11    1    1    2    0    0 -0.87424330483E+01 -0.39913293780E+02  0.16203946931E+02  0.43955307440E+02  0.00000000000E+00 0. -1.
<mgrwt>
<rscale>  0 0.13576084E+03</rscale>
<asrwt>0</asrwt>
<pdfrwt beam="1">  1        1 0.14638788E-01 0.14333783E+03</pdfrwt>
<pdfrwt beam="2">  1       -1 0.28112443E-01 0.14333783E+03</pdfrwt>
<totfact> 0.42228286E+03</totfact>
</mgrwt>
</event>
<event>
 7    1  0.6008063E-006  0.1267846E+03  0.7546771E-02  0.1245524E+00
          2   -1    0    0  501    0  0.00000000000E+00  0.00000000000E+00  0.14061020860E+04  0.14061020860E+04  0.00000000000E+00 0.  1.
         -2   -1    0    0    0  501 -0.00000000000E+00 -0.00000000000E+00 -0.19070045198E+02  0.19070045198E+02  0.00000000000E+00 0. -1.
         23    2    1    2    0    0 -0.70355797932E+01  0.20030005895E+02  0.12550896035E+04  0.12614770140E+04  0.12499457365E+03 0.  0.
          5    1    3    3  502    0 -0.34497089012E+02  0.64680308273E+02  0.66477969496E+03  0.66882563068E+03  0.47000000000E+01 0. -1.
         -5    1    3    3    0  502  0.27461509219E+02 -0.44650302378E+02  0.59030990855E+03  0.59265138330E+03  0.47000000000E+01 0. -1.
        -11    1    1    2    0    0  0.13776325586E+02 -0.56791591928E+02  0.68287515190E+02  0.89879123222E+02  0.00000000000E+00 0.  1.
         11    1    1    2    0    0 -0.67407457929E+01  0.36761586033E+02  0.63654922087E+02  0.73815993981E+02  0.00000000000E+00 0. -1.
<mgrwt>
<rscale>  0 0.11854070E+03</rscale>
<asrwt>0</asrwt>
<pdfrwt beam="1">  1        2 0.21632332E+00 0.12678464E+03</pdfrwt>
<pdfrwt beam="2">  1       -2 0.29338542E-02 0.12678464E+03</pdfrwt>
<totfact> 0.65654034E+03</totfact>
</mgrwt>
</event>
<event>
 7    1  0.6008063E-006  0.2009692E+03  0.7546771E-02  0.1153248E+00
         -2   -1    0    0    0  501 -0.00000000000E+00  0.00000000000E+00  0.91185420086E+02  0.91185420086E+02  0.00000000000E+00 0. -1.
          2   -1    0    0  501    0  0.00000000000E+00 -0.00000000000E+00 -0.49491897270E+03  0.49491897270E+03  0.00000000000E+00 0.  1.
         23    2    1    2    0    0 -0.10326407126E+03  0.11873394605E+03 -0.33779868833E+03  0.39306049796E+03  0.12500953109E+03 0.  0.
          5    1    3    3  502    0 -0.32166119167E+02 -0.83346485075E+01 -0.15861904142E+03  0.16213024360E+03  0.47000000000E+01 0. -1.
         -5    1    3    3    0  502 -0.71097952095E+02  0.12706859455E+03 -0.17917964691E+03  0.23093025436E+03  0.47000000000E+01 0. -1.
        -11    1    1    2    0    0  0.38993103807E+02 -0.55807404449E+02 -0.76582566519E+02  0.10246861974E+03  0.00000000000E+00 0.  1.
         11    1    1    2    0    0  0.64270967454E+02 -0.62926541597E+02  0.10647702233E+02  0.90575275091E+02  0.00000000000E+00 0. -1.
<mgrwt>
<rscale>  0 0.19589670E+03</rscale>
<asrwt>0</asrwt>
<pdfrwt beam="2">  1        2 0.76141381E-01 0.20096915E+03</pdfrwt>
<pdfrwt beam="1">  1       -2 0.14028526E-01 0.20096915E+03</pdfrwt>
<totfact> 0.23852787E+03</totfact>
</mgrwt>
</event>
<event>
 7    1  0.6008063E-006  0.1333469E+03  0.7546771E-02  0.1234789E+00
         -2   -1    0    0    0  501 -0.00000000000E+00  0.00000000000E+00  0.23615739387E+03  0.23615739387E+03  0.00000000000E+00 0.  1.
          2   -1    0    0  501    0  0.00000000000E+00 -0.00000000000E+00 -0.70078858727E+02  0.70078858727E+02  0.00000000000E+00 0. -1.
         23    2    1    2    0    0  0.10102793563E+02  0.45292627992E+02  0.32560227915E+02  0.13726454479E+03  0.12501159236E+03 0.  0.
          5    1    3    3  502    0 -0.15362703405E+02  0.84500426789E+02  0.16313438747E+02  0.87547433241E+02  0.47000000000E+01 0.  1.
         -5    1    3    3    0  502  0.25465496968E+02 -0.39207798796E+02  0.16246789168E+02  0.49717111546E+02  0.47000000000E+01 0.  1.
        -11    1    1    2    0    0  0.17602380190E+01 -0.63324507686E+02  0.13307373572E+03  0.14738287163E+03  0.00000000000E+00 0.  1.
         11    1    1    2    0    0 -0.11863031582E+02  0.18031879693E+02  0.44457150361E+00  0.21588836176E+02  0.00000000000E+00 0. -1.
<mgrwt>
<rscale>  0 0.12517950E+03</rscale>
<asrwt>0</asrwt>
<pdfrwt beam="2">  1        2 0.10781363E-01 0.13334687E+03</pdfrwt>
<pdfrwt beam="1">  1       -2 0.36331906E-01 0.13334687E+03</pdfrwt>
<totfact> 0.39847662E+03</totfact>
</mgrwt>
</event>
<event>
 6    1  0.6008063E-006  0.2511064E+03  0.7546771E-02  0.1153839E+00
         -2   -1    0    0    0  501 -0.00000000000E+00  0.00000000000E+00  0.27018628248E+02  0.27018628248E+02  0.00000000000E+00 0.  1.
          2   -1    0    0  501    0  0.00000000000E+00 -0.00000000000E+00 -0.11064394810E+04  0.11064394810E+04  0.00000000000E+00 0. -1.
          5    1    1    2  502    0 -0.55280437938E+02  0.53283262118E+02 -0.77452838823E+03  0.77833883818E+03  0.47000000000E+01 0. -1.
         -5    1    1    2    0  502  0.47418326627E+02 -0.61724493656E+02 -0.77571018236E+02  0.10998983447E+03  0.47000000000E+01 0.  1.
        -11    1    1    2    0    0 -0.27980045871E+02  0.36530608007E+02 -0.10674617954E+03  0.11624162393E+03  0.00000000000E+00 0.  1.
         11    1    1    2    0    0  0.35842157181E+02 -0.28089376468E+02 -0.12057526670E+03  0.12888781262E+03  0.00000000000E+00 0. -1.
<mgrwt>
<rscale>  0 0.19521573E+03</rscale>
<asrwt>0</asrwt>
<pdfrwt beam="2">  1        2 0.17022145E+00 0.25110642E+03</pdfrwt>
<pdfrwt beam="1">  1       -2 0.41567122E-02 0.25110642E+03</pdfrwt>
<totfact> 0.58487632E+03</totfact>
</mgrwt>
</event>
<event>
 7    1  0.6008063E-006  0.1278095E+03  0.7546771E-02  0.1245178E+00
         -2   -1    0    0    0  501 -0.00000000000E+00  0.00000000000E+00  0.37431327153E+02  0.37431327153E+02  0.00000000000E+00 0. -1.
          2   -1    0    0  501    0  0.00000000000E+00 -0.00000000000E+00 -0.33266089495E+03  0.33266089495E+03  0.00000000000E+00 0.  1.
         23    2    1    2    0    0  0.16593347550E+02 -0.20844757946E+02 -0.16289563946E+03  0.20705132920E+03  0.12500168180E+03 0.  0.
          5    1    3    3  502    0  0.36691454869E+02 -0.35345634429E+01 -0.17399298703E+03  0.17791685006E+03  0.47000000000E+01 0. -1.
         -5    1    3    3    0  502 -0.20098107320E+02 -0.17310194503E+02  0.11097347575E+02  0.29134479140E+02  0.47000000000E+01 0. -1.
        -11    1    1    2    0    0 -0.34378723147E+02  0.13548740181E+02 -0.13811016379E+03  0.14296811640E+03  0.00000000000E+00 0.  1.
         11    1    1    2    0    0  0.17785375597E+02  0.72960177648E+01  0.57762354505E+01  0.20072776498E+02  0.00000000000E+00 0. -1.
<mgrwt>
<rscale>  0 0.11874726E+03</rscale>
<asrwt>0</asrwt>
<pdfrwt beam="2">  1        2 0.51178599E-01 0.12780948E+03</pdfrwt>
<pdfrwt beam="1">  1       -2 0.57586657E-02 0.12780948E+03</pdfrwt>
<totfact> 0.14420279E+04</totfact>
</mgrwt>
</event>
<event>
 7    1  0.6008063E-006  0.1136525E+03  0.7546771E-02  0.1264421E+00
          3   -1    0    0  501    0  0.00000000000E+00  0.00000000000E+00  0.72643841589E+02  0.72643841589E+02  0.00000000000E+00 0. -1.
         -3   -1    0    0    0  501 -0.00000000000E+00 -0.00000000000E+00 -0.18986394994E+03  0.18986394994E+03  0.00000000000E+00 0.  1.
         23    2    1    2    0    0 -0.12373698745E+02 -0.18216171884E+02 -0.58785934180E+00  0.11365404394E+03  0.11149869410E+03 0.  0.
          5    1    3    3  502    0  0.48945324973E+02  0.93644926712E+00  0.15888666411E+01  0.49205043148E+02  0.47000000000E+01 0. -1.
         -5    1    3    3    0  502 -0.61319023718E+02 -0.19152621151E+02 -0.21767259829E+01  0.64449000789E+02  0.47000000000E+01 0.  1.
        -11    1    1    2    0    0 -0.20198194372E+02  0.12860823664E+02 -0.11315624474E+03  0.11566202300E+03  0.00000000000E+00 0.  1.
         11    1    1    2    0    0  0.32571893117E+02  0.53553482197E+01 -0.34760042728E+01  0.33191724593E+02  0.00000000000E+00 0. -1.
<mgrwt>
<rscale>  0 0.10794629E+03</rscale>
<asrwt>0</asrwt>
<pdfrwt beam="1">  1        3 0.11175976E-01 0.11365252E+03</pdfrwt>
<pdfrwt beam="2">  1       -3 0.29209838E-01 0.11365252E+03</pdfrwt>
<totfact> 0.15392538E+03</totfact>
</mgrwt>
</event>
<event>
 7    1  0.6008063E-006  0.1255410E+03  0.7546771E-02  0.1252524E+00
         -2   -1    0    0    0  501 -0.00000000000E+00  0.00000000000E+00  0.83583395099E+03  0.83583395099E+03  0.00000000000E+00 0.  1.
          2   -1    0    0  501    0  0.00000000000E+00 -0.00000000000E+00 -0.13713967394E+02  0.13713967394E+02  0.00000000000E+00 0. -1.
         23    2    1    2    0    0  0.10610126580E+02  0.47615924418E+01  0.43031983293E+03  0.44825853243E+03  0.12500122295E+03 0.  0.
          5    1    3    3  502    0  0.61624905199E+02  0.26329038985E+02  0.28127013882E+03  0.28918130684E+03  0.47000000000E+01 0. -1.
         -5    1    3    3    0  502 -0.51014778618E+02 -0.21567446543E+02  0.14904969411E+03  0.15907722559E+03  0.47000000000E+01 0. -1.
        -11    1    1    2    0    0 -0.41861915035E+02  0.20005813737E+02  0.18955353686E+03  0.19514916308E+03  0.00000000000E+00 0.  1.
         11    1    1    2    0    0  0.31251788454E+02 -0.24767406179E+02  0.20224661380E+03  0.20614022287E+03  0.00000000000E+00 0. -1.
<mgrwt>
<rscale>  0 0.11446125E+03</rscale>
<asrwt>0</asrwt>
<pdfrwt beam="2">  1        2 0.21098418E-02 0.12554104E+03</pdfrwt>
<pdfrwt beam="1">  1       -2 0.12858980E+00 0.12554104E+03</pdfrwt>
<totfact> 0.22627691E+03</totfact>
</mgrwt>
</event>
<event>
 7    1  0.6008063E-006  0.1644632E+03  0.7546771E-02  0.1187480E+00
          2   -1    0    0  501    0  0.00000000000E+00  0.00000000000E+00  0.25530968062E+03  0.25530968062E+03  0.00000000000E+00 0.  1.
         -2   -1    0    0    0  501 -0.00000000000E+00 -0.00000000000E+00 -0.10946682468E+03  0.10946682468E+03  0.00000000000E+00 0. -1.
         23    2    1    2    0    0 -0.10376932896E+03  0.25574109883E+02  0.13546428042E+03  0.21306976311E+03  0.12500417574E+03 0.  0.
          5    1    3    3  502    0  0.21599485845E+02 -0.63551319532E+01  0.57548397154E+02  0.61974458496E+02  0.47000000000E+01 0. -1.
         -5    1    3    3    0  502 -0.12536881481E+03  0.31929241837E+02  0.77915883270E+02  0.15109530461E+03  0.47000000000E+01 0. -1.
        -11    1    1    2    0    0  0.34328439255E+01 -0.28503921948E+02 -0.31785162276E+02  0.42831699999E+02  0.00000000000E+00 0. -1.
         11    1    1    2    0    0  0.10033648504E+03  0.29298120647E+01  0.42163737789E+02  0.10887504220E+03  0.00000000000E+00 0.  1.
<mgrwt>
<rscale>  0 0.16108242E+03</rscale>
<asrwt>0</asrwt>
<pdfrwt beam="1">  1        2 0.39278412E-01 0.16446323E+03</pdfrwt>
<pdfrwt beam="2">  1       -2 0.16841050E-01 0.16446323E+03</pdfrwt>
<totfact> 0.35767638E+03</totfact>
</mgrwt>
</event>
<event>
 7    1  0.6008063E-006  0.1415552E+03  0.7546771E-02  0.1222894E+00
         -1   -1    0    0    0  501 -0.00000000000E+00  0.00000000000E+00  0.12062322114E+03  0.12062322114E+03  0.00000000000E+00 0.  1.
          1   -1    0    0  501    0  0.00000000000E+00 -0.00000000000E+00 -0.24343241333E+03  0.24343241333E+03  0.00000000000E+00 0. -1.
         23    2    1    2    0    0 -0.42221190846E+02  0.51277398072E+02 -0.18817893178E+03  0.23547651758E+03  0.12500351778E+03 0.  0.
          5    1    3    3  502    0 -0.29702405993E+02  0.63649268439E+02 -0.30450140688E+02  0.76699174457E+02  0.47000000000E+01 0. -1.
         -5    1    3    3    0  502 -0.12518784853E+02 -0.12371870367E+02 -0.15772879109E+03  0.15877734312E+03  0.47000000000E+01 0. -1.
        -11    1    1    2    0    0  0.13817401395E+02 -0.71434672130E+02  0.57833199563E+02  0.92943595451E+02  0.00000000000E+00 0.  1.
         11    1    1    2    0    0  0.28403789451E+02  0.20157274058E+02  0.75365400281E+01  0.35635521438E+02  0.00000000000E+00 0. -1.
<mgrwt>
<rscale>  0 0.13312297E+03</rscale>
<asrwt>0</asrwt>
<pdfrwt beam="2">  1        1 0.37451140E-01 0.14155522E+03</pdfrwt>
<pdfrwt beam="1">  1       -1 0.18557419E-01 0.14155522E+03</pdfrwt>
<totfact> 0.25344685E+03</totfact>
</mgrwt>
</event>
<event>
 7    1  0.6008063E-006  0.1651451E+03  0.7546771E-02  0.1190682E+00
         -2   -1    0    0    0  501 -0.00000000000E+00  0.00000000000E+00  0.95513644087E+02  0.95513644087E+02  0.00000000000E+00 0.  1.
          2   -1    0    0  501    0  0.00000000000E+00 -0.00000000000E+00 -0.24253359120E+03  0.24253359120E+03  0.00000000000E+00 0. -1.
         23    2    1    2    0    0 -0.80608751131E+02  0.71763470514E+02 -0.79679660356E+02  0.18336237961E+03  0.12500059008E+03 0.  0.
          5    1    3    3  502    0 -0.10722130927E+03  0.62787832463E+02 -0.89541668673E+02  0.15322702600E+03  0.47000000000E+01 0. -1.
         -5    1    3    3    0  502  0.26612558140E+02  0.89756380511E+01  0.98620083167E+01  0.30135353610E+02  0.47000000000E+01 0. -1.
        -11    1    1    2    0    0  0.37582659536E+02 -0.50403565536E+02 -0.83032174484E+02  0.10415045711E+03  0.00000000000E+00 0. -1.
         11    1    1    2    0    0  0.43026091595E+02 -0.21359904978E+02  0.15691887727E+02  0.50534398572E+02  0.00000000000E+00 0.  1.
<mgrwt>
<rscale>  0 0.15825378E+03</rscale>
<asrwt>0</asrwt>
<pdfrwt beam="2">  1        2 0.37312860E-01 0.16514513E+03</pdfrwt>
<pdfrwt beam="1">  1       -2 0.14694407E-01 0.16514513E+03</pdfrwt>
<totfact> 0.47337211E+03</totfact>
</mgrwt>
</event>
<event>
 7    1  0.6008063E-006  0.2366033E+03  0.7546771E-02  0.1125194E+00
         -2   -1    0    0    0  501 -0.00000000000E+00  0.00000000000E+00  0.19817471117E+03  0.19817471117E+03  0.00000000000E+00 0.  1.
          2   -1    0    0  501    0  0.00000000000E+00 -0.00000000000E+00 -0.28756035076E+03  0.28756035076E+03  0.00000000000E+00 0. -1.
         23    2    1    2    0    0  0.12923296528E+02 -0.20047229930E+03 -0.11887946336E+03  0.26478944704E+03  0.12499988031E+03 0.  0.
          5    1    3    3  502    0  0.40465283840E+01 -0.12630888294E+03 -0.25764748983E+01  0.12648729788E+03  0.47000000000E+01 0.  1.
         -5    1    3    3    0  502  0.88767681436E+01 -0.74163416352E+02 -0.11630298846E+03  0.13830214916E+03  0.47000000000E+01 0.  1.
        -11    1    1    2    0    0 -0.71684218960E+01  0.18632708322E+03  0.52152815129E+02  0.19362098115E+03  0.00000000000E+00 0.  1.
         11    1    1    2    0    0 -0.57548746316E+01  0.14145216075E+02 -0.22658991366E+02  0.27324633750E+02  0.00000000000E+00 0. -1.
<mgrwt>
<rscale>  0 0.23206566E+03</rscale>
<asrwt>0</asrwt>
<pdfrwt beam="2">  1        2 0.44240054E-01 0.23660331E+03</pdfrwt>
<pdfrwt beam="1">  1       -2 0.30488417E-01 0.23660331E+03</pdfrwt>
<totfact> 0.11349385E+03</totfact>
</mgrwt>
</event>
<event>
 7    1  0.6008063E-006  0.1361279E+03  0.7546771E-02  0.1234323E+00
          2   -1    0    0  501    0  0.00000000000E+00  0.00000000000E+00  0.96397503943E+03  0.96397503943E+03  0.00000000000E+00 0.  1.
         -2   -1    0    0    0  501 -0.00000000000E+00 -0.00000000000E+00 -0.15005196904E+02  0.15005196904E+02  0.00000000000E+00 0. -1.
         23    2    1    2    0    0 -0.12710629592E+02 -0.52376253584E+02  0.65573075083E+03  0.66971159488E+03  0.12500388270E+03 0.  0.
          5    1    3    3  502    0 -0.26147221815E+02  0.75805926693E+01  0.51901127577E+03  0.51974603122E+03  0.47000000000E+01 0.  1.
         -5    1    3    3    0  502  0.13436592223E+02 -0.59956846253E+02  0.13671947506E+03  0.14996556366E+03  0.47000000000E+01 0.  1.
        -11    1    1    2    0    0  0.10785066975E+02  0.72092349242E+02  0.17813995376E+03  0.19247718725E+03  0.00000000000E+00 0. -1.
         11    1    1    2    0    0  0.19255626171E+01 -0.19716095658E+02  0.11509913795E+03  0.11679145420E+03  0.00000000000E+00 0.  1.
<mgrwt>
<rscale>  0 0.12547894E+03</rscale>
<asrwt>0</asrwt>
<pdfrwt beam="1">  1        2 0.14830380E+00 0.13612789E+03</pdfrwt>
<pdfrwt beam="2">  1       -2 0.23084926E-02 0.13612789E+03</pdfrwt>
<totfact> 0.16528365E+04</totfact>
</mgrwt>
</event>
<event>
 7    1  0.6008063E-006  0.1301210E+03  0.7546771E-02  0.1236457E+00
         -2   -1    0    0    0  501 -0.00000000000E+00  0.00000000000E+00  0.89902256615E+02  0.89902256615E+02  0.00000000000E+00 0.  1.
          2   -1    0    0  501    0  0.00000000000E+00 -0.00000000000E+00 -0.15905500658E+03  0.15905500658E+03  0.00000000000E+00 0. -1.
         23    2    1    2    0    0 -0.29463317008E+02  0.20871933694E+02 -0.24765311292E+02  0.13245672618E+03  0.12501095553E+03 0.  0.
          5    1    3    3  502    0  0.17216448267E+02  0.25853201125E+02 -0.63870224696E+02  0.71177873683E+02  0.47000000000E+01 0. -1.
         -5    1    3    3    0  502 -0.46679765275E+02 -0.49812674310E+01  0.39104913404E+02  0.61278852500E+02  0.47000000000E+01 0. -1.
        -11    1    1    2    0    0 -0.15531175497E+02  0.32258996813E+02 -0.40376935613E+01  0.36030032709E+02  0.00000000000E+00 0.  1.
         11    1    1    2    0    0  0.44994492505E+02 -0.53130930507E+02 -0.40349745114E+02  0.80470504305E+02  0.00000000000E+00 0. -1.
<mgrwt>
<rscale>  0 0.12411597E+03</rscale>
<asrwt>0</asrwt>
<pdfrwt beam="2">  1        2 0.24470000E-01 0.13012096E+03</pdfrwt>
<pdfrwt beam="1">  1       -2 0.13831117E-01 0.13012096E+03</pdfrwt>
<totfact> 0.81359090E+03</totfact>
</mgrwt>
</event>
<event>
 7    1  0.6008063E-006  0.1706134E+03  0.7546771E-02  0.1183661E+00
          1   -1    0    0  501    0  0.00000000000E+00  0.00000000000E+00  0.26204549209E+03  0.26204549209E+03  0.00000000000E+00 0. -1.
         -1   -1    0    0    0  501 -0.00000000000E+00 -0.00000000000E+00 -0.10103742576E+03  0.10103742576E+03  0.00000000000E+00 0.  1.
         23    2    1    2    0    0 -0.11613231374E+03  0.10155804379E+01  0.12400897735E+03  0.21091977519E+03  0.12498471667E+03 0.  0.
          5    1    3    3  502    0 -0.40927062608E+02  0.89127642310E+01  0.12828769539E+03  0.13503438306E+03  0.47000000000E+01 0.  1.
         -5    1    3    3    0  502 -0.75205251133E+02 -0.78971837931E+01 -0.42787180360E+01  0.75885392125E+02  0.47000000000E+01 0.  1.
        -11    1    1    2    0    0  0.84008635757E+02  0.32517802828E+02 -0.40644721462E+01  0.90174155479E+02  0.00000000000E+00 0.  1.
         11    1    1    2    0    0  0.32123677985E+02 -0.33533383266E+02  0.41063561123E+02  0.61988987189E+02  0.00000000000E+00 0. -1.
<mgrwt>
<rscale>  0 0.16454274E+03</rscale>
<asrwt>0</asrwt>
<pdfrwt beam="1">  1        1 0.40314691E-01 0.17061338E+03</pdfrwt>
<pdfrwt beam="2">  1       -1 0.15544219E-01 0.17061338E+03</pdfrwt>
<totfact> 0.30880523E+03</totfact>
</mgrwt>
</event>
<event>
 7    1  0.6008063E-006  0.1886130E+03  0.7546771E-02  0.1164579E+00
         -2   -1    0    0    0  501 -0.00000000000E+00  0.00000000000E+00  0.18492711738E+03  0.18492711738E+03  0.00000000000E+00 0.  1.
          2   -1    0    0  501    0  0.00000000000E+00 -0.00000000000E+00 -0.17684018483E+03  0.17684018483E+03  0.00000000000E+00 0. -1.
         23    2    1    2    0    0 -0.12990210965E+03  0.55452751938E+02 -0.24311678862E+02  0.19017337009E+03  0.12500114868E+03 0.  0.
          5    1    3    3  502    0 -0.93176551508E+02 -0.21815348450E+02  0.13058545370E+02  0.96697439398E+02  0.47000000000E+01 0.  1.
         -5    1    3    3    0  502 -0.36725558145E+02  0.77268100388E+02 -0.37370224233E+02  0.93475930688E+02  0.47000000000E+01 0.  1.
        -11    1    1    2    0    0  0.74165504402E+02  0.56189169387E+01 -0.15590398957E+02  0.75994439339E+02  0.00000000000E+00 0. -1.
         11    1    1    2    0    0  0.55736605252E+02 -0.61071668877E+02  0.47989010368E+02  0.95599492784E+02  0.00000000000E+00 0.  1.
<mgrwt>
<rscale>  0 0.18337222E+03</rscale>
<asrwt>0</asrwt>
<pdfrwt beam="2">  1        2 0.27206182E-01 0.18861297E+03</pdfrwt>
<pdfrwt beam="1">  1       -2 0.28450326E-01 0.18861297E+03</pdfrwt>
<totfact> 0.21693503E+03</totfact>
</mgrwt>
</event>
<event>
 7    1  0.6008063E-006  0.1383319E+03  0.7546771E-02  0.1230645E+00
         -2   -1    0    0    0  501 -0.00000000000E+00  0.00000000000E+00  0.25113224327E+02  0.25113224327E+02  0.00000000000E+00 0.  1.
          2   -1    0    0  501    0  0.00000000000E+00 -0.00000000000E+00 -0.57723274747E+03  0.57723274747E+03  0.00000000000E+00 0. -1.
         23    2    1    2    0    0 -0.10489883473E+02 -0.58307952225E+02 -0.35129613415E+03  0.37755092610E+03  0.12500349187E+03 0.  0.
          5    1    3    3  502    0  0.54581866714E+02 -0.44792364530E+02 -0.15889699694E+03  0.17394217928E+03  0.47000000000E+01 0.  1.
         -5    1    3    3    0  502 -0.65071750188E+02 -0.13515587695E+02 -0.19239913721E+03  0.20360874682E+03  0.47000000000E+01 0.  1.
        -11    1    1    2    0    0  0.43109061437E+02  0.52055367232E+02 -0.12773968261E+03  0.14451843809E+03  0.00000000000E+00 0.  1.
         11    1    1    2    0    0 -0.32619177964E+02  0.62525849926E+01 -0.73083706384E+02  0.80276607608E+02  0.00000000000E+00 0. -1.
<mgrwt>
<rscale>  0 0.12787383E+03</rscale>
<asrwt>0</asrwt>
<pdfrwt beam="2">  1        2 0.88805045E-01 0.13833195E+03</pdfrwt>
<pdfrwt beam="1">  1       -2 0.38635727E-02 0.13833195E+03</pdfrwt>
<totfact> 0.14520058E+04</totfact>
</mgrwt>
</event>
<event>
 7    1  0.6008063E-006  0.1578565E+03  0.7546771E-02  0.1198939E+00
          2   -1    0    0  501    0  0.00000000000E+00  0.00000000000E+00  0.10982508627E+04  0.10982508627E+04  0.00000000000E+00 0. -1.
         -2   -1    0    0    0  501 -0.00000000000E+00 -0.00000000000E+00 -0.29087483937E+02  0.29087483937E+02  0.00000000000E+00 0.  1.
         23    2    1    2    0    0 -0.96334328924E+02 -0.36661502336E+01  0.89151480269E+03  0.90538241837E+03  0.12499974599E+03 0.  0.
          5    1    3    3  502    0 -0.15343630253E+02 -0.24835392968E+02  0.39961686367E+02  0.49711669762E+02  0.47000000000E+01 0. -1.
         -5    1    3    3    0  502 -0.80990698671E+02  0.21169242734E+02  0.85155311632E+03  0.85567074861E+03  0.47000000000E+01 0. -1.
        -11    1    1    2    0    0  0.32794786789E+02  0.79011993506E+01  0.52988762888E+00  0.33737334995E+02  0.00000000000E+00 0.  1.
         11    1    1    2    0    0  0.63539542136E+02 -0.42350491171E+01  0.17711868843E+03  0.18821859326E+03  0.00000000000E+00 0. -1.
<mgrwt>
<rscale>  0 0.15125515E+03</rscale>
<asrwt>0</asrwt>
<pdfrwt beam="1">  1        2 0.16896164E+00 0.15785652E+03</pdfrwt>
<pdfrwt beam="2">  1       -2 0.44749984E-02 0.15785652E+03</pdfrwt>
<totfact> 0.52184021E+03</totfact>
</mgrwt>
</event>
<event>
 7    1  0.6008063E-006  0.1771105E+03  0.7546771E-02  0.1176479E+00
         -2   -1    0    0    0  501 -0.00000000000E+00  0.00000000000E+00  0.19165246282E+02  0.19165246282E+02  0.00000000000E+00 0.  1.
          2   -1    0    0  501    0  0.00000000000E+00 -0.00000000000E+00 -0.14414518048E+04  0.14414518048E+04  0.00000000000E+00 0. -1.
         23    2    1    2    0    0  0.24928170325E+02  0.12298817912E+03 -0.72998042754E+03  0.75115880756E+03  0.12498249357E+03 0.  0.
          5    1    3    3  502    0  0.33781809660E+01 -0.17246121526E+02 -0.19632383589E+02  0.26764926671E+02  0.47000000000E+01 0. -1.
         -5    1    3    3    0  502  0.21549989359E+02  0.14023430064E+03 -0.71034804395E+03  0.72439388088E+03  0.47000000000E+01 0. -1.
        -11    1    1    2    0    0 -0.54325331808E+02 -0.82677017994E+02 -0.54571675530E+03  0.55461113223E+03  0.00000000000E+00 0. -1.
         11    1    1    2    0    0  0.29397161483E+02 -0.40311161121E+02 -0.14658937564E+03  0.15484711125E+03  0.00000000000E+00 0.  1.
<mgrwt>
<rscale>  0 0.17131970E+03</rscale>
<asrwt>0</asrwt>
<pdfrwt beam="2">  1        2 0.22176185E+00 0.17711050E+03</pdfrwt>
<pdfrwt beam="1">  1       -2 0.29484990E-02 0.17711050E+03</pdfrwt>
<totfact> 0.63084103E+03</totfact>
</mgrwt>
</event>
<event>
 7    1  0.6008063E-006  0.1322998E+03  0.7546771E-02  0.1239056E+00
          1   -1    0    0  501    0  0.00000000000E+00  0.00000000000E+00  0.66253587728E+02  0.66253587728E+02  0.00000000000E+00 0. -1.
         -1   -1    0    0    0  501 -0.00000000000E+00 -0.00000000000E+00 -0.24930191477E+03  0.24930191477E+03  0.00000000000E+00 0.  1.
         23    2    1    2    0    0  0.14037400555E+02 -0.40998839293E+02 -0.32289041058E+02  0.13618305747E+03  0.12500115812E+03 0.  0.
          5    1    3    3  502    0  0.20742762965E+02  0.21474578313E+02 -0.60129686958E+02  0.67298506543E+02  0.47000000000E+01 0.  1.
         -5    1    3    3    0  502 -0.67053624103E+01 -0.62473417606E+02  0.27840645900E+02  0.68884550928E+02  0.47000000000E+01 0.  1.
        -11    1    1    2    0    0  0.29378458042E+02  0.33754233384E+02 -0.11242521703E+03  0.12100360115E+03  0.00000000000E+00 0.  1.
         11    1    1    2    0    0 -0.43415858597E+02  0.72446059092E+01 -0.38334068955E+02  0.58368843874E+02  0.00000000000E+00 0. -1.
<mgrwt>
<rscale>  0 0.12248307E+03</rscale>
<asrwt>0</asrwt>
<pdfrwt beam="1">  1        1 0.10192860E-01 0.13229982E+03</pdfrwt>
<pdfrwt beam="2">  1       -1 0.38354140E-01 0.13229982E+03</pdfrwt>
<totfact> 0.39818558E+03</totfact>
</mgrwt>
</event>
<event>
 7    1  0.6008063E-006  0.1339962E+03  0.7546771E-02  0.1235161E+00
         -2   -1    0    0    0  501 -0.00000000000E+00  0.00000000000E+00  0.12447622737E+03  0.12447622737E+03  0.00000000000E+00 0.  1.
          2   -1    0    0  501    0  0.00000000000E+00 -0.00000000000E+00 -0.11475405561E+03  0.11475405561E+03  0.00000000000E+00 0. -1.
         23    2    1    2    0    0 -0.33168773262E+02 -0.35056584823E+02 -0.15391823710E+02  0.13487732764E+03  0.12500341441E+03 0.  0.
          5    1    3    3  502    0 -0.34226397064E+02 -0.80860758083E+02 -0.10783482633E+02  0.88590529694E+02  0.47000000000E+01 0.  1.
         -5    1    3    3    0  502  0.10576238016E+01  0.45804173260E+02 -0.46083410770E+01  0.46286797941E+02  0.47000000000E+01 0.  1.
        -11    1    1    2    0    0  0.29682418953E+01  0.33328839819E+02 -0.27733721439E+02  0.43460111924E+02  0.00000000000E+00 0. -1.
         11    1    1    2    0    0  0.30200531367E+02  0.17277450042E+01  0.52847716910E+02  0.60892843424E+02  0.00000000000E+00 0.  1.
<mgrwt>
<rscale>  0 0.12494147E+03</rscale>
<asrwt>0</asrwt>
<pdfrwt beam="2">  1        2 0.17654470E-01 0.13399621E+03</pdfrwt>
<pdfrwt beam="1">  1       -2 0.19150189E-01 0.13399621E+03</pdfrwt>
<totfact> 0.68849768E+03</totfact>
</mgrwt>
</event>
<event>
 7    1  0.6008063E-006  0.1696966E+03  0.7546771E-02  0.1184132E+00
          2   -1    0    0  501    0  0.00000000000E+00  0.00000000000E+00  0.44654434655E+03  0.44654434655E+03  0.00000000000E+00 0. -1.
         -2   -1    0    0    0  501 -0.00000000000E+00 -0.00000000000E+00 -0.56889767466E+02  0.56889767466E+02  0.00000000000E+00 0.  1.
         23    2    1    2    0    0 -0.10214778129E+03  0.52321496178E+02  0.22371637556E+03  0.28079520584E+03  0.12500089098E+03 0.  0.
          5    1    3    3  502    0  0.11510530362E+02  0.53740049775E+02  0.60843995343E+02  0.82125312957E+02  0.47000000000E+01 0. -1.
         -5    1    3    3    0  502 -0.11365831165E+03 -0.14185535971E+01  0.16287238021E+03  0.19866989288E+03  0.47000000000E+01 0. -1.
        -11    1    1    2    0    0  0.61846486070E+02  0.90641981184E+01  0.12195691251E+03  0.13704246070E+03  0.00000000000E+00 0. -1.
         11    1    1    2    0    0  0.40301295218E+02 -0.61385694296E+02  0.43981291019E+02  0.85596447474E+02  0.00000000000E+00 0.  1.
<mgrwt>
<rscale>  0 0.16411113E+03</rscale>
<asrwt>0</asrwt>
<pdfrwt beam="1">  1        2 0.68699128E-01 0.16969658E+03</pdfrwt>
<pdfrwt beam="2">  1       -2 0.87522722E-02 0.16969658E+03</pdfrwt>
<totfact> 0.56388792E+03</totfact>
</mgrwt>
</event>
<event>
 7    1  0.6008063E-006  0.1309405E+03  0.7546771E-02  0.1239954E+00
          1   -1    0    0  501    0  0.00000000000E+00  0.00000000000E+00  0.10324399218E+03  0.10324399218E+03  0.00000000000E+00 0. -1.
         -1   -1    0    0    0  501 -0.00000000000E+00 -0.00000000000E+00 -0.12876399316E+03  0.12876399316E+03  0.00000000000E+00 0.  1.
         23    2    1    2    0    0 -0.68988915157E+01 -0.38348434298E+02 -0.27369311371E+01  0.13096910779E+03  0.12500887683E+03 0.  0.
          5    1    3    3  502    0 -0.11431724079E+02 -0.55207284449E+02  0.49823846484E+02  0.75385902197E+02  0.47000000000E+01 0.  1.
         -5    1    3    3    0  502  0.45328325633E+01  0.16858850151E+02 -0.52560777621E+02  0.55583205589E+02  0.47000000000E+01 0.  1.
        -11    1    1    2    0    0 -0.28748962869E+02  0.22870704954E+02 -0.43550108503E+02  0.56975292555E+02  0.00000000000E+00 0.  1.
         11    1    1    2    0    0  0.35647854384E+02  0.15477729344E+02  0.20767038658E+02  0.44063584993E+02  0.00000000000E+00 0. -1.
<mgrwt>
<rscale>  0 0.12192557E+03</rscale>
<asrwt>0</asrwt>
<pdfrwt beam="1">  1        1 0.15883691E-01 0.13094051E+03</pdfrwt>
<pdfrwt beam="2">  1       -1 0.19809845E-01 0.13094051E+03</pdfrwt>
<totfact> 0.66921455E+03</totfact>
</mgrwt>
</event>
<event>
 7    1  0.6008063E-006  0.1975854E+03  0.7546771E-02  0.1156496E+00
          3   -1    0    0  501    0  0.00000000000E+00  0.00000000000E+00  0.11828284631E+03  0.11828284631E+03  0.00000000000E+00 0. -1.
         -3   -1    0    0    0  501 -0.00000000000E+00 -0.00000000000E+00 -0.30536126000E+03  0.30536126000E+03  0.00000000000E+00 0.  1.
         23    2    1    2    0    0  0.10396469034E+02  0.15251149930E+03 -0.62304678518E+02  0.20717592645E+03  0.12518844815E+03 0.  0.
          5    1    3    3  502    0  0.44259717507E+02  0.60758076895E+02  0.21465733572E+02  0.78315606488E+02  0.47000000000E+01 0.  1.
         -5    1    3    3    0  502 -0.33863248473E+02  0.91753422400E+02 -0.83770412090E+02  0.12886031996E+03  0.47000000000E+01 0.  1.
        -11    1    1    2    0    0  0.19607961501E+02 -0.14971666504E+02 -0.52982549169E+02  0.58444618816E+02  0.00000000000E+00 0.  1.
         11    1    1    2    0    0 -0.30004430535E+02 -0.13753983279E+03 -0.71791186009E+02  0.15802356104E+03  0.00000000000E+00 0. -1.
<mgrwt>
<rscale>  0 0.19219488E+03</rscale>
<asrwt>0</asrwt>
<pdfrwt beam="1">  1        3 0.18197361E-01 0.19758540E+03</pdfrwt>
<pdfrwt beam="2">  1       -3 0.46978655E-01 0.19758540E+03</pdfrwt>
<totfact> 0.29269424E+02</totfact>
</mgrwt>
</event>
<event>
 7    1  0.6008063E-006  0.1466675E+03  0.7546771E-02  0.1212440E+00
         -2   -1    0    0    0  501 -0.00000000000E+00  0.00000000000E+00  0.87711996172E+02  0.87711996172E+02  0.00000000000E+00 0.  1.
          2   -1    0    0  501    0  0.00000000000E+00 -0.00000000000E+00 -0.24290784969E+03  0.24290784969E+03  0.00000000000E+00 0. -1.
         23    2    1    2    0    0  0.58205163934E+02  0.49979300628E+02 -0.14479793973E+03  0.20610144204E+03  0.12500235783E+03 0.  0.
          5    1    3    3  502    0  0.52270885388E+02  0.36499313150E+02 -0.35655290472E+01  0.64025372448E+02  0.47000000000E+01 0. -1.
         -5    1    3    3    0  502  0.59342785455E+01  0.13479987477E+02 -0.14123241068E+03  0.14207606960E+03  0.47000000000E+01 0. -1.
        -11    1    1    2    0    0 -0.16137307843E+02 -0.19655927458E+02 -0.52098325598E+02  0.57974164235E+02  0.00000000000E+00 0. -1.
         11    1    1    2    0    0 -0.42067856091E+02 -0.30323373170E+02  0.41700411811E+02  0.66544239583E+02  0.00000000000E+00 0.  1.
<mgrwt>
<rscale>  0 0.14066271E+03</rscale>
<asrwt>0</asrwt>
<pdfrwt beam="2">  1        2 0.37370438E-01 0.14666752E+03</pdfrwt>
<pdfrwt beam="1">  1       -2 0.13494153E-01 0.14666752E+03</pdfrwt>
<totfact> 0.53926529E+03</totfact>
</mgrwt>
</event>
<event>
 7    1  0.6008063E-006  0.1570498E+03  0.7546771E-02  0.1200390E+00
          4   -1    0    0  501    0  0.00000000000E+00  0.00000000000E+00  0.22746336014E+02  0.22746336014E+02  0.00000000000E+00 0.  1.
         -4   -1    0    0    0  501 -0.00000000000E+00 -0.00000000000E+00 -0.94006681097E+03  0.94006681097E+03  0.00000000000E+00 0. -1.
         23    2    1    2    0    0  0.92155861523E+02  0.23393148192E+02 -0.41539033692E+03  0.44408755684E+03  0.12499873572E+03 0.  0.
          5    1    3    3  502    0  0.64429971180E+02  0.61717927998E+02 -0.15095191362E+03  0.17541064406E+03  0.47000000000E+01 0.  1.
         -5    1    3    3    0  502  0.27725890343E+02 -0.38324779806E+02 -0.26443842330E+03  0.26867691278E+03  0.47000000000E+01 0.  1.
        -11    1    1    2    0    0 -0.21812295916E+02  0.30536245555E+02 -0.92728032758E+02  0.10003362737E+03  0.00000000000E+00 0. -1.
         11    1    1    2    0    0 -0.70343565607E+02 -0.53929393747E+02 -0.40920210527E+03  0.41869196277E+03  0.00000000000E+00 0.  1.
<mgrwt>
<rscale>  0 0.15006756E+03</rscale>
<asrwt>0</asrwt>
<pdfrwt beam="1">  1        4 0.34994347E-02 0.15704976E+03</pdfrwt>
<pdfrwt beam="2">  1       -4 0.14462573E+00 0.15704976E+03</pdfrwt>
<totfact> 0.25316520E+02</totfact>
</mgrwt>
</event>
<event>
 7    1  0.6008063E-006  0.1266606E+03  0.7546771E-02  0.1247360E+00
          4   -1    0    0  501    0  0.00000000000E+00  0.00000000000E+00  0.81104335910E+03  0.81104335910E+03  0.00000000000E+00 0. -1.
         -4   -1    0    0    0  501 -0.00000000000E+00 -0.00000000000E+00 -0.20313964829E+02  0.20313964829E+02  0.00000000000E+00 0.  1.
         23    2    1    2    0    0 -0.65312419866E+01  0.19347367390E+02  0.65059169967E+03  0.66280650461E+03  0.12500370046E+03 0.  0.
          5    1    3    3  502    0 -0.65286645087E+02  0.49844715766E+01  0.36256309736E+03  0.36845797664E+03  0.47000000000E+01 0.  1.
         -5    1    3    3    0  502  0.58755403101E+02  0.14362895813E+02  0.28802860231E+03  0.29434852797E+03  0.47000000000E+01 0.  1.
        -11    1    1    2    0    0 -0.16326617970E+02 -0.34769023586E+02  0.16379389971E+02  0.41757967758E+02  0.00000000000E+00 0.  1.
         11    1    1    2    0    0  0.22857859956E+02  0.15421656196E+02  0.12375830464E+03  0.12679285157E+03  0.00000000000E+00 0. -1.
<mgrwt>
<rscale>  0 0.11745217E+03</rscale>
<asrwt>0</asrwt>
<pdfrwt beam="1">  1        4 0.12477588E+00 0.12666058E+03</pdfrwt>
<pdfrwt beam="2">  1       -4 0.31252260E-02 0.12666058E+03</pdfrwt>
<totfact> 0.41953327E+02</totfact>
</mgrwt>
</event>
<event>
 7    1  0.6008063E-006  0.1299451E+03  0.7546771E-02  0.1240766E+00
          2   -1    0    0  501    0  0.00000000000E+00  0.00000000000E+00  0.47511520752E+03  0.47511520752E+03  0.00000000000E+00 0. -1.
         -2   -1    0    0    0  501 -0.00000000000E+00 -0.00000000000E+00 -0.32013814107E+02  0.32013814107E+02  0.00000000000E+00 0.  1.
         23    2    1    2    0    0  0.28360273679E+02  0.21401943847E+02  0.34073685643E+03  0.36467428689E+03  0.12499352727E+03 0.  0.
          5    1    3    3  502    0 -0.31690771994E+01 -0.23615540000E+02  0.54632533663E+01  0.24893250434E+02  0.47000000000E+01 0.  1.
         -5    1    3    3    0  502  0.31529350878E+02  0.45017483847E+02  0.33527360307E+03  0.33978103645E+03  0.47000000000E+01 0.  1.
        -11    1    1    2    0    0 -0.52418964955E+01  0.35359369254E+02  0.52135617263E+02  0.63213013378E+02  0.00000000000E+00 0. -1.
         11    1    1    2    0    0 -0.23118377183E+02 -0.56761313101E+02  0.50228919712E+02  0.79241721359E+02  0.00000000000E+00 0.  1.
<mgrwt>
<rscale>  0 0.12142425E+03</rscale>
<asrwt>0</asrwt>
<pdfrwt beam="1">  1        2 0.73094642E-01 0.12994510E+03</pdfrwt>
<pdfrwt beam="2">  1       -2 0.49252025E-02 0.12994510E+03</pdfrwt>
<totfact> 0.12480828E+04</totfact>
</mgrwt>
</event>
<event>
 7    1  0.6008063E-006  0.1343924E+03  0.7546771E-02  0.1234215E+00
          1   -1    0    0  501    0  0.00000000000E+00  0.00000000000E+00  0.10109961748E+04  0.10109961748E+04  0.00000000000E+00 0.  1.
         -1   -1    0    0    0  501 -0.00000000000E+00 -0.00000000000E+00 -0.30397220305E+02  0.30397220305E+02  0.00000000000E+00 0. -1.
         23    2    1    2    0    0  0.67389425206E+01  0.48913501954E+02  0.90300027868E+03  0.91294623561E+03  0.12499352700E+03 0.  0.
          5    1    3    3  502    0 -0.35831574701E+02  0.43245207342E+02  0.17909461239E+03  0.18775254962E+03  0.47000000000E+01 0.  1.
         -5    1    3    3    0  502  0.42570517222E+02  0.56682946111E+01  0.72390566629E+03  0.72519368598E+03  0.47000000000E+01 0.  1.
        -11    1    1    2    0    0 -0.43334347512E+02 -0.24727758402E+02  0.66614306352E+02  0.83227360409E+02  0.00000000000E+00 0.  1.
         11    1    1    2    0    0  0.36595404991E+02 -0.24185743552E+02  0.10984369470E+02  0.45219799096E+02  0.00000000000E+00 0. -1.
<mgrwt>
<rscale>  0 0.12554845E+03</rscale>
<asrwt>0</asrwt>
<pdfrwt beam="1">  1        1 0.15553785E+00 0.13439243E+03</pdfrwt>
<pdfrwt beam="2">  1       -1 0.46764962E-02 0.13439243E+03</pdfrwt>
<totfact> 0.30065082E+03</totfact>
</mgrwt>
</event>
<event>
 7    1  0.6008063E-006  0.1529757E+03  0.7546771E-02  0.1205234E+00
         -2   -1    0    0    0  501 -0.00000000000E+00  0.00000000000E+00  0.31999217454E+02  0.31999217454E+02  0.00000000000E+00 0.  1.
          2   -1    0    0  501    0  0.00000000000E+00 -0.00000000000E+00 -0.61506356850E+03  0.61506356850E+03  0.00000000000E+00 0. -1.
         23    2    1    2    0    0  0.23282032735E+02 -0.85052248962E+02 -0.32177358320E+03  0.35628612031E+03  0.12500249029E+03 0.  0.
          5    1    3    3  502    0  0.37359788990E+02 -0.26511177162E+02 -0.27777215866E+03  0.28156359579E+03  0.47000000000E+01 0. -1.
         -5    1    3    3    0  502 -0.14077756255E+02 -0.58541071800E+02 -0.44001424535E+02  0.74722524514E+02  0.47000000000E+01 0. -1.
        -11    1    1    2    0    0 -0.17690610750E+02  0.15918058977E+02 -0.37896644739E+01  0.24097797972E+02  0.00000000000E+00 0.  1.
         11    1    1    2    0    0 -0.55914219851E+01  0.69134189986E+02 -0.25750110337E+03  0.26667886767E+03  0.00000000000E+00 0. -1.
<mgrwt>
<rscale>  0 0.14618998E+03</rscale>
<asrwt>0</asrwt>
<pdfrwt beam="2">  1        2 0.94625162E-01 0.15297569E+03</pdfrwt>
<pdfrwt beam="1">  1       -2 0.49229566E-02 0.15297569E+03</pdfrwt>
<totfact> 0.94684310E+03</totfact>
</mgrwt>
</event>
<event>
 6    1  0.6008063E-006  0.1477865E+03  0.7546771E-02  0.1267580E+00
         -2   -1    0    0    0  501 -0.00000000000E+00  0.00000000000E+00  0.22390264588E+02  0.22390264588E+02  0.00000000000E+00 0. -1.
          2   -1    0    0  501    0  0.00000000000E+00 -0.00000000000E+00 -0.40120870960E+03  0.40120870960E+03  0.00000000000E+00 0.  1.
          5    1    1    2  502    0  0.75021227342E+02  0.22352970038E+02 -0.14084687036E+03  0.16120722909E+03  0.47000000000E+01 0. -1.
         -5    1    1    2    0  502 -0.60047241965E+02 -0.28801582371E+02 -0.18195037727E+03  0.19381236339E+03  0.47000000000E+01 0.  1.
        -11    1    1    2    0    0 -0.28302811101E+01  0.16551179538E+02 -0.91601137218E+01  0.19127459807E+02  0.00000000000E+00 0. -1.
         11    1    1    2    0    0 -0.12143704266E+02 -0.10102567206E+02 -0.46861083669E+02  0.49451921904E+02  0.00000000000E+00 0.  1.
<mgrwt>
<rscale>  0 0.10629967E+03</rscale>
<asrwt>0</asrwt>
<pdfrwt beam="2">  1        2 0.61724416E-01 0.14778649E+03</pdfrwt>
<pdfrwt beam="1">  1       -2 0.34446561E-02 0.14778649E+03</pdfrwt>
<totfact> 0.25787234E+04</totfact>
</mgrwt>
</event>
<event>
 7    1  0.6008063E-006  0.3003692E+03  0.7546771E-02  0.1086587E+00
         -1   -1    0    0    0  501 -0.00000000000E+00  0.00000000000E+00  0.14627021877E+03  0.14627021877E+03  0.00000000000E+00 0.  1.
          1   -1    0    0  501    0  0.00000000000E+00 -0.00000000000E+00 -0.60250004387E+03  0.60250004387E+03  0.00000000000E+00 0. -1.
         23    2    1    2    0    0 -0.21182903784E+02 -0.27230440790E+03 -0.28111620279E+03  0.41139758668E+03  0.12499299533E+03 0.  0.
          5    1    3    3  502    0 -0.16522361291E+02 -0.14095550278E+03 -0.22998958813E+03  0.27029380835E+03  0.47000000000E+01 0.  1.
         -5    1    3    3    0  502 -0.46605424927E+01 -0.13134890512E+03 -0.51126614666E+02  0.14110377833E+03  0.47000000000E+01 0.  1.
        -11    1    1    2    0    0 -0.20313617009E+02  0.10979099051E+03 -0.11204448619E+03  0.15817923858E+03  0.00000000000E+00 0. -1.
         11    1    1    2    0    0  0.41496520792E+02  0.16251341739E+03 -0.63069136118E+02  0.17919343738E+03  0.00000000000E+00 0.  1.
<mgrwt>
<rscale>  0 0.29732262E+03</rscale>
<asrwt>0</asrwt>
<pdfrwt beam="2">  1        1 0.92692312E-01 0.30036920E+03</pdfrwt>
<pdfrwt beam="1">  1       -1 0.22503111E-01 0.30036920E+03</pdfrwt>
<totfact> 0.58233603E+02</totfact>
</mgrwt>
</event>
<event>
 7    1  0.6008063E-006  0.1368629E+03  0.7546771E-02  0.1228881E+00
         -2   -1    0    0    0  501 -0.00000000000E+00  0.00000000000E+00  0.24016551814E+03  0.24016551814E+03  0.00000000000E+00 0.  1.
          2   -1    0    0  501    0  0.00000000000E+00 -0.00000000000E+00 -0.71626703291E+02  0.71626703291E+02  0.00000000000E+00 0. -1.
         23    2    1    2    0    0  0.31067197421E+02  0.46306803176E+02  0.37560612951E+02  0.14192340186E+03  0.12498784571E+03 0.  0.
          5    1    3    3  502    0 -0.32997794532E+02  0.44197647683E+02  0.52110240469E+02  0.76025348841E+02  0.47000000000E+01 0. -1.
         -5    1    3    3    0  502  0.64064991953E+02  0.21091554931E+01 -0.14549627518E+02  0.65898053020E+02  0.47000000000E+01 0. -1.
        -11    1    1    2    0    0 -0.20715861343E+02 -0.74921063504E+02  0.93337717738E+02  0.12146704170E+03  0.00000000000E+00 0. -1.
         11    1    1    2    0    0 -0.10351336078E+02  0.28614260328E+02  0.37640484161E+02  0.48401777866E+02  0.00000000000E+00 0.  1.
<mgrwt>
<rscale>  0 0.12904409E+03</rscale>
<asrwt>0</asrwt>
<pdfrwt beam="2">  1        2 0.11019493E-01 0.13686290E+03</pdfrwt>
<pdfrwt beam="1">  1       -2 0.36948541E-01 0.13686290E+03</pdfrwt>
<totfact> 0.37668377E+03</totfact>
</mgrwt>
</event>
<event>
 7    1  0.6008063E-006  0.1494070E+03  0.7546771E-02  0.1210862E+00
          2   -1    0    0  501    0  0.00000000000E+00  0.00000000000E+00  0.16972331149E+04  0.16972331149E+04  0.00000000000E+00 0.  1.
         -2   -1    0    0    0  501 -0.00000000000E+00 -0.00000000000E+00 -0.14506926908E+02  0.14506926908E+02  0.00000000000E+00 0. -1.
         23    2    1    2    0    0 -0.81371108672E+02 -0.87159176113E+01  0.13369736855E+04  0.13452959127E+04  0.12500092981E+03 0.  0.
          5    1    3    3  502    0 -0.36247612142E+02 -0.65876821286E+02  0.59777186831E+03  0.60250057387E+03  0.47000000000E+01 0.  1.
         -5    1    3    3    0  502 -0.45123496530E+02  0.57160903675E+02  0.73920181717E+03  0.74279533881E+03  0.47000000000E+01 0.  1.
        -11    1    1    2    0    0  0.10376608920E+02 -0.36015721417E+02  0.10583931655E+03  0.11227986074E+03  0.00000000000E+00 0.  1.
         11    1    1    2    0    0  0.70994499752E+02  0.44731639028E+02  0.23991318598E+03  0.25416426841E+03  0.00000000000E+00 0. -1.
<mgrwt>
<rscale>  0 0.14184942E+03</rscale>
<asrwt>0</asrwt>
<pdfrwt beam="1">  1        2 0.26111263E+00 0.14940702E+03</pdfrwt>
<pdfrwt beam="2">  1       -2 0.22318363E-02 0.14940702E+03</pdfrwt>
<totfact> 0.69524518E+03</totfact>
</mgrwt>
</event>
<event>
 7    1  0.6008063E-006  0.1950343E+03  0.7546771E-02  0.1158557E+00
         -2   -1    0    0    0  501 -0.00000000000E+00  0.00000000000E+00  0.30761364984E+02  0.30761364984E+02  0.00000000000E+00 0.  1.
          2   -1    0    0  501    0  0.00000000000E+00 -0.00000000000E+00 -0.15037551322E+04  0.15037551322E+04  0.00000000000E+00 0. -1.
         23    2    1    2    0    0  0.13833683943E+03 -0.57238265381E+02 -0.11556042950E+04  0.11719469473E+04  0.12500024257E+03 0.  0.
          5    1    3    3  502    0  0.14057689988E+03 -0.98382690439E+01 -0.71501947604E+03  0.72878913098E+03  0.47000000000E+01 0. -1.
         -5    1    3    3    0  502 -0.22400604512E+01 -0.47399996337E+02 -0.44058481893E+03  0.44315781635E+03  0.47000000000E+01 0. -1.
        -11    1    1    2    0    0 -0.12550088789E+03  0.18204419437E+02 -0.27841324826E+03  0.30593432392E+03  0.00000000000E+00 0. -1.
         11    1    1    2    0    0 -0.12835951536E+02  0.39033845944E+02 -0.38976224024E+02  0.56635225966E+02  0.00000000000E+00 0.  1.
<mgrwt>
<rscale>  0 0.18989428E+03</rscale>
<asrwt>0</asrwt>
<pdfrwt beam="2">  1        2 0.23134686E+00 0.19503426E+03</pdfrwt>
<pdfrwt beam="1">  1       -2 0.47325194E-02 0.19503426E+03</pdfrwt>
<totfact> 0.28881534E+03</totfact>
</mgrwt>
</event>
<event>
 7    1  0.6008063E-006  0.1259294E+03  0.7546771E-02  0.1244574E+00
         -1   -1    0    0    0  501 -0.00000000000E+00  0.00000000000E+00  0.46561224979E+02  0.46561224979E+02  0.00000000000E+00 0.  1.
          1   -1    0    0  501    0  0.00000000000E+00 -0.00000000000E+00 -0.27613746990E+03  0.27613746990E+03  0.00000000000E+00 0. -1.
         23    2    1    2    0    0  0.11395980216E+02  0.10189462568E+02 -0.13133826554E+03  0.18195589891E+03  0.12499806255E+03 0.  0.
          5    1    3    3  502    0  0.87659107195E+01 -0.36103922442E+02 -0.13004782179E+03  0.13533240691E+03  0.47000000000E+01 0.  1.
         -5    1    3    3    0  502  0.26300694962E+01  0.46293385010E+02 -0.12904437468E+01  0.46623492000E+02  0.47000000000E+01 0.  1.
        -11    1    1    2    0    0  0.32446162695E+02  0.25896934923E+02 -0.57223352210E+02  0.70695945783E+02  0.00000000000E+00 0.  1.
         11    1    1    2    0    0 -0.43842142911E+02 -0.36086397491E+02 -0.41014627167E+02  0.70046850183E+02  0.00000000000E+00 0. -1.
<mgrwt>
<rscale>  0 0.11910924E+03</rscale>
<asrwt>0</asrwt>
<pdfrwt beam="2">  1        1 0.42482687E-01 0.12592938E+03</pdfrwt>
<pdfrwt beam="1">  1       -1 0.71632655E-02 0.12592938E+03</pdfrwt>
<totfact> 0.93420693E+03</totfact>
</mgrwt>
</event>
<event>
 7    1  0.6008063E-006  0.1261004E+03  0.7546771E-02  0.1240437E+00
          1   -1    0    0  501    0  0.00000000000E+00  0.00000000000E+00  0.34215233814E+03  0.34215233814E+03  0.00000000000E+00 0. -1.
         -1   -1    0    0    0  501 -0.00000000000E+00 -0.00000000000E+00 -0.44129155310E+02  0.44129155310E+02  0.00000000000E+00 0.  1.
         23    2    1    2    0    0 -0.16095236943E+02 -0.37872714990E+01  0.21462509065E+03  0.24892819284E+03  0.12501166176E+03 0.  0.
          5    1    3    3  502    0  0.18316000331E+02  0.53774969547E+02  0.77457765545E+02  0.96171818435E+02  0.47000000000E+01 0.  1.
         -5    1    3    3    0  502 -0.34411237274E+02 -0.57562241046E+02  0.13716732511E+03  0.15275637441E+03  0.47000000000E+01 0.  1.
        -11    1    1    2    0    0 -0.11830094165E+01 -0.51033427787E+02  0.46492783170E+02  0.69046282665E+02  0.00000000000E+00 0. -1.
         11    1    1    2    0    0  0.17278246359E+02  0.54820699286E+02  0.36905309010E+02  0.68307017945E+02  0.00000000000E+00 0.  1.
<mgrwt>
<rscale>  0 0.12162686E+03</rscale>
<asrwt>0</asrwt>
<pdfrwt beam="1">  1        1 0.52638820E-01 0.12610042E+03</pdfrwt>
<pdfrwt beam="2">  1       -1 0.67891010E-02 0.12610042E+03</pdfrwt>
<totfact> 0.77668393E+03</totfact>
</mgrwt>
</event>
<event>
 7    1  0.6008063E-006  0.2201247E+03  0.7546771E-02  0.1137195E+00
          2   -1    0    0  501    0  0.00000000000E+00  0.00000000000E+00  0.29622274868E+03  0.29622274868E+03  0.00000000000E+00 0. -1.
         -2   -1    0    0    0  501 -0.00000000000E+00 -0.00000000000E+00 -0.22345593920E+03  0.22345593920E+03  0.00000000000E+00 0.  1.
         23    2    1    2    0    0  0.16835339057E+03 -0.66978864805E+02  0.18544215588E+03  0.28782579862E+03  0.12500345887E+03 0.  0.
          5    1    3    3  502    0  0.94433341382E+01 -0.53662053351E+02  0.20641482315E+02  0.58454711714E+02  0.47000000000E+01 0.  1.
         -5    1    3    3    0  502  0.15891005643E+03 -0.13316811455E+02  0.16480067356E+03  0.22937108690E+03  0.47000000000E+01 0.  1.
        -11    1    1    2    0    0 -0.16837320166E+03  0.45309226169E+02 -0.11670001145E+03  0.20981266331E+03  0.00000000000E+00 0.  1.
         11    1    1    2    0    0  0.19811093692E-01  0.21669638637E+02  0.40246650544E+01  0.22040225950E+02  0.00000000000E+00 0. -1.
<mgrwt>
<rscale>  0 0.21561503E+03</rscale>
<asrwt>0</asrwt>
<pdfrwt beam="1">  1        2 0.45572730E-01 0.22012473E+03</pdfrwt>
<pdfrwt beam="2">  1       -2 0.34377837E-01 0.22012473E+03</pdfrwt>
<totfact> 0.88036835E+02</totfact>
</mgrwt>
</event>
<event>
 7    1  0.6008063E-006  0.1298330E+03  0.7546771E-02  0.1240465E+00
         -1   -1    0    0    0  501 -0.00000000000E+00  0.00000000000E+00  0.21183030716E+02  0.21183030716E+02  0.00000000000E+00 0.  1.
          1   -1    0    0  501    0  0.00000000000E+00 -0.00000000000E+00 -0.65554750748E+03  0.65554750748E+03  0.00000000000E+00 0. -1.
         23    2    1    2    0    0  0.15982983653E+02  0.31256053005E+02 -0.43112990964E+03  0.45025503825E+03  0.12499681546E+03 0.  0.
          5    1    3    3  502    0  0.49309631746E+02  0.21929193584E+02 -0.75547018046E+02  0.92961127628E+02  0.47000000000E+01 0.  1.
         -5    1    3    3    0  502 -0.33326648093E+02  0.93268594218E+01 -0.35558289159E+03  0.35729391063E+03  0.47000000000E+01 0.  1.
        -11    1    1    2    0    0 -0.52571746148E+02 -0.27170233543E+02 -0.15414469594E+03  0.16511389212E+03  0.00000000000E+00 0.  1.
         11    1    1    2    0    0  0.36588762495E+02 -0.40858194627E+01 -0.49089871192E+02  0.61361607828E+02  0.00000000000E+00 0. -1.
<mgrwt>
<rscale>  0 0.12160947E+03</rscale>
<asrwt>0</asrwt>
<pdfrwt beam="2">  1        1 0.10085346E+00 0.12983297E+03</pdfrwt>
<pdfrwt beam="1">  1       -1 0.32589278E-02 0.12983297E+03</pdfrwt>
<totfact> 0.98735045E+03</totfact>
</mgrwt>
</event>
<event>
 7    1  0.6008063E-006  0.1424914E+03  0.7546771E-02  0.1221486E+00
          2   -1    0    0  501    0  0.00000000000E+00  0.00000000000E+00  0.10325932877E+03  0.10325932877E+03  0.00000000000E+00 0. -1.
         -2   -1    0    0    0  501 -0.00000000000E+00 -0.00000000000E+00 -0.17924043632E+03  0.17924043632E+03  0.00000000000E+00 0.  1.
         23    2    1    2    0    0 -0.67792205991E+02 -0.90476731651E+01  0.79340600297E+01  0.14271213035E+03  0.12500463695E+03 0.  0.
          5    1    3    3  502    0 -0.58800488837E+02  0.30026009885E+02  0.51092742775E+02  0.83615890364E+02  0.47000000000E+01 0.  1.
         -5    1    3    3    0  502 -0.89917171539E+01 -0.39073683050E+02 -0.43158682745E+02  0.59096239988E+02  0.47000000000E+01 0.  1.
        -11    1    1    2    0    0  0.81012780051E+02 -0.16818935916E+02 -0.61347435169E+02  0.10300220842E+03  0.00000000000E+00 0. -1.
         11    1    1    2    0    0 -0.13220574060E+02  0.25866609081E+02 -0.22567732409E+02  0.36785426324E+02  0.00000000000E+00 0.  1.
<mgrwt>
<rscale>  0 0.13410661E+03</rscale>
<asrwt>0</asrwt>
<pdfrwt beam="1">  1        2 0.15886051E-01 0.14249141E+03</pdfrwt>
<pdfrwt beam="2">  1       -2 0.27575451E-01 0.14249141E+03</pdfrwt>
<totfact> 0.41614996E+03</totfact>
</mgrwt>
</event>
<event>
 7    1  0.6008063E-006  0.2960317E+03  0.7546771E-02  0.1088907E+00
          1   -1    0    0  501    0  0.00000000000E+00  0.00000000000E+00  0.85371036102E+03  0.85371036102E+03  0.00000000000E+00 0. -1.
         -1   -1    0    0    0  501 -0.00000000000E+00 -0.00000000000E+00 -0.10281418430E+03  0.10281418430E+03  0.00000000000E+00 0.  1.
         23    2    1    2    0    0  0.19963010335E+03  0.17933308642E+03  0.48400306036E+03  0.56735677617E+03  0.12498885943E+03 0.  0.
          5    1    3    3  502    0  0.37391323569E+02  0.12420522144E+02  0.12660447837E+02  0.41650418821E+02  0.47000000000E+01 0. -1.
         -5    1    3    3    0  502  0.16223877979E+03  0.16691256428E+03  0.47134261252E+03  0.52570635735E+03  0.47000000000E+01 0. -1.
        -11    1    1    2    0    0 -0.34719701555E+02 -0.82457015782E+02  0.10999322254E+03  0.14178549338E+03  0.00000000000E+00 0. -1.
         11    1    1    2    0    0 -0.16491040180E+03 -0.96876070639E+02  0.15689989382E+03  0.24738227577E+03  0.00000000000E+00 0.  1.
<mgrwt>
<rscale>  0 0.29277818E+03</rscale>
<asrwt>0</asrwt>
<pdfrwt beam="1">  1        1 0.13134005E+00 0.29603167E+03</pdfrwt>
<pdfrwt beam="2">  1       -1 0.15817567E-01 0.29603167E+03</pdfrwt>
<totfact> 0.61549307E+02</totfact>
</mgrwt>
</event>
<event>
 7    1  0.6008063E-006  0.1288876E+03  0.7546771E-02  0.1242738E+00
          2   -1    0    0  501    0  0.00000000000E+00  0.00000000000E+00  0.12180437439E+03  0.12180437439E+03  0.00000000000E+00 0. -1.
         -2   -1    0    0    0  501 -0.00000000000E+00 -0.00000000000E+00 -0.11534117919E+03  0.11534117919E+03  0.00000000000E+00 0.  1.
         23    2    1    2    0    0  0.28456699342E+02  0.13322054513E+02  0.38418736081E+02  0.13449169248E+03  0.12499902075E+03 0.  0.
          5    1    3    3  502    0 -0.47172344557E+02 -0.11026077924E+02  0.21048097144E+02  0.53027510584E+02  0.47000000000E+01 0. -1.
         -5    1    3    3    0  502  0.75629043898E+02  0.24348132437E+02  0.17370638936E+02  0.81464181891E+02  0.47000000000E+01 0. -1.
        -11    1    1    2    0    0 -0.40943032983E+01 -0.51445735557E+02 -0.23145406932E+02  0.56560913081E+02  0.00000000000E+00 0.  1.
         11    1    1    2    0    0 -0.24362396043E+02  0.38123681044E+02 -0.88101339524E+01  0.46092948024E+02  0.00000000000E+00 0. -1.
<mgrwt>
<rscale>  0 0.12021785E+03</rscale>
<asrwt>0</asrwt>
<pdfrwt beam="1">  1        2 0.18739135E-01 0.12888761E+03</pdfrwt>
<pdfrwt beam="2">  1       -2 0.17744797E-01 0.12888761E+03</pdfrwt>
<totfact> 0.72848304E+03</totfact>
</mgrwt>
</event>
<event>
 7    1  0.6008063E-006  0.1357857E+03  0.7546771E-02  0.1230813E+00
         -2   -1    0    0    0  501 -0.00000000000E+00  0.00000000000E+00  0.29515188980E+02  0.29515188980E+02  0.00000000000E+00 0.  1.
          2   -1    0    0  501    0  0.00000000000E+00 -0.00000000000E+00 -0.51860681237E+03  0.51860681237E+03  0.00000000000E+00 0. -1.
         23    2    1    2    0    0 -0.31235179917E+02 -0.42846991147E+02 -0.32857833911E+03  0.35552984188E+03  0.12500496957E+03 0.  0.
          5    1    3    3  502    0  0.60127798376E+01  0.20200788222E+02 -0.30202584585E+01  0.21804525386E+02  0.47000000000E+01 0.  1.
         -5    1    3    3    0  502 -0.37247959755E+02 -0.63047779369E+02 -0.32555808065E+03  0.33372531649E+03  0.47000000000E+01 0.  1.
        -11    1    1    2    0    0  0.32104087644E+02  0.70094532146E+02 -0.13381007382E+03  0.15443138196E+03  0.00000000000E+00 0. -1.
         11    1    1    2    0    0 -0.86890772652E+00 -0.27247540999E+02 -0.26703210463E+02  0.38160777510E+02  0.00000000000E+00 0.  1.
<mgrwt>
<rscale>  0 0.12776322E+03</rscale>
<asrwt>0</asrwt>
<pdfrwt beam="2">  1        2 0.79785660E-01 0.13578565E+03</pdfrwt>
<pdfrwt beam="1">  1       -2 0.45407985E-02 0.13578565E+03</pdfrwt>
<totfact> 0.12847182E+04</totfact>
</mgrwt>
</event>
<event>
 7    1  0.6008063E-006  0.1453531E+03  0.7546771E-02  0.1216462E+00
         -2   -1    0    0    0  501 -0.00000000000E+00  0.00000000000E+00  0.22384094244E+02  0.22384094244E+02  0.00000000000E+00 0.  1.
          2   -1    0    0  501    0  0.00000000000E+00 -0.00000000000E+00 -0.85836059677E+03  0.85836059677E+03  0.00000000000E+00 0. -1.
         23    2    1    2    0    0 -0.16781564668E+01 -0.74167638711E+02 -0.59962267438E+03  0.61698856055E+03  0.12499550943E+03 0.  0.
          5    1    3    3  502    0  0.54050713135E+02 -0.40333172497E+01 -0.18853036653E+03  0.19622317993E+03  0.47000000000E+01 0. -1.
         -5    1    3    3    0  502 -0.55728869602E+02 -0.70134321461E+02 -0.41109230785E+03  0.42076538062E+03  0.47000000000E+01 0. -1.
        -11    1    1    2    0    0  0.39078198419E+02  0.61086813085E+02 -0.11365823238E+03  0.13482172716E+03  0.00000000000E+00 0.  1.
         11    1    1    2    0    0 -0.37400041953E+02  0.13080825626E+02 -0.12269559576E+03  0.12893440331E+03  0.00000000000E+00 0. -1.
<mgrwt>
<rscale>  0 0.13769712E+03</rscale>
<asrwt>0</asrwt>
<pdfrwt beam="2">  1        2 0.13205547E+00 0.14535313E+03</pdfrwt>
<pdfrwt beam="1">  1       -2 0.34437070E-02 0.14535313E+03</pdfrwt>
<totfact> 0.10747915E+04</totfact>
</mgrwt>
</event>
<event>
 7    1  0.6008063E-006  0.1313994E+03  0.7546771E-02  0.1235338E+00
         -2   -1    0    0    0  501 -0.00000000000E+00  0.00000000000E+00  0.71388374759E+02  0.71388374759E+02  0.00000000000E+00 0.  1.
          2   -1    0    0  501    0  0.00000000000E+00 -0.00000000000E+00 -0.26146226740E+03  0.26146226740E+03  0.00000000000E+00 0. -1.
         23    2    1    2    0    0  0.61007043532E+01  0.40009376086E+02 -0.18341079766E+03  0.22562205621E+03  0.12501129062E+03 0.  0.
          5    1    3    3  502    0 -0.26422811338E+02  0.70645760368E+02 -0.15506543390E+03  0.17250033973E+03  0.47000000000E+01 0. -1.
         -5    1    3    3    0  502  0.32523515691E+02 -0.30636384282E+02 -0.28345363759E+02  0.53121716477E+02  0.47000000000E+01 0. -1.
        -11    1    1    2    0    0 -0.33604223401E+02 -0.85772118514E+01  0.34263802689E+02  0.48752646782E+02  0.00000000000E+00 0.  1.
         11    1    1    2    0    0  0.27503519048E+02 -0.31432164234E+02 -0.40926897666E+02  0.58475939163E+02  0.00000000000E+00 0. -1.
<mgrwt>
<rscale>  0 0.12482816E+03</rscale>
<asrwt>0</asrwt>
<pdfrwt beam="2">  1        2 0.40224965E-01 0.13139936E+03</pdfrwt>
<pdfrwt beam="1">  1       -2 0.10982827E-01 0.13139936E+03</pdfrwt>
<totfact> 0.68838139E+03</totfact>
</mgrwt>
</event>
<event>
 7    1  0.6008063E-006  0.1800746E+03  0.7546771E-02  0.1173705E+00
         -1   -1    0    0    0  501 -0.00000000000E+00  0.00000000000E+00  0.20403906512E+03  0.20403906512E+03  0.00000000000E+00 0.  1.
          1   -1    0    0  501    0  0.00000000000E+00 -0.00000000000E+00 -0.17550206677E+03  0.17550206677E+03  0.00000000000E+00 0. -1.
         23    2    1    2    0    0  0.98673541515E+02  0.84057711733E+02 -0.70995194878E+02  0.19356443503E+03  0.12499882446E+03 0.  0.
          5    1    3    3  502    0  0.68154710778E+02  0.18881282860E+01 -0.80123103305E+02  0.10531111676E+03  0.47000000000E+01 0. -1.
         -5    1    3    3    0  502  0.30518830737E+02  0.82169583447E+02  0.91279084272E+01  0.88253318270E+02  0.47000000000E+01 0. -1.
        -11    1    1    2    0    0 -0.11462210843E+03 -0.78959596670E+02  0.81164340488E+02  0.16112261112E+03  0.00000000000E+00 0. -1.
         11    1    1    2    0    0  0.15948566918E+02 -0.50981150629E+01  0.18367852733E+02  0.24854085740E+02  0.00000000000E+00 0.  1.
<mgrwt>
<rscale>  0 0.17403397E+03</rscale>
<asrwt>0</asrwt>
<pdfrwt beam="2">  1        1 0.27000318E-01 0.18007463E+03</pdfrwt>
<pdfrwt beam="1">  1       -1 0.31390625E-01 0.18007463E+03</pdfrwt>
<totfact> 0.16189822E+03</totfact>
</mgrwt>
</event>
<event>
 7    1  0.6008063E-006  0.1489340E+03  0.7546771E-02  0.1209223E+00
          1   -1    0    0  501    0  0.00000000000E+00  0.00000000000E+00  0.55926889068E+03  0.55926889068E+03  0.00000000000E+00 0. -1.
         -1   -1    0    0    0  501 -0.00000000000E+00 -0.00000000000E+00 -0.37001953877E+02  0.37001953877E+02  0.00000000000E+00 0.  1.
         23    2    1    2    0    0  0.66434741713E+02  0.46296036565E+02  0.36474736449E+03  0.39398219495E+03  0.12499772849E+03 0.  0.
          5    1    3    3  502    0 -0.15956373131E+02  0.62216321410E+02  0.14263865428E+03  0.15650352133E+03  0.47000000000E+01 0. -1.
         -5    1    3    3    0  502  0.82391114844E+02 -0.15920284846E+02  0.22210871021E+03  0.23747867362E+03  0.47000000000E+01 0. -1.
        -11    1    1    2    0    0 -0.40179648970E+02 -0.47881499413E+02  0.16373585049E+03  0.17526115061E+03  0.00000000000E+00 0. -1.
         11    1    1    2    0    0 -0.26255092743E+02  0.15854628481E+01 -0.62162781801E+01  0.27027498992E+02  0.00000000000E+00 0.  1.
<mgrwt>
<rscale>  0 0.14309567E+03</rscale>
<asrwt>0</asrwt>
<pdfrwt beam="1">  1        1 0.86041362E-01 0.14893398E+03</pdfrwt>
<pdfrwt beam="2">  1       -1 0.56926087E-02 0.14893398E+03</pdfrwt>
<totfact> 0.54375741E+03</totfact>
</mgrwt>
</event>
<event>
 6    1  0.6008063E-006  0.2319545E+03  0.7546771E-02  0.1132686E+00
          1   -1    0    0  501    0  0.00000000000E+00  0.00000000000E+00  0.37060468318E+03  0.37060468318E+03  0.00000000000E+00 0. -1.
         -1   -1    0    0    0  501 -0.00000000000E+00 -0.00000000000E+00 -0.21852440359E+03  0.21852440359E+03  0.00000000000E+00 0.  1.
          5    1    1    2  502    0  0.74794783149E+02  0.30562334458E+02  0.21023635893E+03  0.22527701279E+03  0.47000000000E+01 0. -1.
         -5    1    1    2    0  502  0.87479879751E+02 -0.78964145536E+02  0.65008054755E+02  0.13467072000E+03  0.47000000000E+01 0.  1.
        -11    1    1    2    0    0 -0.91059973806E+02  0.30405085164E+02 -0.12261378309E+03  0.15572580979E+03  0.00000000000E+00 0.  1.
         11    1    1    2    0    0 -0.71214689094E+02  0.17996725914E+02 -0.55035101501E+00  0.73455544192E+02  0.00000000000E+00 0. -1.
<mgrwt>
<rscale>  0 0.22161299E+03</rscale>
<asrwt>0</asrwt>
<pdfrwt beam="1">  1        1 0.57016105E-01 0.23195448E+03</pdfrwt>
<pdfrwt beam="2">  1       -1 0.33619139E-01 0.23195448E+03</pdfrwt>
<totfact> 0.56422650E+02</totfact>
</mgrwt>
</event>
<event>
 7    1  0.6008063E-006  0.2136555E+03  0.7546771E-02  0.1142423E+00
         -2   -1    0    0    0  501 -0.00000000000E+00  0.00000000000E+00  0.11193114035E+03  0.11193114035E+03  0.00000000000E+00 0.  1.
          2   -1    0    0  501    0  0.00000000000E+00 -0.00000000000E+00 -0.39075097222E+03  0.39075097222E+03  0.00000000000E+00 0. -1.
         23    2    1    2    0    0 -0.44006256737E+01  0.17321894637E+03 -0.19796048757E+03  0.29126795274E+03  0.12499798704E+03 0.  0.
          5    1    3    3  502    0 -0.61230929020E+01  0.71016905596E+02 -0.17119423439E+03  0.18550053648E+03  0.47000000000E+01 0. -1.
         -5    1    3    3    0  502  0.17224672283E+01  0.10220204077E+03 -0.26766253178E+02  0.10576741625E+03  0.47000000000E+01 0. -1.
        -11    1    1    2    0    0  0.45397097644E+02 -0.11889483897E+03 -0.53954883502E+02  0.13823172089E+03  0.00000000000E+00 0.  1.
         11    1    1    2    0    0 -0.40996471970E+02 -0.54324107404E+02 -0.26904460797E+02  0.73182438946E+02  0.00000000000E+00 0. -1.
<mgrwt>
<rscale>  0 0.20892159E+03</rscale>
<asrwt>0</asrwt>
<pdfrwt beam="2">  1        2 0.60115535E-01 0.21365548E+03</pdfrwt>
<pdfrwt beam="1">  1       -2 0.17220175E-01 0.21365548E+03</pdfrwt>
<totfact> 0.22043279E+03</totfact>
</mgrwt>
</event>
<event>
 7    1  0.6008063E-006  0.1652649E+03  0.7546771E-02  0.1189455E+00
         -2   -1    0    0    0  501 -0.00000000000E+00  0.00000000000E+00  0.94968128512E+02  0.94968128512E+02  0.00000000000E+00 0.  1.
          2   -1    0    0  501    0  0.00000000000E+00 -0.00000000000E+00 -0.25073247694E+03  0.25073247694E+03  0.00000000000E+00 0. -1.
         23    2    1    2    0    0 -0.73277894079E+02 -0.79480803999E+02 -0.72964382068E+02  0.18065512197E+03  0.12500249630E+03 0.  0.
          5    1    3    3  502    0 -0.44776049232E+02 -0.10348370147E+03 -0.18293306607E+02  0.11432631421E+03  0.47000000000E+01 0.  1.
         -5    1    3    3    0  502 -0.28501844847E+02  0.24002897474E+02 -0.54671075461E+02  0.66328807760E+02  0.47000000000E+01 0.  1.
        -11    1    1    2    0    0  0.60154047880E+02  0.71402093770E+00 -0.19799880169E+02  0.63332886851E+02  0.00000000000E+00 0. -1.
         11    1    1    2    0    0  0.13123846199E+02  0.78766783061E+02 -0.63000086195E+02  0.10171259663E+03  0.00000000000E+00 0.  1.
<mgrwt>
<rscale>  0 0.15932981E+03</rscale>
<asrwt>0</asrwt>
<pdfrwt beam="2">  1        2 0.38574227E-01 0.16526485E+03</pdfrwt>
<pdfrwt beam="1">  1       -2 0.14610481E-01 0.16526485E+03</pdfrwt>
<totfact> 0.46110296E+03</totfact>
</mgrwt>
</event>
<event>
 7    1  0.6008063E-006  0.1354740E+03  0.7546771E-02  0.1225392E+00
          1   -1    0    0  501    0  0.00000000000E+00  0.00000000000E+00  0.51472953845E+03  0.51472953845E+03  0.00000000000E+00 0. -1.
         -1   -1    0    0    0  501 -0.00000000000E+00 -0.00000000000E+00 -0.39723184074E+02  0.39723184074E+02  0.00000000000E+00 0.  1.
         23    2    1    2    0    0 -0.72602971035E+02  0.27519362115E+02  0.37364942021E+03  0.39745073295E+03  0.11101661679E+03 0.  0.
          5    1    3    3  502    0 -0.45491242775E+01  0.15096795024E+02  0.28223824400E+03  0.28271739269E+03  0.47000000000E+01 0. -1.
         -5    1    3    3    0  502 -0.68053846758E+02  0.12422567090E+02  0.91411176215E+02  0.11473334027E+03  0.47000000000E+01 0.  1.
        -11    1    1    2    0    0  0.53551839473E+02 -0.60146894512E+02  0.56614908341E+02  0.98441334188E+02  0.00000000000E+00 0. -1.
         11    1    1    2    0    0  0.19051131562E+02  0.32627532397E+02  0.44742025817E+02  0.58560655378E+02  0.00000000000E+00 0.  1.
<mgrwt>
<rscale>  0 0.13140084E+03</rscale>
<asrwt>0</asrwt>
<pdfrwt beam="1">  1        1 0.79189155E-01 0.13547397E+03</pdfrwt>
<pdfrwt beam="2">  1       -1 0.61112595E-02 0.13547397E+03</pdfrwt>
<totfact> 0.54341870E+03</totfact>
</mgrwt>
</event>
<event>
 7    1  0.6008063E-006  0.1299274E+03  0.7546771E-02  0.1234707E+00
         -2   -1    0    0    0  501 -0.00000000000E+00  0.00000000000E+00  0.28925125209E+02  0.28925125209E+02  0.00000000000E+00 0.  1.
          2   -1    0    0  501    0  0.00000000000E+00 -0.00000000000E+00 -0.60952731437E+03  0.60952731437E+03  0.00000000000E+00 0. -1.
         23    2    1    2    0    0  0.60255337504E+02  0.25733612781E+02 -0.43900159227E+03  0.45782476828E+03  0.11219712967E+03 0.  0.
          5    1    3    3  502    0 -0.20635101321E+02 -0.22375217165E+02 -0.17069788370E+03  0.17345407245E+03  0.47000000000E+01 0. -1.
         -5    1    3    3    0  502  0.80890438825E+02  0.48108829945E+02 -0.26830370857E+03  0.28437069582E+03  0.47000000000E+01 0.  1.
        -11    1    1    2    0    0  0.26616371397E+01  0.14213642248E+02  0.57023393449E+01  0.15544407748E+02  0.00000000000E+00 0.  1.
         11    1    1    2    0    0 -0.62916974644E+02 -0.39947255029E+02 -0.14730293624E+03  0.16508326356E+03  0.00000000000E+00 0. -1.
<mgrwt>
<rscale>  0 0.12523239E+03</rscale>
<asrwt>0</asrwt>
<pdfrwt beam="2">  1        2 0.93773433E-01 0.12992737E+03</pdfrwt>
<pdfrwt beam="1">  1       -2 0.44500193E-02 0.12992737E+03</pdfrwt>
<totfact> 0.11012116E+04</totfact>
</mgrwt>
</event>
<event>
 7    1  0.6008063E-006  0.2329150E+03  0.7546771E-02  0.1127560E+00
         -2   -1    0    0    0  501 -0.00000000000E+00  0.00000000000E+00  0.46594243689E+03  0.46594243689E+03  0.00000000000E+00 0.  1.
          2   -1    0    0  501    0  0.00000000000E+00 -0.00000000000E+00 -0.13034346406E+03  0.13034346406E+03  0.00000000000E+00 0. -1.
         23    2    1    2    0    0 -0.39862706520E+02  0.19244645160E+03  0.50539530564E+02  0.23833517370E+03  0.12499895507E+03 0.  0.
          5    1    3    3  502    0 -0.39341969290E+02  0.79549211889E+02 -0.36124068037E+02  0.95931777589E+02  0.47000000000E+01 0. -1.
         -5    1    3    3    0  502 -0.52073722972E+00  0.11289723972E+03  0.86663598600E+02  0.14240339611E+03  0.47000000000E+01 0. -1.
        -11    1    1    2    0    0  0.59770735783E+01 -0.17907960323E+03  0.22394872981E+03  0.28680701401E+03  0.00000000000E+00 0.  1.
         11    1    1    2    0    0  0.33885632942E+02 -0.13366848372E+02  0.61110712458E+02  0.71143713231E+02  0.00000000000E+00 0. -1.
<mgrwt>
<rscale>  0 0.22869666E+03</rscale>
<asrwt>0</asrwt>
<pdfrwt beam="2">  1        2 0.20052841E-01 0.23291503E+03</pdfrwt>
<pdfrwt beam="1">  1       -2 0.71683451E-01 0.23291503E+03</pdfrwt>
<totfact> 0.50201523E+02</totfact>
</mgrwt>
</event>
<event>
 7    1  0.6008063E-006  0.1382291E+03  0.7546771E-02  0.1226138E+00
         -1   -1    0    0    0  501 -0.00000000000E+00  0.00000000000E+00  0.39736270768E+02  0.39736270768E+02  0.00000000000E+00 0.  1.
          1   -1    0    0  501    0  0.00000000000E+00 -0.00000000000E+00 -0.39389796924E+03  0.39389796924E+03  0.00000000000E+00 0. -1.
         23    2    1    2    0    0 -0.61783870047E+02  0.50828914451E+01 -0.17843442665E+03  0.22571246485E+03  0.12354832978E+03 0.  0.
          5    1    3    3  502    0 -0.59680058660E+02 -0.38593599840E+02 -0.42733074694E+02  0.83062512742E+02  0.47000000000E+01 0. -1.
         -5    1    3    3    0  502 -0.21038113874E+01  0.43676491285E+02 -0.13570135196E+03  0.14264995211E+03  0.47000000000E+01 0.  1.
        -11    1    1    2    0    0  0.15166408955E+02 -0.44286603553E+02 -0.10242440528E+03  0.11261475042E+03  0.00000000000E+00 0. -1.
         11    1    1    2    0    0  0.46617461092E+02  0.39203712107E+02 -0.73302866539E+02  0.95307024738E+02  0.00000000000E+00 0.  1.
<mgrwt>
<rscale>  0 0.13089227E+03</rscale>
<asrwt>0</asrwt>
<pdfrwt beam="2">  1        1 0.60599690E-01 0.13822906E+03</pdfrwt>
<pdfrwt beam="1">  1       -1 0.61132722E-02 0.13822906E+03</pdfrwt>
<totfact> 0.76638026E+03</totfact>
</mgrwt>
</event>
<event>
 7    1  0.6008063E-006  0.2005093E+03  0.7546771E-02  0.1154217E+00
         -1   -1    0    0    0  501 -0.00000000000E+00  0.00000000000E+00  0.10754334495E+04  0.10754334495E+04  0.00000000000E+00 0.  1.
          1   -1    0    0  501    0  0.00000000000E+00 -0.00000000000E+00 -0.34111470605E+02  0.34111470605E+02  0.00000000000E+00 0. -1.
         23    2    1    2    0    0  0.31588673853E+02  0.15357027092E+03  0.47044039498E+03  0.51138843555E+03  0.12498917697E+03 0.  0.
          5    1    3    3  502    0 -0.35409354875E+02  0.41221139859E+01  0.69207491442E+02  0.77990904009E+02  0.47000000000E+01 0.  1.
         -5    1    3    3    0  502  0.66998028729E+02  0.14944815694E+03  0.40123290354E+03  0.43339753154E+03  0.47000000000E+01 0.  1.
        -11    1    1    2    0    0 -0.12511270543E+02 -0.15270046281E+03  0.54412324404E+03  0.56528229049E+03  0.00000000000E+00 0.  1.
         11    1    1    2    0    0 -0.19077403310E+02 -0.86980810832E+00  0.26758339925E+02  0.32874194115E+02  0.00000000000E+00 0. -1.
<mgrwt>
<rscale>  0 0.19478245E+03</rscale>
<asrwt>0</asrwt>
<pdfrwt beam="2">  1        1 0.52479194E-02 0.20050927E+03</pdfrwt>
<pdfrwt beam="1">  1       -1 0.16545127E+00 0.20050927E+03</pdfrwt>
<totfact> 0.45131701E+02</totfact>
</mgrwt>
</event>
<event>
 7    1  0.6008063E-006  0.1269381E+03  0.7546771E-02  0.1247599E+00
          3   -1    0    0  501    0  0.00000000000E+00  0.00000000000E+00  0.31928060330E+03  0.31928060330E+03  0.00000000000E+00 0. -1.
         -3   -1    0    0    0  501 -0.00000000000E+00 -0.00000000000E+00 -0.40917782120E+02  0.40917782120E+02  0.00000000000E+00 0.  1.
         23    2    1    2    0    0 -0.20068336374E+02 -0.92755026774E+01  0.20890446540E+03  0.24444703934E+03  0.12499802519E+03 0.  0.
          5    1    3    3  502    0 -0.15752468037E+02  0.26130310928E+01 -0.13624055240E+02  0.21509836399E+02  0.47000000000E+01 0.  1.
         -5    1    3    3    0  502 -0.43158683368E+01 -0.11888533770E+02  0.22252852064E+03  0.22293720294E+03  0.47000000000E+01 0.  1.
        -11    1    1    2    0    0 -0.75965683236E+01  0.94053964370E+01 -0.19304058252E+02  0.22777532734E+02  0.00000000000E+00 0.  1.
         11    1    1    2    0    0  0.27664904697E+02 -0.12989375962E+00  0.88762414031E+02  0.92973813350E+02  0.00000000000E+00 0. -1.
<mgrwt>
<rscale>  0 0.11731171E+03</rscale>
<asrwt>0</asrwt>
<pdfrwt beam="1">  1        3 0.49120091E-01 0.12693809E+03</pdfrwt>
<pdfrwt beam="2">  1       -3 0.62950436E-02 0.12693809E+03</pdfrwt>
<totfact> 0.14833795E+03</totfact>
</mgrwt>
</event>
<event>
 6    1  0.6008063E-006  0.2507735E+03  0.7546771E-02  0.1135948E+00
          1   -1    0    0  501    0  0.00000000000E+00  0.00000000000E+00  0.15288056834E+04  0.15288056834E+04  0.00000000000E+00 0. -1.
         -1   -1    0    0    0  501 -0.00000000000E+00 -0.00000000000E+00 -0.26912857992E+02  0.26912857992E+02  0.00000000000E+00 0.  1.
          5    1    1    2  502    0  0.15801832258E+03  0.98207054845E+00  0.10171519143E+04  0.10293642997E+04  0.47000000000E+01 0. -1.
         -5    1    1    2    0  502 -0.60536094817E+02 -0.14974583355E+02  0.12235742091E+03  0.13741282827E+03  0.47000000000E+01 0.  1.
        -11    1    1    2    0    0 -0.73967754194E+02  0.46132689651E+02  0.15557960725E+03  0.17833807195E+03  0.00000000000E+00 0.  1.
         11    1    1    2    0    0 -0.23514473574E+02 -0.32140176845E+02  0.20680388299E+03  0.21060334151E+03  0.00000000000E+00 0. -1.
<mgrwt>
<rscale>  0 0.21725208E+03</rscale>
<asrwt>0</asrwt>
<pdfrwt beam="1">  1        1 0.23520081E+00 0.25077349E+03</pdfrwt>
<pdfrwt beam="2">  1       -1 0.41404409E-02 0.25077349E+03</pdfrwt>
<totfact> 0.16005003E+03</totfact>
</mgrwt>
</event>
<event>
 6    1  0.6008063E-006  0.2646475E+03  0.7546771E-02  0.1117110E+00
         -1   -1    0    0    0  501 -0.00000000000E+00  0.00000000000E+00  0.12130468732E+03  0.12130468732E+03  0.00000000000E+00 0.  1.
          1   -1    0    0  501    0  0.00000000000E+00 -0.00000000000E+00 -0.52235117477E+03  0.52235117477E+03  0.00000000000E+00 0. -1.
          5    1    1    2  502    0  0.79170172629E+02 -0.71927258010E+02 -0.19587695462E+03  0.22322929474E+03  0.47000000000E+01 0. -1.
         -5    1    1    2    0  502 -0.12094944101E+03 -0.91954439959E+02 -0.16585464550E+03  0.22497608705E+03  0.47000000000E+01 0.  1.
        -11    1    1    2    0    0  0.26476600885E+02  0.14552751413E+03  0.17635706664E+01  0.14792693448E+03  0.00000000000E+00 0.  1.
         11    1    1    2    0    0  0.15302667496E+02  0.18354183842E+02 -0.41078457995E+02  0.47523545830E+02  0.00000000000E+00 0. -1.
<mgrwt>
<rscale>  0 0.24407195E+03</rscale>
<asrwt>0</asrwt>
<pdfrwt beam="2">  1        1 0.80361718E-01 0.26464753E+03</pdfrwt>
<pdfrwt beam="1">  1       -1 0.18662260E-01 0.26464753E+03</pdfrwt>
<totfact> 0.96318703E+02</totfact>
</mgrwt>
</event>
<event>
 7    1  0.6008063E-006  0.1286440E+03  0.7546771E-02  0.1243637E+00
         -2   -1    0    0    0  501 -0.00000000000E+00  0.00000000000E+00  0.72006213550E+02  0.72006213550E+02  0.00000000000E+00 0.  1.
          2   -1    0    0  501    0  0.00000000000E+00 -0.00000000000E+00 -0.17947952905E+03  0.17947952905E+03  0.00000000000E+00 0. -1.
         23    2    1    2    0    0  0.10775903450E+02  0.28455572402E+02 -0.79241966672E+02  0.15109128698E+03  0.12499379193E+03 0.  0.
          5    1    3    3  502    0  0.12383836189E+02 -0.27504235538E+02  0.20390571125E+02  0.36711139483E+02  0.47000000000E+01 0. -1.
         -5    1    3    3    0  502 -0.16079327399E+01  0.55959807941E+02 -0.99632537797E+02  0.11438014749E+03  0.47000000000E+01 0. -1.
        -11    1    1    2    0    0 -0.34709371366E+02 -0.22641032266E+02  0.20168504964E+02  0.46088234888E+02  0.00000000000E+00 0.  1.
         11    1    1    2    0    0  0.23933467916E+02 -0.58145401367E+01 -0.48399853791E+02  0.54306220735E+02  0.00000000000E+00 0. -1.
<mgrwt>
<rscale>  0 0.11967341E+03</rscale>
<asrwt>0</asrwt>
<pdfrwt beam="2">  1        2 0.27612235E-01 0.12864403E+03</pdfrwt>
<pdfrwt beam="1">  1       -2 0.11077879E-01 0.12864403E+03</pdfrwt>
<totfact> 0.10155132E+04</totfact>
</mgrwt>
</event>
<event>
 7    1  0.6008063E-006  0.2577788E+03  0.7546771E-02  0.1110751E+00
         -2   -1    0    0    0  501 -0.00000000000E+00  0.00000000000E+00  0.40674482331E+03  0.40674482331E+03  0.00000000000E+00 0.  1.
          2   -1    0    0  501    0  0.00000000000E+00 -0.00000000000E+00 -0.21523430319E+03  0.21523430319E+03  0.00000000000E+00 0. -1.
         23    2    1    2    0    0  0.21794308507E+03 -0.57670814455E+02 -0.67642772140E+02  0.26650599851E+03  0.12499916579E+03 0.  0.
          5    1    3    3  502    0 -0.65418056551E+01  0.18264886471E+02  0.19216420920E+00  0.19963171745E+02  0.47000000000E+01 0. -1.
         -5    1    3    3    0  502  0.22448489073E+03 -0.75935700926E+02 -0.67834936349E+02  0.24654282677E+03  0.47000000000E+01 0. -1.
        -11    1    1    2    0    0 -0.13166748470E+03  0.45144386266E+02  0.21899974337E+03  0.25949032686E+03  0.00000000000E+00 0.  1.
         11    1    1    2    0    0 -0.86275600376E+02  0.12526428188E+02  0.40153548891E+02  0.95982801126E+02  0.00000000000E+00 0. -1.
<mgrwt>
<rscale>  0 0.25408338E+03</rscale>
<asrwt>0</asrwt>
<pdfrwt beam="2">  1        2 0.33112970E-01 0.25777879E+03</pdfrwt>
<pdfrwt beam="1">  1       -2 0.62576127E-01 0.25777879E+03</pdfrwt>
<totfact> 0.38243911E+02</totfact>
</mgrwt>
</event>
<event>
 7    1  0.6008063E-006  0.1284934E+03  0.7546771E-02  0.1244538E+00
          1   -1    0    0  501    0  0.00000000000E+00  0.00000000000E+00  0.29055698874E+03  0.29055698874E+03  0.00000000000E+00 0. -1.
         -1   -1    0    0    0  501 -0.00000000000E+00 -0.00000000000E+00 -0.44489452233E+02  0.44489452233E+02  0.00000000000E+00 0.  1.
         23    2    1    2    0    0 -0.28721420160E+02 -0.68059016390E+01  0.17164896142E+03  0.21441531363E+03  0.12505726884E+03 0.  0.
          5    1    3    3  502    0  0.18946859532E+02 -0.49905583030E+02  0.36932360578E+02  0.65081794394E+02  0.47000000000E+01 0.  1.
         -5    1    3    3    0  502 -0.47668279692E+02  0.43099681391E+02  0.13471660085E+03  0.14933351924E+03  0.47000000000E+01 0.  1.
        -11    1    1    2    0    0 -0.69450120209E+01 -0.37448592418E+02  0.30934632718E+02  0.49067114929E+02  0.00000000000E+00 0. -1.
         11    1    1    2    0    0  0.35666432181E+02  0.44254494057E+02  0.43483942366E+02  0.71564012412E+02  0.00000000000E+00 0.  1.
<mgrwt>
<rscale>  0 0.11913074E+03</rscale>
<asrwt>0</asrwt>
<pdfrwt beam="1">  1        1 0.44701074E-01 0.12849343E+03</pdfrwt>
<pdfrwt beam="2">  1       -1 0.68445313E-02 0.12849343E+03</pdfrwt>
<totfact> 0.94066736E+03</totfact>
</mgrwt>
</event>
<event>
 6    1  0.6008063E-006  0.3792506E+03  0.7546771E-02  0.1074653E+00
          3   -1    0    0  501    0  0.00000000000E+00  0.00000000000E+00  0.13971786946E+03  0.13971786946E+03  0.00000000000E+00 0. -1.
         -3   -1    0    0    0  501 -0.00000000000E+00 -0.00000000000E+00 -0.59903054658E+03  0.59903054658E+03  0.00000000000E+00 0.  1.
          5    1    1    2  502    0 -0.25522982841E+02  0.15313735728E+03 -0.27910724544E+02  0.15780865437E+03  0.47000000000E+01 0. -1.
         -5    1    1    2    0  502  0.17718619897E+03 -0.64944560200E+02 -0.24567335831E+03  0.30982290746E+03  0.47000000000E+01 0.  1.
        -11    1    1    2    0    0 -0.12806445456E+03 -0.53323534448E+02 -0.86900591850E+02  0.16369366729E+03  0.00000000000E+00 0. -1.
         11    1    1    2    0    0 -0.23598761561E+02 -0.34869262637E+02 -0.98828002416E+02  0.10742318691E+03  0.00000000000E+00 0.  1.
<mgrwt>
<rscale>  0 0.32217412E+03</rscale>
<asrwt>0</asrwt>
<pdfrwt beam="1">  1        3 0.21495056E-01 0.37925061E+03</pdfrwt>
<pdfrwt beam="2">  1       -3 0.92158547E-01 0.37925061E+03</pdfrwt>
<totfact> 0.54706142E+01</totfact>
</mgrwt>
</event>
<event>
 7    1  0.6008063E-006  0.1629299E+03  0.7546771E-02  0.1192320E+00
         -1   -1    0    0    0  501 -0.00000000000E+00  0.00000000000E+00  0.21175997864E+02  0.21175997864E+02  0.00000000000E+00 0.  1.
          1   -1    0    0  501    0  0.00000000000E+00 -0.00000000000E+00 -0.24636608217E+04  0.24636608217E+04  0.00000000000E+00 0. -1.
         23    2    1    2    0    0 -0.13278610921E+02 -0.10367459560E+03 -0.21911613902E+04  0.21972105915E+04  0.12498560857E+03 0.  0.
          5    1    3    3  502    0 -0.14832614966E+02  0.53245402690E+01 -0.39529282068E+02  0.42813681652E+02  0.47000000000E+01 0.  1.
         -5    1    3    3    0  502  0.15540040449E+01 -0.10899913587E+03 -0.21516321081E+04  0.21543969099E+04  0.47000000000E+01 0.  1.
        -11    1    1    2    0    0  0.25094577506E+02  0.45530745851E+02 -0.33453238834E+02  0.61821564413E+02  0.00000000000E+00 0.  1.
         11    1    1    2    0    0 -0.11815966585E+02  0.58143849745E+02 -0.21787019475E+03  0.22580466357E+03  0.00000000000E+00 0. -1.
<mgrwt>
<rscale>  0 0.15683269E+03</rscale>
<asrwt>0</asrwt>
<pdfrwt beam="2">  1        1 0.37902457E+00 0.16292988E+03</pdfrwt>
<pdfrwt beam="1">  1       -1 0.32578473E-02 0.16292988E+03</pdfrwt>
<totfact> 0.57096798E+02</totfact>
</mgrwt>
</event>
<event>
 7    1  0.6008063E-006  0.1356060E+03  0.7546771E-02  0.1230303E+00
         -2   -1    0    0    0  501 -0.00000000000E+00  0.00000000000E+00  0.36859655435E+03  0.36859655435E+03  0.00000000000E+00 0.  1.
          2   -1    0    0  501    0  0.00000000000E+00 -0.00000000000E+00 -0.46988961566E+02  0.46988961566E+02  0.00000000000E+00 0. -1.
         23    2    1    2    0    0 -0.37579000681E+02 -0.36772488388E+02  0.98132523476E+02  0.16738871390E+03  0.12499836872E+03 0.  0.
          5    1    3    3  502    0 -0.57321910058E+02 -0.71772465763E+02  0.50617598304E+02  0.10498247222E+03  0.47000000000E+01 0.  1.
         -5    1    3    3    0  502  0.19742909377E+02  0.34999977375E+02  0.47514925172E+02  0.62406241683E+02  0.47000000000E+01 0.  1.
        -11    1    1    2    0    0  0.39543026125E+02 -0.57999341231E+01  0.18957087020E+03  0.19373798022E+03  0.00000000000E+00 0.  1.
         11    1    1    2    0    0 -0.19640254440E+01  0.42572422511E+02  0.33904199104E+02  0.54458821795E+02  0.00000000000E+00 0. -1.
<mgrwt>
<rscale>  0 0.12809998E+03</rscale>
<asrwt>0</asrwt>
<pdfrwt beam="2">  1        2 0.72290712E-02 0.13560601E+03</pdfrwt>
<pdfrwt beam="1">  1       -2 0.56707160E-01 0.13560601E+03</pdfrwt>
<totfact> 0.27623153E+03</totfact>
</mgrwt>
</event>
<event>
 7    1  0.6008063E-006  0.1288543E+03  0.7546771E-02  0.1244531E+00
         -1   -1    0    0    0  501 -0.00000000000E+00  0.00000000000E+00  0.28122357838E+02  0.28122357838E+02  0.00000000000E+00 0.  1.
          1   -1    0    0  501    0  0.00000000000E+00 -0.00000000000E+00 -0.47805898496E+03  0.47805898496E+03  0.00000000000E+00 0. -1.
         23    2    1    2    0    0 -0.26602692816E+02 -0.16417194383E+02 -0.32594130191E+03  0.35048702436E+03  0.12500477760E+03 0.  0.
          5    1    3    3  502    0 -0.50836294402E+02 -0.56235552515E+02 -0.14634708307E+03  0.16488276114E+03  0.47000000000E+01 0.  1.
         -5    1    3    3    0  502  0.24233601586E+02  0.39818358133E+02 -0.17959421883E+03  0.18560426323E+03  0.47000000000E+01 0.  1.
        -11    1    1    2    0    0  0.39444078247E+02  0.20050014568E+02 -0.13261860825E+03  0.13980534199E+03  0.00000000000E+00 0. -1.
         11    1    1    2    0    0 -0.12841385431E+02 -0.36328201856E+01  0.86232830367E+01  0.15888976450E+02  0.00000000000E+00 0.  1.
<mgrwt>
<rscale>  0 0.11913499E+03</rscale>
<asrwt>0</asrwt>
<pdfrwt beam="2">  1        1 0.73547533E-01 0.12885427E+03</pdfrwt>
<pdfrwt beam="1">  1       -1 0.43265168E-02 0.12885427E+03</pdfrwt>
<totfact> 0.99425973E+03</totfact>
</mgrwt>
</event>
<event>
 7    1  0.6008063E-006  0.1634483E+03  0.7546771E-02  0.1192128E+00
          1   -1    0    0  501    0  0.00000000000E+00  0.00000000000E+00  0.90146324243E+02  0.90146324243E+02  0.00000000000E+00 0. -1.
         -1   -1    0    0    0  501 -0.00000000000E+00 -0.00000000000E+00 -0.28410060603E+03  0.28410060603E+03  0.00000000000E+00 0.  1.
         23    2    1    2    0    0 -0.75613864711E+02  0.73294904359E+02 -0.43118753564E+02  0.16904018634E+03  0.12500303255E+03 0.  0.
          5    1    3    3  502    0 -0.13682216933E+02  0.50237116427E+02 -0.78206380091E+02  0.94070711775E+02  0.47000000000E+01 0.  1.
         -5    1    3    3    0  502 -0.61931647779E+02  0.23057787933E+02  0.35087626526E+02  0.74969474563E+02  0.47000000000E+01 0.  1.
        -11    1    1    2    0    0  0.63085632716E+02 -0.84245066755E+02 -0.79344955707E+02  0.13180535013E+03  0.00000000000E+00 0. -1.
         11    1    1    2    0    0  0.12528231995E+02  0.10950162395E+02 -0.71490572512E+02  0.73401393799E+02  0.00000000000E+00 0.  1.
<mgrwt>
<rscale>  0 0.15699803E+03</rscale>
<asrwt>0</asrwt>
<pdfrwt beam="1">  1        1 0.13868665E-01 0.16344833E+03</pdfrwt>
<pdfrwt beam="2">  1       -1 0.43707785E-01 0.16344833E+03</pdfrwt>
<totfact> 0.21310136E+03</totfact>
</mgrwt>
</event>
<event>
 7    1  0.6008063E-006  0.1326018E+03  0.7546771E-02  0.1237085E+00
          2   -1    0    0  501    0  0.00000000000E+00  0.00000000000E+00  0.10409335986E+04  0.10409335986E+04  0.00000000000E+00 0. -1.
         -2   -1    0    0    0  501 -0.00000000000E+00 -0.00000000000E+00 -0.13117688812E+02  0.13117688812E+02  0.00000000000E+00 0.  1.
         23    2    1    2    0    0  0.19597836634E+01  0.44208322299E+02  0.62235046267E+03  0.63632015356E+03  0.12500009171E+03 0.  0.
          5    1    3    3  502    0 -0.40104882844E+02  0.66799117835E+02  0.28194178787E+03  0.29254706547E+03  0.47000000000E+01 0.  1.
         -5    1    3    3    0  502  0.42064666507E+02 -0.22590795535E+02  0.34040867481E+03  0.34377308809E+03  0.47000000000E+01 0.  1.
        -11    1    1    2    0    0 -0.13849376651E+02 -0.70361733629E+02  0.29495529627E+03  0.30354769903E+03  0.00000000000E+00 0.  1.
         11    1    1    2    0    0  0.11889592988E+02  0.26153411329E+02  0.11051015080E+03  0.11418343477E+03  0.00000000000E+00 0. -1.
<mgrwt>
<rscale>  0 0.12371903E+03</rscale>
<asrwt>0</asrwt>
<pdfrwt beam="1">  1        2 0.16014357E+00 0.13260181E+03</pdfrwt>
<pdfrwt beam="2">  1       -2 0.20181068E-02 0.13260181E+03</pdfrwt>
<totfact> 0.18049162E+04</totfact>
</mgrwt>
</event>
<event>
 7    1  0.6008063E-006  0.1256164E+03  0.7546771E-02  0.1249691E+00
          3   -1    0    0  501    0  0.00000000000E+00  0.00000000000E+00  0.14918459130E+02  0.14918459130E+02  0.00000000000E+00 0. -1.
         -3   -1    0    0    0  501 -0.00000000000E+00 -0.00000000000E+00 -0.82769032088E+03  0.82769032088E+03  0.00000000000E+00 0.  1.
         23    2    1    2    0    0 -0.77981538493E+00 -0.12409060093E+02 -0.37935110998E+03  0.39960824774E+03  0.12499957654E+03 0.  0.
          5    1    3    3  502    0 -0.23792099603E+02  0.51456506508E+02 -0.15217706526E+03  0.16246164241E+03  0.47000000000E+01 0.  1.
         -5    1    3    3    0  502  0.23012284218E+02 -0.63865566601E+02 -0.22717404472E+03  0.23714660532E+03  0.47000000000E+01 0.  1.
        -11    1    1    2    0    0  0.25248472864E+02  0.44558577901E+02 -0.23861966600E+03  0.24405388185E+03  0.00000000000E+00 0.  1.
         11    1    1    2    0    0 -0.24468657479E+02 -0.32149517808E+02 -0.19480108578E+03  0.19894665042E+03  0.00000000000E+00 0. -1.
<mgrwt>
<rscale>  0 0.11608962E+03</rscale>
<asrwt>0</asrwt>
<pdfrwt beam="1">  1        3 0.22951472E-02 0.12561643E+03</pdfrwt>
<pdfrwt beam="2">  1       -3 0.12733699E+00 0.12561643E+03</pdfrwt>
<totfact> 0.90382935E+02</totfact>
</mgrwt>
</event>
<event>
 7    1  0.6008063E-006  0.1400569E+03  0.7546771E-02  0.1223809E+00
         -1   -1    0    0    0  501 -0.00000000000E+00  0.00000000000E+00  0.12610529333E+03  0.12610529333E+03  0.00000000000E+00 0.  1.
          1   -1    0    0  501    0  0.00000000000E+00 -0.00000000000E+00 -0.15717997612E+03  0.15717997612E+03  0.00000000000E+00 0. -1.
         23    2    1    2    0    0 -0.59903169322E+02  0.22063838705E+02 -0.79588240896E+02  0.16109069451E+03  0.12466242856E+03 0.  0.
          5    1    3    3  502    0 -0.85615817570E+02  0.44510278438E+02 -0.81768562126E+02  0.12656785080E+03  0.47000000000E+01 0. -1.
         -5    1    3    3    0  502  0.25712648248E+02 -0.22446439733E+02  0.21803212302E+01  0.34522843702E+02  0.47000000000E+01 0. -1.
        -11    1    1    2    0    0  0.42091226361E+02 -0.30125209708E+02 -0.16482248473E+02  0.54321856662E+02  0.00000000000E+00 0. -1.
         11    1    1    2    0    0  0.17811942961E+02  0.80613710024E+01  0.64995806583E+02  0.67872718288E+02  0.00000000000E+00 0.  1.
<mgrwt>
<rscale>  0 0.13248891E+03</rscale>
<asrwt>0</asrwt>
<pdfrwt beam="2">  1        1 0.24181535E-01 0.14005686E+03</pdfrwt>
<pdfrwt beam="1">  1       -1 0.19400814E-01 0.14005686E+03</pdfrwt>
<totfact> 0.40698324E+03</totfact>
</mgrwt>
</event>
<event>
 7    1  0.6008063E-006  0.1479260E+03  0.7546771E-02  0.1226639E+00
          2   -1    0    0  501    0  0.00000000000E+00  0.00000000000E+00  0.63123811857E+03  0.63123811857E+03  0.00000000000E+00 0. -1.
         -2   -1    0    0    0  501 -0.00000000000E+00 -0.00000000000E+00 -0.24948199987E+02  0.24948199987E+02  0.00000000000E+00 0.  1.
         23    2    1    2    0    0 -0.31957551361E+02 -0.80135590308E+02  0.47226152988E+03  0.49488691467E+03  0.12016283864E+03 0.  0.
          5    1    3    3  502    0  0.47997131161E+01  0.11579044324E+01  0.30655275467E+03  0.30662853648E+03  0.47000000000E+01 0. -1.
         -5    1    3    3    0  502 -0.36757264477E+02 -0.81293494741E+02  0.16570877520E+03  0.18825837819E+03  0.47000000000E+01 0.  1.
        -11    1    1    2    0    0  0.33663761249E+02  0.60676230171E+02  0.11294849276E+03  0.13256023441E+03  0.00000000000E+00 0. -1.
         11    1    1    2    0    0 -0.17062098884E+01  0.19459360137E+02  0.21079895947E+02  0.28739169478E+02  0.00000000000E+00 0.  1.
<mgrwt>
<rscale>  0 0.13055218E+03</rscale>
<asrwt>0</asrwt>
<pdfrwt beam="1">  1        2 0.97113544E-01 0.14792601E+03</pdfrwt>
<pdfrwt beam="2">  1       -2 0.38381851E-02 0.14792601E+03</pdfrwt>
<totfact> 0.13303738E+04</totfact>
</mgrwt>
</event>
<event>
 7    1  0.6008063E-006  0.2004331E+03  0.7546771E-02  0.1158072E+00
         -2   -1    0    0    0  501 -0.00000000000E+00  0.00000000000E+00  0.99263792727E+02  0.99263792727E+02  0.00000000000E+00 0.  1.
          2   -1    0    0  501    0  0.00000000000E+00 -0.00000000000E+00 -0.34663950236E+03  0.34663950236E+03  0.00000000000E+00 0. -1.
         23    2    1    2    0    0  0.31709362319E+02  0.15343781947E+03 -0.17941195279E+03  0.26900199002E+03  0.12499909491E+03 0.  0.
          5    1    3    3  502    0 -0.47093136999E+02  0.66494692316E+02 -0.89290806018E+02  0.12097208644E+03  0.47000000000E+01 0. -1.
         -5    1    3    3    0  502  0.78802499318E+02  0.86943127152E+02 -0.90121146774E+02  0.14802990358E+03  0.47000000000E+01 0. -1.
        -11    1    1    2    0    0  0.25607736688E+01 -0.76403337951E+02 -0.16774075044E+02  0.78264916824E+02  0.00000000000E+00 0.  1.
         11    1    1    2    0    0 -0.34270135987E+02 -0.77034481516E+02 -0.51189681794E+02  0.98636388241E+02  0.00000000000E+00 0. -1.
<mgrwt>
<rscale>  0 0.19043208E+03</rscale>
<asrwt>0</asrwt>
<pdfrwt beam="2">  1        2 0.53329154E-01 0.20043309E+03</pdfrwt>
<pdfrwt beam="1">  1       -2 0.15271353E-01 0.20043309E+03</pdfrwt>
<totfact> 0.30573444E+03</totfact>
</mgrwt>
</event>
<event>
 7    1  0.6008063E-006  0.1354818E+03  0.7546771E-02  0.1232251E+00
          1   -1    0    0  501    0  0.00000000000E+00  0.00000000000E+00  0.33713751685E+03  0.33713751685E+03  0.00000000000E+00 0. -1.
         -1   -1    0    0    0  501 -0.00000000000E+00 -0.00000000000E+00 -0.48763221155E+02  0.48763221155E+02  0.00000000000E+00 0.  1.
         23    2    1    2    0    0 -0.43067387856E+02 -0.28176327437E+02  0.22914446862E+03  0.26620014099E+03  0.12532606370E+03 0.  0.
          5    1    3    3  502    0  0.17100227126E+02  0.39869661057E+02  0.60528152999E+02  0.74617390373E+02  0.47000000000E+01 0. -1.
         -5    1    3    3    0  502 -0.60167614982E+02 -0.68045988494E+02  0.16861631562E+03  0.19158275062E+03  0.47000000000E+01 0.  1.
        -11    1    1    2    0    0  0.50541803379E+02  0.54496278759E+02  0.53933204779E+02  0.91831959933E+02  0.00000000000E+00 0. -1.
         11    1    1    2    0    0 -0.74744155233E+01 -0.26319951322E+02  0.52966223028E+01  0.27868637082E+02  0.00000000000E+00 0.  1.
<mgrwt>
<rscale>  0 0.12682052E+03</rscale>
<asrwt>0</asrwt>
<pdfrwt beam="1">  1        1 0.51867309E-01 0.13548183E+03</pdfrwt>
<pdfrwt beam="2">  1       -1 0.75020343E-02 0.13548183E+03</pdfrwt>
<totfact> 0.68439530E+03</totfact>
</mgrwt>
</event>
<event>
 7    1  0.6008063E-006  0.1461270E+03  0.7546771E-02  0.1215097E+00
         -1   -1    0    0    0  501 -0.00000000000E+00  0.00000000000E+00  0.13253404554E+03  0.13253404554E+03  0.00000000000E+00 0.  1.
          1   -1    0    0  501    0  0.00000000000E+00 -0.00000000000E+00 -0.23559297071E+03  0.23559297071E+03  0.00000000000E+00 0. -1.
         23    2    1    2    0    0 -0.75736592162E+02 -0.18714119823E+01 -0.17611376580E+03  0.22884311741E+03  0.12495431287E+03 0.  0.
          5    1    3    3  502    0 -0.30456652213E+02  0.25891489685E+02  0.45206963484E+01  0.40503130714E+02  0.47000000000E+01 0. -1.
         -5    1    3    3    0  502 -0.45279939949E+02 -0.27762901668E+02 -0.18063446215E+03  0.18833998669E+03  0.47000000000E+01 0. -1.
        -11    1    1    2    0    0 -0.55934472113E+01  0.24889013041E+02 -0.28642717045E+01  0.25670092993E+02  0.00000000000E+00 0. -1.
         11    1    1    2    0    0  0.81330039373E+02 -0.23017601059E+02  0.75919112339E+02  0.11361380586E+03  0.00000000000E+00 0.  1.
<mgrwt>
<rscale>  0 0.13869400E+03</rscale>
<asrwt>0</asrwt>
<pdfrwt beam="2">  1        1 0.36245072E-01 0.14612705E+03</pdfrwt>
<pdfrwt beam="1">  1       -1 0.20389853E-01 0.14612705E+03</pdfrwt>
<totfact> 0.22722371E+03</totfact>
</mgrwt>
</event>
<event>
 7    1  0.6008063E-006  0.1252234E+03  0.7546771E-02  0.1251699E+00
         -3   -1    0    0    0  501 -0.00000000000E+00  0.00000000000E+00  0.46058159759E+02  0.46058159759E+02  0.00000000000E+00 0.  1.
          3   -1    0    0  501    0  0.00000000000E+00 -0.00000000000E+00 -0.25833934093E+03  0.25833934093E+03  0.00000000000E+00 0. -1.
         23    2    1    2    0    0 -0.74400130791E+01  0.74128416798E+00 -0.15237275575E+03  0.19722663335E+03  0.12499993964E+03 0.  0.
          5    1    3    3  502    0  0.19361952872E+02  0.52470270944E+02 -0.35106276203E+02  0.66200869940E+02  0.47000000000E+01 0.  1.
         -5    1    3    3    0  502 -0.26801965951E+02 -0.51728986776E+02 -0.11726647954E+03  0.13102576341E+03  0.47000000000E+01 0.  1.
        -11    1    1    2    0    0 -0.29348191384E+02  0.68106976344E+01  0.65531156645E+01  0.30832535813E+02  0.00000000000E+00 0.  1.
         11    1    1    2    0    0  0.36788204463E+02 -0.75519818024E+01 -0.66461541086E+02  0.76338331526E+02  0.00000000000E+00 0. -1.
<mgrwt>
<rscale>  0 0.11493276E+03</rscale>
<asrwt>0</asrwt>
<pdfrwt beam="2">  1        3 0.39744514E-01 0.12522335E+03</pdfrwt>
<pdfrwt beam="1">  1       -3 0.70858707E-02 0.12522335E+03</pdfrwt>
<totfact> 0.18505537E+03</totfact>
</mgrwt>
</event>
<event>
 7    1  0.6008063E-006  0.2213789E+03  0.7546771E-02  0.1136293E+00
         -2   -1    0    0    0  501 -0.00000000000E+00  0.00000000000E+00  0.51780691815E+02  0.51780691815E+02  0.00000000000E+00 0.  1.
          2   -1    0    0  501    0  0.00000000000E+00 -0.00000000000E+00 -0.97293236155E+03  0.97293236155E+03  0.00000000000E+00 0. -1.
         23    2    1    2    0    0 -0.15143117599E+03 -0.10223254126E+03 -0.64268330677E+03  0.67974291688E+03  0.12500282676E+03 0.  0.
          5    1    3    3  502    0 -0.45953695610E+01  0.25608222526E+02 -0.86495373993E+02  0.90445774940E+02  0.47000000000E+01 0. -1.
         -5    1    3    3    0  502 -0.14683580643E+03 -0.12784076379E+03 -0.55618793277E+03  0.58929714194E+03  0.47000000000E+01 0. -1.
        -11    1    1    2    0    0  0.72576065970E+02  0.53010774821E+02 -0.61428852570E+02  0.10886198385E+03  0.00000000000E+00 0.  1.
         11    1    1    2    0    0  0.78855110022E+02  0.49221766439E+02 -0.21703951040E+03  0.23610815264E+03  0.00000000000E+00 0. -1.
<mgrwt>
<rscale>  0 0.21679810E+03</rscale>
<asrwt>0</asrwt>
<pdfrwt beam="2">  1        2 0.14968189E+00 0.22137886E+03</pdfrwt>
<pdfrwt beam="1">  1       -2 0.79662611E-02 0.22137886E+03</pdfrwt>
<totfact> 0.25873058E+03</totfact>
</mgrwt>
</event>
<event>
 7    1  0.6008063E-006  0.1541836E+03  0.7546771E-02  0.1203555E+00
         -2   -1    0    0    0  501 -0.00000000000E+00  0.00000000000E+00  0.14599509197E+02  0.14599509197E+02  0.00000000000E+00 0.  1.
          2   -1    0    0  501    0  0.00000000000E+00 -0.00000000000E+00 -0.14454174044E+04  0.14454174044E+04  0.00000000000E+00 0. -1.
         23    2    1    2    0    0 -0.76407417427E+00  0.90263792092E+02 -0.93568687589E+03  0.94830506684E+03  0.12499773647E+03 0.  0.
          5    1    3    3  502    0 -0.43257211173E+02 -0.35507384668E+01 -0.43035389868E+03  0.43256255290E+03  0.47000000000E+01 0. -1.
         -5    1    3    3    0  502  0.42493136999E+02  0.93814530559E+02 -0.50533297721E+03  0.51574251395E+03  0.47000000000E+01 0. -1.
        -11    1    1    2    0    0 -0.17917171637E+02  0.13470974536E+02 -0.11891730522E+03  0.12101164272E+03  0.00000000000E+00 0. -1.
         11    1    1    2    0    0  0.18681245811E+02 -0.10373476663E+03 -0.37621371407E+03  0.39070020400E+03  0.00000000000E+00 0.  1.
<mgrwt>
<rscale>  0 0.14751954E+03</rscale>
<asrwt>0</asrwt>
<pdfrwt beam="2">  1        2 0.22237192E+00 0.15418356E+03</pdfrwt>
<pdfrwt beam="1">  1       -2 0.22460782E-02 0.15418356E+03</pdfrwt>
<totfact> 0.93216532E+03</totfact>
</mgrwt>
</event>
<event>
 7    1  0.6008063E-006  0.1279663E+03  0.7546771E-02  0.1244727E+00
         -2   -1    0    0    0  501 -0.00000000000E+00  0.00000000000E+00  0.98201747021E+02  0.98201747021E+02  0.00000000000E+00 0.  1.
          2   -1    0    0  501    0  0.00000000000E+00 -0.00000000000E+00 -0.13629514148E+03  0.13629514148E+03  0.00000000000E+00 0. -1.
         23    2    1    2    0    0 -0.15716683535E+02 -0.22485789386E+02 -0.51243759989E+02  0.13784522279E+03  0.12499103025E+03 0.  0.
          5    1    3    3  502    0  0.37526703304E+02 -0.17106011374E+02  0.22027031900E+02  0.46990948280E+02  0.47000000000E+01 0.  1.
         -5    1    3    3    0  502 -0.53243386839E+02 -0.53797780124E+01 -0.73270791889E+02  0.90854274515E+02  0.47000000000E+01 0.  1.
        -11    1    1    2    0    0 -0.34942178130E+02  0.12552623131E+02  0.23582322133E+02  0.43984657292E+02  0.00000000000E+00 0.  1.
         11    1    1    2    0    0  0.50658861665E+02  0.99331662546E+01 -0.10431956606E+02  0.52667008418E+02  0.00000000000E+00 0. -1.
<mgrwt>
<rscale>  0 0.11901720E+03</rscale>
<asrwt>0</asrwt>
<pdfrwt beam="2">  1        2 0.20968483E-01 0.12796633E+03</pdfrwt>
<pdfrwt beam="1">  1       -2 0.15107961E-01 0.12796633E+03</pdfrwt>
<totfact> 0.83591498E+03</totfact>
</mgrwt>
</event>
<event>
 7    1  0.6008063E-006  0.1673269E+03  0.7546771E-02  0.1187435E+00
         -1   -1    0    0    0  501 -0.00000000000E+00  0.00000000000E+00  0.90732788639E+02  0.90732788639E+02  0.00000000000E+00 0.  1.
          1   -1    0    0  501    0  0.00000000000E+00 -0.00000000000E+00 -0.27515777421E+03  0.27515777421E+03  0.00000000000E+00 0. -1.
         23    2    1    2    0    0  0.32812898076E+02 -0.10627630448E+03 -0.13073111064E+03  0.21234153648E+03  0.12500786237E+03 0.  0.
          5    1    3    3  502    0 -0.27691078868E+02 -0.49856574371E+02 -0.11436063203E+03  0.12787852836E+03  0.47000000000E+01 0. -1.
         -5    1    3    3    0  502  0.60503976944E+02 -0.56419730106E+02 -0.16370478609E+02  0.84463008122E+02  0.47000000000E+01 0. -1.
        -11    1    1    2    0    0 -0.59742791107E+02  0.88948996912E+02 -0.23842765921E+02  0.10977068200E+03  0.00000000000E+00 0. -1.
         11    1    1    2    0    0  0.26929893031E+02  0.17327307565E+02 -0.29851109010E+02  0.43778344364E+02  0.00000000000E+00 0.  1.
<mgrwt>
<rscale>  0 0.16112231E+03</rscale>
<asrwt>0</asrwt>
<pdfrwt beam="2">  1        1 0.42331965E-01 0.16732694E+03</pdfrwt>
<pdfrwt beam="1">  1       -1 0.13958891E-01 0.16732694E+03</pdfrwt>
<totfact> 0.34392925E+03</totfact>
</mgrwt>
</event>
<event>
 7    1  0.1028784E-005  0.2528167E+03  0.7546771E-02  0.1113799E+00
          2   -1    0    0  501    0  0.00000000000E+00  0.00000000000E+00  0.21051727876E+03  0.21051727876E+03  0.00000000000E+00 0.  1.
         -2   -1    0    0    0  501 -0.00000000000E+00 -0.00000000000E+00 -0.30240908750E+03  0.30240908750E+03  0.00000000000E+00 0. -1.
         23    2    1    2    0    0 -0.46126807147E+02  0.21485759559E+03  0.10792453657E+02  0.25304693643E+03  0.12499922505E+03 0.  0.
          5    1    3    3  502    0 -0.19359934379E+02 -0.67825579671E+01  0.20710569773E+02  0.29526731144E+02  0.47000000000E+01 0. -1.
         -5    1    3    3    0  502 -0.26766872768E+02  0.22164015355E+03 -0.99181161163E+01  0.22352020529E+03  0.47000000000E+01 0. -1.
        -11    1    1    2    0    0  0.69516711911E+02 -0.10185009988E+03 -0.51482301546E+02  0.13362800400E+03  0.00000000000E+00 0. -1.
         11    1    1    2    0    0 -0.23389904764E+02 -0.11300749571E+03 -0.51201960852E+02  0.12625142584E+03  0.00000000000E+00 0.  1.
<mgrwt>
<rscale>  0 0.24921962E+03</rscale>
<asrwt>0</asrwt>
<pdfrwt beam="1">  1        2 0.32387274E-01 0.25281668E+03</pdfrwt>
<pdfrwt beam="2">  1       -2 0.46524475E-01 0.25281668E+03</pdfrwt>
<totfact> 0.71563332E+02</totfact>
</mgrwt>
</event>
<event>
 7    1  0.6008063E-006  0.1385610E+03  0.7546771E-02  0.1226972E+00
          2   -1    0    0  501    0  0.00000000000E+00  0.00000000000E+00  0.28681330308E+03  0.28681330308E+03  0.00000000000E+00 0. -1.
         -2   -1    0    0    0  501 -0.00000000000E+00 -0.00000000000E+00 -0.78420328942E+02  0.78420328942E+02  0.00000000000E+00 0.  1.
         23    2    1    2    0    0 -0.36907302691E+02  0.47035902805E+02  0.21589090920E+03  0.25653075808E+03  0.12499848006E+03 0.  0.
          5    1    3    3  502    0  0.13318430374E+02  0.61041948005E+02  0.18594686743E+03  0.19621882557E+03  0.47000000000E+01 0.  1.
         -5    1    3    3    0  502 -0.50225733066E+02 -0.14006045200E+02  0.29944041777E+02  0.60311932502E+02  0.47000000000E+01 0.  1.
        -11    1    1    2    0    0  0.32721172877E+02 -0.35125564480E+02 -0.47030289058E+02  0.67203634748E+02  0.00000000000E+00 0.  1.
         11    1    1    2    0    0  0.41861298145E+01 -0.11910338325E+02  0.39532353995E+02  0.41499239201E+02  0.00000000000E+00 0. -1.
<mgrwt>
<rscale>  0 0.13032630E+03</rscale>
<asrwt>0</asrwt>
<pdfrwt beam="1">  1        2 0.44125123E-01 0.13856098E+03</pdfrwt>
<pdfrwt beam="2">  1       -2 0.12064666E-01 0.13856098E+03</pdfrwt>
<totfact> 0.53921510E+03</totfact>
</mgrwt>
</event>
<event>
 7    1  0.6008063E-006  0.1354950E+03  0.7546771E-02  0.1232274E+00
         -3   -1    0    0    0  501 -0.00000000000E+00  0.00000000000E+00  0.41447258047E+03  0.41447258047E+03  0.00000000000E+00 0.  1.
          3   -1    0    0  501    0  0.00000000000E+00 -0.00000000000E+00 -0.37136939601E+02  0.37136939601E+02  0.00000000000E+00 0. -1.
         23    2    1    2    0    0 -0.49454062969E+02 -0.16990592929E+02  0.15304956642E+03  0.20440905751E+03  0.12499803366E+03 0.  0.
          5    1    3    3  502    0 -0.28343808106E+02  0.40426835230E+02  0.12952945595E+03  0.13869992943E+03  0.47000000000E+01 0. -1.
         -5    1    3    3    0  502 -0.21110254862E+02 -0.57417428159E+02  0.23520110466E+02  0.65709128081E+02  0.47000000000E+01 0. -1.
        -11    1    1    2    0    0  0.68738305789E+02  0.29265393707E+02  0.12771999596E+03  0.14796558830E+03  0.00000000000E+00 0. -1.
         11    1    1    2    0    0 -0.19284242820E+02 -0.12274800778E+02  0.96566078491E+02  0.99234874265E+02  0.00000000000E+00 0.  1.
<mgrwt>
<rscale>  0 0.12680595E+03</rscale>
<asrwt>0</asrwt>
<pdfrwt beam="2">  1        3 0.57133756E-02 0.13549499E+03</pdfrwt>
<pdfrwt beam="1">  1       -3 0.63765009E-01 0.13549499E+03</pdfrwt>
<totfact> 0.10293484E+03</totfact>
</mgrwt>
</event>
<event>
 6    1  0.6008063E-006  0.2833290E+03  0.7546771E-02  0.1093884E+00
         -1   -1    0    0    0  501 -0.00000000000E+00  0.00000000000E+00  0.71089121955E+03  0.71089121955E+03  0.00000000000E+00 0.  1.
          1   -1    0    0  501    0  0.00000000000E+00 -0.00000000000E+00 -0.28230524122E+02  0.28230524122E+02  0.00000000000E+00 0. -1.
          5    1    1    2  502    0 -0.22801907274E+01  0.30196752581E+02  0.30718631320E+01  0.30798855162E+02  0.47000000000E+01 0. -1.
         -5    1    1    2    0  502  0.72404980277E+02 -0.40572992659E+02  0.24573683214E+03  0.25941728849E+03  0.47000000000E+01 0.  1.
        -11    1    1    2    0    0 -0.43822001213E+02 -0.33808160170E+02  0.13918977569E+03  0.14979036398E+03  0.00000000000E+00 0. -1.
         11    1    1    2    0    0 -0.26302788337E+02  0.44184400248E+02  0.29466222447E+03  0.29911523604E+03  0.00000000000E+00 0.  1.
<mgrwt>
<rscale>  0 0.28332901E+03</rscale>
<asrwt>0</asrwt>
<pdfrwt beam="2">  1        1 0.43431581E-02 0.28332901E+03</pdfrwt>
<pdfrwt beam="1">  1       -1 0.10936787E+00 0.28332901E+03</pdfrwt>
<totfact> 0.16660838E+03</totfact>
</mgrwt>
</event>
<event>
 7    1  0.6008063E-006  0.1462822E+03  0.7546771E-02  0.1214274E+00
          2   -1    0    0  501    0  0.00000000000E+00  0.00000000000E+00  0.69279825221E+03  0.69279825221E+03  0.00000000000E+00 0. -1.
         -2   -1    0    0    0  501 -0.00000000000E+00 -0.00000000000E+00 -0.26311577180E+02  0.26311577180E+02  0.00000000000E+00 0.  1.
         23    2    1    2    0    0  0.51432305982E+02  0.55920578139E+02  0.42198198787E+03  0.44661761394E+03  0.12500440726E+03 0.  0.
          5    1    3    3  502    0  0.75526373869E+02  0.72081905465E+02  0.23301080807E+03  0.25537455026E+03  0.47000000000E+01 0. -1.
         -5    1    3    3    0  502 -0.24094067887E+02 -0.16161327326E+02  0.18897117980E+03  0.19124306368E+03  0.47000000000E+01 0. -1.
        -11    1    1    2    0    0 -0.16105176327E+02 -0.47600085694E+02  0.22644473397E+03  0.23195336257E+03  0.00000000000E+00 0. -1.
         11    1    1    2    0    0 -0.35327129654E+02 -0.83204924448E+01  0.18059953191E+02  0.40538852887E+02  0.00000000000E+00 0.  1.
<mgrwt>
<rscale>  0 0.13929973E+03</rscale>
<asrwt>0</asrwt>
<pdfrwt beam="1">  1        2 0.10658433E+00 0.14628224E+03</pdfrwt>
<pdfrwt beam="2">  1       -2 0.40479355E-02 0.14628224E+03</pdfrwt>
<totfact> 0.11013482E+04</totfact>
</mgrwt>
</event>
<event>
 7    1  0.6008063E-006  0.1258753E+03  0.7546771E-02  0.1251090E+00
          2   -1    0    0  501    0  0.00000000000E+00  0.00000000000E+00  0.54293256315E+03  0.54293256315E+03  0.00000000000E+00 0. -1.
         -2   -1    0    0    0  501 -0.00000000000E+00 -0.00000000000E+00 -0.27041447960E+02  0.27041447960E+02  0.00000000000E+00 0.  1.
         23    2    1    2    0    0  0.35608772949E+01 -0.14395146333E+02  0.42427633975E+03  0.44255508398E+03  0.12499875919E+03 0.  0.
          5    1    3    3  502    0  0.16199694862E+02  0.44040888036E+02  0.30933139218E+03  0.31290578474E+03  0.47000000000E+01 0.  1.
         -5    1    3    3    0  502 -0.12638817567E+02 -0.58436034368E+02  0.11494494757E+03  0.12964929924E+03  0.47000000000E+01 0.  1.
        -11    1    1    2    0    0 -0.27429589603E+02 -0.27315579348E+02  0.53739814042E+02  0.66230588659E+02  0.00000000000E+00 0.  1.
         11    1    1    2    0    0  0.23868712309E+02  0.41710725681E+02  0.37874961398E+02  0.61188338472E+02  0.00000000000E+00 0. -1.
<mgrwt>
<rscale>  0 0.11528184E+03</rscale>
<asrwt>0</asrwt>
<pdfrwt beam="1">  1        2 0.83528078E-01 0.12587529E+03</pdfrwt>
<pdfrwt beam="2">  1       -2 0.41602232E-02 0.12587529E+03</pdfrwt>
<totfact> 0.13831900E+04</totfact>
</mgrwt>
</event>
<event>
 6    1  0.6008063E-006  0.2472039E+03  0.7546771E-02  0.1151900E+00
          1   -1    0    0  501    0  0.00000000000E+00  0.00000000000E+00  0.39464284993E+03  0.39464284993E+03  0.00000000000E+00 0. -1.
         -1   -1    0    0    0  501 -0.00000000000E+00 -0.00000000000E+00 -0.14781523995E+03  0.14781523995E+03  0.00000000000E+00 0.  1.
          5    1    1    2  502    0  0.60915504441E+02 -0.87586669721E+02  0.26302986427E+03  0.28388188194E+03  0.47000000000E+01 0. -1.
         -5    1    1    2    0  502 -0.93470728247E+02  0.56851109085E+02  0.66676685314E+02  0.12820567853E+03  0.47000000000E+01 0.  1.
        -11    1    1    2    0    0  0.32590310019E+02 -0.26217961168E+02 -0.23008804110E+02  0.47737981331E+02  0.00000000000E+00 0. -1.
         11    1    1    2    0    0 -0.35086213592E-01  0.56953521804E+02 -0.59870135504E+02  0.82632548080E+02  0.00000000000E+00 0.  1.
<mgrwt>
<rscale>  0 0.19746018E+03</rscale>
<asrwt>0</asrwt>
<pdfrwt beam="1">  1        1 0.60714284E-01 0.24720386E+03</pdfrwt>
<pdfrwt beam="2">  1       -1 0.22740806E-01 0.24720386E+03</pdfrwt>
<totfact> 0.10066873E+03</totfact>
</mgrwt>
</event>
<event>
 7    1  0.6008063E-006  0.1763544E+03  0.7546771E-02  0.1177367E+00
          2   -1    0    0  501    0  0.00000000000E+00  0.00000000000E+00  0.55559567092E+02  0.55559567092E+02  0.00000000000E+00 0. -1.
         -2   -1    0    0    0  501 -0.00000000000E+00 -0.00000000000E+00 -0.50487217460E+03  0.50487217460E+03  0.00000000000E+00 0.  1.
         23    2    1    2    0    0  0.96898538225E+02 -0.78013799311E+02 -0.19295667389E+03  0.26140607360E+03  0.12500151089E+03 0.  0.
          5    1    3    3  502    0 -0.21776473687E+02  0.13623607234E+02 -0.33536109866E+02  0.42503860357E+02  0.47000000000E+01 0. -1.
         -5    1    3    3    0  502  0.11867501191E+03 -0.91637406545E+02 -0.15942056402E+03  0.21890221324E+03  0.47000000000E+01 0. -1.
        -11    1    1    2    0    0  0.53796878244E+01  0.21247938664E+02 -0.60539744928E+01  0.22739097294E+02  0.00000000000E+00 0. -1.
         11    1    1    2    0    0 -0.10227822605E+03  0.56765860647E+02 -0.25030195913E+03  0.27628657080E+03  0.00000000000E+00 0.  1.
<mgrwt>
<rscale>  0 0.17046239E+03</rscale>
<asrwt>0</asrwt>
<pdfrwt beam="1">  1        2 0.85476255E-02 0.17635435E+03</pdfrwt>
<pdfrwt beam="2">  1       -2 0.77672644E-01 0.17635435E+03</pdfrwt>
<totfact> 0.11684298E+03</totfact>
</mgrwt>
</event>
<event>
 7    1  0.6008063E-006  0.3579575E+03  0.7546771E-02  0.1060416E+00
         -2   -1    0    0    0  501 -0.00000000000E+00  0.00000000000E+00  0.12677872471E+03  0.12677872471E+03  0.00000000000E+00 0.  1.
          2   -1    0    0  501    0  0.00000000000E+00 -0.00000000000E+00 -0.15318853881E+04  0.15318853881E+04  0.00000000000E+00 0. -1.
         23    2    1    2    0    0  0.33483395761E+03  0.19869964756E+02 -0.12056367816E+04  0.12576540164E+04  0.12499992458E+03 0.  0.
          5    1    3    3  502    0  0.92694714349E+02  0.86616534471E+01 -0.56573948427E+03  0.57336776014E+03  0.47000000000E+01 0. -1.
         -5    1    3    3    0  502  0.24213924326E+03  0.11208311309E+02 -0.63989729737E+03  0.68428625629E+03  0.47000000000E+01 0. -1.
        -11    1    1    2    0    0 -0.11594490136E+03  0.25838349690E+02 -0.36352868304E+02  0.12422709648E+03  0.00000000000E+00 0.  1.
         11    1    1    2    0    0 -0.21888905625E+03 -0.45708314446E+02 -0.16311701347E+03  0.27678299991E+03  0.00000000000E+00 0. -1.
<mgrwt>
<rscale>  0 0.35541122E+03</rscale>
<asrwt>0</asrwt>
<pdfrwt beam="2">  1        2 0.23567467E+00 0.35795751E+03</pdfrwt>
<pdfrwt beam="1">  1       -2 0.19504419E-01 0.35795751E+03</pdfrwt>
<totfact> 0.28594087E+02</totfact>
</mgrwt>
</event>
<event>
 7    1  0.6008063E-006  0.2734458E+03  0.7546771E-02  0.1100850E+00
         -2   -1    0    0    0  501 -0.00000000000E+00  0.00000000000E+00  0.98361874432E+02  0.98361874432E+02  0.00000000000E+00 0.  1.
          2   -1    0    0  501    0  0.00000000000E+00 -0.00000000000E+00 -0.11268403002E+04  0.11268403002E+04  0.00000000000E+00 0. -1.
         23    2    1    2    0    0 -0.23192945497E+03  0.73190075962E+02 -0.88390306700E+03  0.92523361618E+03  0.12499821340E+03 0.  0.
          5    1    3    3  502    0 -0.19686679835E+03  0.35736211360E+02 -0.81491155778E+03  0.83912844672E+03  0.47000000000E+01 0.  1.
         -5    1    3    3    0  502 -0.35062656615E+02  0.37453864602E+02 -0.68991509225E+02  0.86105169459E+02  0.47000000000E+01 0.  1.
        -11    1    1    2    0    0  0.67483635467E+02  0.24074834305E+02 -0.43537343079E+02  0.83839960311E+02  0.00000000000E+00 0.  1.
         11    1    1    2    0    0  0.16444581950E+03 -0.97264910268E+02 -0.10103801569E+03  0.21612859814E+03  0.00000000000E+00 0. -1.
<mgrwt>
<rscale>  0 0.27075207E+03</rscale>
<asrwt>0</asrwt>
<pdfrwt beam="2">  1        2 0.17336005E+00 0.27344581E+03</pdfrwt>
<pdfrwt beam="1">  1       -2 0.15132596E-01 0.27344581E+03</pdfrwt>
<totfact> 0.74532370E+02</totfact>
</mgrwt>
</event>
<event>
 7    1  0.6008063E-006  0.1355611E+03  0.7546771E-02  0.1231767E+00
         -1   -1    0    0    0  501 -0.00000000000E+00  0.00000000000E+00  0.21252408987E+02  0.21252408987E+02  0.00000000000E+00 0.  1.
          1   -1    0    0  501    0  0.00000000000E+00 -0.00000000000E+00 -0.99798483435E+03  0.99798483435E+03  0.00000000000E+00 0. -1.
         23    2    1    2    0    0  0.47845370510E+02 -0.21567434975E+02 -0.81687412974E+03  0.82804598632E+03  0.12498991118E+03 0.  0.
          5    1    3    3  502    0  0.19181693442E+02  0.33280047707E+02 -0.62892850081E+03  0.63011796361E+03  0.47000000000E+01 0.  1.
         -5    1    3    3    0  502  0.28663677068E+02 -0.54847482682E+02 -0.18794562893E+03  0.19792802271E+03  0.47000000000E+01 0.  1.
        -11    1    1    2    0    0 -0.65424831437E+02  0.39287702465E+02 -0.13938084391E+03  0.15890548066E+03  0.00000000000E+00 0. -1.
         11    1    1    2    0    0  0.17579460927E+02 -0.17720267490E+02 -0.20477451714E+02  0.32285776359E+02  0.00000000000E+00 0.  1.
<mgrwt>
<rscale>  0 0.12713717E+03</rscale>
<asrwt>0</asrwt>
<pdfrwt beam="2">  1        1 0.15353619E+00 0.13556110E+03</pdfrwt>
<pdfrwt beam="1">  1       -1 0.32696000E-02 0.13556110E+03</pdfrwt>
<totfact> 0.51966289E+03</totfact>
</mgrwt>
</event>
<event>
 7    1  0.6008063E-006  0.1293855E+03  0.7546771E-02  0.1241609E+00
          2   -1    0    0  501    0  0.00000000000E+00  0.00000000000E+00  0.31554253632E+03  0.31554253632E+03  0.00000000000E+00 0. -1.
         -2   -1    0    0    0  501 -0.00000000000E+00 -0.00000000000E+00 -0.49735137962E+02  0.49735137962E+02  0.00000000000E+00 0.  1.
         23    2    1    2    0    0  0.49013561098E+01 -0.33040067828E+02  0.22281635246E+03  0.25765818864E+03  0.12499978351E+03 0.  0.
          5    1    3    3  502    0 -0.32177345883E+01  0.42832001552E+01  0.21885456731E+03  0.21897057165E+03  0.47000000000E+01 0.  1.
         -5    1    3    3    0  502  0.81190906981E+01 -0.37323267983E+02  0.39617851550E+01  0.38687616989E+02  0.47000000000E+01 0.  1.
        -11    1    1    2    0    0 -0.19824184000E+02 -0.17417230172E+02  0.47987964230E+02  0.54764978673E+02  0.00000000000E+00 0. -1.
         11    1    1    2    0    0  0.14922827890E+02  0.50457298000E+02 -0.49969183332E+01  0.52854506965E+02  0.00000000000E+00 0.  1.
<mgrwt>
<rscale>  0 0.12090636E+03</rscale>
<asrwt>0</asrwt>
<pdfrwt beam="1">  1        2 0.48545004E-01 0.12938553E+03</pdfrwt>
<pdfrwt beam="2">  1       -2 0.76515599E-02 0.12938553E+03</pdfrwt>
<totfact> 0.98998925E+03</totfact>
</mgrwt>
</event>
<event>
 7    1  0.6008063E-006  0.1307464E+03  0.7546771E-02  0.1240241E+00
          1   -1    0    0  501    0  0.00000000000E+00  0.00000000000E+00  0.10843131274E+03  0.10843131274E+03  0.00000000000E+00 0. -1.
         -1   -1    0    0    0  501 -0.00000000000E+00 -0.00000000000E+00 -0.13026222268E+03  0.13026222268E+03  0.00000000000E+00 0.  1.
         23    2    1    2    0    0  0.36872828929E+02  0.10486486735E+02  0.19247196546E+02  0.13215553438E+03  0.12500023510E+03 0.  0.
          5    1    3    3  502    0  0.76571760339E+02  0.28773801885E+02  0.29379377745E+02  0.87042541283E+02  0.47000000000E+01 0. -1.
         -5    1    3    3    0  502 -0.39698931410E+02 -0.18287315150E+02 -0.10132181199E+02  0.45112993099E+02  0.47000000000E+01 0. -1.
        -11    1    1    2    0    0 -0.60046089202E+02 -0.17362404305E+02 -0.50738695755E+02  0.80507149736E+02  0.00000000000E+00 0.  1.
         11    1    1    2    0    0  0.23173260273E+02  0.68759175693E+01  0.96605892688E+01  0.26030851295E+02  0.00000000000E+00 0. -1.
<mgrwt>
<rscale>  0 0.12174777E+03</rscale>
<asrwt>0</asrwt>
<pdfrwt beam="1">  1        1 0.16681740E-01 0.13074644E+03</pdfrwt>
<pdfrwt beam="2">  1       -1 0.20040342E-01 0.13074644E+03</pdfrwt>
<totfact> 0.61670074E+03</totfact>
</mgrwt>
</event>
<event>
 7    1  0.6008063E-006  0.1272905E+03  0.7546771E-02  0.1245428E+00
          1   -1    0    0  501    0  0.00000000000E+00  0.00000000000E+00  0.26997456005E+03  0.26997456005E+03  0.00000000000E+00 0. -1.
         -1   -1    0    0    0  501 -0.00000000000E+00 -0.00000000000E+00 -0.46658925462E+02  0.46658925462E+02  0.00000000000E+00 0.  1.
         23    2    1    2    0    0 -0.20929710560E+02 -0.11884787445E+02  0.11060792760E+03  0.16863265925E+03  0.12499423652E+03 0.  0.
          5    1    3    3  502    0 -0.34143761043E+02  0.22128567431E+02  0.12313407386E+03  0.12976733048E+03  0.47000000000E+01 0. -1.
         -5    1    3    3    0  502  0.13214050483E+02 -0.34013354877E+02 -0.12526146265E+02  0.38865328770E+02  0.47000000000E+01 0. -1.
        -11    1    1    2    0    0  0.51389152953E+02 -0.10357699438E+02  0.89481932613E+02  0.10370700672E+03  0.00000000000E+00 0. -1.
         11    1    1    2    0    0 -0.30459442393E+02  0.22242486883E+02  0.23225774373E+02  0.44293819534E+02  0.00000000000E+00 0.  1.
<mgrwt>
<rscale>  0 0.11859805E+03</rscale>
<asrwt>0</asrwt>
<pdfrwt beam="1">  1        1 0.41534547E-01 0.12729046E+03</pdfrwt>
<pdfrwt beam="2">  1       -1 0.71782964E-02 0.12729046E+03</pdfrwt>
<totfact> 0.95834982E+03</totfact>
</mgrwt>
</event>
<event>
 7    1  0.6008063E-006  0.1367652E+03  0.7546771E-02  0.1229724E+00
         -2   -1    0    0    0  501 -0.00000000000E+00  0.00000000000E+00  0.48551267276E+02  0.48551267276E+02  0.00000000000E+00 0. -1.
          2   -1    0    0  501    0  0.00000000000E+00 -0.00000000000E+00 -0.33310886653E+03  0.33310886653E+03  0.00000000000E+00 0.  1.
         23    2    1    2    0    0 -0.47957769716E+02 -0.27919518779E+02 -0.21370797957E+03  0.25372388154E+03  0.12500104130E+03 0.  0.
          5    1    3    3  502    0 -0.72695032435E+02  0.21561402250E+02 -0.15671790409E+03  0.17416099813E+03  0.47000000000E+01 0. -1.
         -5    1    3    3    0  502  0.24737262719E+02 -0.49480921029E+02 -0.56990075478E+02  0.79562883405E+02  0.47000000000E+01 0. -1.
        -11    1    1    2    0    0  0.38262670488E+02  0.58685584574E+02 -0.30846567880E+02  0.76547635754E+02  0.00000000000E+00 0. -1.
         11    1    1    2    0    0  0.96950992280E+01 -0.30766065794E+02 -0.40003051799E+02  0.51388616509E+02  0.00000000000E+00 0.  1.
<mgrwt>
<rscale>  0 0.12848327E+03</rscale>
<asrwt>0</asrwt>
<pdfrwt beam="2">  1        2 0.51247515E-01 0.13676515E+03</pdfrwt>
<pdfrwt beam="1">  1       -2 0.74694262E-02 0.13676515E+03</pdfrwt>
<totfact> 0.97402103E+03</totfact>
</mgrwt>
</event>
<event>
 7    1  0.6008063E-006  0.1169774E+03  0.7546771E-02  0.1258922E+00
         -2   -1    0    0    0  501 -0.00000000000E+00  0.00000000000E+00  0.20921837195E+03  0.20921837195E+03  0.00000000000E+00 0.  1.
          2   -1    0    0  501    0  0.00000000000E+00 -0.00000000000E+00 -0.54738768640E+02  0.54738768640E+02  0.00000000000E+00 0. -1.
         23    2    1    2    0    0 -0.10510389974E+02 -0.59147184208E+01  0.64967960458E+02  0.13380783364E+03  0.11635397830E+03 0.  0.
          5    1    3    3  502    0  0.12284624065E+02  0.48080029522E+02  0.54484231074E+01  0.50143559323E+02  0.47000000000E+01 0. -1.
         -5    1    3    3    0  502 -0.22795014039E+02 -0.53994747943E+02  0.59519537350E+02  0.83664274316E+02  0.47000000000E+01 0.  1.
        -11    1    1    2    0    0 -0.15997822452E+02  0.66359515844E+01  0.10010607208E+03  0.10159326672E+03  0.00000000000E+00 0.  1.
         11    1    1    2    0    0  0.26508212427E+02 -0.72123316364E+00 -0.10594429220E+02  0.28556040234E+02  0.00000000000E+00 0. -1.
<mgrwt>
<rscale>  0 0.11089489E+03</rscale>
<asrwt>0</asrwt>
<pdfrwt beam="2">  1        2 0.84213491E-02 0.11697735E+03</pdfrwt>
<pdfrwt beam="1">  1       -2 0.32187441E-01 0.11697735E+03</pdfrwt>
<totfact> 0.66789728E+03</totfact>
</mgrwt>
</event>
<event>
 7    1  0.6008063E-006  0.1503521E+03  0.7546771E-02  0.1209020E+00
         -2   -1    0    0    0  501 -0.00000000000E+00  0.00000000000E+00  0.23672797633E+02  0.23672797633E+02  0.00000000000E+00 0.  1.
          2   -1    0    0  501    0  0.00000000000E+00 -0.00000000000E+00 -0.88819040000E+03  0.88819040000E+03  0.00000000000E+00 0. -1.
         23    2    1    2    0    0 -0.33484223217E+02  0.76553854961E+02 -0.61717064332E+03  0.63522072163E+03  0.12499630514E+03 0.  0.
          5    1    3    3  502    0  0.18253930718E+02 -0.15387616388E+02 -0.29991576801E+02  0.38620841572E+02  0.47000000000E+01 0. -1.
         -5    1    3    3    0  502 -0.51738153935E+02  0.91941471349E+02 -0.58717906652E+03  0.59659988006E+03  0.47000000000E+01 0. -1.
        -11    1    1    2    0    0 -0.24766987995E+02 -0.57412327524E+02 -0.12075780157E+03  0.13598538777E+03  0.00000000000E+00 0. -1.
         11    1    1    2    0    0  0.58251211213E+02 -0.19141527437E+02 -0.12658915747E+03  0.14065708823E+03  0.00000000000E+00 0.  1.
<mgrwt>
<rscale>  0 0.14325099E+03</rscale>
<asrwt>0</asrwt>
<pdfrwt beam="2">  1        2 0.13664467E+00 0.15035213E+03</pdfrwt>
<pdfrwt beam="1">  1       -2 0.36419690E-02 0.15035213E+03</pdfrwt>
<totfact> 0.94828192E+03</totfact>
</mgrwt>
</event>
<event>
 7    1  0.6008063E-006  0.1582026E+03  0.7546771E-02  0.1198708E+00
          1   -1    0    0  501    0  0.00000000000E+00  0.00000000000E+00  0.16621096056E+03  0.16621096056E+03  0.00000000000E+00 0. -1.
         -1   -1    0    0    0  501 -0.00000000000E+00 -0.00000000000E+00 -0.13670300194E+03  0.13670300194E+03  0.00000000000E+00 0.  1.
         23    2    1    2    0    0 -0.85663033373E+02 -0.45440237223E+02  0.55274198096E+02  0.16758077233E+03  0.12500043133E+03 0.  0.
          5    1    3    3  502    0 -0.37891658160E+02  0.27307980215E+02  0.64677296994E+02  0.79917121369E+02  0.47000000000E+01 0. -1.
         -5    1    3    3    0  502 -0.47771375213E+02 -0.72748217438E+02 -0.94030988979E+01  0.87663650956E+02  0.47000000000E+01 0. -1.
        -11    1    1    2    0    0 -0.67826869360E+01 -0.97808856414E+01  0.15907620529E+02  0.19867635916E+02  0.00000000000E+00 0. -1.
         11    1    1    2    0    0  0.92445720309E+02  0.55221122864E+02 -0.41673860000E+02  0.11546555426E+03  0.00000000000E+00 0.  1.
<mgrwt>
<rscale>  0 0.15144572E+03</rscale>
<asrwt>0</asrwt>
<pdfrwt beam="1">  1        1 0.25570917E-01 0.15820265E+03</pdfrwt>
<pdfrwt beam="2">  1       -1 0.21031231E-01 0.15820265E+03</pdfrwt>
<totfact> 0.33522103E+03</totfact>
</mgrwt>
</event>
<event>
 7    1  0.6008063E-006  0.1491527E+03  0.7546771E-02  0.1210515E+00
          2   -1    0    0  501    0  0.00000000000E+00  0.00000000000E+00  0.20559266036E+03  0.20559266036E+03  0.00000000000E+00 0. -1.
         -2   -1    0    0    0  501 -0.00000000000E+00 -0.00000000000E+00 -0.17998967602E+03  0.17998967602E+03  0.00000000000E+00 0.  1.
         23    2    1    2    0    0  0.40018801035E+02  0.70854470305E+02  0.14941163558E+03  0.21111695746E+03  0.12499868993E+03 0.  0.
          5    1    3    3  502    0 -0.35255665381E+02 -0.67112201893E+01  0.62989846551E+02  0.72648559424E+02  0.47000000000E+01 0. -1.
         -5    1    3    3    0  502  0.75274466417E+02  0.77565690495E+02  0.86421789026E+02  0.13846839804E+03  0.47000000000E+01 0. -1.
        -11    1    1    2    0    0 -0.54904137027E+02 -0.36731023483E+02 -0.12007978819E+03  0.13705031150E+03  0.00000000000E+00 0.  1.
         11    1    1    2    0    0  0.14885335991E+02 -0.34123446822E+02 -0.37288630447E+01  0.37415067422E+02  0.00000000000E+00 0. -1.
<mgrwt>
<rscale>  0 0.14211174E+03</rscale>
<asrwt>0</asrwt>
<pdfrwt beam="1">  1        2 0.31629640E-01 0.14915272E+03</pdfrwt>
<pdfrwt beam="2">  1       -2 0.27690719E-01 0.14915272E+03</pdfrwt>
<totfact> 0.19145907E+03</totfact>
</mgrwt>
</event>
<event>
 7    1  0.6008063E-006  0.2474986E+03  0.7546771E-02  0.1117399E+00
         -2   -1    0    0    0  501 -0.00000000000E+00  0.00000000000E+00  0.10354328084E+03  0.10354328084E+03  0.00000000000E+00 0.  1.
          2   -1    0    0  501    0  0.00000000000E+00 -0.00000000000E+00 -0.57215394207E+03  0.57215394207E+03  0.00000000000E+00 0. -1.
         23    2    1    2    0    0  0.10566271996E+03  0.18565532466E+03 -0.29820644627E+03  0.38753404391E+03  0.12499216226E+03 0.  0.
          5    1    3    3  502    0  0.11727692470E+03  0.13285750375E+03 -0.15903585088E+03  0.23815852963E+03  0.47000000000E+01 0. -1.
         -5    1    3    3    0  502 -0.11614204739E+02  0.52797820911E+02 -0.13917059539E+03  0.14937551428E+03  0.47000000000E+01 0. -1.
        -11    1    1    2    0    0 -0.53325071324E+02 -0.17436839954E+02 -0.44889657274E+02  0.71851847224E+02  0.00000000000E+00 0.  1.
         11    1    1    2    0    0 -0.52337648636E+02 -0.16821848471E+03 -0.12551455770E+03  0.21631133178E+03  0.00000000000E+00 0. -1.
<mgrwt>
<rscale>  0 0.24362911E+03</rscale>
<asrwt>0</asrwt>
<pdfrwt beam="2">  1        2 0.88023681E-01 0.24749859E+03</pdfrwt>
<pdfrwt beam="1">  1       -2 0.15929736E-01 0.24749859E+03</pdfrwt>
<totfact> 0.16481115E+03</totfact>
</mgrwt>
</event>
<event>
 7    1  0.6008063E-006  0.1560722E+03  0.7546771E-02  0.1200917E+00
          1   -1    0    0  501    0  0.00000000000E+00  0.00000000000E+00  0.11354742859E+03  0.11354742859E+03  0.00000000000E+00 0. -1.
         -1   -1    0    0    0  501 -0.00000000000E+00 -0.00000000000E+00 -0.18495695345E+03  0.18495695345E+03  0.00000000000E+00 0.  1.
         23    2    1    2    0    0  0.10791852495E+02 -0.92803719838E+02 -0.21771197931E+02  0.15758337348E+03  0.12501815885E+03 0.  0.
          5    1    3    3  502    0  0.34310249354E+02 -0.88365569615E+02  0.30674828357E+02  0.99743181215E+02  0.47000000000E+01 0.  1.
         -5    1    3    3    0  502 -0.23518396859E+02 -0.44381502226E+01 -0.52446026288E+02  0.57840192269E+02  0.47000000000E+01 0.  1.
        -11    1    1    2    0    0  0.19970680376E+02  0.19241733599E+02  0.20691566089E+02  0.34600770132E+02  0.00000000000E+00 0. -1.
         11    1    1    2    0    0 -0.30762532870E+02  0.73561986239E+02 -0.70329893014E+02  0.10632023843E+03  0.00000000000E+00 0.  1.
<mgrwt>
<rscale>  0 0.14963959E+03</rscale>
<asrwt>0</asrwt>
<pdfrwt beam="1">  1        1 0.17468835E-01 0.15607221E+03</pdfrwt>
<pdfrwt beam="2">  1       -1 0.28454916E-01 0.15607221E+03</pdfrwt>
<totfact> 0.33081973E+03</totfact>
</mgrwt>
</event>
<event>
 7    1  0.6008063E-006  0.1865579E+03  0.7546771E-02  0.1166749E+00
         -1   -1    0    0    0  501 -0.00000000000E+00  0.00000000000E+00  0.23231460427E+02  0.23231460427E+02  0.00000000000E+00 0.  1.
          1   -1    0    0  501    0  0.00000000000E+00 -0.00000000000E+00 -0.13358056450E+04  0.13358056450E+04  0.00000000000E+00 0. -1.
         23    2    1    2    0    0 -0.68544256220E+02 -0.12033627074E+03 -0.71305172744E+03  0.73705266359E+03  0.12499891911E+03 0.  0.
          5    1    3    3  502    0 -0.73108972147E+02 -0.12644419709E+03 -0.43564949836E+03  0.45950585656E+03  0.47000000000E+01 0.  1.
         -5    1    3    3    0  502  0.45647159268E+01  0.61079263489E+01 -0.27740222908E+03  0.27754680703E+03  0.47000000000E+01 0.  1.
        -11    1    1    2    0    0 -0.21238062397E+02  0.30664084976E+02 -0.17355965475E+03  0.17752266097E+03  0.00000000000E+00 0.  1.
         11    1    1    2    0    0  0.89782318617E+02  0.89672185765E+02 -0.42596280235E+03  0.44446178083E+03  0.00000000000E+00 0. -1.
<mgrwt>
<rscale>  0 0.18109368E+03</rscale>
<asrwt>0</asrwt>
<pdfrwt beam="2">  1        1 0.20550863E+00 0.18655793E+03</pdfrwt>
<pdfrwt beam="1">  1       -1 0.35740697E-02 0.18655793E+03</pdfrwt>
<totfact> 0.26738524E+03</totfact>
</mgrwt>
</event>
<event>
 7    1  0.6008063E-006  0.1280328E+03  0.7546771E-02  0.1244851E+00
         -1   -1    0    0    0  501 -0.00000000000E+00  0.00000000000E+00  0.61966521871E+02  0.61966521871E+02  0.00000000000E+00 0.  1.
          1   -1    0    0  501    0  0.00000000000E+00 -0.00000000000E+00 -0.21363973967E+03  0.21363973967E+03  0.00000000000E+00 0. -1.
         23    2    1    2    0    0  0.19497685532E+02 -0.19651497045E+02 -0.11901218901E+03  0.17480357800E+03  0.12500419462E+03 0.  0.
          5    1    3    3  502    0  0.50311403560E+02 -0.55378135277E+02 -0.46664921243E+02  0.88304473666E+02  0.47000000000E+01 0.  1.
         -5    1    3    3    0  502 -0.30813718027E+02  0.35726638232E+02 -0.72347267767E+02  0.86499104338E+02  0.47000000000E+01 0.  1.
        -11    1    1    2    0    0  0.21041701673E+02  0.11365853995E+02 -0.50397623091E+02  0.55784014373E+02  0.00000000000E+00 0. -1.
         11    1    1    2    0    0 -0.40539387205E+02  0.82856430498E+01  0.17736594302E+02  0.45018669163E+02  0.00000000000E+00 0.  1.
<mgrwt>
<rscale>  0 0.11894271E+03</rscale>
<asrwt>0</asrwt>
<pdfrwt beam="2">  1        1 0.32867652E-01 0.12803277E+03</pdfrwt>
<pdfrwt beam="1">  1       -1 0.95333111E-02 0.12803277E+03</pdfrwt>
<totfact> 0.83431110E+03</totfact>
</mgrwt>
</event>
<event>
 7    1  0.6008063E-006  0.2168950E+03  0.7546771E-02  0.1139400E+00
         -2   -1    0    0    0  501 -0.00000000000E+00  0.00000000000E+00  0.55027920359E+02  0.55027920359E+02  0.00000000000E+00 0.  1.
          2   -1    0    0  501    0  0.00000000000E+00 -0.00000000000E+00 -0.87782969724E+03  0.87782969724E+03  0.00000000000E+00 0. -1.
         23    2    1    2    0    0 -0.13111509169E+02 -0.17675735067E+03 -0.57085438721E+03  0.61067027703E+03  0.12501353188E+03 0.  0.
          5    1    3    3  502    0 -0.41339610520E+02 -0.10082585514E+03 -0.46314596894E+03  0.47581624080E+03  0.47000000000E+01 0. -1.
         -5    1    3    3    0  502  0.28228101350E+02 -0.75931495533E+02 -0.10770841827E+03  0.13485403623E+03  0.47000000000E+01 0. -1.
        -11    1    1    2    0    0 -0.21923685730E+02  0.36515530370E+02 -0.11670287529E+03  0.12423201300E+03  0.00000000000E+00 0. -1.
         11    1    1    2    0    0  0.35035194899E+02  0.14024182030E+03 -0.13524451438E+03  0.19795532757E+03  0.00000000000E+00 0.  1.
<mgrwt>
<rscale>  0 0.21275852E+03</rscale>
<asrwt>0</asrwt>
<pdfrwt beam="2">  1        2 0.13505072E+00 0.21689503E+03</pdfrwt>
<pdfrwt beam="1">  1       -2 0.84658341E-02 0.21689503E+03</pdfrwt>
<totfact> 0.27020162E+03</totfact>
</mgrwt>
</event>
<event>
 7    1  0.6008063E-006  0.1274980E+03  0.7546771E-02  0.1242451E+00
         -2   -1    0    0    0  501 -0.00000000000E+00  0.00000000000E+00  0.13983998068E+02  0.13983998068E+02  0.00000000000E+00 0.  1.
          2   -1    0    0  501    0  0.00000000000E+00 -0.00000000000E+00 -0.13691637457E+04  0.13691637457E+04  0.00000000000E+00 0. -1.
         23    2    1    2    0    0 -0.25918091389E+02 -0.20151710751E+02 -0.11175837843E+04  0.11248329891E+04  0.12319861754E+03 0.  0.
          5    1    3    3  502    0 -0.47723147648E+02 -0.48222524518E+02 -0.98924769461E+03  0.99158257446E+03  0.47000000000E+01 0. -1.
         -5    1    3    3    0  502  0.21805056258E+02  0.28070813767E+02 -0.12833608972E+03  0.13325041460E+03  0.47000000000E+01 0.  1.
        -11    1    1    2    0    0  0.58666459390E+02  0.29649052649E+02 -0.13405082953E+03  0.14929984821E+03  0.00000000000E+00 0.  1.
         11    1    1    2    0    0 -0.32748368000E+02 -0.94973418975E+01 -0.10354513375E+03  0.10901490647E+03  0.00000000000E+00 0. -1.
<mgrwt>
<rscale>  0 0.12039224E+03</rscale>
<asrwt>0</asrwt>
<pdfrwt beam="2">  1        2 0.21064070E+00 0.12749799E+03</pdfrwt>
<pdfrwt beam="1">  1       -2 0.21513831E-02 0.12749799E+03</pdfrwt>
<totfact> 0.10799672E+04</totfact>
</mgrwt>
</event>
<event>
 7    1  0.6008063E-006  0.1731322E+03  0.7546771E-02  0.1180945E+00
         -1   -1    0    0    0  501 -0.00000000000E+00  0.00000000000E+00  0.10210461694E+03  0.10210461694E+03  0.00000000000E+00 0.  1.
          1   -1    0    0  501    0  0.00000000000E+00 -0.00000000000E+00 -0.25991930754E+03  0.25991930754E+03  0.00000000000E+00 0. -1.
         23    2    1    2    0    0  0.23360116512E+02  0.11748758580E+03 -0.10710559318E+03  0.20358381218E+03  0.12500293048E+03 0.  0.
          5    1    3    3  502    0 -0.15323633166E+02 -0.22519747687E+02 -0.13958120512E+02  0.30965656743E+02  0.47000000000E+01 0. -1.
         -5    1    3    3    0  502  0.38683749678E+02  0.14000733349E+03 -0.93147472670E+02  0.17261815543E+03  0.47000000000E+01 0. -1.
        -11    1    1    2    0    0 -0.19721233062E+02 -0.88328767045E+02 -0.77139336324E+02  0.11891751481E+03  0.00000000000E+00 0. -1.
         11    1    1    2    0    0 -0.36388834497E+01 -0.29158818760E+02  0.26430238907E+02  0.39522597497E+02  0.00000000000E+00 0.  1.
<mgrwt>
<rscale>  0 0.16706405E+03</rscale>
<asrwt>0</asrwt>
<pdfrwt beam="2">  1        1 0.39987586E-01 0.17313221E+03</pdfrwt>
<pdfrwt beam="1">  1       -1 0.15708403E-01 0.17313221E+03</pdfrwt>
<totfact> 0.30699600E+03</totfact>
</mgrwt>
</event>
<event>
 7    1  0.6008063E-006  0.1528911E+03  0.7546771E-02  0.1205676E+00
         -2   -1    0    0    0  501 -0.00000000000E+00  0.00000000000E+00  0.46647183468E+02  0.46647183468E+02  0.00000000000E+00 0.  1.
          2   -1    0    0  501    0  0.00000000000E+00 -0.00000000000E+00 -0.61279008840E+03  0.61279008840E+03  0.00000000000E+00 0. -1.
         23    2    1    2    0    0  0.19977948993E+02 -0.85739750822E+02 -0.48631160666E+03  0.50977902650E+03  0.12500101506E+03 0.  0.
          5    1    3    3  502    0  0.36983249276E+02 -0.38766133557E+02 -0.60211691640E+02  0.80734823020E+02  0.47000000000E+01 0. -1.
         -5    1    3    3    0  502 -0.17005300282E+02 -0.46973617266E+02 -0.42609991502E+03  0.42904420348E+03  0.47000000000E+01 0. -1.
        -11    1    1    2    0    0  0.53807610999E+01 -0.12139239561E+02 -0.37969588900E+02  0.40224413089E+02  0.00000000000E+00 0. -1.
         11    1    1    2    0    0 -0.25358710093E+02  0.97878990384E+02 -0.41861709369E+02  0.10943383228E+03  0.00000000000E+00 0.  1.
<mgrwt>
<rscale>  0 0.14584274E+03</rscale>
<asrwt>0</asrwt>
<pdfrwt beam="2">  1        2 0.94275396E-01 0.15289106E+03</pdfrwt>
<pdfrwt beam="1">  1       -2 0.71764899E-02 0.15289106E+03</pdfrwt>
<totfact> 0.53611456E+03</totfact>
</mgrwt>
</event>
<event>
 7    1  0.6008063E-006  0.1252491E+03  0.7546771E-02  0.1249227E+00
          3   -1    0    0  501    0  0.00000000000E+00  0.00000000000E+00  0.41858629245E+02  0.41858629245E+02  0.00000000000E+00 0. -1.
         -3   -1    0    0    0  501 -0.00000000000E+00 -0.00000000000E+00 -0.29127249365E+03  0.29127249365E+03  0.00000000000E+00 0.  1.
         23    2    1    2    0    0 -0.43473326768E+01 -0.66279153966E+01 -0.16622350916E+03  0.20812880958E+03  0.12499807126E+03 0.  0.
          5    1    3    3  502    0  0.24806591180E+02  0.20681673387E+01 -0.17443775626E+03  0.17626759512E+03  0.47000000000E+01 0.  1.
         -5    1    3    3    0  502 -0.29153923857E+02 -0.86960827353E+01  0.82142471036E+01  0.31861214457E+02  0.47000000000E+01 0.  1.
        -11    1    1    2    0    0  0.11188380217E+02 -0.22075734329E+02 -0.91141670273E+02  0.94442161973E+02  0.00000000000E+00 0.  1.
         11    1    1    2    0    0 -0.68410475398E+01  0.28703649726E+02  0.79513150274E+01  0.30560151336E+02  0.00000000000E+00 0. -1.
<mgrwt>
<rscale>  0 0.11635949E+03</rscale>
<asrwt>0</asrwt>
<pdfrwt beam="1">  1        3 0.64397890E-02 0.12524914E+03</pdfrwt>
<pdfrwt beam="2">  1       -3 0.44811154E-01 0.12524914E+03</pdfrwt>
<totfact> 0.17093809E+03</totfact>
</mgrwt>
</event>
<event>
 7    1  0.6008063E-006  0.1796039E+03  0.7546771E-02  0.1173826E+00
         -1   -1    0    0    0  501 -0.00000000000E+00  0.00000000000E+00  0.26423876155E+03  0.26423876155E+03  0.00000000000E+00 0.  1.
          1   -1    0    0  501    0  0.00000000000E+00 -0.00000000000E+00 -0.11149438903E+03  0.11149438903E+03  0.00000000000E+00 0. -1.
         23    2    1    2    0    0 -0.32689165206E+02  0.12475403342E+03  0.46869230181E+02  0.18561862138E+03  0.12500158994E+03 0.  0.
          5    1    3    3  502    0 -0.15865776237E+02  0.14772601011E+03  0.28350895635E+02  0.15132931045E+03  0.47000000000E+01 0. -1.
         -5    1    3    3    0  502 -0.16823388968E+02 -0.22971976686E+02  0.18518334547E+02  0.34289310924E+02  0.47000000000E+01 0. -1.
        -11    1    1    2    0    0  0.45129346710E+02 -0.11858064963E+03  0.11679310964E+03  0.17244900365E+03  0.00000000000E+00 0.  1.
         11    1    1    2    0    0 -0.12440181504E+02 -0.61733837940E+01 -0.10917967294E+02  0.17665525556E+02  0.00000000000E+00 0. -1.
<mgrwt>
<rscale>  0 0.17391447E+03</rscale>
<asrwt>0</asrwt>
<pdfrwt beam="2">  1        1 0.17152983E-01 0.17960386E+03</pdfrwt>
<pdfrwt beam="1">  1       -1 0.40652117E-01 0.17960386E+03</pdfrwt>
<totfact> 0.18449009E+03</totfact>
</mgrwt>
</event>
<event>
 7    1  0.6008063E-006  0.1293583E+03  0.7546771E-02  0.1248304E+00
          2   -1    0    0  501    0  0.00000000000E+00  0.00000000000E+00  0.66959683435E+02  0.66959683435E+02  0.00000000000E+00 0. -1.
         -2   -1    0    0    0  501 -0.00000000000E+00 -0.00000000000E+00 -0.18486610182E+03  0.18486610182E+03  0.00000000000E+00 0.  1.
         23    2    1    2    0    0 -0.30803272396E+02  0.13320497942E+02 -0.39509696068E+02  0.13525743726E+03  0.12492910387E+03 0.  0.
          5    1    3    3  502    0 -0.56207377219E+02  0.37013866376E+02 -0.63605219260E+02  0.92720059723E+02  0.47000000000E+01 0.  1.
         -5    1    3    3    0  502  0.25404104823E+02 -0.23693368434E+02  0.24095523192E+02  0.42537377534E+02  0.47000000000E+01 0.  1.
        -11    1    1    2    0    0  0.14105977910E+02  0.33607854963E+02 -0.32280777310E+02  0.48687935998E+02  0.00000000000E+00 0.  1.
         11    1    1    2    0    0  0.16697294486E+02 -0.46928352905E+02 -0.46115945011E+02  0.67880412003E+02  0.00000000000E+00 0. -1.
<mgrwt>
<rscale>  0 0.11689819E+03</rscale>
<asrwt>0</asrwt>
<pdfrwt beam="1">  1        2 0.10301490E-01 0.12935826E+03</pdfrwt>
<pdfrwt beam="2">  1       -2 0.28440938E-01 0.12935826E+03</pdfrwt>
<totfact> 0.65603274E+03</totfact>
</mgrwt>
</event>
<event>
 7    1  0.6008063E-006  0.1637962E+03  0.7546771E-02  0.1191313E+00
          2   -1    0    0  501    0  0.00000000000E+00  0.00000000000E+00  0.31864139134E+04  0.31864139134E+04  0.00000000000E+00 0. -1.
         -2   -1    0    0    0  501 -0.00000000000E+00 -0.00000000000E+00 -0.13158254663E+02  0.13158254663E+02  0.00000000000E+00 0.  1.
         23    2    1    2    0    0  0.10553472070E+03  0.81534704039E+01  0.27208550968E+04  0.27257809254E+04  0.12500055651E+03 0.  0.
          5    1    3    3  502    0  0.74824463675E+02 -0.25180856246E+02  0.24377113865E+04  0.24389939873E+04  0.47000000000E+01 0.  1.
         -5    1    3    3    0  502  0.30710257020E+02  0.33334326650E+02  0.28314371027E+03  0.28678693813E+03  0.47000000000E+01 0.  1.
        -11    1    1    2    0    0 -0.12256753756E+03 -0.24871621250E+01  0.38543547346E+03  0.40446197775E+03  0.00000000000E+00 0. -1.
         11    1    1    2    0    0  0.17032816867E+02 -0.56663082789E+01  0.66965088502E+02  0.69329264947E+02  0.00000000000E+00 0.  1.
<mgrwt>
<rscale>  0 0.15770431E+03</rscale>
<asrwt>0</asrwt>
<pdfrwt beam="1">  1        2 0.49021691E+00 0.16379620E+03</pdfrwt>
<pdfrwt beam="2">  1       -2 0.20243494E-02 0.16379620E+03</pdfrwt>
<totfact> 0.12497314E+03</totfact>
</mgrwt>
</event>
<event>
 7    1  0.6008063E-006  0.1381988E+03  0.7546771E-02  0.1227371E+00
         -1   -1    0    0    0  501 -0.00000000000E+00  0.00000000000E+00  0.74017202209E+01  0.74017202209E+01  0.00000000000E+00 0.  1.
          1   -1    0    0  501    0  0.00000000000E+00 -0.00000000000E+00 -0.23320647163E+04  0.23320647163E+04  0.00000000000E+00 0. -1.
         23    2    1    2    0    0 -0.54870264648E+02  0.21637216456E+02 -0.16874170414E+04  0.16930667971E+04  0.12497997017E+03 0.  0.
          5    1    3    3  502    0 -0.21442948853E+02 -0.36518094784E+02 -0.12295968147E+04  0.12303348276E+04  0.47000000000E+01 0.  1.
         -5    1    3    3    0  502 -0.33427315795E+02  0.58155311240E+02 -0.45782022670E+03  0.46273196955E+03  0.47000000000E+01 0.  1.
        -11    1    1    2    0    0  0.84113090234E+01 -0.52138616085E+02 -0.31451573802E+03  0.31891900989E+03  0.00000000000E+00 0.  1.
         11    1    1    2    0    0  0.46458955625E+02  0.30501399629E+02 -0.32273021667E+03  0.32748062949E+03  0.00000000000E+00 0. -1.
<mgrwt>
<rscale>  0 0.13005688E+03</rscale>
<asrwt>0</asrwt>
<pdfrwt beam="2">  1        1 0.35877934E+00 0.13819880E+03</pdfrwt>
<pdfrwt beam="1">  1       -1 0.11387257E-02 0.13819880E+03</pdfrwt>
<totfact> 0.31863004E+03</totfact>
</mgrwt>
</event>
<event>
 6    1  0.6008063E-006  0.2358784E+03  0.7546771E-02  0.1126349E+00
          1   -1    0    0  501    0  0.00000000000E+00  0.00000000000E+00  0.62761234346E+03  0.62761234346E+03  0.00000000000E+00 0. -1.
         -1   -1    0    0    0  501 -0.00000000000E+00 -0.00000000000E+00 -0.90213538561E+02  0.90213538561E+02  0.00000000000E+00 0.  1.
          5    1    1    2  502    0 -0.11652191626E+03 -0.54337783656E+02  0.12858977275E+03  0.18189934403E+03  0.47000000000E+01 0. -1.
         -5    1    1    2    0  502 -0.75919671976E+02  0.24614023112E+02  0.26663308401E+03  0.27836116507E+03  0.47000000000E+01 0.  1.
        -11    1    1    2    0    0  0.16416945026E+03  0.48649129064E+02  0.14366234938E+03  0.22351111111E+03  0.00000000000E+00 0.  1.
         11    1    1    2    0    0  0.28272137973E+02 -0.18925368519E+02 -0.14864012513E+01  0.34054261816E+02  0.00000000000E+00 0. -1.
<mgrwt>
<rscale>  0 0.23041423E+03</rscale>
<asrwt>0</asrwt>
<pdfrwt beam="1">  1        1 0.96555742E-01 0.23587842E+03</pdfrwt>
<pdfrwt beam="2">  1       -1 0.13879006E-01 0.23587842E+03</pdfrwt>
<totfact> 0.12013403E+03</totfact>
</mgrwt>
</event>
<event>
 7    1  0.6008063E-006  0.1391471E+03  0.7546771E-02  0.1225745E+00
          2   -1    0    0  501    0  0.00000000000E+00  0.00000000000E+00  0.39020355402E+03  0.39020355402E+03  0.00000000000E+00 0. -1.
         -2   -1    0    0    0  501 -0.00000000000E+00 -0.00000000000E+00 -0.39727388336E+02  0.39727388336E+02  0.00000000000E+00 0.  1.
         23    2    1    2    0    0 -0.32927545937E+02  0.51501012480E+02  0.19305497948E+03  0.23797510602E+03  0.12500139366E+03 0.  0.
          5    1    3    3  502    0 -0.70771883744E+02  0.42081624343E+02  0.67983491112E+02  0.10688015578E+03  0.47000000000E+01 0. -1.
         -5    1    3    3    0  502  0.37844337807E+02  0.94193881366E+01  0.12507148836E+03  0.13109495024E+03  0.47000000000E+01 0. -1.
        -11    1    1    2    0    0 -0.14188702439E-01 -0.46922154407E+02  0.15094875413E+03  0.15807344859E+03  0.00000000000E+00 0. -1.
         11    1    1    2    0    0  0.32941734640E+02 -0.45788580729E+01  0.64724320793E+01  0.33882387746E+02  0.00000000000E+00 0.  1.
<mgrwt>
<rscale>  0 0.13115939E+03</rscale>
<asrwt>0</asrwt>
<pdfrwt beam="1">  1        2 0.60031313E-01 0.13914714E+03</pdfrwt>
<pdfrwt beam="2">  1       -2 0.61119062E-02 0.13914714E+03</pdfrwt>
<totfact> 0.11196901E+04</totfact>
</mgrwt>
</event>
<event>
 7    1  0.6008063E-006  0.1321997E+03  0.7546771E-02  0.1233489E+00
          1   -1    0    0  501    0  0.00000000000E+00  0.00000000000E+00  0.42050110032E+03  0.42050110032E+03  0.00000000000E+00 0. -1.
         -1   -1    0    0    0  501 -0.00000000000E+00 -0.00000000000E+00 -0.25614068585E+03  0.25614068585E+03  0.00000000000E+00 0.  1.
         23    2    1    2    0    0  0.30422174448E+02  0.52342808251E+02  0.39766735201E+03  0.41906571259E+03  0.11752221214E+03 0.  0.
          5    1    3    3  502    0  0.45920706978E+01 -0.10064164331E+02  0.29991840399E+03  0.30015914706E+03  0.47000000000E+01 0. -1.
         -5    1    3    3    0  502  0.25830103751E+02  0.62406972582E+02  0.97748948021E+02  0.11890656553E+03  0.47000000000E+01 0.  1.
        -11    1    1    2    0    0 -0.21776515265E+02 -0.66950933987E+02 -0.22966658343E+03  0.24021528620E+03  0.00000000000E+00 0.  1.
         11    1    1    2    0    0 -0.86456591829E+01  0.14608125736E+02 -0.36403541113E+01  0.17360787375E+02  0.00000000000E+00 0. -1.
<mgrwt>
<rscale>  0 0.12601632E+03</rscale>
<asrwt>0</asrwt>
<pdfrwt beam="1">  1        1 0.64692477E-01 0.13219965E+03</pdfrwt>
<pdfrwt beam="2">  1       -1 0.39406259E-01 0.13219965E+03</pdfrwt>
<totfact> 0.36659293E+02</totfact>
</mgrwt>
</event>
<event>
 7    1  0.6008063E-006  0.1303646E+03  0.7546771E-02  0.1240016E+00
         -2   -1    0    0    0  501 -0.00000000000E+00  0.00000000000E+00  0.44498982111E+02  0.44498982111E+02  0.00000000000E+00 0.  1.
          2   -1    0    0  501    0  0.00000000000E+00 -0.00000000000E+00 -0.43900870636E+03  0.43900870636E+03  0.00000000000E+00 0. -1.
         23    2    1    2    0    0  0.36904997764E+02  0.28754956145E+01 -0.35168797044E+03  0.37507247838E+03  0.12499875262E+03 0.  0.
          5    1    3    3  502    0  0.67935440133E+02  0.15009085977E+02 -0.32422661642E+03  0.33164059685E+03  0.47000000000E+01 0. -1.
         -5    1    3    3    0  502 -0.31030442369E+02 -0.12133590362E+02 -0.27461354020E+02  0.43431881531E+02  0.47000000000E+01 0. -1.
        -11    1    1    2    0    0 -0.44934574020E+02 -0.13814660166E+02 -0.66325209964E+02  0.81295721010E+02  0.00000000000E+00 0. -1.
         11    1    1    2    0    0  0.80295762557E+01  0.10939164551E+02  0.23503456156E+02  0.27139489074E+02  0.00000000000E+00 0.  1.
<mgrwt>
<rscale>  0 0.12188727E+03</rscale>
<asrwt>0</asrwt>
<pdfrwt beam="2">  1        2 0.67539799E-01 0.13036463E+03</pdfrwt>
<pdfrwt beam="1">  1       -2 0.68459974E-02 0.13036463E+03</pdfrwt>
<totfact> 0.82649775E+03</totfact>
</mgrwt>
</event>
<event>
 7    1  0.6008063E-006  0.1270485E+03  0.7546771E-02  0.1246537E+00
         -1   -1    0    0    0  501 -0.00000000000E+00  0.00000000000E+00  0.12926288107E+03  0.12926288107E+03  0.00000000000E+00 0.  1.
          1   -1    0    0  501    0  0.00000000000E+00 -0.00000000000E+00 -0.95033332505E+02  0.95033332505E+02  0.00000000000E+00 0. -1.
         23    2    1    2    0    0  0.22284744410E+02 -0.41153078635E+01  0.14098051595E+02  0.12782830089E+03  0.12501109494E+03 0.  0.
          5    1    3    3  502    0 -0.47464144107E+02 -0.11078053972E+01  0.29619364292E+02  0.56155756158E+02  0.47000000000E+01 0.  1.
         -5    1    3    3    0  502  0.69748888517E+02 -0.30075024663E+01 -0.15521312697E+02  0.71672544732E+02  0.47000000000E+01 0.  1.
        -11    1    1    2    0    0 -0.22484608027E+02 -0.41250758173E+02  0.20103985538E+02  0.51101398048E+02  0.00000000000E+00 0.  1.
         11    1    1    2    0    0  0.19986361654E+00  0.45366066036E+02  0.27511429215E-01  0.45366514633E+02  0.00000000000E+00 0. -1.
<mgrwt>
<rscale>  0 0.11793851E+03</rscale>
<asrwt>0</asrwt>
<pdfrwt beam="2">  1        1 0.14620513E-01 0.12704849E+03</pdfrwt>
<pdfrwt beam="1">  1       -1 0.19886597E-01 0.12704849E+03</pdfrwt>
<totfact> 0.73850408E+03</totfact>
</mgrwt>
</event>
<event>
 7    1  0.6008063E-006  0.2181285E+03  0.7546771E-02  0.1140394E+00
         -3   -1    0    0    0  501 -0.00000000000E+00  0.00000000000E+00  0.56671006046E+03  0.56671006046E+03  0.00000000000E+00 0.  1.
          3   -1    0    0  501    0  0.00000000000E+00 -0.00000000000E+00 -0.89537225941E+02  0.89537225941E+02  0.00000000000E+00 0. -1.
         23    2    1    2    0    0 -0.13963415880E+03  0.11160122556E+03  0.11647278399E+03  0.24727708262E+03  0.12501005691E+03 0.  0.
          5    1    3    3  502    0 -0.37585553454E+02  0.67926447777E+02  0.11165414519E+03  0.13607135728E+03  0.47000000000E+01 0.  1.
         -5    1    3    3    0  502 -0.10204860535E+03  0.43674777782E+02  0.48186388078E+01  0.11120572534E+03  0.47000000000E+01 0.  1.
        -11    1    1    2    0    0  0.24936557209E+02 -0.55506305205E+02  0.79280780187E+02  0.99941102205E+02  0.00000000000E+00 0. -1.
         11    1    1    2    0    0  0.11469760160E+03 -0.56094920354E+02  0.28141927034E+03  0.30902910158E+03  0.00000000000E+00 0.  1.
<mgrwt>
<rscale>  0 0.21148630E+03</rscale>
<asrwt>0</asrwt>
<pdfrwt beam="2">  1        3 0.13774958E-01 0.21812851E+03</pdfrwt>
<pdfrwt beam="1">  1       -3 0.87186161E-01 0.21812851E+03</pdfrwt>
<totfact> 0.13043907E+02</totfact>
</mgrwt>
</event>
<event>
 7    1  0.6008063E-006  0.1896723E+03  0.7546771E-02  0.1162243E+00
         -1   -1    0    0    0  501 -0.00000000000E+00  0.00000000000E+00  0.25174375069E+03  0.25174375069E+03  0.00000000000E+00 0.  1.
          1   -1    0    0  501    0  0.00000000000E+00 -0.00000000000E+00 -0.14512207331E+03  0.14512207331E+03  0.00000000000E+00 0. -1.
         23    2    1    2    0    0 -0.63206952155E+02  0.13384981804E+03 -0.43657388977E+01  0.18972249349E+03  0.11859457100E+03 0.  0.
          5    1    3    3  502    0 -0.41577681004E+01  0.10366700995E+03 -0.43475948318E+02  0.11258944919E+03  0.47000000000E+01 0. -1.
         -5    1    3    3    0  502 -0.59049184055E+02  0.30182808085E+02  0.39110209420E+02  0.77133044296E+02  0.47000000000E+01 0.  1.
        -11    1    1    2    0    0 -0.19810946219E+02 -0.18659913922E+02  0.47980427310E+00  0.27219408330E+02  0.00000000000E+00 0. -1.
         11    1    1    2    0    0  0.83017898375E+02 -0.11518990411E+03  0.11050761200E+03  0.17992392218E+03  0.00000000000E+00 0.  1.
<mgrwt>
<rscale>  0 0.18586626E+03</rscale>
<asrwt>0</asrwt>
<pdfrwt beam="2">  1        1 0.22326473E-01 0.18967226E+03</pdfrwt>
<pdfrwt beam="1">  1       -1 0.38729808E-01 0.18967226E+03</pdfrwt>
<totfact> 0.14347195E+03</totfact>
</mgrwt>
</event>
<event>
 7    1  0.6008063E-006  0.1499682E+03  0.7546771E-02  0.1209707E+00
          1   -1    0    0  501    0  0.00000000000E+00  0.00000000000E+00  0.70634755657E+03  0.70634755657E+03  0.00000000000E+00 0. -1.
         -1   -1    0    0    0  501 -0.00000000000E+00 -0.00000000000E+00 -0.28376792288E+02  0.28376792288E+02  0.00000000000E+00 0.  1.
         23    2    1    2    0    0 -0.19176266637E+02 -0.80612021674E+02  0.46712241441E+03  0.49060555773E+03  0.12499774392E+03 0.  0.
          5    1    3    3  502    0  0.48278709234E+02 -0.86328983789E+01  0.12035352918E+03  0.13004777079E+03  0.47000000000E+01 0. -1.
         -5    1    3    3    0  502 -0.67454975871E+02 -0.71979123295E+02  0.34676888523E+03  0.36055778694E+03  0.47000000000E+01 0. -1.
        -11    1    1    2    0    0  0.33670377044E+02  0.67439461106E+02  0.21149146584E+03  0.22452263879E+03  0.00000000000E+00 0. -1.
         11    1    1    2    0    0 -0.14494110408E+02  0.13172560568E+02 -0.64311597415E+00  0.19596152341E+02  0.00000000000E+00 0.  1.
<mgrwt>
<rscale>  0 0.14272637E+03</rscale>
<asrwt>0</asrwt>
<pdfrwt beam="1">  1        1 0.10866884E+00 0.14996821E+03</pdfrwt>
<pdfrwt beam="2">  1       -1 0.43656609E-02 0.14996821E+03</pdfrwt>
<totfact> 0.58329756E+03</totfact>
</mgrwt>
</event>
<event>
 7    1  0.6008063E-006  0.1331434E+03  0.7546771E-02  0.1232165E+00
         -2   -1    0    0    0  501 -0.00000000000E+00  0.00000000000E+00  0.75550293064E+02  0.75550293064E+02  0.00000000000E+00 0.  1.
          2   -1    0    0  501    0  0.00000000000E+00 -0.00000000000E+00 -0.20011248981E+03  0.20011248981E+03  0.00000000000E+00 0. -1.
         23    2    1    2    0    0 -0.19950445250E+02  0.41220149662E+02 -0.89416860154E+02  0.16038245088E+03  0.12502013704E+03 0.  0.
          5    1    3    3  502    0 -0.57735770077E+02  0.18266217186E+02 -0.97812410514E+02  0.11513657754E+03  0.47000000000E+01 0. -1.
         -5    1    3    3    0  502  0.37785324827E+02  0.22953932477E+02  0.83955503592E+01  0.45245873339E+02  0.47000000000E+01 0. -1.
        -11    1    1    2    0    0  0.31843733187E+02 -0.37048404728E+02 -0.65905918106E+02  0.82037782012E+02  0.00000000000E+00 0. -1.
         11    1    1    2    0    0 -0.11893287937E+02 -0.41717449346E+01  0.30760581519E+02  0.33242549980E+02  0.00000000000E+00 0.  1.
<mgrwt>
<rscale>  0 0.12687693E+03</rscale>
<asrwt>0</asrwt>
<pdfrwt beam="2">  1        2 0.30786536E-01 0.13314337E+03</pdfrwt>
<pdfrwt beam="1">  1       -2 0.11623122E-01 0.13314337E+03</pdfrwt>
<totfact> 0.83846519E+03</totfact>
</mgrwt>
</event>
<event>
 7    1  0.6008063E-006  0.1727296E+03  0.7546771E-02  0.1181152E+00
          1   -1    0    0  501    0  0.00000000000E+00  0.00000000000E+00  0.86659869501E+03  0.86659869501E+03  0.00000000000E+00 0. -1.
         -1   -1    0    0    0  501 -0.00000000000E+00 -0.00000000000E+00 -0.38363541789E+02  0.38363541789E+02  0.00000000000E+00 0.  1.
         23    2    1    2    0    0  0.11789870508E+03 -0.17699821494E+02  0.64573745310E+03  0.66844024147E+03  0.12498843842E+03 0.  0.
          5    1    3    3  502    0  0.11174765477E+03 -0.61828779955E+02  0.48918861541E+03  0.50560649504E+03  0.47000000000E+01 0. -1.
         -5    1    3    3    0  502  0.61510503137E+01  0.44128958461E+02  0.15654883769E+03  0.16283374643E+03  0.47000000000E+01 0. -1.
        -11    1    1    2    0    0 -0.48549515228E+02 -0.36433379331E+02  0.57058184671E+02  0.83307160534E+02  0.00000000000E+00 0. -1.
         11    1    1    2    0    0 -0.69349189856E+02  0.54133200824E+02  0.12543951545E+03  0.15321483480E+03  0.00000000000E+00 0.  1.
<mgrwt>
<rscale>  0 0.16686987E+03</rscale>
<asrwt>0</asrwt>
<pdfrwt beam="1">  1        1 0.13332286E+00 0.17272955E+03</pdfrwt>
<pdfrwt beam="2">  1       -1 0.59020840E-02 0.17272955E+03</pdfrwt>
<totfact> 0.27532323E+03</totfact>
</mgrwt>
</event>
<event>
 7    1  0.6008063E-006  0.1350293E+03  0.7546771E-02  0.1233471E+00
          3   -1    0    0  501    0  0.00000000000E+00  0.00000000000E+00  0.21553573295E+03  0.21553573295E+03  0.00000000000E+00 0. -1.
         -3   -1    0    0    0  501 -0.00000000000E+00 -0.00000000000E+00 -0.88071294563E+02  0.88071294563E+02  0.00000000000E+00 0.  1.
         23    2    1    2    0    0 -0.35944611992E+02 -0.36260817355E+02  0.14666190567E+03  0.19935553701E+03  0.12500421415E+03 0.  0.
          5    1    3    3  502    0  0.36409247911E+02 -0.49190081824E+02  0.66823550490E+02  0.90734637176E+02  0.47000000000E+01 0.  1.
         -5    1    3    3    0  502 -0.72353859903E+02  0.12929264469E+02  0.79838355181E+02  0.10862089983E+03  0.47000000000E+01 0.  1.
        -11    1    1    2    0    0  0.22276302228E+02  0.37545395062E+02 -0.52470682806E+02  0.68257328438E+02  0.00000000000E+00 0.  1.
         11    1    1    2    0    0  0.13668309764E+02 -0.12845777076E+01  0.33273215519E+02  0.35994162064E+02  0.00000000000E+00 0. -1.
<mgrwt>
<rscale>  0 0.12602852E+03</rscale>
<asrwt>0</asrwt>
<pdfrwt beam="1">  1        3 0.33159343E-01 0.13502931E+03</pdfrwt>
<pdfrwt beam="2">  1       -3 0.13549430E-01 0.13502931E+03</pdfrwt>
<totfact> 0.90690064E+02</totfact>
</mgrwt>
</event>
<event>
 6    1  0.6008063E-006  0.1717107E+03  0.7546771E-02  0.1202527E+00
          1   -1    0    0  501    0  0.00000000000E+00  0.00000000000E+00  0.17189399782E+03  0.17189399782E+03  0.00000000000E+00 0. -1.
         -1   -1    0    0    0  501 -0.00000000000E+00 -0.00000000000E+00 -0.11399824543E+03  0.11399824543E+03  0.00000000000E+00 0.  1.
          5    1    1    2  502    0  0.81525009991E+02 -0.28978019837E+02  0.95135839718E+02  0.12868166492E+03  0.47000000000E+01 0. -1.
         -5    1    1    2    0  502 -0.55226200726E+02  0.12814344280E+02 -0.17846895353E+02  0.59621659988E+02  0.47000000000E+01 0.  1.
        -11    1    1    2    0    0 -0.66121951535E+01 -0.36319252311E+02  0.34121389192E+01  0.37073601190E+02  0.00000000000E+00 0.  1.
         11    1    1    2    0    0 -0.19686614111E+02  0.52482927868E+02 -0.22805330902E+02  0.60515317154E+02  0.00000000000E+00 0. -1.
<mgrwt>
<rscale>  0 0.14834087E+03</rscale>
<asrwt>0</asrwt>
<pdfrwt beam="1">  1        1 0.26445230E-01 0.17171069E+03</pdfrwt>
<pdfrwt beam="2">  1       -1 0.17538192E-01 0.17171069E+03</pdfrwt>
<totfact> 0.43200568E+03</totfact>
</mgrwt>
</event>
<event>
 7    1  0.6008063E-006  0.1129528E+03  0.7546771E-02  0.1264896E+00
         -2   -1    0    0    0  501 -0.00000000000E+00  0.00000000000E+00  0.23404205076E+02  0.23404205076E+02  0.00000000000E+00 0.  1.
          2   -1    0    0  501    0  0.00000000000E+00 -0.00000000000E+00 -0.46824427024E+03  0.46824427024E+03  0.00000000000E+00 0. -1.
         23    2    1    2    0    0  0.90611395752E+01  0.23432999256E+02 -0.28467403319E+03  0.30626400841E+03  0.11012323993E+03 0.  0.
          5    1    3    3  502    0 -0.29170902085E+01 -0.26827675287E+02 -0.22716624549E+03  0.22881177126E+03  0.47000000000E+01 0. -1.
         -5    1    3    3    0  502  0.11978229784E+02  0.50260674543E+02 -0.57507787698E+02  0.77452237155E+02  0.47000000000E+01 0.  1.
        -11    1    1    2    0    0  0.38856217356E+02 -0.21856705844E+02 -0.64934990662E+02  0.78765945877E+02  0.00000000000E+00 0.  1.
         11    1    1    2    0    0 -0.47917356931E+02 -0.15762934118E+01 -0.95231041313E+02  0.10661852103E+03  0.00000000000E+00 0. -1.
<mgrwt>
<rscale>  0 0.10769648E+03</rscale>
<asrwt>0</asrwt>
<pdfrwt beam="2">  1        2 0.72037584E-01 0.11295281E+03</pdfrwt>
<pdfrwt beam="1">  1       -2 0.36006467E-02 0.11295281E+03</pdfrwt>
<totfact> 0.19952946E+04</totfact>
</mgrwt>
</event>
<event>
 6    1  0.6008063E-006  0.2883943E+03  0.7546771E-02  0.1115690E+00
          2   -1    0    0  501    0  0.00000000000E+00  0.00000000000E+00  0.78345750086E+03  0.78345750086E+03  0.00000000000E+00 0. -1.
         -2   -1    0    0    0  501 -0.00000000000E+00 -0.00000000000E+00 -0.17622668487E+03  0.17622668487E+03  0.00000000000E+00 0.  1.
          5    1    1    2  502    0 -0.17505097944E+03 -0.23668127437E+02  0.58120296901E+03  0.60747181568E+03  0.47000000000E+01 0. -1.
         -5    1    1    2    0  502  0.77939586409E+02 -0.52576806574E+02  0.13465897093E+03  0.16429859455E+03  0.47000000000E+01 0.  1.
        -11    1    1    2    0    0  0.81567181422E+02  0.15316298288E+02 -0.89792560178E+02  0.12227222882E+03  0.00000000000E+00 0.  1.
         11    1    1    2    0    0  0.15544211610E+02  0.60928635722E+02 -0.18838563776E+02  0.65641546681E+02  0.00000000000E+00 0. -1.
<mgrwt>
<rscale>  0 0.24626264E+03</rscale>
<asrwt>0</asrwt>
<pdfrwt beam="1">  1        2 0.12053192E+00 0.28839426E+03</pdfrwt>
<pdfrwt beam="2">  1       -2 0.27111798E-01 0.28839426E+03</pdfrwt>
<totfact> 0.45007283E+02</totfact>
</mgrwt>
</event>
<event>
 7    1  0.6008063E-006  0.2848639E+03  0.7546771E-02  0.1094844E+00
          3   -1    0    0  501    0  0.00000000000E+00  0.00000000000E+00  0.16706364814E+03  0.16706364814E+03  0.00000000000E+00 0. -1.
         -3   -1    0    0    0  501 -0.00000000000E+00 -0.00000000000E+00 -0.47534876677E+03  0.47534876677E+03  0.00000000000E+00 0.  1.
         23    2    1    2    0    0 -0.55062204106E+02  0.24998403971E+03 -0.10758862052E+03  0.30450412174E+03  0.12499432970E+03 0.  0.
          5    1    3    3  502    0  0.19001247100E+02  0.18088603206E+03 -0.83997091110E+02  0.20039562196E+03  0.47000000000E+01 0.  1.
         -5    1    3    3    0  502 -0.74063451206E+02  0.69098007657E+02 -0.23591529412E+02  0.10410849978E+03  0.47000000000E+01 0.  1.
        -11    1    1    2    0    0  0.59118119253E+02 -0.89937578718E+02 -0.52502977682E+02  0.11975091964E+03  0.00000000000E+00 0. -1.
         11    1    1    2    0    0 -0.40559151471E+01 -0.16004646100E+03 -0.14819352043E+03  0.21815737352E+03  0.00000000000E+00 0.  1.
<mgrwt>
<rscale>  0 0.28155341E+03</rscale>
<asrwt>0</asrwt>
<pdfrwt beam="1">  1        3 0.25702100E-01 0.28486391E+03</pdfrwt>
<pdfrwt beam="2">  1       -3 0.73130578E-01 0.28486391E+03</pdfrwt>
<totfact> 0.64861298E+01</totfact>
</mgrwt>
</event>
<event>
 7    1  0.6008063E-006  0.1315865E+03  0.7546771E-02  0.1237338E+00
         -2   -1    0    0    0  501 -0.00000000000E+00  0.00000000000E+00  0.75602493131E+02  0.75602493131E+02  0.00000000000E+00 0.  1.
          2   -1    0    0  501    0  0.00000000000E+00 -0.00000000000E+00 -0.18379778011E+03  0.18379778011E+03  0.00000000000E+00 0. -1.
         23    2    1    2    0    0  0.13239267611E+02  0.38923217972E+02 -0.76959246843E+02  0.15243925211E+03  0.12499881922E+03 0.  0.
          5    1    3    3  502    0  0.23313460629E+02  0.76787345359E+02 -0.19471834317E+02  0.82710677578E+02  0.47000000000E+01 0.  1.
         -5    1    3    3    0  502 -0.10074193018E+02 -0.37864127387E+02 -0.57487412526E+02  0.69728574535E+02  0.47000000000E+01 0.  1.
        -11    1    1    2    0    0 -0.32262510392E+02 -0.33651563228E+02 -0.57551867086E+02  0.74064260541E+02  0.00000000000E+00 0. -1.
         11    1    1    2    0    0  0.19023242781E+02 -0.52716547443E+01  0.26315826945E+02  0.32896760592E+02  0.00000000000E+00 0.  1.
<mgrwt>
<rscale>  0 0.12355937E+03</rscale>
<asrwt>0</asrwt>
<pdfrwt beam="2">  1        2 0.28276581E-01 0.13158647E+03</pdfrwt>
<pdfrwt beam="1">  1       -2 0.11631153E-01 0.13158647E+03</pdfrwt>
<totfact> 0.91758782E+03</totfact>
</mgrwt>
</event>
<event>
 7    1  0.6008063E-006  0.1469287E+03  0.7546771E-02  0.1224610E+00
         -1   -1    0    0    0  501 -0.00000000000E+00  0.00000000000E+00  0.34225655384E+02  0.34225655384E+02  0.00000000000E+00 0.  1.
          1   -1    0    0  501    0  0.00000000000E+00 -0.00000000000E+00 -0.62883856579E+03  0.62883856579E+03  0.00000000000E+00 0. -1.
         23    2    1    2    0    0 -0.28051504850E+02 -0.67878480344E+02 -0.52416067074E+03  0.54436427579E+03  0.12725439475E+03 0.  0.
          5    1    3    3  502    0 -0.37942335327E+02 -0.48573750995E+02 -0.51751862268E+03  0.52119731860E+03  0.47000000000E+01 0. -1.
         -5    1    3    3    0  502  0.98908304776E+01 -0.19304729349E+02 -0.66420480586E+01  0.23166957185E+02  0.47000000000E+01 0.  1.
        -11    1    1    2    0    0  0.14621856312E+02  0.28727207579E+02 -0.70268259373E+02  0.77308986622E+02  0.00000000000E+00 0. -1.
         11    1    1    2    0    0  0.13429648538E+02  0.39151272765E+02 -0.18398029679E+00  0.41390958768E+02  0.00000000000E+00 0.  1.
<mgrwt>
<rscale>  0 0.13193684E+03</rscale>
<asrwt>0</asrwt>
<pdfrwt beam="2">  1        1 0.96744392E-01 0.14692874E+03</pdfrwt>
<pdfrwt beam="1">  1       -1 0.52654856E-02 0.14692874E+03</pdfrwt>
<totfact> 0.52019808E+03</totfact>
</mgrwt>
</event>
<event>
 7    1  0.6008063E-006  0.1499296E+03  0.7546771E-02  0.1209728E+00
         -1   -1    0    0    0  501 -0.00000000000E+00  0.00000000000E+00  0.49934264782E+02  0.49934264782E+02  0.00000000000E+00 0.  1.
          1   -1    0    0  501    0  0.00000000000E+00 -0.00000000000E+00 -0.37464044294E+03  0.37464044294E+03  0.00000000000E+00 0. -1.
         23    2    1    2    0    0 -0.70055198260E+02  0.44130250288E+02 -0.16488157033E+03  0.22285601788E+03  0.12499465060E+03 0.  0.
          5    1    3    3  502    0 -0.80527843853E+02  0.28468227542E+01 -0.16066386625E+03  0.17979934915E+03  0.47000000000E+01 0. -1.
         -5    1    3    3    0  502  0.10472645594E+02  0.41283427534E+02 -0.42177040793E+01  0.43056668733E+02  0.47000000000E+01 0. -1.
        -11    1    1    2    0    0  0.11969644294E+02 -0.61321061608E+02 -0.79479608457E+02  0.10109675139E+03  0.00000000000E+00 0.  1.
         11    1    1    2    0    0  0.58085553966E+02  0.17190811320E+02 -0.80344999364E+02  0.10062193844E+03  0.00000000000E+00 0. -1.
<mgrwt>
<rscale>  0 0.14271005E+03</rscale>
<asrwt>0</asrwt>
<pdfrwt beam="2">  1        1 0.57636991E-01 0.14992956E+03</pdfrwt>
<pdfrwt beam="1">  1       -1 0.76821946E-02 0.14992956E+03</pdfrwt>
<totfact> 0.58228787E+03</totfact>
</mgrwt>
</event>
<event>
 7    1  0.6008063E-006  0.1283168E+03  0.7546771E-02  0.1242342E+00
         -1   -1    0    0    0  501 -0.00000000000E+00  0.00000000000E+00  0.20720619334E+02  0.20720619334E+02  0.00000000000E+00 0.  1.
          1   -1    0    0  501    0  0.00000000000E+00 -0.00000000000E+00 -0.69451509814E+03  0.69451509814E+03  0.00000000000E+00 0. -1.
         23    2    1    2    0    0  0.11331164666E+02  0.26565220962E+02 -0.48579434997E+03  0.50245531663E+03  0.12502435157E+03 0.  0.
          5    1    3    3  502    0 -0.31289288146E+01  0.55800177130E+02 -0.95341284225E+02  0.11061419638E+03  0.47000000000E+01 0.  1.
         -5    1    3    3    0  502  0.14460093481E+02 -0.29234956168E+02 -0.39045306574E+03  0.39184112024E+03  0.47000000000E+01 0.  1.
        -11    1    1    2    0    0  0.41058935729E+02 -0.11747623200E+01 -0.68959484919E+02  0.80265975544E+02  0.00000000000E+00 0.  1.
         11    1    1    2    0    0 -0.52390100395E+02 -0.25390458642E+02 -0.11904064392E+03  0.13251442531E+03  0.00000000000E+00 0. -1.
<mgrwt>
<rscale>  0 0.12045897E+03</rscale>
<asrwt>0</asrwt>
<pdfrwt beam="2">  1        1 0.10684846E+00 0.12831677E+03</pdfrwt>
<pdfrwt beam="1">  1       -1 0.31877882E-02 0.12831677E+03</pdfrwt>
<totfact> 0.93922195E+03</totfact>
</mgrwt>
</event>
<event>
 6    1  0.6008063E-006  0.5933456E+03  0.7546771E-02  0.1043268E+00
          1   -1    0    0  501    0  0.00000000000E+00  0.00000000000E+00  0.66885590419E+03  0.66885590419E+03  0.00000000000E+00 0. -1.
         -1   -1    0    0    0  501 -0.00000000000E+00 -0.00000000000E+00 -0.19937832111E+03  0.19937832111E+03  0.00000000000E+00 0.  1.
          5    1    1    2  502    0  0.28239290342E+03  0.90323860934E+01  0.33011917816E+03  0.43454355097E+03  0.47000000000E+01 0. -1.
         -5    1    1    2    0  502 -0.27426744947E+03  0.76273660942E+02  0.11437267138E+03  0.30682813292E+03  0.47000000000E+01 0.  1.
        -11    1    1    2    0    0  0.23178591729E+02 -0.69602620495E+02 -0.13754160940E+02  0.74638789094E+02  0.00000000000E+00 0.  1.
         11    1    1    2    0    0 -0.31304045683E+02 -0.15703426541E+02  0.38739894478E+02  0.52223752311E+02  0.00000000000E+00 0. -1.
<mgrwt>
<rscale>  0 0.40148232E+03</rscale>
<asrwt>0</asrwt>
<pdfrwt beam="1">  1        1 0.10290091E+00 0.59334557E+03</pdfrwt>
<pdfrwt beam="2">  1       -1 0.30673588E-01 0.59334557E+03</pdfrwt>
<totfact> 0.29157996E+02</totfact>
</mgrwt>
</event>
<event>
 7    1  0.6008063E-006  0.1258509E+03  0.7546771E-02  0.1248072E+00
          2   -1    0    0  501    0  0.00000000000E+00  0.00000000000E+00  0.37326352297E+02  0.37326352297E+02  0.00000000000E+00 0. -1.
         -2   -1    0    0    0  501 -0.00000000000E+00 -0.00000000000E+00 -0.32899880673E+03  0.32899880673E+03  0.00000000000E+00 0.  1.
         23    2    1    2    0    0  0.14506626475E+02 -0.16449659785E+01 -0.14439734923E+03  0.19154382936E+03  0.12500118390E+03 0.  0.
          5    1    3    3  502    0 -0.40028954322E+02 -0.21302142763E+02 -0.12311654530E+02  0.47220390804E+02  0.47000000000E+01 0. -1.
         -5    1    3    3    0  502  0.54535580796E+02  0.19657176785E+02 -0.13208569470E+03  0.14432343856E+03  0.47000000000E+01 0. -1.
        -11    1    1    2    0    0  0.25339884057E+02  0.79192122486E+00 -0.12804191462E+03  0.13052765517E+03  0.00000000000E+00 0.  1.
         11    1    1    2    0    0 -0.39846510532E+02  0.85304475366E+00 -0.19233190579E+02  0.44253674500E+02  0.00000000000E+00 0. -1.
<mgrwt>
<rscale>  0 0.11703414E+03</rscale>
<asrwt>0</asrwt>
<pdfrwt beam="1">  1        2 0.57425158E-02 0.12585088E+03</pdfrwt>
<pdfrwt beam="2">  1       -2 0.50615200E-01 0.12585088E+03</pdfrwt>
<totfact> 0.46319815E+03</totfact>
</mgrwt>
</event>
<event>
 7    1  0.6008063E-006  0.1470050E+03  0.7546771E-02  0.1212978E+00
          2   -1    0    0  501    0  0.00000000000E+00  0.00000000000E+00  0.19065694905E+03  0.19065694905E+03  0.00000000000E+00 0. -1.
         -2   -1    0    0    0  501 -0.00000000000E+00 -0.00000000000E+00 -0.97401706298E+02  0.97401706298E+02  0.00000000000E+00 0.  1.
         23    2    1    2    0    0 -0.63243795330E+02  0.44552307838E+02  0.74463259144E+02  0.16478846447E+03  0.12500310107E+03 0.  0.
          5    1    3    3  502    0 -0.68871616804E+02  0.14941782870E+01 -0.99337580487E+01  0.69758882725E+02  0.47000000000E+01 0. -1.
         -5    1    3    3    0  502  0.56278214745E+01  0.43058129551E+02  0.84397017192E+02  0.95029581741E+02  0.47000000000E+01 0. -1.
        -11    1    1    2    0    0  0.41823714197E+02 -0.53458065478E+02 -0.26115065197E+02  0.72725404531E+02  0.00000000000E+00 0.  1.
         11    1    1    2    0    0  0.21420081133E+02  0.89057576406E+01  0.44907048808E+02  0.50544786354E+02  0.00000000000E+00 0. -1.
<mgrwt>
<rscale>  0 0.14026103E+03</rscale>
<asrwt>0</asrwt>
<pdfrwt beam="1">  1        2 0.29331838E-01 0.14700497E+03</pdfrwt>
<pdfrwt beam="2">  1       -2 0.14984878E-01 0.14700497E+03</pdfrwt>
<totfact> 0.59045225E+03</totfact>
</mgrwt>
</event>
<event>
 7    1  0.6008063E-006  0.1194736E+03  0.7546771E-02  0.1254805E+00
          1   -1    0    0  501    0  0.00000000000E+00  0.00000000000E+00  0.17984196040E+04  0.17984196040E+04  0.00000000000E+00 0. -1.
         -1   -1    0    0    0  501 -0.00000000000E+00 -0.00000000000E+00 -0.23096331058E+02  0.23096331058E+02  0.00000000000E+00 0.  1.
         23    2    1    2    0    0 -0.20170245681E+02 -0.26735047534E+02  0.16860530508E+04  0.16902806931E+04  0.11468360751E+03 0.  0.
          5    1    3    3  502    0 -0.14061871319E+02 -0.65362002635E+02  0.13905306411E+04  0.13921449212E+04  0.47000000000E+01 0. -1.
         -5    1    3    3    0  502 -0.61083743621E+01  0.38626955101E+02  0.29552240967E+03  0.29813577194E+03  0.47000000000E+01 0.  1.
        -11    1    1    2    0    0  0.29415505292E+02 -0.12164483220E+02  0.85311589319E+02  0.91056652012E+02  0.00000000000E+00 0. -1.
         11    1    1    2    0    0 -0.92452596107E+01  0.38899530754E+02  0.39586328674E+01  0.40178589974E+02  0.00000000000E+00 0.  1.
<mgrwt>
<rscale>  0 0.11317284E+03</rscale>
<asrwt>0</asrwt>
<pdfrwt beam="1">  1        1 0.27667983E+00 0.11947356E+03</pdfrwt>
<pdfrwt beam="2">  1       -1 0.35532831E-02 0.11947356E+03</pdfrwt>
<totfact> 0.13506385E+03</totfact>
</mgrwt>
</event>
<event>
 7    1  0.6008063E-006  0.1578224E+03  0.7546771E-02  0.1199555E+00
          2   -1    0    0  501    0  0.00000000000E+00  0.00000000000E+00  0.26807543699E+03  0.26807543699E+03  0.00000000000E+00 0. -1.
         -2   -1    0    0    0  501 -0.00000000000E+00 -0.00000000000E+00 -0.95157332855E+02  0.95157332855E+02  0.00000000000E+00 0.  1.
         23    2    1    2    0    0  0.93656709321E+02 -0.22659347847E+02  0.16980182342E+03  0.23182012556E+03  0.12499154425E+03 0.  0.
          5    1    3    3  502    0  0.30064542476E+02 -0.58651023222E+02  0.13593975614E+03  0.15114736696E+03  0.47000000000E+01 0. -1.
         -5    1    3    3    0  502  0.63592166845E+02  0.35991675374E+02  0.33862067275E+02  0.80672758602E+02  0.47000000000E+01 0. -1.
        -11    1    1    2    0    0 -0.55321899601E+01  0.14327411827E+02  0.34285042629E+02  0.37567858649E+02  0.00000000000E+00 0. -1.
         11    1    1    2    0    0 -0.88124519361E+02  0.83319360201E+01 -0.31168761914E+02  0.93844785629E+02  0.00000000000E+00 0.  1.
<mgrwt>
<rscale>  0 0.15074928E+03</rscale>
<asrwt>0</asrwt>
<pdfrwt beam="1">  1        2 0.41242375E-01 0.15782240E+03</pdfrwt>
<pdfrwt beam="2">  1       -2 0.14639590E-01 0.15782240E+03</pdfrwt>
<totfact> 0.42687388E+03</totfact>
</mgrwt>
</event>
<event>
 7    1  0.6008063E-006  0.1255664E+03  0.7546771E-02  0.1248079E+00
         -2   -1    0    0    0  501 -0.00000000000E+00  0.00000000000E+00  0.52720259056E+03  0.52720259056E+03  0.00000000000E+00 0.  1.
          2   -1    0    0  501    0  0.00000000000E+00 -0.00000000000E+00 -0.23342811125E+02  0.23342811125E+02  0.00000000000E+00 0. -1.
         23    2    1    2    0    0  0.45715733275E+01 -0.11011541113E+02  0.31890686218E+03  0.34273677889E+03  0.12499903815E+03 0.  0.
          5    1    3    3  502    0 -0.24505397715E+02 -0.61882657061E+02  0.16426204578E+03  0.17729660867E+03  0.47000000000E+01 0.  1.
         -5    1    3    3    0  502  0.29076971042E+02  0.50871115948E+02  0.15464481639E+03  0.16544017021E+03  0.47000000000E+01 0.  1.
        -11    1    1    2    0    0  0.17096956580E+02 -0.27796685408E+02  0.14304248821E+03  0.14671780764E+03  0.00000000000E+00 0. -1.
         11    1    1    2    0    0 -0.21668529907E+02  0.38808226521E+02  0.41910429042E+02  0.61090815157E+02  0.00000000000E+00 0.  1.
<mgrwt>
<rscale>  0 0.11702953E+03</rscale>
<asrwt>0</asrwt>
<pdfrwt beam="2">  1        2 0.35912021E-02 0.12556637E+03</pdfrwt>
<pdfrwt beam="1">  1       -2 0.81108082E-01 0.12556637E+03</pdfrwt>
<totfact> 0.32095955E+03</totfact>
</mgrwt>
</event>
<event>
 7    1  0.6008063E-006  0.1423984E+03  0.7546771E-02  0.1220271E+00
         -2   -1    0    0    0  501 -0.00000000000E+00  0.00000000000E+00  0.67566312069E+03  0.67566312069E+03  0.00000000000E+00 0.  1.
          2   -1    0    0  501    0  0.00000000000E+00 -0.00000000000E+00 -0.25423433705E+02  0.25423433705E+02  0.00000000000E+00 0. -1.
         23    2    1    2    0    0  0.68207135179E+02 -0.53121800024E+00  0.29203530464E+03  0.32490294091E+03  0.12499922549E+03 0.  0.
          5    1    3    3  502    0 -0.13082606205E+02 -0.25155148213E+02  0.18953170806E+03  0.19169844659E+03  0.47000000000E+01 0.  1.
         -5    1    3    3    0  502  0.81289741384E+02  0.24623930213E+02  0.10250359658E+03  0.13320449432E+03  0.47000000000E+01 0.  1.
        -11    1    1    2    0    0  0.14905040517E+02 -0.55462253918E+00  0.94408036972E+01  0.17652099406E+02  0.00000000000E+00 0. -1.
         11    1    1    2    0    0 -0.83112175696E+02  0.10858405394E+01  0.34876357865E+03  0.35853151408E+03  0.00000000000E+00 0.  1.
<mgrwt>
<rscale>  0 0.13496337E+03</rscale>
<asrwt>0</asrwt>
<pdfrwt beam="2">  1        2 0.39112980E-02 0.14239839E+03</pdfrwt>
<pdfrwt beam="1">  1       -2 0.10394816E+00 0.14239839E+03</pdfrwt>
<totfact> 0.16513086E+03</totfact>
</mgrwt>
</event>
<event>
 7    1  0.6008063E-006  0.1196105E+03  0.7546771E-02  0.1253603E+00
         -1   -1    0    0    0  501 -0.00000000000E+00  0.00000000000E+00  0.34234970319E+02  0.34234970319E+02  0.00000000000E+00 0.  1.
          1   -1    0    0  501    0  0.00000000000E+00 -0.00000000000E+00 -0.35664437691E+03  0.35664437691E+03  0.00000000000E+00 0. -1.
         23    2    1    2    0    0 -0.97913769213E+01  0.36102464262E+02 -0.20963003293E+03  0.24135331312E+03  0.11361079199E+03 0.  0.
          5    1    3    3  502    0 -0.35665906000E+02  0.31271110237E+01 -0.19245418205E+03  0.19581250691E+03  0.47000000000E+01 0. -1.
         -5    1    3    3    0  502  0.25874529079E+02  0.32975353238E+02 -0.17175850880E+02  0.45540806204E+02  0.47000000000E+01 0.  1.
        -11    1    1    2    0    0  0.30206735945E+02 -0.26848414506E+02 -0.65300374819E+01  0.40938070881E+02  0.00000000000E+00 0.  1.
         11    1    1    2    0    0 -0.20415359024E+02 -0.92540497556E+01 -0.10624933617E+03  0.10858796323E+03  0.00000000000E+00 0. -1.
<mgrwt>
<rscale>  0 0.11384923E+03</rscale>
<asrwt>0</asrwt>
<pdfrwt beam="2">  1        1 0.54868369E-01 0.11961050E+03</pdfrwt>
<pdfrwt beam="1">  1       -1 0.52669182E-02 0.11961050E+03</pdfrwt>
<totfact> 0.10713439E+04</totfact>
</mgrwt>
</event>
<event>
 7    1  0.6008063E-006  0.1732777E+03  0.7546771E-02  0.1181611E+00
         -2   -1    0    0    0  501 -0.00000000000E+00  0.00000000000E+00  0.11720049437E+02  0.11720049437E+02  0.00000000000E+00 0.  1.
          2   -1    0    0  501    0  0.00000000000E+00 -0.00000000000E+00 -0.26954228129E+04  0.26954228129E+04  0.00000000000E+00 0. -1.
         23    2    1    2    0    0 -0.10775199496E+03 -0.52804815026E+02 -0.20113150001E+04  0.20187652652E+04  0.12500530106E+03 0.  0.
          5    1    3    3  502    0 -0.48108479259E+02  0.11781388571E+02 -0.14258641985E+04  0.14267319403E+04  0.47000000000E+01 0.  1.
         -5    1    3    3    0  502 -0.59643515705E+02 -0.64586203598E+02 -0.58545080165E+03  0.59203332491E+03  0.47000000000E+01 0.  1.
        -11    1    1    2    0    0  0.23528579731E+02  0.55636779820E+02 -0.34904934532E+03  0.35423790142E+03  0.00000000000E+00 0. -1.
         11    1    1    2    0    0  0.84223415233E+02 -0.28319647936E+01 -0.32333841806E+03  0.33413969578E+03  0.00000000000E+00 0.  1.
<mgrwt>
<rscale>  0 0.16644104E+03</rscale>
<asrwt>0</asrwt>
<pdfrwt beam="2">  1        2 0.41468064E+00 0.17327771E+03</pdfrwt>
<pdfrwt beam="1">  1       -2 0.18030836E-02 0.17327771E+03</pdfrwt>
<totfact> 0.28376021E+03</totfact>
</mgrwt>
</event>
<event>
 6    1  0.6008063E-006  0.3912100E+03  0.7546771E-02  0.1082684E+00
         -1   -1    0    0    0  501 -0.00000000000E+00  0.00000000000E+00  0.30458414681E+02  0.30458414681E+02  0.00000000000E+00 0.  1.
          1   -1    0    0  501    0  0.00000000000E+00 -0.00000000000E+00 -0.25412081026E+04  0.25412081026E+04  0.00000000000E+00 0. -1.
          5    1    1    2  502    0 -0.14012127657E+03  0.13253523152E+02 -0.96305896214E+03  0.97330071539E+03  0.47000000000E+01 0. -1.
         -5    1    1    2    0  502  0.22959737030E+03 -0.82430095308E+02 -0.11367841325E+04  0.11626736115E+04  0.47000000000E+01 0.  1.
        -11    1    1    2    0    0 -0.30212169101E+02  0.43663936966E+02 -0.65535659627E+02  0.84345937874E+02  0.00000000000E+00 0. -1.
         11    1    1    2    0    0 -0.59263924631E+02  0.25512635190E+02 -0.34537093363E+03  0.35134625245E+03  0.00000000000E+00 0.  1.
<mgrwt>
<rscale>  0 0.30517021E+03</rscale>
<asrwt>0</asrwt>
<pdfrwt beam="2">  1        1 0.39095508E+00 0.39121005E+03</pdfrwt>
<pdfrwt beam="1">  1       -1 0.46859101E-02 0.39121005E+03</pdfrwt>
<totfact> 0.28256010E+02</totfact>
</mgrwt>
</event>
<event>
 7    1  0.6008063E-006  0.1265171E+03  0.7546771E-02  0.1247611E+00
          1   -1    0    0  501    0  0.00000000000E+00  0.00000000000E+00  0.15806247525E+03  0.15806247525E+03  0.00000000000E+00 0. -1.
         -1   -1    0    0    0  501 -0.00000000000E+00 -0.00000000000E+00 -0.80125428145E+02  0.80125428145E+02  0.00000000000E+00 0.  1.
         23    2    1    2    0    0 -0.11594663431E+02 -0.15725830654E+02  0.69395252557E+02  0.14429927411E+03  0.12499936585E+03 0.  0.
          5    1    3    3  502    0 -0.54170471400E+02 -0.46650176428E+02  0.52543313699E+02  0.88845758182E+02  0.47000000000E+01 0.  1.
         -5    1    3    3    0  502  0.42575807969E+02  0.30924345774E+02  0.16851938858E+02  0.55453515930E+02  0.47000000000E+01 0.  1.
        -11    1    1    2    0    0  0.75236520978E+01 -0.26376817878E+02 -0.27112666388E+02  0.38567324783E+02  0.00000000000E+00 0.  1.
         11    1    1    2    0    0  0.40710113331E+01  0.42102648532E+02  0.35654460933E+02  0.55321304496E+02  0.00000000000E+00 0. -1.
<mgrwt>
<rscale>  0 0.11730432E+03</rscale>
<asrwt>0</asrwt>
<pdfrwt beam="1">  1        1 0.24317304E-01 0.12651711E+03</pdfrwt>
<pdfrwt beam="2">  1       -1 0.12326989E-01 0.12651711E+03</pdfrwt>
<totfact> 0.81844953E+03</totfact>
</mgrwt>
</event>
<event>
 7    1  0.6008063E-006  0.1406730E+03  0.7546771E-02  0.1223150E+00
          2   -1    0    0  501    0  0.00000000000E+00  0.00000000000E+00  0.29672203219E+02  0.29672203219E+02  0.00000000000E+00 0. -1.
         -2   -1    0    0    0  501 -0.00000000000E+00 -0.00000000000E+00 -0.55359892382E+03  0.55359892382E+03  0.00000000000E+00 0.  1.
         23    2    1    2    0    0  0.37112483577E+02  0.52788374182E+02 -0.24331084054E+03  0.28104991368E+03  0.12499975988E+03 0.  0.
          5    1    3    3  502    0  0.31740723168E+02 -0.40426619642E+01 -0.21451901723E+03  0.21694311553E+03  0.47000000000E+01 0.  1.
         -5    1    3    3    0  502  0.53717604088E+01  0.56831036146E+02 -0.28791823310E+02  0.64106798149E+02  0.47000000000E+01 0.  1.
        -11    1    1    2    0    0  0.27237273436E+02 -0.81312320324E+01 -0.39233442991E+02  0.48448416357E+02  0.00000000000E+00 0. -1.
         11    1    1    2    0    0 -0.64349757013E+02 -0.44657142150E+02 -0.24138243707E+03  0.25377279700E+03  0.00000000000E+00 0.  1.
<mgrwt>
<rscale>  0 0.13294486E+03</rscale>
<asrwt>0</asrwt>
<pdfrwt beam="1">  1        2 0.45649549E-02 0.14067299E+03</pdfrwt>
<pdfrwt beam="2">  1       -2 0.85169055E-01 0.14067299E+03</pdfrwt>
<totfact> 0.21151944E+03</totfact>
</mgrwt>
</event>
<event>
 7    1  0.6008063E-006  0.1664521E+03  0.7546771E-02  0.1188495E+00
          2   -1    0    0  501    0  0.00000000000E+00  0.00000000000E+00  0.32476959037E+03  0.32476959037E+03  0.00000000000E+00 0. -1.
         -2   -1    0    0    0  501 -0.00000000000E+00 -0.00000000000E+00 -0.95898624743E+02  0.95898624743E+02  0.00000000000E+00 0.  1.
         23    2    1    2    0    0 -0.48531882488E+02  0.98624789514E+02  0.22238403822E+03  0.27777861441E+03  0.12499642173E+03 0.  0.
          5    1    3    3  502    0 -0.14040087549E+02 -0.23312817807E+02  0.91342217331E+02  0.95425898997E+02  0.47000000000E+01 0.  1.
         -5    1    3    3    0  502 -0.34491794939E+02  0.12193760732E+03  0.13104182089E+03  0.18235271542E+03  0.47000000000E+01 0.  1.
        -11    1    1    2    0    0  0.26677135832E+02 -0.11104242159E+03 -0.69012456181E+01  0.11441029743E+03  0.00000000000E+00 0.  1.
         11    1    1    2    0    0  0.21854746655E+02  0.12417632071E+02  0.13388173022E+02  0.28479303266E+02  0.00000000000E+00 0. -1.
<mgrwt>
<rscale>  0 0.16017882E+03</rscale>
<asrwt>0</asrwt>
<pdfrwt beam="1">  1        2 0.49964552E-01 0.16645209E+03</pdfrwt>
<pdfrwt beam="2">  1       -2 0.14753635E-01 0.16645209E+03</pdfrwt>
<totfact> 0.34439596E+03</totfact>
</mgrwt>
</event>
<event>
 7    1  0.6008063E-006  0.2051219E+03  0.7546771E-02  0.1150430E+00
         -1   -1    0    0    0  501 -0.00000000000E+00  0.00000000000E+00  0.61844641717E+03  0.61844641717E+03  0.00000000000E+00 0.  1.
          1   -1    0    0  501    0  0.00000000000E+00 -0.00000000000E+00 -0.61376800482E+02  0.61376800482E+02  0.00000000000E+00 0. -1.
         23    2    1    2    0    0  0.63801886961E+02  0.14961535659E+03  0.33036226829E+03  0.38886274433E+03  0.12497827776E+03 0.  0.
          5    1    3    3  502    0  0.52541175583E+01  0.46537979142E+02  0.11227069189E+02  0.48389320480E+02  0.47000000000E+01 0. -1.
         -5    1    3    3    0  502  0.58547769403E+02  0.10307737745E+03  0.31913519910E+03  0.34047342385E+03  0.47000000000E+01 0. -1.
        -11    1    1    2    0    0 -0.56970515668E+00 -0.22103221514E+02  0.93296494769E+02  0.95880722262E+02  0.00000000000E+00 0.  1.
         11    1    1    2    0    0 -0.63232181804E+02 -0.12751213508E+03  0.13341085363E+03  0.19507975106E+03  0.00000000000E+00 0. -1.
<mgrwt>
<rscale>  0 0.19918299E+03</rscale>
<asrwt>0</asrwt>
<pdfrwt beam="2">  1        1 0.94425851E-02 0.20512193E+03</pdfrwt>
<pdfrwt beam="1">  1       -1 0.95145598E-01 0.20512193E+03</pdfrwt>
<totfact> 0.77794476E+02</totfact>
</mgrwt>
</event>
<event>
 7    1  0.6008063E-006  0.2384731E+03  0.7546771E-02  0.1123464E+00
          3   -1    0    0  501    0  0.00000000000E+00  0.00000000000E+00  0.13564227520E+03  0.13564227520E+03  0.00000000000E+00 0. -1.
         -3   -1    0    0    0  501 -0.00000000000E+00 -0.00000000000E+00 -0.41238278623E+03  0.41238278623E+03  0.00000000000E+00 0.  1.
         23    2    1    2    0    0  0.18592692623E+03  0.81712641639E+02 -0.83204900334E+02  0.25257169249E+03  0.12499450671E+03 0.  0.
          5    1    3    3  502    0  0.57825923550E+02  0.24235910255E+02 -0.92427393647E+02  0.11178608982E+03  0.47000000000E+01 0. -1.
         -5    1    3    3    0  502  0.12810100268E+03  0.57476731385E+02  0.92224933138E+01  0.14078560267E+03  0.47000000000E+01 0. -1.
        -11    1    1    2    0    0 -0.14018414780E+02 -0.34369097658E+02 -0.76976414791E+01  0.37907842343E+02  0.00000000000E+00 0.  1.
         11    1    1    2    0    0 -0.17190851145E+03 -0.47343543982E+02 -0.18583796922E+03  0.25754552659E+03  0.00000000000E+00 0. -1.
<mgrwt>
<rscale>  0 0.23457035E+03</rscale>
<asrwt>0</asrwt>
<pdfrwt beam="1">  1        3 0.20868042E-01 0.23847307E+03</pdfrwt>
<pdfrwt beam="2">  1       -3 0.63443505E-01 0.23847307E+03</pdfrwt>
<totfact> 0.12648523E+02</totfact>
</mgrwt>
</event>
<event>
 7    1  0.6008063E-006  0.1485526E+03  0.7546771E-02  0.1221086E+00
          2   -1    0    0  501    0  0.00000000000E+00  0.00000000000E+00  0.77501735452E+03  0.77501735452E+03  0.00000000000E+00 0. -1.
         -2   -1    0    0    0  501 -0.00000000000E+00 -0.00000000000E+00 -0.24006467962E+02  0.24006467962E+02  0.00000000000E+00 0.  1.
         23    2    1    2    0    0  0.27761309117E+02  0.75297560139E+02  0.60048255770E+03  0.61858482069E+03  0.12500986138E+03 0.  0.
          5    1    3    3  502    0  0.63292436360E+02  0.54562059903E+02  0.53210622300E+03  0.53864837644E+03  0.47000000000E+01 0.  1.
         -5    1    3    3    0  502 -0.35531127243E+02  0.20735500235E+02  0.68376334696E+02  0.79936444252E+02  0.47000000000E+01 0.  1.
        -11    1    1    2    0    0 -0.32924849526E+02 -0.39684935562E+02  0.43300447653E+02  0.67334007707E+02  0.00000000000E+00 0.  1.
         11    1    1    2    0    0  0.51635404096E+01 -0.35612624577E+02  0.10722788120E+03  0.11310499408E+03  0.00000000000E+00 0. -1.
<mgrwt>
<rscale>  0 0.13438835E+03</rscale>
<asrwt>0</asrwt>
<pdfrwt beam="1">  1        2 0.11923342E+00 0.14855261E+03</pdfrwt>
<pdfrwt beam="2">  1       -2 0.36933034E-02 0.14855261E+03</pdfrwt>
<totfact> 0.11031892E+04</totfact>
</mgrwt>
</event>
<event>
 7    1  0.6008063E-006  0.1390241E+03  0.7546771E-02  0.1227515E+00
          2   -1    0    0  501    0  0.00000000000E+00  0.00000000000E+00  0.11112508692E+04  0.11112508692E+04  0.00000000000E+00 0. -1.
         -2   -1    0    0    0  501 -0.00000000000E+00 -0.00000000000E+00 -0.16114044168E+02  0.16114044168E+02  0.00000000000E+00 0.  1.
         23    2    1    2    0    0  0.60839105410E+02 -0.12699480841E+01  0.83341677693E+03  0.84493267981E+03  0.12499879928E+03 0.  0.
          5    1    3    3  502    0  0.38919823548E+02 -0.41015085040E+02  0.72615386444E+03  0.72836701923E+03  0.47000000000E+01 0. -1.
         -5    1    3    3    0  502  0.21919281862E+02  0.39745136956E+02  0.10726291249E+03  0.11656566057E+03  0.47000000000E+01 0. -1.
        -11    1    1    2    0    0 -0.20286066187E+02 -0.40793072721E+02  0.87085979676E+02  0.98283096815E+02  0.00000000000E+00 0.  1.
         11    1    1    2    0    0 -0.40553039223E+02  0.42063020805E+02  0.17463406843E+03  0.18414913675E+03  0.00000000000E+00 0. -1.
<mgrwt>
<rscale>  0 0.12996037E+03</rscale>
<asrwt>0</asrwt>
<pdfrwt beam="1">  1        2 0.17096161E+00 0.13902413E+03</pdfrwt>
<pdfrwt beam="2">  1       -2 0.24790846E-02 0.13902413E+03</pdfrwt>
<totfact> 0.12217754E+04</totfact>
</mgrwt>
</event>
<event>
 7    1  0.6008063E-006  0.2428614E+03  0.7546771E-02  0.1120790E+00
         -2   -1    0    0    0  501 -0.00000000000E+00  0.00000000000E+00  0.10196915428E+03  0.10196915428E+03  0.00000000000E+00 0.  1.
          2   -1    0    0  501    0  0.00000000000E+00 -0.00000000000E+00 -0.56325157003E+03  0.56325157003E+03  0.00000000000E+00 0. -1.
         23    2    1    2    0    0 -0.20576559431E+03 -0.31884862364E+02 -0.16930780097E+03  0.29605200102E+03  0.12500212634E+03 0.  0.
          5    1    3    3  502    0 -0.34656922740E+02 -0.26632520847E+02  0.13081035870E+02  0.45864986208E+02  0.47000000000E+01 0.  1.
         -5    1    3    3    0  502 -0.17110867157E+03 -0.52523415171E+01 -0.18238883684E+03  0.25018701482E+03  0.47000000000E+01 0.  1.
        -11    1    1    2    0    0  0.12368719016E+03 -0.22696700135E+02 -0.14172638690E+03  0.18947303225E+03  0.00000000000E+00 0. -1.
         11    1    1    2    0    0  0.82078404156E+02  0.54581562499E+02 -0.15024822789E+03  0.17969569104E+03  0.00000000000E+00 0.  1.
<mgrwt>
<rscale>  0 0.23850848E+03</rscale>
<asrwt>0</asrwt>
<pdfrwt beam="2">  1        2 0.86654086E-01 0.24286139E+03</pdfrwt>
<pdfrwt beam="1">  1       -2 0.15687562E-01 0.24286139E+03</pdfrwt>
<totfact> 0.17209774E+03</totfact>
</mgrwt>
</event>
<event>
 7    1  0.6008063E-006  0.1714157E+03  0.7546771E-02  0.1181418E+00
          2   -1    0    0  501    0  0.00000000000E+00  0.00000000000E+00  0.12121069738E+04  0.12121069738E+04  0.00000000000E+00 0. -1.
         -2   -1    0    0    0  501 -0.00000000000E+00 -0.00000000000E+00 -0.25928014390E+02  0.25928014390E+02  0.00000000000E+00 0.  1.
         23    2    1    2    0    0  0.10501286866E+03  0.52260205307E+02  0.87055464402E+03  0.88727037291E+03  0.12499797910E+03 0.  0.
          5    1    3    3  502    0 -0.84675899122E+00  0.39595726025E+02  0.50184405864E+03  0.50342634786E+03  0.47000000000E+01 0.  1.
         -5    1    3    3    0  502  0.10585962765E+03  0.12664479282E+02  0.36871058537E+03  0.38384402505E+03  0.47000000000E+01 0.  1.
        -11    1    1    2    0    0 -0.24357705966E+02 -0.25033603109E+02  0.14464265335E+02  0.37804683522E+02  0.00000000000E+00 0.  1.
         11    1    1    2    0    0 -0.80655162691E+02 -0.27226602198E+02  0.30116005005E+03  0.31295993175E+03  0.00000000000E+00 0. -1.
<mgrwt>
<rscale>  0 0.16662091E+03</rscale>
<asrwt>0</asrwt>
<pdfrwt beam="1">  1        2 0.18647795E+00 0.17141565E+03</pdfrwt>
<pdfrwt beam="2">  1       -2 0.39889262E-02 0.17141565E+03</pdfrwt>
<totfact> 0.53568160E+03</totfact>
</mgrwt>
</event>
<event>
 7    1  0.6008063E-006  0.1512960E+03  0.7546771E-02  0.1205274E+00
         -1   -1    0    0    0  501 -0.00000000000E+00  0.00000000000E+00  0.44080383867E+03  0.44080383867E+03  0.00000000000E+00 0.  1.
          1   -1    0    0  501    0  0.00000000000E+00 -0.00000000000E+00 -0.51561821955E+02  0.51561821955E+02  0.00000000000E+00 0. -1.
         23    2    1    2    0    0  0.93875142463E+02 -0.12382518393E+02  0.12182790165E+03  0.19424859654E+03  0.11800258685E+03 0.  0.
          5    1    3    3  502    0 -0.91844452244E+01 -0.35603605714E+02  0.62466661533E+01  0.37590977800E+02  0.47000000000E+01 0.  1.
         -5    1    3    3    0  502  0.10305958769E+03  0.23221087321E+02  0.11558123550E+03  0.15665761874E+03  0.47000000000E+01 0. -1.
        -11    1    1    2    0    0 -0.50084732880E+02  0.38564321201E+02  0.70446462480E+02  0.94648779249E+02  0.00000000000E+00 0. -1.
         11    1    1    2    0    0 -0.43790409583E+02 -0.26181802808E+02  0.19696765259E+03  0.20346828484E+03  0.00000000000E+00 0.  1.
<mgrwt>
<rscale>  0 0.14615887E+03</rscale>
<asrwt>0</asrwt>
<pdfrwt beam="2">  1        1 0.79325883E-02 0.15129600E+03</pdfrwt>
<pdfrwt beam="1">  1       -1 0.67815973E-01 0.15129600E+03</pdfrwt>
<totfact> 0.19627631E+03</totfact>
</mgrwt>
</event>
<event>
 7    1  0.6008063E-006  0.1534483E+03  0.7546771E-02  0.1201524E+00
         -2   -1    0    0    0  501 -0.00000000000E+00  0.00000000000E+00  0.76404108291E+02  0.76404108291E+02  0.00000000000E+00 0.  1.
          2   -1    0    0  501    0  0.00000000000E+00 -0.00000000000E+00 -0.31976850936E+03  0.31976850936E+03  0.00000000000E+00 0. -1.
         23    2    1    2    0    0 -0.73052447006E+02 -0.50823956015E+02 -0.20087257272E+03  0.25277691029E+03  0.12500656538E+03 0.  0.
          5    1    3    3  502    0 -0.72463722490E+02 -0.83873222011E+02 -0.18521898289E+03  0.21590245499E+03  0.47000000000E+01 0. -1.
         -5    1    3    3    0  502 -0.58872451584E+00  0.33049265996E+02 -0.15653589833E+02  0.36874455306E+02  0.47000000000E+01 0. -1.
        -11    1    1    2    0    0  0.79215479682E+00 -0.26314374579E+02  0.61625955863E+01  0.27037962258E+02  0.00000000000E+00 0.  1.
         11    1    1    2    0    0  0.72260292209E+02  0.77138330594E+02 -0.48654423938E+02  0.11635774510E+03  0.00000000000E+00 0. -1.
<mgrwt>
<rscale>  0 0.14914761E+03</rscale>
<asrwt>0</asrwt>
<pdfrwt beam="2">  1        2 0.49195155E-01 0.15344828E+03</pdfrwt>
<pdfrwt beam="1">  1       -2 0.11754478E-01 0.15344828E+03</pdfrwt>
<totfact> 0.50372759E+03</totfact>
</mgrwt>
</event>
<event>
 7    1  0.6008063E-006  0.1279247E+03  0.7546771E-02  0.1242834E+00
          4   -1    0    0  501    0  0.00000000000E+00  0.00000000000E+00  0.50182869969E+03  0.50182869969E+03  0.00000000000E+00 0.  1.
         -4   -1    0    0    0  501 -0.00000000000E+00 -0.00000000000E+00 -0.37041303633E+02  0.37041303633E+02  0.00000000000E+00 0. -1.
         23    2    1    2    0    0 -0.26983793141E+02  0.35536927566E+01  0.40027180552E+03  0.42021689807E+03  0.12499587717E+03 0.  0.
          5    1    3    3  502    0 -0.60160713995E+02 -0.39752191234E+02  0.20257417931E+03  0.21507658250E+03  0.47000000000E+01 0.  1.
         -5    1    3    3    0  502  0.33176920854E+02  0.43305883990E+02  0.19769762621E+03  0.20514031557E+03  0.47000000000E+01 0.  1.
        -11    1    1    2    0    0  0.10170411002E+02 -0.46515980256E+02  0.12708822206E+02  0.49281719136E+02  0.00000000000E+00 0. -1.
         11    1    1    2    0    0  0.16813382139E+02  0.42962287499E+02  0.51806768328E+02  0.69371386109E+02  0.00000000000E+00 0.  1.
<mgrwt>
<rscale>  0 0.12015987E+03</rscale>
<asrwt>0</asrwt>
<pdfrwt beam="1">  1        4 0.77204410E-01 0.12792468E+03</pdfrwt>
<pdfrwt beam="2">  1       -4 0.56986625E-02 0.12792468E+03</pdfrwt>
<totfact> 0.48767269E+02</totfact>
</mgrwt>
</event>
<event>
 7    1  0.6008063E-006  0.1543853E+03  0.7546771E-02  0.1204088E+00
          3   -1    0    0  501    0  0.00000000000E+00  0.00000000000E+00  0.15039347645E+04  0.15039347645E+04  0.00000000000E+00 0. -1.
         -3   -1    0    0    0  501 -0.00000000000E+00 -0.00000000000E+00 -0.20276699688E+02  0.20276699688E+02  0.00000000000E+00 0.  1.
         23    2    1    2    0    0  0.50575964667E+02  0.75180374045E+02  0.12377379835E+04  0.12473292049E+04  0.12499925060E+03 0.  0.
          5    1    3    3  502    0  0.42575530922E+02 -0.22315632539E+02  0.61973512998E+03  0.62161433753E+03  0.47000000000E+01 0.  1.
         -5    1    3    3    0  502  0.80004337444E+01  0.97496006584E+02  0.61800285356E+03  0.62571486737E+03  0.47000000000E+01 0.  1.
        -11    1    1    2    0    0 -0.57179644197E+02 -0.44561601381E+02  0.23115130333E+03  0.24225229216E+03  0.00000000000E+00 0. -1.
         11    1    1    2    0    0  0.66036795303E+01 -0.30618772664E+02  0.14768777983E+02  0.34629967166E+02  0.00000000000E+00 0.  1.
<mgrwt>
<rscale>  0 0.14709593E+03</rscale>
<asrwt>0</asrwt>
<pdfrwt beam="1">  1        3 0.23137449E+00 0.15438533E+03</pdfrwt>
<pdfrwt beam="2">  1       -3 0.31194934E-02 0.15438533E+03</pdfrwt>
<totfact> 0.12143415E+02</totfact>
</mgrwt>
</event>
<event>
 7    1  0.6008063E-006  0.1481717E+03  0.7546771E-02  0.1209612E+00
         -1   -1    0    0    0  501 -0.00000000000E+00  0.00000000000E+00  0.16813852817E+03  0.16813852817E+03  0.00000000000E+00 0.  1.
          1   -1    0    0  501    0  0.00000000000E+00 -0.00000000000E+00 -0.13037122255E+03  0.13037122255E+03  0.00000000000E+00 0. -1.
         23    2    1    2    0    0  0.80840075668E+02  0.38957748101E+02 -0.33854486366E+02  0.15199009960E+03  0.11790691311E+03 0.  0.
          5    1    3    3  502    0 -0.71587917441E+01  0.56897132782E+02 -0.60339529131E+01  0.57853527168E+02  0.47000000000E+01 0. -1.
         -5    1    3    3    0  502  0.87998867412E+02 -0.17939384681E+02 -0.27820533453E+02  0.94136572436E+02  0.47000000000E+01 0.  1.
        -11    1    1    2    0    0 -0.42282306188E+02  0.27057232114E+02  0.18834565585E+02  0.53615558255E+02  0.00000000000E+00 0. -1.
         11    1    1    2    0    0 -0.38557769480E+02 -0.66014980215E+02  0.52787226398E+02  0.92904092864E+02  0.00000000000E+00 0.  1.
<mgrwt>
<rscale>  0 0.14279894E+03</rscale>
<asrwt>0</asrwt>
<pdfrwt beam="2">  1        1 0.20057111E-01 0.14817174E+03</pdfrwt>
<pdfrwt beam="1">  1       -1 0.25867466E-01 0.14817174E+03</pdfrwt>
<totfact> 0.32395191E+03</totfact>
</mgrwt>
</event>
<event>
 7    1  0.6008063E-006  0.1299939E+03  0.7546771E-02  0.1240949E+00
         -1   -1    0    0    0  501 -0.00000000000E+00  0.00000000000E+00  0.40398792112E+02  0.40398792112E+02  0.00000000000E+00 0.  1.
          1   -1    0    0  501    0  0.00000000000E+00 -0.00000000000E+00 -0.37274879334E+03  0.37274879334E+03  0.00000000000E+00 0. -1.
         23    2    1    2    0    0 -0.10511634527E+02 -0.34099280314E+02 -0.26056131906E+03  0.29118830050E+03  0.12500067990E+03 0.  0.
          5    1    3    3  502    0  0.14325587274E+02  0.20337309335E+00 -0.24554771444E+03  0.24601023124E+03  0.47000000000E+01 0.  1.
         -5    1    3    3    0  502 -0.24837221800E+02 -0.34302653407E+02 -0.15013604628E+02  0.45178069253E+02  0.47000000000E+01 0.  1.
        -11    1    1    2    0    0  0.10264316440E+02 -0.25498794764E+02  0.14619107153E+01  0.27526022403E+02  0.00000000000E+00 0.  1.
         11    1    1    2    0    0  0.24731808656E+00  0.59598075078E+02 -0.73250592882E+02  0.94433262555E+02  0.00000000000E+00 0. -1.
<mgrwt>
<rscale>  0 0.12131183E+03</rscale>
<asrwt>0</asrwt>
<pdfrwt beam="2">  1        1 0.57345968E-01 0.12999394E+03</pdfrwt>
<pdfrwt beam="1">  1       -1 0.62151988E-02 0.12999394E+03</pdfrwt>
<totfact> 0.79805262E+03</totfact>
</mgrwt>
</event>
<event>
 6    1  0.6008063E-006  0.1939267E+03  0.7546771E-02  0.1172100E+00
         -1   -1    0    0    0  501 -0.00000000000E+00  0.00000000000E+00  0.20646899334E+03  0.20646899334E+03  0.00000000000E+00 0.  1.
          1   -1    0    0  501    0  0.00000000000E+00 -0.00000000000E+00 -0.15857437228E+03  0.15857437228E+03  0.00000000000E+00 0. -1.
          5    1    1    2  502    0 -0.50195317949E+02 -0.88185642829E+01 -0.98904868459E+02  0.11136247135E+03  0.47000000000E+01 0. -1.
         -5    1    1    2    0  502  0.99465342268E+01 -0.75272921587E+02  0.46961478067E+02  0.89400317055E+02  0.47000000000E+01 0.  1.
        -11    1    1    2    0    0 -0.21743211464E+02  0.59939831276E+02  0.44665417041E+02  0.77849534986E+02  0.00000000000E+00 0.  1.
         11    1    1    2    0    0  0.61991995186E+02  0.24151654595E+02  0.55172594414E+02  0.86431042231E+02  0.00000000000E+00 0. -1.
<mgrwt>
<rscale>  0 0.17563042E+03</rscale>
<asrwt>0</asrwt>
<pdfrwt beam="2">  1        1 0.24396057E-01 0.19392674E+03</pdfrwt>
<pdfrwt beam="1">  1       -1 0.31764461E-01 0.19392674E+03</pdfrwt>
<totfact> 0.18077701E+03</totfact>
</mgrwt>
</event>
<event>
 7    1  0.6008063E-006  0.1294060E+03  0.7546771E-02  0.1237082E+00
         -2   -1    0    0    0  501 -0.00000000000E+00  0.00000000000E+00  0.25167527020E+02  0.25167527020E+02  0.00000000000E+00 0.  1.
          2   -1    0    0  501    0  0.00000000000E+00 -0.00000000000E+00 -0.75464170510E+03  0.75464170510E+03  0.00000000000E+00 0. -1.
         23    2    1    2    0    0 -0.21091795061E+02  0.54969006018E+02 -0.58622106630E+03  0.60033412320E+03  0.11523656307E+03 0.  0.
          5    1    3    3  502    0  0.37425616401E+02  0.30794835717E+02 -0.41270706961E+03  0.41556974622E+03  0.47000000000E+01 0. -1.
         -5    1    3    3    0  502 -0.58517411462E+02  0.24174170301E+02 -0.17351399669E+03  0.18476437698E+03  0.47000000000E+01 0.  1.
        -11    1    1    2    0    0  0.30062523867E+02 -0.76935316915E+02 -0.96335193929E+02  0.12689865216E+03  0.00000000000E+00 0.  1.
         11    1    1    2    0    0 -0.89707288065E+01  0.21966310897E+02 -0.46917917854E+02  0.52576456760E+02  0.00000000000E+00 0. -1.
<mgrwt>
<rscale>  0 0.12372061E+03</rscale>
<asrwt>0</asrwt>
<pdfrwt beam="2">  1        2 0.11609872E+00 0.12940603E+03</pdfrwt>
<pdfrwt beam="1">  1       -2 0.38719274E-02 0.12940603E+03</pdfrwt>
<totfact> 0.10534965E+04</totfact>
</mgrwt>
</event>
<event>
 7    1  0.6008063E-006  0.1524782E+03  0.7546771E-02  0.1206027E+00
         -3   -1    0    0    0  501 -0.00000000000E+00  0.00000000000E+00  0.25865396986E+03  0.25865396986E+03  0.00000000000E+00 0.  1.
          3   -1    0    0  501    0  0.00000000000E+00 -0.00000000000E+00 -0.12785374740E+03  0.12785374740E+03  0.00000000000E+00 0. -1.
         23    2    1    2    0    0 -0.33722826441E+02 -0.80551544360E+02 -0.54611121726E+02  0.16196284739E+03  0.12499523589E+03 0.  0.
          5    1    3    3  502    0 -0.49762333635E+02 -0.25858142117E+02  0.26911906016E+02  0.62380077332E+02  0.47000000000E+01 0. -1.
         -5    1    3    3    0  502  0.16039507194E+02 -0.54693402243E+02 -0.81523027742E+02  0.99582770057E+02  0.47000000000E+01 0. -1.
        -11    1    1    2    0    0  0.63003206243E+02  0.39870432197E+02  0.12971039212E+03  0.14961230292E+03  0.00000000000E+00 0.  1.
         11    1    1    2    0    0 -0.29280379801E+02  0.40681112163E+02  0.55700952070E+02  0.74932566950E+02  0.00000000000E+00 0. -1.
<mgrwt>
<rscale>  0 0.14556821E+03</rscale>
<asrwt>0</asrwt>
<pdfrwt beam="2">  1        3 0.19669807E-01 0.15247816E+03</pdfrwt>
<pdfrwt beam="1">  1       -3 0.39792919E-01 0.15247816E+03</pdfrwt>
<totfact> 0.34260529E+02</totfact>
</mgrwt>
</event>
<event>
 7    1  0.6008063E-006  0.1255727E+03  0.7546771E-02  0.1251691E+00
         -2   -1    0    0    0  501 -0.00000000000E+00  0.00000000000E+00  0.35607937830E+02  0.35607937830E+02  0.00000000000E+00 0.  1.
          2   -1    0    0  501    0  0.00000000000E+00 -0.00000000000E+00 -0.55750154424E+03  0.55750154424E+03  0.00000000000E+00 0. -1.
         23    2    1    2    0    0  0.10703010865E+02 -0.60570854033E+01 -0.47881837546E+03  0.49501065074E+03  0.12496905594E+03 0.  0.
          5    1    3    3  502    0 -0.22201879586E+02  0.14863309799E+02 -0.18078888396E+02  0.32600270566E+02  0.47000000000E+01 0. -1.
         -5    1    3    3    0  502  0.32904890452E+02 -0.20920395202E+02 -0.46073948707E+03  0.46241038018E+03  0.47000000000E+01 0. -1.
        -11    1    1    2    0    0 -0.31341475913E+02  0.16869269673E+02 -0.59680239479E+02  0.69488066284E+02  0.00000000000E+00 0. -1.
         11    1    1    2    0    0  0.20638465048E+02 -0.10812184270E+02  0.16605008530E+02  0.28610765046E+02  0.00000000000E+00 0.  1.
<mgrwt>
<rscale>  0 0.11493690E+03</rscale>
<asrwt>0</asrwt>
<pdfrwt beam="2">  1        2 0.85769468E-01 0.12557272E+03</pdfrwt>
<pdfrwt beam="1">  1       -2 0.54781443E-02 0.12557272E+03</pdfrwt>
<totfact> 0.88979820E+03</totfact>
</mgrwt>
</event>
<event>
 7    1  0.6008063E-006  0.1943373E+03  0.7546771E-02  0.1159058E+00
          2   -1    0    0  501    0  0.00000000000E+00  0.00000000000E+00  0.39857401098E+03  0.39857401098E+03  0.00000000000E+00 0. -1.
         -2   -1    0    0    0  501 -0.00000000000E+00 -0.00000000000E+00 -0.86129796514E+02  0.86129796514E+02  0.00000000000E+00 0.  1.
         23    2    1    2    0    0  0.14863566462E+03 -0.64839994647E+01  0.18308661155E+03  0.26699758142E+03  0.12502958894E+03 0.  0.
          5    1    3    3  502    0  0.76479283329E+02  0.59019152001E+02  0.88051202969E+02  0.13079543350E+03  0.47000000000E+01 0.  1.
         -5    1    3    3    0  502  0.72156381293E+02 -0.65503151465E+02  0.95035408584E+02  0.13620214792E+03  0.47000000000E+01 0.  1.
        -11    1    1    2    0    0 -0.10740049637E+03 -0.25181795099E+02  0.46120759213E+02  0.11956635754E+03  0.00000000000E+00 0.  1.
         11    1    1    2    0    0 -0.41235168253E+02  0.31665794564E+02  0.83236843698E+02  0.98139868530E+02  0.00000000000E+00 0. -1.
<mgrwt>
<rscale>  0 0.18934042E+03</rscale>
<asrwt>0</asrwt>
<pdfrwt beam="1">  1        2 0.61319077E-01 0.19433734E+03</pdfrwt>
<pdfrwt beam="2">  1       -2 0.13250738E-01 0.19433734E+03</pdfrwt>
<totfact> 0.33150337E+03</totfact>
</mgrwt>
</event>
<event>
 7    1  0.6008063E-006  0.2725941E+03  0.7546771E-02  0.1101851E+00
         -1   -1    0    0    0  501 -0.00000000000E+00  0.00000000000E+00  0.14303145916E+03  0.14303145916E+03  0.00000000000E+00 0.  1.
          1   -1    0    0  501    0  0.00000000000E+00 -0.00000000000E+00 -0.90516306472E+03  0.90516306472E+03  0.00000000000E+00 0. -1.
         23    2    1    2    0    0  0.24206136159E+03  0.91306410143E+01 -0.74014727944E+03  0.78874934254E+03  0.12502183294E+03 0.  0.
          5    1    3    3  502    0  0.63233004973E+02 -0.89377729050E+01 -0.69865813682E+02  0.94771401930E+02  0.47000000000E+01 0. -1.
         -5    1    3    3    0  502  0.17882835661E+03  0.18068413919E+02 -0.67028146576E+03  0.69397794061E+03  0.47000000000E+01 0. -1.
        -11    1    1    2    0    0 -0.14733488477E+03 -0.20529972703E+02 -0.54827665426E+02  0.15854059715E+03  0.00000000000E+00 0. -1.
         11    1    1    2    0    0 -0.94726476821E+02  0.11399331688E+02  0.32843339311E+02  0.10090458419E+03  0.00000000000E+00 0.  1.
<mgrwt>
<rscale>  0 0.26900324E+03</rscale>
<asrwt>0</asrwt>
<pdfrwt beam="2">  1        1 0.13925586E+00 0.27259408E+03</pdfrwt>
<pdfrwt beam="1">  1       -1 0.22004840E-01 0.27259408E+03</pdfrwt>
<totfact> 0.32821285E+02</totfact>
</mgrwt>
</event>
<event>
 6    1  0.6008063E-006  0.1964629E+03  0.7546771E-02  0.1180398E+00
         -1   -1    0    0    0  501 -0.00000000000E+00  0.00000000000E+00  0.18503704821E+02  0.18503704821E+02  0.00000000000E+00 0.  1.
          1   -1    0    0  501    0  0.00000000000E+00 -0.00000000000E+00 -0.13099537572E+04  0.13099537572E+04  0.00000000000E+00 0. -1.
          5    1    1    2  502    0 -0.80314185675E+02 -0.30849305050E+02 -0.78024211273E+03  0.78498528172E+03  0.47000000000E+01 0. -1.
         -5    1    1    2    0  502  0.43890483405E+02  0.67230872336E+02 -0.21700018760E+03  0.23142501193E+03  0.47000000000E+01 0.  1.
        -11    1    1    2    0    0  0.56876853191E+02 -0.50750086844E+02 -0.18648904282E+03  0.20146640126E+03  0.00000000000E+00 0. -1.
         11    1    1    2    0    0 -0.20453150920E+02  0.14368519558E+02 -0.10771870922E+03  0.11058076711E+03  0.00000000000E+00 0.  1.
<mgrwt>
<rscale>  0 0.16757720E+03</rscale>
<asrwt>0</asrwt>
<pdfrwt beam="2">  1        1 0.20153132E+00 0.19646292E+03</pdfrwt>
<pdfrwt beam="1">  1       -1 0.28467242E-02 0.19646292E+03</pdfrwt>
<totfact> 0.38932242E+03</totfact>
</mgrwt>
</event>
<event>
 7    1  0.6008063E-006  0.1672626E+03  0.7546771E-02  0.1186639E+00
          1   -1    0    0  501    0  0.00000000000E+00  0.00000000000E+00  0.26950111498E+03  0.26950111498E+03  0.00000000000E+00 0. -1.
         -1   -1    0    0    0  501 -0.00000000000E+00 -0.00000000000E+00 -0.92489769940E+02  0.92489769940E+02  0.00000000000E+00 0.  1.
         23    2    1    2    0    0 -0.68280636533E+02 -0.87690910239E+02  0.74451035892E+02  0.18308391728E+03  0.12499929183E+03 0.  0.
          5    1    3    3  502    0 -0.62546708755E+02 -0.98889880910E+02  0.10014871053E+03  0.15408813563E+03  0.47000000000E+01 0.  1.
         -5    1    3    3    0  502 -0.57339277779E+01  0.11198970671E+02 -0.25697674634E+02  0.28995781649E+02  0.47000000000E+01 0.  1.
        -11    1    1    2    0    0  0.74911023439E+02  0.19716334659E+02  0.63967391623E+02  0.10046005413E+03  0.00000000000E+00 0. -1.
         11    1    1    2    0    0 -0.66303869053E+01  0.67974575580E+02  0.38592917525E+02  0.78446913508E+02  0.00000000000E+00 0.  1.
<mgrwt>
<rscale>  0 0.16183643E+03</rscale>
<asrwt>0</asrwt>
<pdfrwt beam="1">  1        1 0.41461710E-01 0.16726256E+03</pdfrwt>
<pdfrwt beam="2">  1       -1 0.14229195E-01 0.16726256E+03</pdfrwt>
<totfact> 0.34246649E+03</totfact>
</mgrwt>
</event>
<event>
 7    1  0.6008063E-006  0.2907031E+03  0.7546771E-02  0.1089983E+00
          1   -1    0    0  501    0  0.00000000000E+00  0.00000000000E+00  0.14772614825E+03  0.14772614825E+03  0.00000000000E+00 0.  1.
         -1   -1    0    0    0  501 -0.00000000000E+00 -0.00000000000E+00 -0.14301514947E+03  0.14301514947E+03  0.00000000000E+00 0. -1.
         23    2    1    2    0    0 -0.42328705001E+02  0.85400980815E+01  0.92989126981E+01  0.13257632263E+03  0.12500143600E+03 0.  0.
          5    1    3    3  502    0 -0.46697507970E+02 -0.21110893820E+01 -0.51970330423E+02  0.70057970234E+02  0.47000000000E+01 0. -1.
         -5    1    3    3    0  502  0.43688029696E+01  0.10651187463E+02  0.61269243121E+02  0.62518352397E+02  0.47000000000E+01 0. -1.
        -11    1    1    2    0    0 -0.23303409380E+02 -0.57596912575E+02  0.30275962388E+02  0.69116475065E+02  0.00000000000E+00 0.  1.
         11    1    1    2    0    0  0.65632114381E+02  0.49056814493E+02 -0.34863876309E+02  0.89048500030E+02  0.00000000000E+00 0. -1.
<mgrwt>
<rscale>  0 0.29070313E+03</rscale>
<asrwt>0</asrwt>
<pdfrwt beam="1">  1        1 0.22727100E-01 0.29070313E+03</pdfrwt>
<pdfrwt beam="2">  1       -1 0.22002331E-01 0.29070313E+03</pdfrwt>
<totfact> 0.37149648E+03</totfact>
</mgrwt>
</event>
<event>
 7    1  0.6008063E-006  0.1482438E+03  0.7546771E-02  0.1208431E+00
         -1   -1    0    0    0  501 -0.00000000000E+00  0.00000000000E+00  0.56954947265E+02  0.56954947265E+02  0.00000000000E+00 0.  1.
          1   -1    0    0  501    0  0.00000000000E+00 -0.00000000000E+00 -0.35171419983E+03  0.35171419983E+03  0.00000000000E+00 0. -1.
         23    2    1    2    0    0  0.79596993337E+02 -0.38486556103E+01 -0.19013369389E+03  0.24109552073E+03  0.12500294023E+03 0.  0.
          5    1    3    3  502    0  0.70959947280E+02  0.48927253479E+02 -0.15348872453E+03  0.17609675979E+03  0.47000000000E+01 0. -1.
         -5    1    3    3    0  502  0.86370460575E+01 -0.52775909089E+02 -0.36644969363E+02  0.64998760945E+02  0.47000000000E+01 0. -1.
        -11    1    1    2    0    0 -0.13552231226E+02  0.42495767272E+02 -0.97018466680E+01  0.45647333285E+02  0.00000000000E+00 0. -1.
         11    1    1    2    0    0 -0.66044762111E+02 -0.38647111661E+02 -0.94923712002E+02  0.12192629307E+03  0.00000000000E+00 0.  1.
<mgrwt>
<rscale>  0 0.14370308E+03</rscale>
<asrwt>0</asrwt>
<pdfrwt beam="2">  1        1 0.54109877E-01 0.14824381E+03</pdfrwt>
<pdfrwt beam="1">  1       -1 0.87622996E-02 0.14824381E+03</pdfrwt>
<totfact> 0.51614209E+03</totfact>
</mgrwt>
</event>
<event>
 7    1  0.6008063E-006  0.1827340E+03  0.7546771E-02  0.1170805E+00
         -2   -1    0    0    0  501 -0.00000000000E+00  0.00000000000E+00  0.41249793855E+02  0.41249793855E+02  0.00000000000E+00 0.  1.
          2   -1    0    0  501    0  0.00000000000E+00 -0.00000000000E+00 -0.74192283042E+03  0.74192283042E+03  0.00000000000E+00 0. -1.
         23    2    1    2    0    0  0.38232531330E+02  0.12768916323E+03 -0.44726245394E+03  0.48315156401E+03  0.12500192897E+03 0.  0.
          5    1    3    3  502    0  0.10924213015E+02  0.10904195439E+03 -0.43327019953E+03  0.44693919278E+03  0.47000000000E+01 0.  1.
         -5    1    3    3    0  502  0.27308318315E+02  0.18647208836E+02 -0.13992254412E+02  0.36212371230E+02  0.47000000000E+01 0.  1.
        -11    1    1    2    0    0 -0.62440735927E+02 -0.11096065505E+03 -0.17615779661E+03  0.21735381704E+03  0.00000000000E+00 0.  1.
         11    1    1    2    0    0  0.24208204597E+02 -0.16728508178E+02 -0.77252786013E+02  0.82667243225E+02  0.00000000000E+00 0. -1.
<mgrwt>
<rscale>  0 0.17693267E+03</rscale>
<asrwt>0</asrwt>
<pdfrwt beam="2">  1        2 0.11414198E+00 0.18273404E+03</pdfrwt>
<pdfrwt beam="1">  1       -2 0.63461221E-02 0.18273404E+03</pdfrwt>
<totfact> 0.52023782E+03</totfact>
</mgrwt>
</event>
<event>
 7    1  0.6008063E-006  0.2126983E+03  0.7546771E-02  0.1143221E+00
          2   -1    0    0  501    0  0.00000000000E+00  0.00000000000E+00  0.20191962112E+04  0.20191962112E+04  0.00000000000E+00 0.  1.
         -2   -1    0    0    0  501 -0.00000000000E+00 -0.00000000000E+00 -0.22102932080E+02  0.22102932080E+02  0.00000000000E+00 0. -1.
         23    2    1    2    0    0  0.74694794149E+02  0.15503584360E+03  0.13149881124E+04  0.13320789350E+04  0.12500051309E+03 0.  0.
          5    1    3    3  502    0 -0.79154133357E+01  0.35663496106E+02  0.74408025309E+02  0.83025194689E+02  0.47000000000E+01 0.  1.
         -5    1    3    3    0  502  0.82610207485E+02  0.11937234750E+03  0.12405800871E+04  0.12490537403E+04  0.47000000000E+01 0.  1.
        -11    1    1    2    0    0 -0.73991841556E+02 -0.99555037324E+02  0.57895762817E+03  0.59209621962E+03  0.00000000000E+00 0.  1.
         11    1    1    2    0    0 -0.70295259307E+00 -0.55480806280E+02  0.10314753856E+03  0.11712398866E+03  0.00000000000E+00 0. -1.
<mgrwt>
<rscale>  0 0.20792315E+03</rscale>
<asrwt>0</asrwt>
<pdfrwt beam="1">  1        2 0.31064542E+00 0.21269827E+03</pdfrwt>
<pdfrwt beam="2">  1       -2 0.34004527E-02 0.21269827E+03</pdfrwt>
<totfact> 0.25530561E+03</totfact>
</mgrwt>
</event>
<event>
 7    1  0.6008063E-006  0.1282347E+03  0.7546771E-02  0.1244498E+00
         -2   -1    0    0    0  501 -0.00000000000E+00  0.00000000000E+00  0.18212703775E+02  0.18212703775E+02  0.00000000000E+00 0.  1.
          2   -1    0    0  501    0  0.00000000000E+00 -0.00000000000E+00 -0.79937127261E+03  0.79937127261E+03  0.00000000000E+00 0. -1.
         23    2    1    2    0    0  0.21768965765E+02  0.18614300120E+02 -0.59097305675E+03  0.60472579758E+03  0.12499502557E+03 0.  0.
          5    1    3    3  502    0  0.57517139802E+02  0.15538436385E+02 -0.53331229044E+03  0.53665049474E+03  0.47000000000E+01 0.  1.
         -5    1    3    3    0  502 -0.35748174038E+02  0.30758637353E+01 -0.57660766311E+02  0.68075302837E+02  0.47000000000E+01 0.  1.
        -11    1    1    2    0    0  0.18186187213E+02  0.18477930377E+02 -0.12601980605E+03  0.12865909541E+03  0.00000000000E+00 0. -1.
         11    1    1    2    0    0 -0.39955152977E+02 -0.37092230497E+02 -0.64165706043E+02  0.84199083395E+02  0.00000000000E+00 0.  1.
<mgrwt>
<rscale>  0 0.11915465E+03</rscale>
<asrwt>0</asrwt>
<pdfrwt beam="2">  1        2 0.12298021E+00 0.12823469E+03</pdfrwt>
<pdfrwt beam="1">  1       -2 0.28019541E-02 0.12823469E+03</pdfrwt>
<totfact> 0.15796112E+04</totfact>
</mgrwt>
</event>
<event>
 7    1  0.6668819E-006  0.1696222E+03  0.7546771E-02  0.1184816E+00
         -1   -1    0    0    0  501 -0.00000000000E+00  0.00000000000E+00  0.25234497110E+02  0.25234497110E+02  0.00000000000E+00 0.  1.
          1   -1    0    0  501    0  0.00000000000E+00 -0.00000000000E+00 -0.10677859663E+04  0.10677859663E+04  0.00000000000E+00 0. -1.
         23    2    1    2    0    0 -0.60418212464E+02 -0.97448596838E+02 -0.70461032780E+03  0.72473953523E+03  0.12500036182E+03 0.  0.
          5    1    3    3  502    0 -0.53518168799E+01 -0.82145815764E+02 -0.59824237030E+03  0.60389783955E+03  0.47000000000E+01 0.  1.
         -5    1    3    3    0  502 -0.55066395584E+02 -0.15302781075E+02 -0.10636795750E+03  0.12084169567E+03  0.47000000000E+01 0.  1.
        -11    1    1    2    0    0  0.12751747391E+02  0.31475296397E+02 -0.18578656517E+02  0.38710048086E+02  0.00000000000E+00 0.  1.
         11    1    1    2    0    0  0.47666465073E+02  0.65973300441E+02 -0.31936248489E+03  0.32957088011E+03  0.00000000000E+00 0. -1.
<mgrwt>
<rscale>  0 0.16348623E+03</rscale>
<asrwt>0</asrwt>
<pdfrwt beam="2">  1        1 0.16427477E+00 0.16962217E+03</pdfrwt>
<pdfrwt beam="1">  1       -1 0.38822302E-02 0.16962217E+03</pdfrwt>
<totfact> 0.36214456E+03</totfact>
</mgrwt>
</event>
<event>
 7    1  0.6008063E-006  0.1489679E+03  0.7546771E-02  0.1211373E+00
          4   -1    0    0  501    0  0.00000000000E+00  0.00000000000E+00  0.33462453968E+03  0.33462453968E+03  0.00000000000E+00 0.  1.
         -4   -1    0    0    0  501 -0.00000000000E+00 -0.00000000000E+00 -0.83090627802E+02  0.83090627802E+02  0.00000000000E+00 0. -1.
         23    2    1    2    0    0  0.79990781296E+02 -0.12870949397E+02  0.25633455254E+03  0.29647739415E+03  0.12500902362E+03 0.  0.
          5    1    3    3  502    0  0.67292986890E+02  0.81932356413E+01  0.40315885151E+02  0.79012250888E+02  0.47000000000E+01 0.  1.
         -5    1    3    3    0  502  0.12697794406E+02 -0.21064185038E+02  0.21601866739E+03  0.21746514326E+03  0.47000000000E+01 0.  1.
        -11    1    1    2    0    0 -0.97879446294E+01  0.42997569759E+02 -0.78130119700E+01  0.44784350183E+02  0.00000000000E+00 0. -1.
         11    1    1    2    0    0 -0.70202836667E+02 -0.30126620363E+02  0.30123713111E+01  0.76453423150E+02  0.00000000000E+00 0.  1.
<mgrwt>
<rscale>  0 0.14146333E+03</rscale>
<asrwt>0</asrwt>
<pdfrwt beam="1">  1        4 0.51480698E-01 0.14896792E+03</pdfrwt>
<pdfrwt beam="2">  1       -4 0.12783174E-01 0.14896792E+03</pdfrwt>
<totfact> 0.30813884E+02</totfact>
</mgrwt>
</event>
<event>
 7    1  0.6008063E-006  0.1264990E+03  0.7546771E-02  0.1247640E+00
         -3   -1    0    0    0  501 -0.00000000000E+00  0.00000000000E+00  0.38934391272E+02  0.38934391272E+02  0.00000000000E+00 0.  1.
          3   -1    0    0  501    0  0.00000000000E+00 -0.00000000000E+00 -0.44404449926E+03  0.44404449926E+03  0.00000000000E+00 0. -1.
         23    2    1    2    0    0  0.17839001097E+02 -0.76828098433E+01 -0.35509748007E+03  0.37695650773E+03  0.12499893138E+03 0.  0.
          5    1    3    3  502    0 -0.51711449665E+02 -0.42546443704E+01 -0.10371066746E+03  0.11606105535E+03  0.47000000000E+01 0.  1.
         -5    1    3    3    0  502  0.69550450762E+02 -0.34281654729E+01 -0.25138681261E+03  0.26089545238E+03  0.47000000000E+01 0.  1.
        -11    1    1    2    0    0 -0.24945059833E+02 -0.36765613165E+02 -0.94361731912E+01  0.45420344406E+02  0.00000000000E+00 0.  1.
         11    1    1    2    0    0  0.71060587357E+01  0.44448423008E+02 -0.40576454734E+02  0.60602038393E+02  0.00000000000E+00 0. -1.
<mgrwt>
<rscale>  0 0.11728729E+03</rscale>
<asrwt>0</asrwt>
<pdfrwt beam="2">  1        3 0.68314538E-01 0.12649897E+03</pdfrwt>
<pdfrwt beam="1">  1       -3 0.59899064E-02 0.12649897E+03</pdfrwt>
<totfact> 0.81821568E+02</totfact>
</mgrwt>
</event>
<event>
 7    1  0.6008063E-006  0.1267671E+03  0.7546771E-02  0.1247467E+00
          2   -1    0    0  501    0  0.00000000000E+00  0.00000000000E+00  0.16570568413E+04  0.16570568413E+04  0.00000000000E+00 0. -1.
         -2   -1    0    0    0  501 -0.00000000000E+00 -0.00000000000E+00 -0.84093175225E+01  0.84093175225E+01  0.00000000000E+00 0.  1.
         23    2    1    2    0    0  0.20860843089E+02  0.31166789517E+01  0.12327187976E+04  0.12392197229E+04  0.12499999604E+03 0.  0.
          5    1    3    3  502    0  0.19146656814E+02 -0.51016412862E+02  0.30186412811E+03  0.30677892804E+03  0.47000000000E+01 0.  1.
         -5    1    3    3    0  502  0.17141862748E+01  0.54133091814E+02  0.93085466952E+03  0.93244079482E+03  0.47000000000E+01 0.  1.
        -11    1    1    2    0    0 -0.49979733013E+02 -0.19845802024E+02  0.32278137444E+03  0.32723026335E+03  0.00000000000E+00 0. -1.
         11    1    1    2    0    0  0.29118889924E+02  0.16729123073E+02  0.93147351678E+02  0.99016172587E+02  0.00000000000E+00 0.  1.
<mgrwt>
<rscale>  0 0.11738917E+03</rscale>
<asrwt>0</asrwt>
<pdfrwt beam="1">  1        2 0.25493156E+00 0.12676706E+03</pdfrwt>
<pdfrwt beam="2">  1       -2 0.12937425E-02 0.12676706E+03</pdfrwt>
<totfact> 0.15942075E+04</totfact>
</mgrwt>
</event>
<event>
 7    1  0.6008063E-006  0.1303328E+03  0.7546771E-02  0.1241758E+00
         -1   -1    0    0    0  501 -0.00000000000E+00  0.00000000000E+00  0.38029239736E+02  0.38029239736E+02  0.00000000000E+00 0.  1.
          1   -1    0    0  501    0  0.00000000000E+00 -0.00000000000E+00 -0.34264937594E+03  0.34264937594E+03  0.00000000000E+00 0. -1.
         23    2    1    2    0    0 -0.12051805056E+02  0.34858177615E+02 -0.19805991402E+03  0.23709567028E+03  0.12500515499E+03 0.  0.
          5    1    3    3  502    0 -0.59834835179E+02 -0.13047832720E+02 -0.10945941477E+03  0.12551456857E+03  0.47000000000E+01 0. -1.
         -5    1    3    3    0  502  0.47783030122E+02  0.47906010335E+02 -0.88600499245E+02  0.11158110172E+03  0.47000000000E+01 0. -1.
        -11    1    1    2    0    0  0.18500869106E+02  0.95446483711E+01  0.66104941569E+01  0.21842186319E+02  0.00000000000E+00 0.  1.
         11    1    1    2    0    0 -0.64490640496E+01 -0.44402825986E+02 -0.11317071634E+03  0.12174075907E+03  0.00000000000E+00 0. -1.
<mgrwt>
<rscale>  0 0.12081540E+03</rscale>
<asrwt>0</asrwt>
<pdfrwt beam="2">  1        1 0.52715286E-01 0.13033276E+03</pdfrwt>
<pdfrwt beam="1">  1       -1 0.58506526E-02 0.13033276E+03</pdfrwt>
<totfact> 0.97006417E+03</totfact>
</mgrwt>
</event>
<event>
 7    1  0.6008063E-006  0.1556721E+03  0.7546771E-02  0.1201963E+00
         -1   -1    0    0    0  501 -0.00000000000E+00  0.00000000000E+00  0.55270042470E+02  0.55270042470E+02  0.00000000000E+00 0.  1.
          1   -1    0    0  501    0  0.00000000000E+00 -0.00000000000E+00 -0.37450334365E+03  0.37450334365E+03  0.00000000000E+00 0. -1.
         23    2    1    2    0    0  0.48556356119E+02  0.79043646109E+02 -0.14773411103E+03  0.21461397235E+03  0.12501268679E+03 0.  0.
          5    1    3    3  502    0  0.28229017422E+02 -0.31278049464E+02 -0.51774129182E+02  0.66916696388E+02  0.47000000000E+01 0.  1.
         -5    1    3    3    0  502  0.20327338697E+02  0.11032169557E+03 -0.95959981843E+02  0.14769727597E+03  0.47000000000E+01 0.  1.
        -11    1    1    2    0    0  0.13898378381E+02 -0.29800602178E+02 -0.10945768564E+03  0.11429009474E+03  0.00000000000E+00 0. -1.
         11    1    1    2    0    0 -0.62454734500E+02 -0.49243043932E+02 -0.62041504520E+02  0.10086931902E+03  0.00000000000E+00 0.  1.
<mgrwt>
<rscale>  0 0.14879376E+03</rscale>
<asrwt>0</asrwt>
<pdfrwt beam="2">  1        1 0.57615902E-01 0.15567206E+03</pdfrwt>
<pdfrwt beam="1">  1       -1 0.85030831E-02 0.15567206E+03</pdfrwt>
<totfact> 0.50060812E+03</totfact>
</mgrwt>
</event>
<event>
 7    1  0.6008063E-006  0.1437461E+03  0.7546771E-02  0.1217427E+00
          2   -1    0    0  501    0  0.00000000000E+00  0.00000000000E+00  0.31309827153E+03  0.31309827153E+03  0.00000000000E+00 0. -1.
         -2   -1    0    0    0  501 -0.00000000000E+00 -0.00000000000E+00 -0.58219412339E+02  0.58219412339E+02  0.00000000000E+00 0.  1.
         23    2    1    2    0    0  0.48894126040E+02 -0.51459442136E+02  0.18276169405E+03  0.23251833522E+03  0.12499691858E+03 0.  0.
          5    1    3    3  502    0 -0.32861356275E+02 -0.84021829004E+01  0.10882234894E+03  0.11408268511E+03  0.47000000000E+01 0.  1.
         -5    1    3    3    0  502  0.81755482315E+02 -0.43057259235E+02  0.73939345111E+02  0.11843565011E+03  0.47000000000E+01 0.  1.
        -11    1    1    2    0    0  0.14592578302E+02 -0.18417955324E+02  0.86549107554E+01  0.25041403714E+02  0.00000000000E+00 0.  1.
         11    1    1    2    0    0 -0.63486704341E+02  0.69877397459E+02  0.63462254384E+02  0.11375794493E+03  0.00000000000E+00 0. -1.
<mgrwt>
<rscale>  0 0.13699733E+03</rscale>
<asrwt>0</asrwt>
<pdfrwt beam="1">  1        2 0.48168964E-01 0.14374609E+03</pdfrwt>
<pdfrwt beam="2">  1       -2 0.89568329E-02 0.14374609E+03</pdfrwt>
<totfact> 0.78799372E+03</totfact>
</mgrwt>
</event>
<event>
 7    1  0.6008063E-006  0.1471964E+03  0.7546771E-02  0.1212439E+00
          2   -1    0    0  501    0  0.00000000000E+00  0.00000000000E+00  0.15335095506E+03  0.15335095506E+03  0.00000000000E+00 0.  1.
         -2   -1    0    0    0  501 -0.00000000000E+00 -0.00000000000E+00 -0.12519939768E+03  0.12519939768E+03  0.00000000000E+00 0. -1.
         23    2    1    2    0    0  0.64377740890E+02 -0.43560093341E+02  0.46649257710E+02  0.15441155711E+03  0.12499920188E+03 0.  0.
          5    1    3    3  502    0 -0.15556113871E+02 -0.10276350629E+01  0.60535539971E+02  0.62687242021E+02  0.47000000000E+01 0.  1.
         -5    1    3    3    0  502  0.79933854761E+02 -0.42532458279E+02 -0.13886282261E+02  0.91724315093E+02  0.47000000000E+01 0.  1.
        -11    1    1    2    0    0 -0.74845133863E+02  0.25085012902E+02 -0.44461686748E+02  0.90597425591E+02  0.00000000000E+00 0. -1.
         11    1    1    2    0    0  0.10467392973E+02  0.18475080439E+02  0.25963986417E+02  0.33541370031E+02  0.00000000000E+00 0.  1.
<mgrwt>
<rscale>  0 0.14066330E+03</rscale>
<asrwt>0</asrwt>
<pdfrwt beam="1">  1        2 0.23592455E-01 0.14719638E+03</pdfrwt>
<pdfrwt beam="2">  1       -2 0.19261446E-01 0.14719638E+03</pdfrwt>
<totfact> 0.49447892E+03</totfact>
</mgrwt>
</event>
<event>
 7    1  0.6008063E-006  0.3052197E+03  0.7546771E-02  0.1084188E+00
          2   -1    0    0  501    0  0.00000000000E+00  0.00000000000E+00  0.23045856011E+04  0.23045856011E+04  0.00000000000E+00 0. -1.
         -2   -1    0    0    0  501 -0.00000000000E+00 -0.00000000000E+00 -0.39008663556E+02  0.39008663556E+02  0.00000000000E+00 0.  1.
         23    2    1    2    0    0  0.25062399128E+03 -0.12133337956E+03  0.12373475568E+04  0.12744363727E+04  0.12499967091E+03 0.  0.
          5    1    3    3  502    0  0.19822725835E+03 -0.95089780255E+02  0.69619480529E+03  0.73009958854E+03  0.47000000000E+01 0.  1.
         -5    1    3    3    0  502  0.52396732932E+02 -0.26243599306E+02  0.54115275150E+03  0.54433678415E+03  0.47000000000E+01 0.  1.
        -11    1    1    2    0    0 -0.45809297177E+02  0.43910115203E+02  0.37171847491E+03  0.37709576306E+03  0.00000000000E+00 0. -1.
         11    1    1    2    0    0 -0.20481469411E+03  0.77423264357E+02  0.65651090583E+03  0.69206212890E+03  0.00000000000E+00 0.  1.
<mgrwt>
<rscale>  0 0.30211517E+03</rscale>
<asrwt>0</asrwt>
<pdfrwt beam="1">  1        2 0.35455152E+00 0.30521974E+03</pdfrwt>
<pdfrwt beam="2">  1       -2 0.60013347E-02 0.30521974E+03</pdfrwt>
<totfact> 0.75358811E+02</totfact>
</mgrwt>
</event>
<event>
 7    1  0.6008063E-006  0.1357092E+03  0.7546771E-02  0.1233122E+00
         -2   -1    0    0    0  501 -0.00000000000E+00  0.00000000000E+00  0.84885293007E+02  0.84885293007E+02  0.00000000000E+00 0.  1.
          2   -1    0    0  501    0  0.00000000000E+00 -0.00000000000E+00 -0.17443571118E+03  0.17443571118E+03  0.00000000000E+00 0. -1.
         23    2    1    2    0    0 -0.34290436973E+02  0.40206456113E+02 -0.79211808757E+02  0.15713530140E+03  0.12499839647E+03 0.  0.
          5    1    3    3  502    0  0.23680996543E+01  0.14245780199E+02  0.32917306608E+02  0.36251747872E+02  0.47000000000E+01 0. -1.
         -5    1    3    3    0  502 -0.36658536628E+02  0.25960675914E+02 -0.11212911537E+03  0.12088355353E+03  0.47000000000E+01 0. -1.
        -11    1    1    2    0    0 -0.21572585264E+02 -0.39365562625E+02 -0.11370895612E+02  0.46306816159E+02  0.00000000000E+00 0.  1.
         11    1    1    2    0    0  0.55863022238E+02 -0.84089348742E+00  0.10322861982E+01  0.55878886623E+02  0.00000000000E+00 0. -1.
<mgrwt>
<rscale>  0 0.12625424E+03</rscale>
<asrwt>0</asrwt>
<pdfrwt beam="2">  1        2 0.26836263E-01 0.13570922E+03</pdfrwt>
<pdfrwt beam="1">  1       -2 0.13059276E-01 0.13570922E+03</pdfrwt>
<totfact> 0.80897246E+03</totfact>
</mgrwt>
</event>
<event>
 7    1  0.6008063E-006  0.1279799E+03  0.7546771E-02  0.1245067E+00
          2   -1    0    0  501    0  0.00000000000E+00  0.00000000000E+00  0.20348863693E+03  0.20348863693E+03  0.00000000000E+00 0.  1.
         -2   -1    0    0    0  501 -0.00000000000E+00 -0.00000000000E+00 -0.62418351821E+02  0.62418351821E+02  0.00000000000E+00 0. -1.
         23    2    1    2    0    0 -0.22518238518E+02 -0.15707922869E+02  0.99677257266E+02  0.16221714808E+03  0.12500015043E+03 0.  0.
          5    1    3    3  502    0 -0.22005421683E+02 -0.11059344904E+01 -0.26686605360E+02  0.34924584180E+02  0.47000000000E+01 0. -1.
         -5    1    3    3    0  502 -0.51281683473E+00 -0.14601988379E+02  0.12636386263E+03  0.12729256390E+03  0.47000000000E+01 0. -1.
        -11    1    1    2    0    0  0.16114231664E+02 -0.18423876840E+02 -0.21021434483E+02  0.32264661902E+02  0.00000000000E+00 0. -1.
         11    1    1    2    0    0  0.64040068537E+01  0.34131799709E+02  0.62414462328E+02  0.71425178774E+02  0.00000000000E+00 0.  1.
<mgrwt>
<rscale>  0 0.11881369E+03</rscale>
<asrwt>0</asrwt>
<pdfrwt beam="1">  1        2 0.31305944E-01 0.12797987E+03</pdfrwt>
<pdfrwt beam="2">  1       -2 0.96028235E-02 0.12797987E+03</pdfrwt>
<totfact> 0.11093627E+04</totfact>
</mgrwt>
</event>
<event>
 7    1  0.6008063E-006  0.1329751E+03  0.7546771E-02  0.1238667E+00
         -1   -1    0    0    0  501 -0.00000000000E+00  0.00000000000E+00  0.73225398447E+03  0.73225398447E+03  0.00000000000E+00 0.  1.
          1   -1    0    0  501    0  0.00000000000E+00 -0.00000000000E+00 -0.19766671074E+02  0.19766671074E+02  0.00000000000E+00 0. -1.
         23    2    1    2    0    0  0.42401561504E+02  0.16021877648E+02  0.29587935791E+03  0.32438706346E+03  0.12501111761E+03 0.  0.
          5    1    3    3  502    0 -0.13646662219E+02  0.54769206673E+02  0.19106700528E+03  0.19928519236E+03  0.47000000000E+01 0.  1.
         -5    1    3    3    0  502  0.56048223723E+02 -0.38747329026E+02  0.10481235263E+03  0.12510187110E+03  0.47000000000E+01 0.  1.
        -11    1    1    2    0    0  0.15389898428E+02 -0.31548492145E+02  0.19248029789E+03  0.19565485276E+03  0.00000000000E+00 0.  1.
         11    1    1    2    0    0 -0.57791459932E+02  0.15526614497E+02  0.22412765760E+03  0.23197873933E+03  0.00000000000E+00 0. -1.
<mgrwt>
<rscale>  0 0.12272598E+03</rscale>
<asrwt>0</asrwt>
<pdfrwt beam="2">  1        1 0.30410269E-02 0.13297508E+03</pdfrwt>
<pdfrwt beam="1">  1       -1 0.11265444E+00 0.13297508E+03</pdfrwt>
<totfact> 0.24781357E+03</totfact>
</mgrwt>
</event>
<event>
 7    1  0.6008063E-006  0.1484721E+03  0.7546771E-02  0.1210660E+00
         -2   -1    0    0    0  501 -0.00000000000E+00  0.00000000000E+00  0.10675975438E+03  0.10675975438E+03  0.00000000000E+00 0.  1.
          2   -1    0    0  501    0  0.00000000000E+00 -0.00000000000E+00 -0.31952516419E+03  0.31952516419E+03  0.00000000000E+00 0. -1.
         23    2    1    2    0    0  0.65811606487E+02  0.54811598341E+02 -0.25499386989E+03  0.29506923271E+03  0.12127860300E+03 0.  0.
          5    1    3    3  502    0  0.68346204508E+02  0.14572859632E+02 -0.24277817928E+03  0.25267945355E+03  0.47000000000E+01 0. -1.
         -5    1    3    3    0  502 -0.25345980216E+01  0.40238738709E+02 -0.12215690610E+02  0.42389779159E+02  0.47000000000E+01 0.  1.
        -11    1    1    2    0    0 -0.66855321856E+02 -0.74698953341E+02  0.47028704046E+02  0.11073060415E+03  0.00000000000E+00 0.  1.
         11    1    1    2    0    0  0.10437153694E+01  0.19887355000E+02 -0.48002439598E+01  0.20485081711E+02  0.00000000000E+00 0. -1.
<mgrwt>
<rscale>  0 0.14200206E+03</rscale>
<asrwt>0</asrwt>
<pdfrwt beam="2">  1        2 0.49157717E-01 0.14847215E+03</pdfrwt>
<pdfrwt beam="1">  1       -2 0.16424578E-01 0.14847215E+03</pdfrwt>
<totfact> 0.29223669E+03</totfact>
</mgrwt>
</event>
<event>
 7    1  0.6008063E-006  0.1530720E+03  0.7546771E-02  0.1205311E+00
          2   -1    0    0  501    0  0.00000000000E+00  0.00000000000E+00  0.32044213502E+03  0.32044213502E+03  0.00000000000E+00 0. -1.
         -2   -1    0    0    0  501 -0.00000000000E+00 -0.00000000000E+00 -0.67087415570E+02  0.67087415570E+02  0.00000000000E+00 0.  1.
         23    2    1    2    0    0  0.93407912058E+01 -0.87848588717E+02  0.19428239484E+03  0.24733919637E+03  0.12500561667E+03 0.  0.
          5    1    3    3  502    0 -0.29314227923E+02  0.15699576140E+02  0.15249276587E+02  0.36884022098E+02  0.47000000000E+01 0.  1.
         -5    1    3    3    0  502  0.38655019129E+02 -0.10354816486E+03  0.17903311825E+03  0.21045517428E+03  0.47000000000E+01 0.  1.
        -11    1    1    2    0    0  0.12128229469E+02  0.96489348119E+02  0.27532749063E+02  0.10107096775E+03  0.00000000000E+00 0.  1.
         11    1    1    2    0    0 -0.21469020675E+02 -0.86407594022E+01  0.31539575555E+02  0.39119386473E+02  0.00000000000E+00 0. -1.
<mgrwt>
<rscale>  0 0.14613010E+03</rscale>
<asrwt>0</asrwt>
<pdfrwt beam="1">  1        2 0.49298789E-01 0.15307197E+03</pdfrwt>
<pdfrwt beam="2">  1       -2 0.10321141E-01 0.15307197E+03</pdfrwt>
<totfact> 0.61787262E+03</totfact>
</mgrwt>
</event>
<event>
 7    1  0.6008063E-006  0.1283149E+03  0.7546771E-02  0.1251670E+00
         -2   -1    0    0    0  501 -0.00000000000E+00  0.00000000000E+00  0.48370090839E+02  0.48370090839E+02  0.00000000000E+00 0.  1.
          2   -1    0    0  501    0  0.00000000000E+00 -0.00000000000E+00 -0.65030668552E+03  0.65030668552E+03  0.00000000000E+00 0. -1.
         23    2    1    2    0    0 -0.87583438376E+01 -0.27620545263E+02 -0.60252276539E+03  0.61603441053E+03  0.12500043613E+03 0.  0.
          5    1    3    3  502    0  0.15705134901E+02 -0.73702032992E+02 -0.38008568959E+03  0.38751240285E+03  0.47000000000E+01 0. -1.
         -5    1    3    3    0  502 -0.24463478739E+02  0.46081487729E+02 -0.22243707581E+03  0.22852200768E+03  0.47000000000E+01 0. -1.
        -11    1    1    2    0    0 -0.13356819642E+01  0.18008199730E+02 -0.37752277164E+02  0.41848700517E+02  0.00000000000E+00 0. -1.
         11    1    1    2    0    0  0.10094025802E+02  0.96123455333E+01  0.38338447880E+02  0.40793665310E+02  0.00000000000E+00 0.  1.
<mgrwt>
<rscale>  0 0.11494915E+03</rscale>
<asrwt>0</asrwt>
<pdfrwt beam="2">  1        2 0.10004718E+00 0.12831489E+03</pdfrwt>
<pdfrwt beam="1">  1       -2 0.74415529E-02 0.12831489E+03</pdfrwt>
<totfact> 0.46957235E+03</totfact>
</mgrwt>
</event>
<event>
 7    1  0.6008063E-006  0.1691017E+03  0.7546771E-02  0.1185805E+00
         -2   -1    0    0    0  501 -0.00000000000E+00  0.00000000000E+00  0.27068228113E+02  0.27068228113E+02  0.00000000000E+00 0.  1.
          2   -1    0    0  501    0  0.00000000000E+00 -0.00000000000E+00 -0.91929742297E+03  0.91929742297E+03  0.00000000000E+00 0. -1.
         23    2    1    2    0    0  0.28790377925E+02 -0.11018717302E+03 -0.53200359047E+03  0.55823221489E+03  0.12500114606E+03 0.  0.
          5    1    3    3  502    0  0.26526195664E+02 -0.91891110002E+02 -0.53058192690E+03  0.53915386144E+03  0.47000000000E+01 0. -1.
         -5    1    3    3    0  502  0.22641822611E+01 -0.18296063015E+02 -0.14216635677E+01  0.19078353453E+02  0.47000000000E+01 0. -1.
        -11    1    1    2    0    0 -0.52674675052E+02  0.30215652645E+02 -0.13891535025E+03  0.15160831637E+03  0.00000000000E+00 0.  1.
         11    1    1    2    0    0  0.23884297127E+02  0.79971520372E+02 -0.22131025414E+03  0.23652511982E+03  0.00000000000E+00 0. -1.
<mgrwt>
<rscale>  0 0.16258875E+03</rscale>
<asrwt>0</asrwt>
<pdfrwt beam="2">  1        2 0.14143035E+00 0.16910170E+03</pdfrwt>
<pdfrwt beam="1">  1       -2 0.41643436E-02 0.16910170E+03</pdfrwt>
<totfact> 0.74647735E+03</totfact>
</mgrwt>
</event>
<event>
 7    1  0.6008063E-006  0.1267192E+03  0.7546771E-02  0.1246388E+00
          3   -1    0    0  501    0  0.00000000000E+00  0.00000000000E+00  0.25514567649E+03  0.25514567649E+03  0.00000000000E+00 0. -1.
         -3   -1    0    0    0  501 -0.00000000000E+00 -0.00000000000E+00 -0.54961875606E+02  0.54961875606E+02  0.00000000000E+00 0.  1.
         23    2    1    2    0    0 -0.16293888225E+02  0.12957082416E+02  0.16591246048E+03  0.20876946273E+03  0.12499746897E+03 0.  0.
          5    1    3    3  502    0 -0.51266362313E+02 -0.12501709657E+02  0.20198382666E+02  0.56697418914E+02  0.47000000000E+01 0.  1.
         -5    1    3    3    0  502  0.34972474088E+02  0.25458792073E+02  0.14571407781E+03  0.15207204382E+03  0.47000000000E+01 0.  1.
        -11    1    1    2    0    0  0.14166908818E+02 -0.39322939329E+02  0.54038471632E+02  0.68316552015E+02  0.00000000000E+00 0. -1.
         11    1    1    2    0    0  0.21269794071E+01  0.26365856913E+02 -0.19767131226E+02  0.33021537352E+02  0.00000000000E+00 0.  1.
<mgrwt>
<rscale>  0 0.11802699E+03</rscale>
<asrwt>0</asrwt>
<pdfrwt beam="1">  1        3 0.39253180E-01 0.12671915E+03</pdfrwt>
<pdfrwt beam="2">  1       -3 0.84556733E-02 0.12671915E+03</pdfrwt>
<totfact> 0.14263175E+03</totfact>
</mgrwt>
</event>
<event>
 7    1  0.6008063E-006  0.1952782E+03  0.7546771E-02  0.1158167E+00
          2   -1    0    0  501    0  0.00000000000E+00  0.00000000000E+00  0.75406775024E+03  0.75406775024E+03  0.00000000000E+00 0.  1.
         -2   -1    0    0    0  501 -0.00000000000E+00 -0.00000000000E+00 -0.48142706139E+02  0.48142706139E+02  0.00000000000E+00 0. -1.
         23    2    1    2    0    0  0.14786943644E+03  0.25348965217E+02  0.45941512165E+03  0.49919516398E+03  0.12500246987E+03 0.  0.
          5    1    3    3  502    0 -0.84618184849E+00  0.98007543998E+01  0.19569205961E+03  0.19599551782E+03  0.47000000000E+01 0.  1.
         -5    1    3    3    0  502  0.14871561829E+03  0.15548210818E+02  0.26372306204E+03  0.30319964616E+03  0.47000000000E+01 0.  1.
        -11    1    1    2    0    0 -0.15728645169E+02  0.13705054804E+02  0.29259011056E+00  0.20863950129E+02  0.00000000000E+00 0. -1.
         11    1    1    2    0    0 -0.13214079127E+03 -0.39054020021E+02  0.24621733235E+03  0.28215134227E+03  0.00000000000E+00 0.  1.
<mgrwt>
<rscale>  0 0.19032679E+03</rscale>
<asrwt>0</asrwt>
<pdfrwt beam="1">  1        2 0.11601041E+00 0.19527815E+03</pdfrwt>
<pdfrwt beam="2">  1       -2 0.74065707E-02 0.19527815E+03</pdfrwt>
<totfact> 0.40287174E+03</totfact>
</mgrwt>
</event>
<event>
 7    1  0.6008063E-006  0.1390328E+03  0.7546771E-02  0.1224919E+00
         -1   -1    0    0    0  501 -0.00000000000E+00  0.00000000000E+00  0.11249311263E+03  0.11249311263E+03  0.00000000000E+00 0.  1.
          1   -1    0    0  501    0  0.00000000000E+00 -0.00000000000E+00 -0.15703075413E+03  0.15703075413E+03  0.00000000000E+00 0. -1.
         23    2    1    2    0    0  0.29414021136E+02  0.53295327138E+02 -0.68458265354E+02  0.15497308496E+03  0.12499818571E+03 0.  0.
          5    1    3    3  502    0 -0.47611085609E+02  0.10635809415E+02 -0.12634789647E+02  0.50612881998E+02  0.47000000000E+01 0. -1.
         -5    1    3    3    0  502  0.77025106745E+02  0.42659517723E+02 -0.55823475708E+02  0.10436020296E+03  0.47000000000E+01 0. -1.
        -11    1    1    2    0    0  0.25128747802E+02  0.91676723895E+01 -0.40114970717E+01  0.27047962805E+02  0.00000000000E+00 0.  1.
         11    1    1    2    0    0 -0.54542768938E+02 -0.62462999528E+02  0.27932120932E+02  0.87502819001E+02  0.00000000000E+00 0. -1.
<mgrwt>
<rscale>  0 0.13172466E+03</rscale>
<asrwt>0</asrwt>
<pdfrwt beam="2">  1        1 0.24158577E-01 0.13903281E+03</pdfrwt>
<pdfrwt beam="1">  1       -1 0.17306633E-01 0.13903281E+03</pdfrwt>
<totfact> 0.48863143E+03</totfact>
</mgrwt>
</event>
<event>
 7    1  0.6008063E-006  0.1640166E+03  0.7546771E-02  0.1191392E+00
         -2   -1    0    0    0  501 -0.00000000000E+00  0.00000000000E+00  0.64639172927E+02  0.64639172927E+02  0.00000000000E+00 0.  1.
          2   -1    0    0  501    0  0.00000000000E+00 -0.00000000000E+00 -0.36622712588E+03  0.36622712588E+03  0.00000000000E+00 0. -1.
         23    2    1    2    0    0 -0.10571796069E+03 -0.10031801552E+02 -0.19590897107E+03  0.25550297210E+03  0.12499807820E+03 0.  0.
          5    1    3    3  502    0 -0.12782499216E+03 -0.23485071541E+02 -0.18691396048E+03  0.22770528283E+03  0.47000000000E+01 0.  1.
         -5    1    3    3    0  502  0.22107031465E+02  0.13453269988E+02 -0.89950105883E+01  0.27797689275E+02  0.47000000000E+01 0.  1.
        -11    1    1    2    0    0  0.60089932814E+00  0.13223413690E+02  0.11769007408E+02  0.17712404833E+02  0.00000000000E+00 0.  1.
         11    1    1    2    0    0  0.10511706137E+03 -0.31916121375E+01 -0.11744798930E+03  0.15765092187E+03  0.00000000000E+00 0. -1.
<mgrwt>
<rscale>  0 0.15763557E+03</rscale>
<asrwt>0</asrwt>
<pdfrwt beam="2">  1        2 0.56342635E-01 0.16401660E+03</pdfrwt>
<pdfrwt beam="1">  1       -2 0.99444880E-02 0.16401660E+03</pdfrwt>
<totfact> 0.57041936E+03</totfact>
</mgrwt>
</event>
<event>
 7    1  0.6008063E-006  0.1172566E+03  0.7546771E-02  0.1256334E+00
         -2   -1    0    0    0  501 -0.00000000000E+00  0.00000000000E+00  0.89550936720E+01  0.89550936720E+01  0.00000000000E+00 0.  1.
          2   -1    0    0  501    0  0.00000000000E+00 -0.00000000000E+00 -0.15033715096E+04  0.15033715096E+04  0.00000000000E+00 0. -1.
         23    2    1    2    0    0 -0.21653615222E+02 -0.32348791700E+02 -0.10784562354E+04  0.10848119509E+04  0.11060648154E+03 0.  0.
          5    1    3    3  502    0 -0.14561295092E+01 -0.43286335286E+02 -0.10306106595E+04  0.10315310217E+04  0.47000000000E+01 0. -1.
         -5    1    3    3    0  502 -0.20197485713E+02  0.10937543586E+02 -0.47845575878E+02  0.53280929232E+02  0.47000000000E+01 0.  1.
        -11    1    1    2    0    0  0.56809198255E+02  0.15319910173E+02 -0.22236052105E+03  0.23001344738E+03  0.00000000000E+00 0.  1.
         11    1    1    2    0    0 -0.35155583033E+02  0.17028881527E+02 -0.19359965949E+03  0.19750120501E+03  0.00000000000E+00 0. -1.
<mgrwt>
<rscale>  0 0.11231967E+03</rscale>
<asrwt>0</asrwt>
<pdfrwt beam="2">  1        2 0.23128789E+00 0.11725663E+03</pdfrwt>
<pdfrwt beam="1">  1       -2 0.13777069E-02 0.11725663E+03</pdfrwt>
<totfact> 0.17396837E+04</totfact>
</mgrwt>
</event>
<event>
 7    1  0.6008063E-006  0.1754675E+03  0.7546771E-02  0.1178209E+00
          2   -1    0    0  501    0  0.00000000000E+00  0.00000000000E+00  0.68253293070E+03  0.68253293070E+03  0.00000000000E+00 0. -1.
         -2   -1    0    0    0  501 -0.00000000000E+00 -0.00000000000E+00 -0.43913912976E+02  0.43913912976E+02  0.00000000000E+00 0.  1.
         23    2    1    2    0    0 -0.64069531972E+02  0.10515848476E+03  0.45227360065E+03  0.48511880327E+03  0.12500252635E+03 0.  0.
          5    1    3    3  502    0  0.17813021107E+02  0.89982969522E+02  0.24880986470E+03  0.26522193970E+03  0.47000000000E+01 0. -1.
         -5    1    3    3    0  502 -0.81882553079E+02  0.15175515243E+02  0.20346373595E+03  0.21989686357E+03  0.47000000000E+01 0. -1.
        -11    1    1    2    0    0  0.82531435205E+01 -0.26429478391E+02  0.12255403032E+03  0.12564283527E+03  0.00000000000E+00 0. -1.
         11    1    1    2    0    0  0.55816388451E+02 -0.78729006374E+02  0.63791386750E+02  0.11568520514E+03  0.00000000000E+00 0.  1.
<mgrwt>
<rscale>  0 0.16965425E+03</rscale>
<asrwt>0</asrwt>
<pdfrwt beam="1">  1        2 0.10500506E+00 0.17546750E+03</pdfrwt>
<pdfrwt beam="2">  1       -2 0.67559871E-02 0.17546750E+03</pdfrwt>
<totfact> 0.52180325E+03</totfact>
</mgrwt>
</event>
<event>
 7    1  0.6008063E-006  0.1260093E+03  0.7546771E-02  0.1247166E+00
          2   -1    0    0  501    0  0.00000000000E+00  0.00000000000E+00  0.18873760617E+04  0.18873760617E+04  0.00000000000E+00 0. -1.
         -2   -1    0    0    0  501 -0.00000000000E+00 -0.00000000000E+00 -0.86447884448E+01  0.86447884448E+01  0.00000000000E+00 0.  1.
         23    2    1    2    0    0  0.11316928400E+02  0.11194003567E+02  0.15056754727E+04  0.15109391062E+04  0.12499989966E+03 0.  0.
          5    1    3    3  502    0  0.25653838533E+02  0.44414640318E+02  0.13524135991E+04  0.13533940345E+04  0.47000000000E+01 0. -1.
         -5    1    3    3    0  502 -0.14336910133E+02 -0.33220636751E+02  0.15326187359E+03  0.15754507163E+03  0.47000000000E+01 0. -1.
        -11    1    1    2    0    0  0.37561038860E+02  0.12915582032E+02  0.12718233101E+03  0.13324034381E+03  0.00000000000E+00 0. -1.
         11    1    1    2    0    0 -0.48877967259E+02 -0.24109585599E+02  0.24587346958E+03  0.25184140018E+03  0.00000000000E+00 0.  1.
<mgrwt>
<rscale>  0 0.11756700E+03</rscale>
<asrwt>0</asrwt>
<pdfrwt beam="1">  1        2 0.29036522E+00 0.12600934E+03</pdfrwt>
<pdfrwt beam="2">  1       -2 0.13299690E-02 0.12600934E+03</pdfrwt>
<totfact> 0.11690107E+04</totfact>
</mgrwt>
</event>
<event>
 7    1  0.6008063E-006  0.2052190E+03  0.7546771E-02  0.1150029E+00
         -2   -1    0    0    0  501 -0.00000000000E+00  0.00000000000E+00  0.50471577228E+02  0.50471577228E+02  0.00000000000E+00 0.  1.
          2   -1    0    0  501    0  0.00000000000E+00 -0.00000000000E+00 -0.77871677857E+03  0.77871677857E+03  0.00000000000E+00 0. -1.
         23    2    1    2    0    0 -0.32597983252E+02  0.15945836092E+03 -0.46310400305E+03  0.50653741046E+03  0.12500093272E+03 0.  0.
          5    1    3    3  502    0 -0.39392548240E+02  0.16896996288E+02 -0.35933101088E+02  0.56129841388E+02  0.47000000000E+01 0. -1.
         -5    1    3    3    0  502  0.67945649886E+01  0.14256136463E+03 -0.42717090196E+03  0.45040756907E+03  0.47000000000E+01 0. -1.
        -11    1    1    2    0    0  0.14284481049E+02 -0.71348592427E+02 -0.46863970550E+02  0.86549984263E+02  0.00000000000E+00 0.  1.
         11    1    1    2    0    0  0.18313502203E+02 -0.88109768495E+02 -0.21827722774E+03  0.23610096107E+03  0.00000000000E+00 0. -1.
<mgrwt>
<rscale>  0 0.19965666E+03</rscale>
<asrwt>0</asrwt>
<pdfrwt beam="2">  1        2 0.11980257E+00 0.20521898E+03</pdfrwt>
<pdfrwt beam="1">  1       -2 0.77648588E-02 0.20521898E+03</pdfrwt>
<totfact> 0.36021966E+03</totfact>
</mgrwt>
</event>
<event>
 6    1  0.6008063E-006  0.1760436E+03  0.7546771E-02  0.1200023E+00
          2   -1    0    0  501    0  0.00000000000E+00  0.00000000000E+00  0.39430294300E+03  0.39430294300E+03  0.00000000000E+00 0. -1.
         -2   -1    0    0    0  501 -0.00000000000E+00 -0.00000000000E+00 -0.55581148786E+02  0.55581148786E+02  0.00000000000E+00 0.  1.
          5    1    1    2  502    0  0.63243918312E+02 -0.69727852845E+02  0.21877919546E+03  0.23821879235E+03  0.47000000000E+01 0. -1.
         -5    1    1    2    0  502 -0.45240554630E+02  0.58194022780E+02  0.82575141653E+02  0.11078806835E+03  0.47000000000E+01 0.  1.
        -11    1    1    2    0    0 -0.13652703170E+01 -0.39164380726E+02  0.23695033650E+02  0.45794839233E+02  0.00000000000E+00 0. -1.
         11    1    1    2    0    0 -0.16638093365E+02  0.50698210792E+02  0.13672423455E+02  0.55082391846E+02  0.00000000000E+00 0.  1.
<mgrwt>
<rscale>  0 0.15036658E+03</rscale>
<asrwt>0</asrwt>
<pdfrwt beam="1">  1        2 0.60661990E-01 0.17604361E+03</pdfrwt>
<pdfrwt beam="2">  1       -2 0.85509462E-02 0.17604361E+03</pdfrwt>
<totfact> 0.67041309E+03</totfact>
</mgrwt>
</event>
<event>
 7    1  0.6008063E-006  0.1273285E+03  0.7546771E-02  0.1245283E+00
         -1   -1    0    0    0  501 -0.00000000000E+00  0.00000000000E+00  0.90446220390E+02  0.90446220390E+02  0.00000000000E+00 0.  1.
          1   -1    0    0  501    0  0.00000000000E+00 -0.00000000000E+00 -0.17565325078E+03  0.17565325078E+03  0.00000000000E+00 0. -1.
         23    2    1    2    0    0 -0.11839695458E+02  0.21081770705E+02 -0.10840321026E+03  0.16722380480E+03  0.12501170127E+03 0.  0.
          5    1    3    3  502    0 -0.28498726304E+02  0.19499239741E+02 -0.13278427886E+03  0.13728128956E+03  0.47000000000E+01 0.  1.
         -5    1    3    3    0  502  0.16659030846E+02  0.15825309641E+01  0.24381068600E+02  0.29942515243E+02  0.47000000000E+01 0.  1.
        -11    1    1    2    0    0 -0.12923932006E+02  0.95427808434E+01  0.49149987621E+02  0.51708935087E+02  0.00000000000E+00 0.  1.
         11    1    1    2    0    0  0.24763627464E+02 -0.30624551548E+02 -0.25953807750E+02  0.47166731278E+02  0.00000000000E+00 0. -1.
<mgrwt>
<rscale>  0 0.11868434E+03</rscale>
<asrwt>0</asrwt>
<pdfrwt beam="2">  1        1 0.27023577E-01 0.12732849E+03</pdfrwt>
<pdfrwt beam="1">  1       -1 0.13914803E-01 0.12732849E+03</pdfrwt>
<totfact> 0.59475834E+03</totfact>
</mgrwt>
</event>
<event>
 7    1  0.6008063E-006  0.1732612E+03  0.7546771E-02  0.1180270E+00
          1   -1    0    0  501    0  0.00000000000E+00  0.00000000000E+00  0.52941663337E+03  0.52941663337E+03  0.00000000000E+00 0. -1.
         -1   -1    0    0    0  501 -0.00000000000E+00 -0.00000000000E+00 -0.58560259052E+02  0.58560259052E+02  0.00000000000E+00 0.  1.
         23    2    1    2    0    0 -0.84053621856E+02 -0.85609617585E+02  0.36088310860E+03  0.40031993198E+03  0.12500164758E+03 0.  0.
          5    1    3    3  502    0 -0.51620583979E+01 -0.77029262371E+02  0.26346054841E+03  0.27457914101E+03  0.47000000000E+01 0. -1.
         -5    1    3    3    0  502 -0.78891563458E+02 -0.85803552137E+01  0.97422560188E+02  0.12574079097E+03  0.47000000000E+01 0. -1.
        -11    1    1    2    0    0  0.50111885311E+02  0.67692547565E+02  0.12127054177E+03  0.14764831983E+03  0.00000000000E+00 0. -1.
         11    1    1    2    0    0  0.33941736544E+02  0.17917070020E+02 -0.11297276054E+02  0.40008640617E+02  0.00000000000E+00 0.  1.
<mgrwt>
<rscale>  0 0.16769757E+03</rscale>
<asrwt>0</asrwt>
<pdfrwt beam="1">  1        1 0.81448710E-01 0.17326116E+03</pdfrwt>
<pdfrwt beam="2">  1       -1 0.90092710E-02 0.17326116E+03</pdfrwt>
<totfact> 0.29470864E+03</totfact>
</mgrwt>
</event>
<event>
 7    1  0.6008063E-006  0.1259315E+03  0.7546771E-02  0.1247308E+00
          1   -1    0    0  501    0  0.00000000000E+00  0.00000000000E+00  0.33155755743E+03  0.33155755743E+03  0.00000000000E+00 0. -1.
         -1   -1    0    0    0  501 -0.00000000000E+00 -0.00000000000E+00 -0.47281839902E+02  0.47281839902E+02  0.00000000000E+00 0.  1.
         23    2    1    2    0    0 -0.16122625780E+02 -0.62422763246E+01  0.24541402822E+03  0.27583833487E+03  0.12473907430E+03 0.  0.
          5    1    3    3  502    0  0.21207534866E+02  0.41366887938E+02  0.39543073273E+02  0.61210486003E+02  0.47000000000E+01 0. -1.
         -5    1    3    3    0  502 -0.37330160645E+02 -0.47609164263E+02  0.20587095495E+03  0.21462784886E+03  0.47000000000E+01 0. -1.
        -11    1    1    2    0    0 -0.16098452165E+02 -0.91475722382E+01  0.59116685498E+02  0.61948533027E+02  0.00000000000E+00 0. -1.
         11    1    1    2    0    0  0.32221077945E+02  0.15389848563E+02 -0.20254996192E+02  0.41052529441E+02  0.00000000000E+00 0.  1.
<mgrwt>
<rscale>  0 0.11748297E+03</rscale>
<asrwt>0</asrwt>
<pdfrwt beam="1">  1        1 0.51008853E-01 0.12593150E+03</pdfrwt>
<pdfrwt beam="2">  1       -1 0.72741294E-02 0.12593150E+03</pdfrwt>
<totfact> 0.72829354E+03</totfact>
</mgrwt>
</event>
<event>
 7    1  0.6008063E-006  0.1942076E+03  0.7546771E-02  0.1159383E+00
          2   -1    0    0  501    0  0.00000000000E+00  0.00000000000E+00  0.20028348891E+04  0.20028348891E+04  0.00000000000E+00 0. -1.
         -2   -1    0    0    0  501 -0.00000000000E+00 -0.00000000000E+00 -0.21016630029E+02  0.21016630029E+02  0.00000000000E+00 0.  1.
         23    2    1    2    0    0  0.74847005358E+02  0.12840545873E+03  0.14798194320E+04  0.14925086807E+04  0.12500629848E+03 0.  0.
          5    1    3    3  502    0 -0.11734930072E+02  0.69836230546E+02  0.93779405826E+03  0.94047572717E+03  0.47000000000E+01 0.  1.
         -5    1    3    3    0  502  0.86581935430E+02  0.58569228182E+02  0.54202537374E+03  0.55203295355E+03  0.47000000000E+01 0.  1.
        -11    1    1    2    0    0 -0.57411287342E+01 -0.97840297138E+02  0.26211539151E+03  0.27983953039E+03  0.00000000000E+00 0. -1.
         11    1    1    2    0    0 -0.69105876624E+02 -0.30565161591E+02  0.23988343556E+03  0.25150330802E+03  0.00000000000E+00 0.  1.
<mgrwt>
<rscale>  0 0.18898188E+03</rscale>
<asrwt>0</asrwt>
<pdfrwt beam="1">  1        2 0.30812829E+00 0.19420765E+03</pdfrwt>
<pdfrwt beam="2">  1       -2 0.32333293E-02 0.19420765E+03</pdfrwt>
<totfact> 0.28085321E+03</totfact>
</mgrwt>
</event>
<event>
 6    1  0.6008063E-006  0.2473719E+03  0.7546771E-02  0.1148216E+00
          2   -1    0    0  501    0  0.00000000000E+00  0.00000000000E+00  0.17795346299E+03  0.17795346299E+03  0.00000000000E+00 0. -1.
         -2   -1    0    0    0  501 -0.00000000000E+00 -0.00000000000E+00 -0.17968158966E+03  0.17968158966E+03  0.00000000000E+00 0.  1.
          5    1    1    2  502    0 -0.59566224507E+02  0.13394615416E+03  0.38633662684E+02  0.15167187349E+03  0.47000000000E+01 0. -1.
         -5    1    1    2    0  502  0.35807607652E+02 -0.73559975026E+02 -0.49924993713E+02  0.95957541073E+02  0.47000000000E+01 0.  1.
        -11    1    1    2    0    0 -0.15432209653E+02 -0.67621058429E+01 -0.28753918366E+02  0.33326670876E+02  0.00000000000E+00 0.  1.
         11    1    1    2    0    0  0.39190826509E+02 -0.53624073292E+02  0.38317122727E+02  0.76678967214E+02  0.00000000000E+00 0. -1.
<mgrwt>
<rscale>  0 0.20181555E+03</rscale>
<asrwt>0</asrwt>
<pdfrwt beam="1">  1        2 0.27377456E-01 0.24737185E+03</pdfrwt>
<pdfrwt beam="2">  1       -2 0.27643321E-01 0.24737185E+03</pdfrwt>
<totfact> 0.22902476E+03</totfact>
</mgrwt>
</event>
<event>
 6    1  0.6008063E-006  0.2000236E+03  0.7546771E-02  0.1180791E+00
          2   -1    0    0  501    0  0.00000000000E+00  0.00000000000E+00  0.24198587387E+03  0.24198587387E+03  0.00000000000E+00 0. -1.
         -2   -1    0    0    0  501 -0.00000000000E+00 -0.00000000000E+00 -0.91723892395E+02  0.91723892395E+02  0.00000000000E+00 0.  1.
          5    1    1    2  502    0  0.32277143957E+02 -0.74575634512E+02  0.14388340189E+03  0.16531141105E+03  0.47000000000E+01 0. -1.
         -5    1    1    2    0  502 -0.30614175625E+02  0.39218532175E+02 -0.36339901198E+02  0.61789962245E+02  0.47000000000E+01 0.  1.
        -11    1    1    2    0    0  0.21872209582E+02  0.59034652375E+02  0.19368102401E+02  0.65868103993E+02  0.00000000000E+00 0.  1.
         11    1    1    2    0    0 -0.23535177914E+02 -0.23677550038E+02  0.23350378385E+02  0.40740288977E+02  0.00000000000E+00 0. -1.
<mgrwt>
<rscale>  0 0.16720804E+03</rscale>
<asrwt>0</asrwt>
<pdfrwt beam="1">  1        2 0.37228596E-01 0.20002357E+03</pdfrwt>
<pdfrwt beam="2">  1       -2 0.14111368E-01 0.20002357E+03</pdfrwt>
<totfact> 0.51220770E+03</totfact>
</mgrwt>
</event>
<event>
 7    1  0.6008063E-006  0.1538448E+03  0.7546771E-02  0.1202766E+00
          1   -1    0    0  501    0  0.00000000000E+00  0.00000000000E+00  0.56728126272E+03  0.56728126272E+03  0.00000000000E+00 0. -1.
         -1   -1    0    0    0  501 -0.00000000000E+00 -0.00000000000E+00 -0.36137727714E+02  0.36137727714E+02  0.00000000000E+00 0.  1.
         23    2    1    2    0    0 -0.73430414535E+02 -0.51486884995E+02  0.29724257174E+03  0.33469595485E+03  0.12500124253E+03 0.  0.
          5    1    3    3  502    0 -0.66080787484E+02 -0.89293302120E+02  0.24966539230E+03  0.27330360845E+03  0.47000000000E+01 0.  1.
         -5    1    3    3    0  502 -0.73496270514E+01  0.37806417125E+02  0.47577179437E+02  0.61392346403E+02  0.47000000000E+01 0.  1.
        -11    1    1    2    0    0  0.30459763045E+02  0.74817322687E+02  0.11875047258E+03  0.14362139004E+03  0.00000000000E+00 0.  1.
         11    1    1    2    0    0  0.42970651491E+02 -0.23330437692E+02  0.11515049069E+03  0.12510164555E+03  0.00000000000E+00 0. -1.
<mgrwt>
<rscale>  0 0.14814924E+03</rscale>
<asrwt>0</asrwt>
<pdfrwt beam="1">  1        1 0.87274034E-01 0.15384484E+03</pdfrwt>
<pdfrwt beam="2">  1       -1 0.55596508E-02 0.15384484E+03</pdfrwt>
<totfact> 0.55348874E+03</totfact>
</mgrwt>
</event>
<event>
 6    1  0.6008063E-006  0.2336472E+03  0.7546771E-02  0.1186633E+00
          1   -1    0    0  501    0  0.00000000000E+00  0.00000000000E+00  0.56331927393E+03  0.56331927393E+03  0.00000000000E+00 0. -1.
         -1   -1    0    0    0  501 -0.00000000000E+00 -0.00000000000E+00 -0.51871792147E+02  0.51871792147E+02  0.00000000000E+00 0.  1.
          5    1    1    2  502    0  0.12085101494E+03 -0.83293421333E+01  0.42500028909E+03  0.44195212577E+03  0.47000000000E+01 0. -1.
         -5    1    1    2    0  502 -0.83305309788E+02 -0.82500116088E+00  0.85462846783E+02  0.11944221802E+03  0.47000000000E+01 0.  1.
        -11    1    1    2    0    0 -0.13186745531E+02 -0.13845472968E+02  0.57307059186E+01  0.19960670573E+02  0.00000000000E+00 0. -1.
         11    1    1    2    0    0 -0.24358959623E+02  0.22999816262E+02 -0.47463600022E+01  0.33836051709E+02  0.00000000000E+00 0.  1.
<mgrwt>
<rscale>  0 0.16184197E+03</rscale>
<asrwt>0</asrwt>
<pdfrwt beam="1">  1        1 0.86664499E-01 0.23364716E+03</pdfrwt>
<pdfrwt beam="2">  1       -1 0.79802761E-02 0.23364716E+03</pdfrwt>
<totfact> 0.32932749E+03</totfact>
</mgrwt>
</event>
<event>
 7    1  0.6008063E-006  0.1317196E+03  0.7546771E-02  0.1239408E+00
         -1   -1    0    0    0  501 -0.00000000000E+00  0.00000000000E+00  0.11237750510E+03  0.11237750510E+03  0.00000000000E+00 0.  1.
          1   -1    0    0  501    0  0.00000000000E+00 -0.00000000000E+00 -0.14128119720E+03  0.14128119720E+03  0.00000000000E+00 0. -1.
         23    2    1    2    0    0 -0.41184057618E+02  0.53925647442E+01 -0.68140997220E+02  0.14830118694E+03  0.12499936075E+03 0.  0.
          5    1    3    3  502    0 -0.26545340218E+02 -0.34537854019E+02  0.21624618205E+02  0.48859313954E+02  0.47000000000E+01 0. -1.
         -5    1    3    3    0  502 -0.14638717400E+02  0.39930418763E+02 -0.89765615425E+02  0.99441872983E+02  0.47000000000E+01 0. -1.
        -11    1    1    2    0    0  0.31961236396E+02 -0.39521217973E+02 -0.22164984800E+01  0.50875929157E+02  0.00000000000E+00 0. -1.
         11    1    1    2    0    0  0.92228212219E+01  0.34128653229E+02  0.41453803599E+02  0.54481586204E+02  0.00000000000E+00 0.  1.
<mgrwt>
<rscale>  0 0.12226400E+03</rscale>
<asrwt>0</asrwt>
<pdfrwt beam="2">  1        1 0.21735569E-01 0.13171958E+03</pdfrwt>
<pdfrwt beam="1">  1       -1 0.17288847E-01 0.13171958E+03</pdfrwt>
<totfact> 0.55732934E+03</totfact>
</mgrwt>
</event>
<event>
 7    1  0.6008063E-006  0.1359517E+03  0.7546771E-02  0.1230948E+00
          1   -1    0    0  501    0  0.00000000000E+00  0.00000000000E+00  0.12794718403E+04  0.12794718403E+04  0.00000000000E+00 0. -1.
         -1   -1    0    0    0  501 -0.00000000000E+00 -0.00000000000E+00 -0.19417637489E+02  0.19417637489E+02  0.00000000000E+00 0.  1.
         23    2    1    2    0    0 -0.17084915160E+02  0.50643612126E+02  0.10913368384E+04  0.10997722297E+04  0.12500476973E+03 0.  0.
          5    1    3    3  502    0 -0.15160795795E+02 -0.21372360883E+02  0.56906977174E+02  0.62826121876E+02  0.47000000000E+01 0.  1.
         -5    1    3    3    0  502 -0.19241193651E+01  0.72015973009E+02  0.10344298613E+04  0.10369461078E+04  0.47000000000E+01 0.  1.
        -11    1    1    2    0    0 -0.18235087266E+00 -0.47859172398E+02  0.17430497018E+03  0.18075606840E+03  0.00000000000E+00 0. -1.
         11    1    1    2    0    0  0.17267266033E+02 -0.27844397278E+01 -0.55876058275E+01  0.18361179693E+02  0.00000000000E+00 0.  1.
<mgrwt>
<rscale>  0 0.12767446E+03</rscale>
<asrwt>0</asrwt>
<pdfrwt beam="1">  1        1 0.19684176E+00 0.13595169E+03</pdfrwt>
<pdfrwt beam="2">  1       -1 0.29873298E-02 0.13595169E+03</pdfrwt>
<totfact> 0.37712441E+03</totfact>
</mgrwt>
</event>
<event>
 7    1  0.6008063E-006  0.1250191E+03  0.7546771E-02  0.1250245E+00
          1   -1    0    0  501    0  0.00000000000E+00  0.00000000000E+00  0.23177659633E+03  0.23177659633E+03  0.00000000000E+00 0. -1.
         -1   -1    0    0    0  501 -0.00000000000E+00 -0.00000000000E+00 -0.56460378404E+02  0.56460378404E+02  0.00000000000E+00 0.  1.
         23    2    1    2    0    0  0.13952047318E+01  0.15909373725E+01  0.14496991064E+03  0.19143160404E+03  0.12500122542E+03 0.  0.
          5    1    3    3  502    0 -0.11624369249E+02  0.59305376268E+02  0.46256639941E+02  0.76249723628E+02  0.47000000000E+01 0.  1.
         -5    1    3    3    0  502  0.13019573981E+02 -0.57714438896E+02  0.98713270701E+02  0.11518188042E+03  0.47000000000E+01 0.  1.
        -11    1    1    2    0    0  0.26583482728E+02  0.68964363722E+01 -0.23098591846E+02  0.35885753913E+02  0.00000000000E+00 0.  1.
         11    1    1    2    0    0 -0.27978687460E+02 -0.84873737447E+01  0.53444899129E+02  0.60919616775E+02  0.00000000000E+00 0. -1.
<mgrwt>
<rscale>  0 0.11576890E+03</rscale>
<asrwt>0</asrwt>
<pdfrwt beam="1">  1        1 0.35657937E-01 0.12501913E+03</pdfrwt>
<pdfrwt beam="2">  1       -1 0.86862122E-02 0.12501913E+03</pdfrwt>
<totfact> 0.86705291E+03</totfact>
</mgrwt>
</event>
<event>
 7    1  0.6008063E-006  0.3994115E+03  0.7546771E-02  0.1044772E+00
          1   -1    0    0  501    0  0.00000000000E+00  0.00000000000E+00  0.95261689520E+03  0.95261689520E+03  0.00000000000E+00 0. -1.
         -1   -1    0    0    0  501 -0.00000000000E+00 -0.00000000000E+00 -0.18227727133E+03  0.18227727133E+03  0.00000000000E+00 0.  1.
         23    2    1    2    0    0 -0.89782057329E+02 -0.36855578587E+03  0.57015687811E+03  0.69613821239E+03  0.12504143305E+03 0.  0.
          5    1    3    3  502    0 -0.34787956033E+02 -0.19556157107E+03  0.19034450073E+03  0.27515022974E+03  0.47000000000E+01 0. -1.
         -5    1    3    3    0  502 -0.54994101295E+02 -0.17299421480E+03  0.37981237738E+03  0.42098798266E+03  0.47000000000E+01 0. -1.
        -11    1    1    2    0    0 -0.47779803903E+01  0.14717107121E+03  0.10007543950E+03  0.17803720648E+03  0.00000000000E+00 0.  1.
         11    1    1    2    0    0  0.94560037719E+02  0.22138471466E+03  0.10010730625E+03  0.26071874766E+03  0.00000000000E+00 0. -1.
<mgrwt>
<rscale>  0 0.39714631E+03</rscale>
<asrwt>0</asrwt>
<pdfrwt beam="1">  1        1 0.14655644E+00 0.39941150E+03</pdfrwt>
<pdfrwt beam="2">  1       -1 0.28042658E-01 0.39941150E+03</pdfrwt>
<totfact> 0.19771348E+02</totfact>
</mgrwt>
</event>
<event>
 7    1  0.6008063E-006  0.1409488E+03  0.7546771E-02  0.1218862E+00
          2   -1    0    0  501    0  0.00000000000E+00  0.00000000000E+00  0.77373080138E+03  0.77373080138E+03  0.00000000000E+00 0. -1.
         -2   -1    0    0    0  501 -0.00000000000E+00 -0.00000000000E+00 -0.43575067227E+02  0.43575067227E+02  0.00000000000E+00 0.  1.
         23    2    1    2    0    0 -0.14575354378E+02  0.63507037028E+02  0.66336933446E+03  0.67817803832E+03  0.12498397118E+03 0.  0.
          5    1    3    3  502    0 -0.60519411196E+02  0.21670750586E+02  0.18800313175E+03  0.19874478134E+03  0.47000000000E+01 0. -1.
         -5    1    3    3    0  502  0.45944056818E+02  0.41836286442E+02  0.47536620270E+03  0.47943325697E+03  0.47000000000E+01 0. -1.
        -11    1    1    2    0    0  0.45610219505E+02 -0.68288950825E+02  0.69537556321E+02  0.10760643413E+03  0.00000000000E+00 0. -1.
         11    1    1    2    0    0 -0.31034865126E+02  0.47819137971E+01 -0.27511566209E+01  0.31521396158E+02  0.00000000000E+00 0.  1.
<mgrwt>
<rscale>  0 0.13596600E+03</rscale>
<asrwt>0</asrwt>
<pdfrwt beam="1">  1        2 0.11903550E+00 0.14094885E+03</pdfrwt>
<pdfrwt beam="2">  1       -2 0.67038571E-02 0.14094885E+03</pdfrwt>
<totfact> 0.44965509E+03</totfact>
</mgrwt>
</event>
<event>
 7    1  0.6008063E-006  0.2697317E+03  0.7546771E-02  0.1103565E+00
         -2   -1    0    0    0  501 -0.00000000000E+00  0.00000000000E+00  0.57941915065E+03  0.57941915065E+03  0.00000000000E+00 0.  1.
          2   -1    0    0  501    0  0.00000000000E+00 -0.00000000000E+00 -0.13772457795E+03  0.13772457795E+03  0.00000000000E+00 0. -1.
         23    2    1    2    0    0  0.22542097603E+03  0.79469941918E+02  0.93673301424E+02  0.28553436180E+03  0.12500038507E+03 0.  0.
          5    1    3    3  502    0  0.16924542952E+03 -0.27360639537E+01  0.68979858675E+02  0.18284368286E+03  0.47000000000E+01 0.  1.
         -5    1    3    3    0  502  0.56175546513E+02  0.82206005871E+02  0.24693442749E+02  0.10269067894E+03  0.47000000000E+01 0.  1.
        -11    1    1    2    0    0 -0.19151855402E+03 -0.82784982912E+02  0.33595277069E+03  0.39547057294E+03  0.00000000000E+00 0. -1.
         11    1    1    2    0    0 -0.33902422005E+02  0.33150409946E+01  0.12068500582E+02  0.36138793849E+02  0.00000000000E+00 0.  1.
<mgrwt>
<rscale>  0 0.26604380E+03</rscale>
<asrwt>0</asrwt>
<pdfrwt beam="2">  1        2 0.21188397E-01 0.26973169E+03</pdfrwt>
<pdfrwt beam="1">  1       -2 0.89141407E-01 0.26973169E+03</pdfrwt>
<totfact> 0.29129821E+02</totfact>
</mgrwt>
</event>
<event>
 7    1  0.6008063E-006  0.1282174E+03  0.7546771E-02  0.1244720E+00
         -2   -1    0    0    0  501 -0.00000000000E+00  0.00000000000E+00  0.30225597282E+02  0.30225597282E+02  0.00000000000E+00 0.  1.
          2   -1    0    0  501    0  0.00000000000E+00 -0.00000000000E+00 -0.41501859416E+03  0.41501859416E+03  0.00000000000E+00 0. -1.
         23    2    1    2    0    0  0.28440845347E+02 -0.96768624224E+00 -0.23648903408E+03  0.26901073216E+03  0.12501956917E+03 0.  0.
          5    1    3    3  502    0  0.40092562990E+01 -0.61821864661E+02 -0.10507760736E+03  0.12207133428E+03  0.47000000000E+01 0.  1.
         -5    1    3    3    0  502  0.24431589048E+02  0.60854178419E+02 -0.13141142673E+03  0.14693939788E+03  0.47000000000E+01 0.  1.
        -11    1    1    2    0    0 -0.41200594991E+02  0.28623432009E+02 -0.41304180474E+02  0.64983268710E+02  0.00000000000E+00 0.  1.
         11    1    1    2    0    0  0.12759749644E+02 -0.27655745766E+02 -0.10699978232E+03  0.11125019057E+03  0.00000000000E+00 0. -1.
<mgrwt>
<rscale>  0 0.11902174E+03</rscale>
<asrwt>0</asrwt>
<pdfrwt beam="2">  1        2 0.63849010E-01 0.12821744E+03</pdfrwt>
<pdfrwt beam="1">  1       -2 0.46500922E-02 0.12821744E+03</pdfrwt>
<totfact> 0.15719986E+04</totfact>
</mgrwt>
</event>
<event>
 7    1  0.6008063E-006  0.1389261E+03  0.7546771E-02  0.1226835E+00
         -2   -1    0    0    0  501 -0.00000000000E+00  0.00000000000E+00  0.56783257928E+02  0.56783257928E+02  0.00000000000E+00 0.  1.
          2   -1    0    0  501    0  0.00000000000E+00 -0.00000000000E+00 -0.27492454770E+03  0.27492454770E+03  0.00000000000E+00 0. -1.
         23    2    1    2    0    0 -0.35811945720E+02 -0.48916710560E+02 -0.14813755919E+03  0.20308912759E+03  0.12500046910E+03 0.  0.
          5    1    3    3  502    0 -0.29907390104E+02 -0.63037929751E+02 -0.16538098805E+03  0.17955832974E+03  0.47000000000E+01 0.  1.
         -5    1    3    3    0  502 -0.59045556162E+01  0.14121219191E+02  0.17243428864E+02  0.23530797850E+02  0.47000000000E+01 0.  1.
        -11    1    1    2    0    0  0.74995777072E+01  0.71286462126E+02 -0.43485576947E+02  0.83839124224E+02  0.00000000000E+00 0. -1.
         11    1    1    2    0    0  0.28312368013E+02 -0.22369751566E+02 -0.26518153642E+02  0.44779553819E+02  0.00000000000E+00 0.  1.
<mgrwt>
<rscale>  0 0.13041947E+03</rscale>
<asrwt>0</asrwt>
<pdfrwt beam="2">  1        2 0.42296084E-01 0.13892609E+03</pdfrwt>
<pdfrwt beam="1">  1       -2 0.87358858E-02 0.13892609E+03</pdfrwt>
<totfact> 0.93820972E+03</totfact>
</mgrwt>
</event>
<event>
 7    1  0.6008063E-006  0.1520958E+03  0.7546771E-02  0.1206717E+00
         -2   -1    0    0    0  501 -0.00000000000E+00  0.00000000000E+00  0.92447252650E+02  0.92447252650E+02  0.00000000000E+00 0.  1.
          2   -1    0    0  501    0  0.00000000000E+00 -0.00000000000E+00 -0.53634319934E+03  0.53634319934E+03  0.00000000000E+00 0. -1.
         23    2    1    2    0    0  0.71215370419E+02 -0.49355791639E+02 -0.47542189930E+03  0.49915840018E+03  0.12500201191E+03 0.  0.
          5    1    3    3  502    0  0.60514485152E+02  0.19445146932E+02 -0.34883197426E+03  0.35460675814E+03  0.47000000000E+01 0.  1.
         -5    1    3    3    0  502  0.10700885268E+02 -0.68800938571E+02 -0.12658992504E+03  0.14455164204E+03  0.47000000000E+01 0.  1.
        -11    1    1    2    0    0 -0.10810912715E+02 -0.26393115481E+02  0.32517380622E+01  0.28706204537E+02  0.00000000000E+00 0. -1.
         11    1    1    2    0    0 -0.60404457704E+02  0.75748907119E+02  0.28274214546E+02  0.10092584728E+03  0.00000000000E+00 0.  1.
<mgrwt>
<rscale>  0 0.14502950E+03</rscale>
<asrwt>0</asrwt>
<pdfrwt beam="2">  1        2 0.82514339E-01 0.15209578E+03</pdfrwt>
<pdfrwt beam="1">  1       -2 0.14222654E-01 0.15209578E+03</pdfrwt>
<totfact> 0.21163789E+03</totfact>
</mgrwt>
</event>
<event>
 7    1  0.6008063E-006  0.1981992E+03  0.7546771E-02  0.1155377E+00
          2   -1    0    0  501    0  0.00000000000E+00  0.00000000000E+00  0.96327335461E+03  0.96327335461E+03  0.00000000000E+00 0. -1.
         -2   -1    0    0    0  501 -0.00000000000E+00 -0.00000000000E+00 -0.41832248821E+02  0.41832248821E+02  0.00000000000E+00 0.  1.
         23    2    1    2    0    0  0.14698799617E+03  0.45306586558E+02  0.64924713254E+03  0.67882602912E+03  0.12499912359E+03 0.  0.
          5    1    3    3  502    0  0.16309894190E+03  0.39355237918E+02  0.47715776639E+03  0.50581787595E+03  0.47000000000E+01 0.  1.
         -5    1    3    3    0  502 -0.16110945735E+02  0.59513486407E+01  0.17208936615E+03  0.17300815317E+03  0.47000000000E+01 0.  1.
        -11    1    1    2    0    0 -0.20083635110E+02  0.25687470997E+02  0.33270744479E+02  0.46584772229E+02  0.00000000000E+00 0.  1.
         11    1    1    2    0    0 -0.12690436106E+03 -0.70994057555E+02  0.23892322877E+03  0.27969480208E+03  0.00000000000E+00 0. -1.
<mgrwt>
<rscale>  0 0.19346050E+03</rscale>
<asrwt>0</asrwt>
<pdfrwt beam="1">  1        2 0.14819588E+00 0.19819924E+03</pdfrwt>
<pdfrwt beam="2">  1       -2 0.64357313E-02 0.19819924E+03</pdfrwt>
<totfact> 0.36427464E+03</totfact>
</mgrwt>
</event>
<event>
 7    1  0.6008063E-006  0.1952741E+03  0.7546771E-02  0.1158412E+00
          1   -1    0    0  501    0  0.00000000000E+00  0.00000000000E+00  0.85338476690E+03  0.85338476690E+03  0.00000000000E+00 0. -1.
         -1   -1    0    0    0  501 -0.00000000000E+00 -0.00000000000E+00 -0.71814296590E+02  0.71814296590E+02  0.00000000000E+00 0.  1.
         23    2    1    2    0    0 -0.13051581306E+03 -0.74311223644E+02  0.70925458787E+03  0.73564531959E+03  0.12480156415E+03 0.  0.
          5    1    3    3  502    0 -0.10189358319E+03  0.87279161537E+01  0.46213281985E+03  0.47333636243E+03  0.47000000000E+01 0. -1.
         -5    1    3    3    0  502 -0.28622229865E+02 -0.83039139798E+02  0.24712176802E+03  0.26230895716E+03  0.47000000000E+01 0.  1.
        -11    1    1    2    0    0  0.21068301119E+02  0.89416248785E+01 -0.21397640982E+02  0.31331852916E+02  0.00000000000E+00 0.  1.
         11    1    1    2    0    0  0.10944751194E+03  0.65369598766E+02  0.93713523425E+02  0.15822189098E+03  0.00000000000E+00 0. -1.
<mgrwt>
<rscale>  0 0.19005425E+03</rscale>
<asrwt>0</asrwt>
<pdfrwt beam="1">  1        1 0.13128996E+00 0.19527408E+03</pdfrwt>
<pdfrwt beam="2">  1       -1 0.11048354E-01 0.19527408E+03</pdfrwt>
<totfact> 0.10880445E+03</totfact>
</mgrwt>
</event>
<event>
 7    1  0.6008063E-006  0.1260478E+03  0.7546771E-02  0.1248083E+00
         -2   -1    0    0    0  501 -0.00000000000E+00  0.00000000000E+00  0.74766154827E+02  0.74766154827E+02  0.00000000000E+00 0.  1.
          2   -1    0    0  501    0  0.00000000000E+00 -0.00000000000E+00 -0.22187270844E+03  0.22187270844E+03  0.00000000000E+00 0. -1.
         23    2    1    2    0    0  0.10421264706E+02  0.12402165652E+02 -0.15825574946E+03  0.20231888379E+03  0.12500252810E+03 0.  0.
          5    1    3    3  502    0 -0.44627392071E+02 -0.19383251259E+02 -0.11590810612E+03  0.12579385365E+03  0.47000000000E+01 0. -1.
         -5    1    3    3    0  502  0.55048656777E+02  0.31785416911E+02 -0.42347643335E+02  0.76525030135E+02  0.47000000000E+01 0. -1.
        -11    1    1    2    0    0 -0.17149906930E+02 -0.38485818232E+02  0.37669905902E+02  0.56518132696E+02  0.00000000000E+00 0.  1.
         11    1    1    2    0    0  0.67286422231E+01  0.26083652580E+02 -0.26520710054E+02  0.37801846778E+02  0.00000000000E+00 0. -1.
<mgrwt>
<rscale>  0 0.11702765E+03</rscale>
<asrwt>0</asrwt>
<pdfrwt beam="2">  1        2 0.34134263E-01 0.12604780E+03</pdfrwt>
<pdfrwt beam="1">  1       -2 0.11502485E-01 0.12604780E+03</pdfrwt>
<totfact> 0.75984886E+03</totfact>
</mgrwt>
</event>
<event>
 7    1  0.6008063E-006  0.2352148E+03  0.7546771E-02  0.1126320E+00
          1   -1    0    0  501    0  0.00000000000E+00  0.00000000000E+00  0.25930769211E+03  0.25930769211E+03  0.00000000000E+00 0. -1.
         -1   -1    0    0    0  501 -0.00000000000E+00 -0.00000000000E+00 -0.20461485441E+03  0.20461485441E+03  0.00000000000E+00 0.  1.
         23    2    1    2    0    0  0.52958288692E+02 -0.19208930027E+03  0.73319297401E+02  0.24637723703E+03  0.12499257552E+03 0.  0.
          5    1    3    3  502    0  0.16630824706E+02 -0.18842453084E+03  0.33517537797E+02  0.19216113940E+03  0.47000000000E+01 0. -1.
         -5    1    3    3    0  502  0.36327463986E+02 -0.36647694226E+01  0.39801759604E+02  0.54216097629E+02  0.47000000000E+01 0. -1.
        -11    1    1    2    0    0 -0.53226571470E+02  0.61922109519E+02 -0.29746322142E+02  0.86903735471E+02  0.00000000000E+00 0.  1.
         11    1    1    2    0    0  0.26828277825E+00  0.13016719075E+03  0.11119862435E+02  0.13064157402E+03  0.00000000000E+00 0. -1.
<mgrwt>
<rscale>  0 0.23045521E+03</rscale>
<asrwt>0</asrwt>
<pdfrwt beam="1">  1        1 0.39893491E-01 0.23521485E+03</pdfrwt>
<pdfrwt beam="2">  1       -1 0.31479208E-01 0.23521485E+03</pdfrwt>
<totfact> 0.99154691E+02</totfact>
</mgrwt>
</event>
<event>
 6    1  0.6008063E-006  0.8971643E+03  0.7546771E-02  0.9429133E-01
         -2   -1    0    0    0  501 -0.00000000000E+00  0.00000000000E+00  0.90096040240E+02  0.90096040240E+02  0.00000000000E+00 0.  1.
          2   -1    0    0  501    0  0.00000000000E+00 -0.00000000000E+00 -0.22334605432E+04  0.22334605432E+04  0.00000000000E+00 0. -1.
          5    1    1    2  502    0 -0.39105069813E+02 -0.20493951137E+03 -0.12093829996E+04  0.12272565908E+04  0.47000000000E+01 0. -1.
         -5    1    1    2    0  502 -0.16168108662E+02  0.18800276837E+02 -0.14716998481E+03  0.14931829284E+03  0.47000000000E+01 0.  1.
        -11    1    1    2    0    0  0.10905883736E+03  0.10796525519E+02  0.26909655927E+02  0.11284735066E+03  0.00000000000E+00 0.  1.
         11    1    1    2    0    0 -0.53785658886E+02  0.17534270902E+03 -0.81372117442E+03  0.83413434914E+03  0.00000000000E+00 0. -1.
<mgrwt>
<rscale>  0 0.89716431E+03</rscale>
<asrwt>0</asrwt>
<pdfrwt beam="2">  1        2 0.34360929E+00 0.89716431E+03</pdfrwt>
<pdfrwt beam="1">  1       -2 0.13860930E-01 0.89716431E+03</pdfrwt>
<totfact> 0.20123798E+02</totfact>
</mgrwt>
</event>
<event>
 7    1  0.6008063E-006  0.1402792E+03  0.7546771E-02  0.1224398E+00
          2   -1    0    0  501    0  0.00000000000E+00  0.00000000000E+00  0.57772800235E+03  0.57772800235E+03  0.00000000000E+00 0. -1.
         -2   -1    0    0    0  501 -0.00000000000E+00 -0.00000000000E+00 -0.29162651789E+02  0.29162651789E+02  0.00000000000E+00 0.  1.
         23    2    1    2    0    0  0.63414225128E+02  0.58343318120E+01  0.38385104874E+03  0.40868065588E+03  0.12499138968E+03 0.  0.
          5    1    3    3  502    0  0.37691811417E+02  0.54404878164E+02  0.10341657136E+03  0.12287245683E+03  0.47000000000E+01 0. -1.
         -5    1    3    3    0  502  0.25722413711E+02 -0.48570546352E+02  0.28043447738E+03  0.28580819905E+03  0.47000000000E+01 0. -1.
        -11    1    1    2    0    0 -0.79946927385E+02 -0.26091838293E+02  0.12441881467E+03  0.15017435422E+03  0.00000000000E+00 0.  1.
         11    1    1    2    0    0  0.16532702257E+02  0.20257506481E+02  0.40295487149E+02  0.48035644029E+02  0.00000000000E+00 0. -1.
<mgrwt>
<rscale>  0 0.13208259E+03</rscale>
<asrwt>0</asrwt>
<pdfrwt beam="1">  1        2 0.88881223E-01 0.14027919E+03</pdfrwt>
<pdfrwt beam="2">  1       -2 0.44865622E-02 0.14027919E+03</pdfrwt>
<totfact> 0.11621737E+04</totfact>
</mgrwt>
</event>
<event>
 7    1  0.6008063E-006  0.1384411E+03  0.7546771E-02  0.1227432E+00
          2   -1    0    0  501    0  0.00000000000E+00  0.00000000000E+00  0.12091982565E+04  0.12091982565E+04  0.00000000000E+00 0. -1.
         -2   -1    0    0    0  501 -0.00000000000E+00 -0.00000000000E+00 -0.12555453189E+02  0.12555453189E+02  0.00000000000E+00 0.  1.
         23    2    1    2    0    0  0.41881008776E+02 -0.42278512239E+02  0.70253888581E+03  0.71604945990E+03  0.12499780580E+03 0.  0.
          5    1    3    3  502    0 -0.43279140195E+02 -0.89404186060E+01  0.29650987175E+03  0.29982196235E+03  0.47000000000E+01 0. -1.
         -5    1    3    3    0  502  0.85160148970E+02 -0.33338093633E+02  0.40602901406E+03  0.41622749755E+03  0.47000000000E+01 0. -1.
        -11    1    1    2    0    0 -0.64429725534E+02  0.52136918170E+02  0.39352024958E+03  0.40215374498E+03  0.00000000000E+00 0.  1.
         11    1    1    2    0    0  0.22548716758E+02 -0.98584059306E+01  0.10058366793E+03  0.10355050482E+03  0.00000000000E+00 0. -1.
<mgrwt>
<rscale>  0 0.13001612E+03</rscale>
<asrwt>0</asrwt>
<pdfrwt beam="1">  1        2 0.18603041E+00 0.13844112E+03</pdfrwt>
<pdfrwt beam="2">  1       -2 0.19316091E-02 0.13844112E+03</pdfrwt>
<totfact> 0.15479181E+04</totfact>
</mgrwt>
</event>
<event>
 7    1  0.6008063E-006  0.1252134E+03  0.7546771E-02  0.1249363E+00
          1   -1    0    0  501    0  0.00000000000E+00  0.00000000000E+00  0.26392847409E+03  0.26392847409E+03  0.00000000000E+00 0. -1.
         -1   -1    0    0    0  501 -0.00000000000E+00 -0.00000000000E+00 -0.55521326719E+02  0.55521326719E+02  0.00000000000E+00 0.  1.
         23    2    1    2    0    0  0.24863780402E+01  0.69477257392E+01  0.18506203683E+03  0.22344205641E+03  0.12499576845E+03 0.  0.
          5    1    3    3  502    0 -0.65609486206E+01  0.42761880576E+02  0.10249514398E+02  0.44707572318E+02  0.47000000000E+01 0.  1.
         -5    1    3    3    0  502  0.90473266607E+01 -0.35814154836E+02  0.17481252243E+03  0.17873448409E+03  0.47000000000E+01 0.  1.
        -11    1    1    2    0    0 -0.37527431678E+02  0.16701808591E+02 -0.98696519336E+01  0.42245337824E+02  0.00000000000E+00 0.  1.
         11    1    1    2    0    0  0.35041053638E+02 -0.23649534330E+02  0.33214762475E+02  0.53762406572E+02  0.00000000000E+00 0. -1.
<mgrwt>
<rscale>  0 0.11628029E+03</rscale>
<asrwt>0</asrwt>
<pdfrwt beam="1">  1        1 0.40604380E-01 0.12521340E+03</pdfrwt>
<pdfrwt beam="2">  1       -1 0.85417427E-02 0.12521340E+03</pdfrwt>
<totfact> 0.75771743E+03</totfact>
</mgrwt>
</event>
<event>
 7    1  0.6008063E-006  0.1439933E+03  0.7546771E-02  0.1213261E+00
         -1   -1    0    0    0  501 -0.00000000000E+00  0.00000000000E+00  0.22498874891E+02  0.22498874891E+02  0.00000000000E+00 0.  1.
          1   -1    0    0  501    0  0.00000000000E+00 -0.00000000000E+00 -0.11501413197E+04  0.11501413197E+04  0.00000000000E+00 0. -1.
         23    2    1    2    0    0  0.30132406229E+02 -0.85797811605E+02 -0.89663859613E+03  0.90812711440E+03  0.11164612597E+03 0.  0.
          5    1    3    3  502    0  0.46079420626E+02 -0.44232892278E+02 -0.78838777735E+03  0.79098498041E+03  0.47000000000E+01 0. -1.
         -5    1    3    3    0  502 -0.15947014397E+02 -0.41564919327E+02 -0.10825081879E+03  0.11714213399E+03  0.47000000000E+01 0.  1.
        -11    1    1    2    0    0  0.65842449427E+01  0.91449071055E+02 -0.16210243035E+03  0.18623502035E+03  0.00000000000E+00 0.  1.
         11    1    1    2    0    0 -0.36716651171E+02 -0.56512594505E+01 -0.68901418335E+02  0.78278059858E+02  0.00000000000E+00 0. -1.
<mgrwt>
<rscale>  0 0.14005051E+03</rscale>
<asrwt>0</asrwt>
<pdfrwt beam="2">  1        1 0.17694485E+00 0.14399335E+03</pdfrwt>
<pdfrwt beam="1">  1       -1 0.34613647E-02 0.14399335E+03</pdfrwt>
<totfact> 0.37327686E+03</totfact>
</mgrwt>
</event>
<event>
 7    1  0.6008063E-006  0.1265318E+03  0.7546771E-02  0.1252299E+00
         -1   -1    0    0    0  501 -0.00000000000E+00  0.00000000000E+00  0.44129669250E+03  0.44129669250E+03  0.00000000000E+00 0.  1.
          1   -1    0    0  501    0  0.00000000000E+00 -0.00000000000E+00 -0.25581368049E+02  0.25581368049E+02  0.00000000000E+00 0. -1.
         23    2    1    2    0    0 -0.19556057206E+02  0.15250789590E+01  0.22767157184E+03  0.26047004407E+03  0.12500213596E+03 0.  0.
          5    1    3    3  502    0 -0.70110301604E+02 -0.16758131192E+02  0.13952949708E+03  0.15712052669E+03  0.47000000000E+01 0.  1.
         -5    1    3    3    0  502  0.50554244397E+02  0.18283210150E+02  0.88142074756E+02  0.10334951738E+03  0.47000000000E+01 0.  1.
        -11    1    1    2    0    0  0.26700171046E+01  0.38697216179E+02  0.11459048391E+03  0.12097761171E+03  0.00000000000E+00 0.  1.
         11    1    1    2    0    0  0.16886040102E+02 -0.40222295138E+02  0.73453268699E+02  0.85430404769E+02  0.00000000000E+00 0. -1.
<mgrwt>
<rscale>  0 0.11458974E+03</rscale>
<asrwt>0</asrwt>
<pdfrwt beam="2">  1        1 0.39355954E-02 0.12653181E+03</pdfrwt>
<pdfrwt beam="1">  1       -1 0.67891793E-01 0.12653181E+03</pdfrwt>
<totfact> 0.50344294E+03</totfact>
</mgrwt>
</event>
<event>
 7    1  0.6008063E-006  0.1277574E+03  0.7546771E-02  0.1245404E+00
          2   -1    0    0  501    0  0.00000000000E+00  0.00000000000E+00  0.86500441882E+02  0.86500441882E+02  0.00000000000E+00 0. -1.
         -2   -1    0    0    0  501 -0.00000000000E+00 -0.00000000000E+00 -0.14338930002E+03  0.14338930002E+03  0.00000000000E+00 0.  1.
         23    2    1    2    0    0  0.25340077203E+02  0.73784081193E+01 -0.29969789227E+02  0.13122555430E+03  0.12500158965E+03 0.  0.
          5    1    3    3  502    0  0.19120588415E+02  0.54447418854E+02  0.20832761095E+02  0.61532205032E+02  0.47000000000E+01 0. -1.
         -5    1    3    3    0  502  0.62194887876E+01 -0.47069010735E+02 -0.50802550322E+02  0.69693349263E+02  0.47000000000E+01 0. -1.
        -11    1    1    2    0    0 -0.24756137269E+02 -0.22071900176E+02 -0.56564988206E+02  0.65571586839E+02  0.00000000000E+00 0.  1.
         11    1    1    2    0    0 -0.58393993356E+00  0.14693492057E+02  0.29645919296E+02  0.33092600768E+02  0.00000000000E+00 0. -1.
<mgrwt>
<rscale>  0 0.11861240E+03</rscale>
<asrwt>0</asrwt>
<pdfrwt beam="1">  1        2 0.13307760E-01 0.12775742E+03</pdfrwt>
<pdfrwt beam="2">  1       -2 0.22059892E-01 0.12775742E+03</pdfrwt>
<totfact> 0.75030606E+03</totfact>
</mgrwt>
</event>
<event>
 7    1  0.6008063E-006  0.1759479E+03  0.7546771E-02  0.1177349E+00
          2   -1    0    0  501    0  0.00000000000E+00  0.00000000000E+00  0.14997676386E+04  0.14997676386E+04  0.00000000000E+00 0. -1.
         -2   -1    0    0    0  501 -0.00000000000E+00 -0.00000000000E+00 -0.18265338145E+02  0.18265338145E+02  0.00000000000E+00 0.  1.
         23    2    1    2    0    0  0.15004164642E+02  0.12290299586E+03  0.78583227383E+03  0.80528877417E+03  0.12500950306E+03 0.  0.
          5    1    3    3  502    0  0.19561023200E+02 -0.22219829036E+01  0.38037455253E+03  0.38091266854E+03  0.47000000000E+01 0.  1.
         -5    1    3    3    0  502 -0.45568585582E+01  0.12512497876E+03  0.40545772130E+03  0.42437610563E+03  0.47000000000E+01 0.  1.
        -11    1    1    2    0    0  0.20768333572E+02 -0.11654270825E+03  0.55204224757E+03  0.56459203822E+03  0.00000000000E+00 0. -1.
         11    1    1    2    0    0 -0.35772498214E+02 -0.63602876099E+01  0.14362777908E+03  0.14815216438E+03  0.00000000000E+00 0.  1.
<mgrwt>
<rscale>  0 0.17047934E+03</rscale>
<asrwt>0</asrwt>
<pdfrwt beam="1">  1        2 0.23073339E+00 0.17594785E+03</pdfrwt>
<pdfrwt beam="2">  1       -2 0.28100532E-02 0.17594785E+03</pdfrwt>
<totfact> 0.63074082E+03</totfact>
</mgrwt>
</event>
<event>
 7    1  0.6008063E-006  0.1381041E+03  0.7546771E-02  0.1226916E+00
          2   -1    0    0  501    0  0.00000000000E+00  0.00000000000E+00  0.19200324476E+03  0.19200324476E+03  0.00000000000E+00 0.  1.
         -2   -1    0    0    0  501 -0.00000000000E+00 -0.00000000000E+00 -0.13593835571E+03  0.13593835571E+03  0.00000000000E+00 0. -1.
         23    2    1    2    0    0  0.58062714154E+02  0.88892321006E+01  0.13477145753E+03  0.19296652638E+03  0.12498974886E+03 0.  0.
          5    1    3    3  502    0  0.38300190107E+02 -0.30794760903E+01 -0.14878191270E+02  0.41470933323E+02  0.47000000000E+01 0. -1.
         -5    1    3    3    0  502  0.19762524047E+02  0.11968708191E+02  0.14964964880E+03  0.15149559306E+03  0.47000000000E+01 0. -1.
        -11    1    1    2    0    0 -0.13747162039E+02 -0.14747081153E+02  0.18890507957E+02  0.27628104487E+02  0.00000000000E+00 0.  1.
         11    1    1    2    0    0 -0.44315552115E+02  0.58578490529E+01 -0.97597076435E+02  0.10734696960E+03  0.00000000000E+00 0. -1.
<mgrwt>
<rscale>  0 0.13036438E+03</rscale>
<asrwt>0</asrwt>
<pdfrwt beam="1">  1        2 0.29538961E-01 0.13810407E+03</pdfrwt>
<pdfrwt beam="2">  1       -2 0.20913593E-01 0.13810407E+03</pdfrwt>
<totfact> 0.33480104E+03</totfact>
</mgrwt>
</event>
<event>
 6    1  0.6008063E-006  0.1555909E+03  0.7546771E-02  0.1280224E+00
          2   -1    0    0  501    0  0.00000000000E+00  0.00000000000E+00  0.67084549209E+03  0.67084549209E+03  0.00000000000E+00 0. -1.
         -2   -1    0    0    0  501 -0.00000000000E+00 -0.00000000000E+00 -0.12830824222E+02  0.12830824222E+02  0.00000000000E+00 0.  1.
          5    1    1    2  502    0  0.55318814702E+02 -0.62212163697E+02  0.34884333792E+03  0.35867016740E+03  0.47000000000E+01 0. -1.
         -5    1    1    2    0  502 -0.47266877167E+02  0.53642274287E+02  0.25140430579E+03  0.26141512243E+03  0.47000000000E+01 0.  1.
        -11    1    1    2    0    0  0.14016417481E+01  0.12822374845E+02  0.46609201017E+02  0.48361095063E+02  0.00000000000E+00 0.  1.
         11    1    1    2    0    0 -0.94535792835E+01 -0.42524854342E+01  0.11157823145E+02  0.15229931417E+02  0.00000000000E+00 0. -1.
<mgrwt>
<rscale>  0 0.10003442E+03</rscale>
<asrwt>0</asrwt>
<pdfrwt beam="1">  1        2 0.10320697E+00 0.15559092E+03</pdfrwt>
<pdfrwt beam="2">  1       -2 0.19739735E-02 0.15559092E+03</pdfrwt>
<totfact> 0.33073184E+04</totfact>
</mgrwt>
</event>
<event>
 7    1  0.6008063E-006  0.1546463E+03  0.7546771E-02  0.1203654E+00
          1   -1    0    0  501    0  0.00000000000E+00  0.00000000000E+00  0.74449973134E+03  0.74449973134E+03  0.00000000000E+00 0. -1.
         -1   -1    0    0    0  501 -0.00000000000E+00 -0.00000000000E+00 -0.29955243425E+02  0.29955243425E+02  0.00000000000E+00 0.  1.
         23    2    1    2    0    0  0.88596547852E+01 -0.90625973144E+02  0.51315697323E+03  0.53595293430E+03  0.12499563237E+03 0.  0.
          5    1    3    3  502    0  0.38065273623E+02 -0.46262218488E+02  0.82819392238E+02  0.10232448214E+03  0.47000000000E+01 0. -1.
         -5    1    3    3    0  502 -0.29205618838E+02 -0.44363754656E+02  0.43033758100E+03  0.43362845215E+03  0.47000000000E+01 0. -1.
        -11    1    1    2    0    0 -0.19802365215E+02  0.10527887963E+03  0.15300673347E+03  0.18678018270E+03  0.00000000000E+00 0.  1.
         11    1    1    2    0    0  0.10942710430E+02 -0.14652906483E+02  0.48380781210E+02  0.51721857763E+02  0.00000000000E+00 0. -1.
<mgrwt>
<rscale>  0 0.14744007E+03</rscale>
<asrwt>0</asrwt>
<pdfrwt beam="1">  1        1 0.11453841E+00 0.15464627E+03</pdfrwt>
<pdfrwt beam="2">  1       -1 0.46084996E-02 0.15464627E+03</pdfrwt>
<totfact> 0.49950122E+03</totfact>
</mgrwt>
</event>
<event>
 7    1  0.6008063E-006  0.1416002E+03  0.7546771E-02  0.1224198E+00
          2   -1    0    0  501    0  0.00000000000E+00  0.00000000000E+00  0.11859811366E+03  0.11859811366E+03  0.00000000000E+00 0. -1.
         -2   -1    0    0    0  501 -0.00000000000E+00 -0.00000000000E+00 -0.13994081139E+03  0.13994081139E+03  0.00000000000E+00 0.  1.
         23    2    1    2    0    0 -0.53364850929E+02 -0.39704975850E+02  0.20440418726E+02  0.14306787975E+03  0.12500526020E+03 0.  0.
          5    1    3    3  502    0 -0.23676382959E+02 -0.83703112669E+02  0.21667688030E+02  0.89768373524E+02  0.47000000000E+01 0. -1.
         -5    1    3    3    0  502 -0.29688467970E+02  0.43998136819E+02 -0.12272693040E+01  0.53299506226E+02  0.47000000000E+01 0. -1.
        -11    1    1    2    0    0  0.42322267963E+00  0.52411355809E+02 -0.13527444198E+02  0.54130592845E+02  0.00000000000E+00 0. -1.
         11    1    1    2    0    0  0.52941628249E+02 -0.12706379959E+02 -0.28255672253E+02  0.61340452459E+02  0.00000000000E+00 0.  1.
<mgrwt>
<rscale>  0 0.13222015E+03</rscale>
<asrwt>0</asrwt>
<pdfrwt beam="1">  1        2 0.18245864E-01 0.14160017E+03</pdfrwt>
<pdfrwt beam="2">  1       -2 0.21529356E-01 0.14160017E+03</pdfrwt>
<totfact> 0.54558368E+03</totfact>
</mgrwt>
</event>
<event>
 7    1  0.6008063E-006  0.1489824E+03  0.7546771E-02  0.1209448E+00
          1   -1    0    0  501    0  0.00000000000E+00  0.00000000000E+00  0.33862269684E+03  0.33862269684E+03  0.00000000000E+00 0. -1.
         -1   -1    0    0    0  501 -0.00000000000E+00 -0.00000000000E+00 -0.65524082180E+02  0.65524082180E+02  0.00000000000E+00 0.  1.
         23    2    1    2    0    0  0.51156620582E+02  0.62885859193E+02  0.22341357912E+03  0.26853188582E+03  0.12499646096E+03 0.  0.
          5    1    3    3  502    0  0.68584464797E+02  0.84168508205E+02  0.12216109513E+03  0.16350409704E+03  0.47000000000E+01 0.  1.
         -5    1    3    3    0  502 -0.17427844215E+02 -0.21282649012E+02  0.10125248399E+03  0.10502778879E+03  0.47000000000E+01 0.  1.
        -11    1    1    2    0    0 -0.27255324518E+02  0.15526591074E+02 -0.11409574133E+02  0.33378228336E+02  0.00000000000E+00 0.  1.
         11    1    1    2    0    0 -0.23901296064E+02 -0.78412450267E+02  0.61094609671E+02  0.10223666486E+03  0.00000000000E+00 0. -1.
<mgrwt>
<rscale>  0 0.14292348E+03</rscale>
<asrwt>0</asrwt>
<pdfrwt beam="1">  1        1 0.52095799E-01 0.14898237E+03</pdfrwt>
<pdfrwt beam="2">  1       -1 0.10080628E-01 0.14898237E+03</pdfrwt>
<totfact> 0.43719362E+03</totfact>
</mgrwt>
</event>
<event>
 7    1  0.6008063E-006  0.1415779E+03  0.7546771E-02  0.1220551E+00
         -2   -1    0    0    0  501 -0.00000000000E+00  0.00000000000E+00  0.19796099197E+03  0.19796099197E+03  0.00000000000E+00 0.  1.
          2   -1    0    0  501    0  0.00000000000E+00 -0.00000000000E+00 -0.89512038655E+02  0.89512038655E+02  0.00000000000E+00 0. -1.
         23    2    1    2    0    0  0.62957499486E+02 -0.21383084609E+02  0.23519998247E+02  0.14351830754E+03  0.12499372477E+03 0.  0.
          5    1    3    3  502    0  0.68925626900E+02  0.19113783368E+02 -0.28515890270E+02  0.77144829743E+02  0.47000000000E+01 0.  1.
         -5    1    3    3    0  502 -0.59681274140E+01 -0.40496867977E+02  0.52035888516E+02  0.66373477794E+02  0.47000000000E+01 0.  1.
        -11    1    1    2    0    0 -0.60659626870E+02  0.51042752412E+02  0.82008915685E+02  0.11406320685E+03  0.00000000000E+00 0.  1.
         11    1    1    2    0    0 -0.22978726159E+01 -0.29659667803E+02  0.29200393824E+01  0.29891516234E+02  0.00000000000E+00 0. -1.
<mgrwt>
<rscale>  0 0.13476551E+03</rscale>
<asrwt>0</asrwt>
<pdfrwt beam="2">  1        2 0.13771083E-01 0.14157794E+03</pdfrwt>
<pdfrwt beam="1">  1       -2 0.30455537E-01 0.14157794E+03</pdfrwt>
<totfact> 0.41182573E+03</totfact>
</mgrwt>
</event>
<event>
 7    1  0.6008063E-006  0.2150603E+03  0.7546771E-02  0.1141254E+00
          1   -1    0    0  501    0  0.00000000000E+00  0.00000000000E+00  0.13320958033E+04  0.13320958033E+04  0.00000000000E+00 0. -1.
         -1   -1    0    0    0  501 -0.00000000000E+00 -0.00000000000E+00 -0.55814663767E+02  0.55814663767E+02  0.00000000000E+00 0.  1.
         23    2    1    2    0    0  0.12874083013E+03  0.11853587111E+03  0.11084404612E+04  0.11291107965E+04  0.12500392236E+03 0.  0.
          5    1    3    3  502    0  0.18746738435E+02  0.10091219303E+03  0.48260806066E+03  0.49342409864E+03  0.47000000000E+01 0.  1.
         -5    1    3    3    0  502  0.10999409169E+03  0.17623678076E+02  0.62583240056E+03  0.63568669786E+03  0.47000000000E+01 0.  1.
        -11    1    1    2    0    0 -0.32272968804E+02 -0.88870029882E+02  0.97257288401E+02  0.13564072719E+03  0.00000000000E+00 0.  1.
         11    1    1    2    0    0 -0.96467861324E+02 -0.29665841226E+02  0.70583389924E+02  0.12315894339E+03  0.00000000000E+00 0. -1.
<mgrwt>
<rscale>  0 0.21039414E+03</rscale>
<asrwt>0</asrwt>
<pdfrwt beam="1">  1        1 0.20493779E+00 0.21506030E+03</pdfrwt>
<pdfrwt beam="2">  1       -1 0.85868724E-02 0.21506030E+03</pdfrwt>
<totfact> 0.72129153E+02</totfact>
</mgrwt>
</event>
<event>
 7    1  0.6008063E-006  0.1989101E+03  0.7546771E-02  0.1155123E+00
          2   -1    0    0  501    0  0.00000000000E+00  0.00000000000E+00  0.52706427160E+03  0.52706427160E+03  0.00000000000E+00 0.  1.
         -2   -1    0    0    0  501 -0.00000000000E+00 -0.00000000000E+00 -0.68429701223E+02  0.68429701223E+02  0.00000000000E+00 0. -1.
         23    2    1    2    0    0  0.16612669290E+01 -0.15471469619E+03  0.27063903437E+03  0.33587305271E+03  0.12500329431E+03 0.  0.
          5    1    3    3  502    0 -0.52812725334E+02 -0.12400117293E+03  0.16596123746E+03  0.21384736890E+03  0.47000000000E+01 0. -1.
         -5    1    3    3    0  502  0.54473992263E+02 -0.30713523254E+02  0.10467779691E+03  0.12202568381E+03  0.47000000000E+01 0. -1.
        -11    1    1    2    0    0 -0.21385323582E+02  0.11335455853E+03  0.74749806080E+02  0.13745588933E+03  0.00000000000E+00 0.  1.
         11    1    1    2    0    0  0.19724056653E+02  0.41360137664E+02  0.11324572993E+03  0.12216503078E+03  0.00000000000E+00 0. -1.
<mgrwt>
<rscale>  0 0.19374889E+03</rscale>
<asrwt>0</asrwt>
<pdfrwt beam="1">  1        2 0.81086809E-01 0.19891008E+03</pdfrwt>
<pdfrwt beam="2">  1       -2 0.10527647E-01 0.19891008E+03</pdfrwt>
<totfact> 0.35321629E+03</totfact>
</mgrwt>
</event>
<event>
 6    1  0.6008063E-006  0.1703067E+03  0.7546771E-02  0.1188824E+00
          2   -1    0    0  501    0  0.00000000000E+00  0.00000000000E+00  0.71222377967E+03  0.71222377967E+03  0.00000000000E+00 0. -1.
         -2   -1    0    0    0  501 -0.00000000000E+00 -0.00000000000E+00 -0.57794938365E+02  0.57794938365E+02  0.00000000000E+00 0.  1.
          5    1    1    2  502    0 -0.78711973845E+02 -0.19118436922E+02  0.35133711701E+03  0.36058417775E+03  0.47000000000E+01 0. -1.
         -5    1    1    2    0  502  0.48445785405E+02 -0.71246162040E+02  0.25410857657E+03  0.26835846999E+03  0.47000000000E+01 0.  1.
        -11    1    1    2    0    0  0.20296212723E+02  0.10893990761E+03  0.37009478700E+02  0.11683125111E+03  0.00000000000E+00 0.  1.
         11    1    1    2    0    0  0.99699757163E+01 -0.18575308651E+02  0.11973669017E+02  0.24244819178E+02  0.00000000000E+00 0. -1.
<mgrwt>
<rscale>  0 0.15988700E+03</rscale>
<asrwt>0</asrwt>
<pdfrwt beam="1">  1        2 0.10957288E+00 0.17030668E+03</pdfrwt>
<pdfrwt beam="2">  1       -2 0.88915295E-02 0.17030668E+03</pdfrwt>
<totfact> 0.32357320E+03</totfact>
</mgrwt>
</event>
<event>
 7    1  0.6008063E-006  0.1403011E+03  0.7546771E-02  0.1221677E+00
          1   -1    0    0  501    0  0.00000000000E+00  0.00000000000E+00  0.69938460804E+03  0.69938460804E+03  0.00000000000E+00 0. -1.
         -1   -1    0    0    0  501 -0.00000000000E+00 -0.00000000000E+00 -0.24993641162E+02  0.24993641162E+02  0.00000000000E+00 0.  1.
         23    2    1    2    0    0  0.71095524086E+01  0.63294628427E+02  0.45166477749E+03  0.47295397399E+03  0.12501053783E+03 0.  0.
          5    1    3    3  502    0 -0.16305854708E+02  0.97268724623E+02  0.32269934322E+03  0.33746709736E+03  0.47000000000E+01 0.  1.
         -5    1    3    3    0  502  0.23415407117E+02 -0.33974096196E+02  0.12896543427E+03  0.13548687663E+03  0.47000000000E+01 0.  1.
        -11    1    1    2    0    0 -0.32202978954E+02  0.13674751344E+02  0.55038787626E+02  0.65217319948E+02  0.00000000000E+00 0.  1.
         11    1    1    2    0    0  0.25093426546E+02 -0.76969379771E+02  0.16768740177E+03  0.18620695527E+03  0.00000000000E+00 0. -1.
<mgrwt>
<rscale>  0 0.13397287E+03</rscale>
<asrwt>0</asrwt>
<pdfrwt beam="1">  1        1 0.10759762E+00 0.14030107E+03</pdfrwt>
<pdfrwt beam="2">  1       -1 0.38451761E-02 0.14030107E+03</pdfrwt>
<totfact> 0.71074674E+03</totfact>
</mgrwt>
</event>
<event>
 7    1  0.6008063E-006  0.1409760E+03  0.7546771E-02  0.1222977E+00
         -1   -1    0    0    0  501 -0.00000000000E+00  0.00000000000E+00  0.34854172064E+02  0.34854172064E+02  0.00000000000E+00 0.  1.
          1   -1    0    0  501    0  0.00000000000E+00 -0.00000000000E+00 -0.76147242138E+03  0.76147242138E+03  0.00000000000E+00 0. -1.
         23    2    1    2    0    0 -0.55357481498E+02 -0.34470150730E+02 -0.63855212029E+03  0.65392893475E+03  0.12498639657E+03 0.  0.
          5    1    3    3  502    0 -0.71097205110E+02 -0.68983265140E+02 -0.51982001029E+03  0.52919602847E+03  0.47000000000E+01 0. -1.
         -5    1    3    3    0  502  0.15739723612E+02  0.34513114410E+02 -0.11873211000E+03  0.12473290629E+03  0.47000000000E+01 0. -1.
        -11    1    1    2    0    0  0.73489028439E+02  0.33021939812E+02 -0.93491043184E+02  0.12341661544E+03  0.00000000000E+00 0. -1.
         11    1    1    2    0    0 -0.18131546941E+02  0.14482109176E+01  0.54249141632E+01  0.18981043254E+02  0.00000000000E+00 0.  1.
<mgrwt>
<rscale>  0 0.13306560E+03</rscale>
<asrwt>0</asrwt>
<pdfrwt beam="2">  1        1 0.11714961E+00 0.14097603E+03</pdfrwt>
<pdfrwt beam="1">  1       -1 0.53621802E-02 0.14097603E+03</pdfrwt>
<totfact> 0.38457722E+03</totfact>
</mgrwt>
</event>
<event>
 7    1  0.6008063E-006  0.1530271E+03  0.7546771E-02  0.1205560E+00
         -3   -1    0    0    0  501 -0.00000000000E+00  0.00000000000E+00  0.12226722826E+03  0.12226722826E+03  0.00000000000E+00 0.  1.
          3   -1    0    0  501    0  0.00000000000E+00 -0.00000000000E+00 -0.17358630548E+03  0.17358630548E+03  0.00000000000E+00 0. -1.
         23    2    1    2    0    0 -0.14224985767E+02 -0.87115719142E+02 -0.69351632338E+02  0.16800877388E+03  0.12500320176E+03 0.  0.
          5    1    3    3  502    0  0.50193668402E+02 -0.83524026965E+01 -0.25512936303E+02  0.57115382317E+02  0.47000000000E+01 0. -1.
         -5    1    3    3    0  502 -0.64418654169E+02 -0.78763316446E+02 -0.43838696035E+02  0.11089339156E+03  0.47000000000E+01 0. -1.
        -11    1    1    2    0    0  0.25068426715E+02  0.18787670845E+01  0.32105043199E+02  0.40776090819E+02  0.00000000000E+00 0.  1.
         11    1    1    2    0    0 -0.10843440948E+02  0.85236952058E+02 -0.14072488087E+02  0.87068669041E+02  0.00000000000E+00 0. -1.
<mgrwt>
<rscale>  0 0.14593387E+03</rscale>
<asrwt>0</asrwt>
<pdfrwt beam="2">  1        3 0.26705585E-01 0.15302712E+03</pdfrwt>
<pdfrwt beam="1">  1       -3 0.18810343E-01 0.15302712E+03</pdfrwt>
<totfact> 0.78358955E+02</totfact>
</mgrwt>
</event>
<event>
 7    1  0.6008063E-006  0.1322104E+03  0.7546771E-02  0.1237331E+00
         -2   -1    0    0    0  501 -0.00000000000E+00  0.00000000000E+00  0.18580787890E+02  0.18580787890E+02  0.00000000000E+00 0.  1.
          2   -1    0    0  501    0  0.00000000000E+00 -0.00000000000E+00 -0.75179906614E+03  0.75179906614E+03  0.00000000000E+00 0. -1.
         23    2    1    2    0    0 -0.35637929953E+02  0.24172496678E+02 -0.47809376114E+03  0.49603752943E+03  0.12500085807E+03 0.  0.
          5    1    3    3  502    0 -0.37623008269E+02  0.67704842593E+02 -0.38996956252E+03  0.39761512315E+03  0.47000000000E+01 0.  1.
         -5    1    3    3    0  502  0.19850783161E+01 -0.43532345916E+02 -0.88124198612E+02  0.98422406279E+02  0.47000000000E+01 0.  1.
        -11    1    1    2    0    0  0.40265860484E+02  0.13775062424E+02 -0.21401315988E+03  0.21820340160E+03  0.00000000000E+00 0. -1.
         11    1    1    2    0    0 -0.46279305311E+01 -0.37947559102E+02 -0.41111357235E+02  0.56138923008E+02  0.00000000000E+00 0.  1.
<mgrwt>
<rscale>  0 0.12356401E+03</rscale>
<asrwt>0</asrwt>
<pdfrwt beam="2">  1        2 0.11566137E+00 0.13221039E+03</pdfrwt>
<pdfrwt beam="1">  1       -2 0.28585834E-02 0.13221039E+03</pdfrwt>
<totfact> 0.16577360E+04</totfact>
</mgrwt>
</event>
<event>
 7    1  0.6008063E-006  0.1469763E+03  0.7546771E-02  0.1213653E+00
          2   -1    0    0  501    0  0.00000000000E+00  0.00000000000E+00  0.30058472049E+03  0.30058472049E+03  0.00000000000E+00 0. -1.
         -2   -1    0    0    0  501 -0.00000000000E+00 -0.00000000000E+00 -0.59355532696E+02  0.59355532696E+02  0.00000000000E+00 0.  1.
         23    2    1    2    0    0  0.77261978631E+02  0.28192961814E+01  0.13228115762E+03  0.19773803272E+03  0.12499865259E+03 0.  0.
          5    1    3    3  502    0 -0.26193935131E+02 -0.22161765171E+02  0.59072282445E+02  0.68475474634E+02  0.47000000000E+01 0.  1.
         -5    1    3    3    0  502  0.10345591376E+03  0.24981061352E+02  0.73208875171E+02  0.12926255808E+03  0.47000000000E+01 0.  1.
        -11    1    1    2    0    0  0.33647655851E+00 -0.18264639017E+02  0.73084472039E+02  0.75332929773E+02  0.00000000000E+00 0. -1.
         11    1    1    2    0    0 -0.77598455189E+02  0.15445342836E+02  0.35863558135E+02  0.86869290691E+02  0.00000000000E+00 0.  1.
<mgrwt>
<rscale>  0 0.13975936E+03</rscale>
<asrwt>0</asrwt>
<pdfrwt beam="1">  1        2 0.46243802E-01 0.14697627E+03</pdfrwt>
<pdfrwt beam="2">  1       -2 0.91316206E-02 0.14697627E+03</pdfrwt>
<totfact> 0.79959835E+03</totfact>
</mgrwt>
</event>
<event>
 7    1  0.6008063E-006  0.1644426E+03  0.7546771E-02  0.1190552E+00
         -1   -1    0    0    0  501 -0.00000000000E+00  0.00000000000E+00  0.19911766400E+02  0.19911766400E+02  0.00000000000E+00 0.  1.
          1   -1    0    0  501    0  0.00000000000E+00 -0.00000000000E+00 -0.14626975508E+04  0.14626975508E+04  0.00000000000E+00 0. -1.
         23    2    1    2    0    0  0.49465224777E+02 -0.94941283673E+02 -0.10930261546E+04  0.11053268981E+04  0.12482275977E+03 0.  0.
          5    1    3    3  502    0  0.60092208551E+02 -0.97842185840E+02 -0.10846288492E+04  0.10906997742E+04  0.47000000000E+01 0. -1.
         -5    1    3    3    0  502 -0.10626983774E+02  0.29009021666E+01 -0.83973053333E+01  0.14627123927E+02  0.47000000000E+01 0. -1.
        -11    1    1    2    0    0 -0.10438320237E+01  0.92196692226E+02 -0.24714189318E+03  0.26378103611E+03  0.00000000000E+00 0.  1.
         11    1    1    2    0    0 -0.48421392753E+02  0.27445914474E+01 -0.10261773660E+03  0.11350138291E+03  0.00000000000E+00 0. -1.
<mgrwt>
<rscale>  0 0.15836795E+03</rscale>
<asrwt>0</asrwt>
<pdfrwt beam="2">  1        1 0.22503042E+00 0.16444263E+03</pdfrwt>
<pdfrwt beam="1">  1       -1 0.30633483E-02 0.16444263E+03</pdfrwt>
<totfact> 0.27589213E+03</totfact>
</mgrwt>
</event>
<event>
 7    1  0.6008063E-006  0.1411841E+03  0.7546771E-02  0.1230934E+00
         -3   -1    0    0    0  501 -0.00000000000E+00  0.00000000000E+00  0.17404557091E+02  0.17404557091E+02  0.00000000000E+00 0.  1.
          3   -1    0    0  501    0  0.00000000000E+00 -0.00000000000E+00 -0.10175377624E+04  0.10175377624E+04  0.00000000000E+00 0. -1.
         23    2    1    2    0    0 -0.62925693712E+01  0.65329808191E+02 -0.81470188814E+03  0.82684466913E+03  0.12500144022E+03 0.  0.
          5    1    3    3  502    0 -0.53666239345E+02  0.52343872097E+02 -0.28098655352E+03  0.29085302035E+03  0.47000000000E+01 0. -1.
         -5    1    3    3    0  502  0.47373669974E+02  0.12985936095E+02 -0.53371533463E+03  0.53599164878E+03  0.47000000000E+01 0. -1.
        -11    1    1    2    0    0 -0.14700009415E+02 -0.15631667083E+02 -0.84256381128E+01  0.23052780097E+02  0.00000000000E+00 0.  1.
         11    1    1    2    0    0  0.20992578787E+02 -0.49698141108E+02 -0.17700567906E+03  0.18504487027E+03  0.00000000000E+00 0. -1.
<mgrwt>
<rscale>  0 0.12768327E+03</rscale>
<asrwt>0</asrwt>
<pdfrwt beam="2">  1        3 0.15654433E+00 0.14118407E+03</pdfrwt>
<pdfrwt beam="1">  1       -3 0.26776232E-02 0.14118407E+03</pdfrwt>
<totfact> 0.43943819E+02</totfact>
</mgrwt>
</event>
<event>
 7    1  0.6008063E-006  0.1265222E+03  0.7546771E-02  0.1248748E+00
         -1   -1    0    0    0  501 -0.00000000000E+00  0.00000000000E+00  0.99978760701E+02  0.99978760701E+02  0.00000000000E+00 0.  1.
          1   -1    0    0  501    0  0.00000000000E+00 -0.00000000000E+00 -0.14804831504E+03  0.14804831504E+03  0.00000000000E+00 0. -1.
         23    2    1    2    0    0  0.19258235027E+02  0.33319339977E+01 -0.81750362526E+02  0.15063532382E+03  0.12500359038E+03 0.  0.
          5    1    3    3  502    0 -0.47430540856E+02  0.22697568005E+02 -0.54535053452E+02  0.75901237501E+02  0.47000000000E+01 0. -1.
         -5    1    3    3    0  502  0.66688775883E+02 -0.19365634007E+02 -0.27215309074E+02  0.74734086315E+02  0.47000000000E+01 0. -1.
        -11    1    1    2    0    0  0.23007930302E+01  0.16704900669E+02 -0.25918500943E+02  0.30921126209E+02  0.00000000000E+00 0. -1.
         11    1    1    2    0    0 -0.21559028057E+02 -0.20036834666E+02  0.59599309131E+02  0.66470625716E+02  0.00000000000E+00 0.  1.
<mgrwt>
<rscale>  0 0.11663822E+03</rscale>
<asrwt>0</asrwt>
<pdfrwt beam="2">  1        1 0.22776664E-01 0.12652225E+03</pdfrwt>
<pdfrwt beam="1">  1       -1 0.15381348E-01 0.12652225E+03</pdfrwt>
<totfact> 0.62987217E+03</totfact>
</mgrwt>
</event>
<event>
 7    1  0.6008063E-006  0.1767432E+03  0.7546771E-02  0.1177874E+00
          1   -1    0    0  501    0  0.00000000000E+00  0.00000000000E+00  0.40504122566E+03  0.40504122566E+03  0.00000000000E+00 0. -1.
         -1   -1    0    0    0  501 -0.00000000000E+00 -0.00000000000E+00 -0.70497661487E+02  0.70497661487E+02  0.00000000000E+00 0.  1.
         23    2    1    2    0    0  0.10872383618E+03  0.61584897289E+02  0.12220623100E+03  0.21487790511E+03  0.12499831631E+03 0.  0.
          5    1    3    3  502    0  0.78051588526E+02 -0.24555030466E+02  0.78250612557E+02  0.11331481968E+03  0.47000000000E+01 0.  1.
         -5    1    3    3    0  502  0.30672247654E+02  0.86139927754E+02  0.43955618439E+02  0.10156308543E+03  0.47000000000E+01 0.  1.
        -11    1    1    2    0    0 -0.84367593116E+02 -0.64680269021E+02  0.10095970864E+03  0.14660931327E+03  0.00000000000E+00 0.  1.
         11    1    1    2    0    0 -0.24356243064E+02  0.30953717329E+01  0.11137762454E+03  0.11405166877E+03  0.00000000000E+00 0. -1.
<mgrwt>
<rscale>  0 0.16997475E+03</rscale>
<asrwt>0</asrwt>
<pdfrwt beam="1">  1        1 0.62314033E-01 0.17674318E+03</pdfrwt>
<pdfrwt beam="2">  1       -1 0.10845794E-01 0.17674318E+03</pdfrwt>
<totfact> 0.31412553E+03</totfact>
</mgrwt>
</event>
<event>
 7    1  0.6008063E-006  0.1347159E+03  0.7546771E-02  0.1232868E+00
         -2   -1    0    0    0  501 -0.00000000000E+00  0.00000000000E+00  0.19216569255E+02  0.19216569255E+02  0.00000000000E+00 0.  1.
          2   -1    0    0  501    0  0.00000000000E+00 -0.00000000000E+00 -0.86488130082E+03  0.86488130082E+03  0.00000000000E+00 0. -1.
         23    2    1    2    0    0 -0.47738386523E+02 -0.15888266633E+02 -0.63276812307E+03  0.64694965884E+03  0.12496788757E+03 0.  0.
          5    1    3    3  502    0  0.30592321798E+02  0.12958981941E+02 -0.65915697821E+02  0.73964819916E+02  0.47000000000E+01 0. -1.
         -5    1    3    3    0  502 -0.78330708321E+02 -0.28847248574E+02 -0.56685242525E+03  0.57298483892E+03  0.47000000000E+01 0. -1.
        -11    1    1    2    0    0  0.81225949302E+01  0.69778882406E+01  0.74799138330E+01  0.13062028313E+02  0.00000000000E+00 0.  1.
         11    1    1    2    0    0  0.39615791593E+02  0.89103783927E+01 -0.22037652233E+03  0.22408618293E+03  0.00000000000E+00 0. -1.
<mgrwt>
<rscale>  0 0.12641936E+03</rscale>
<asrwt>0</asrwt>
<pdfrwt beam="2">  1        2 0.13305866E+00 0.13471586E+03</pdfrwt>
<pdfrwt beam="1">  1       -2 0.29563953E-02 0.13471586E+03</pdfrwt>
<totfact> 0.13265925E+04</totfact>
</mgrwt>
</event>
<event>
 7    1  0.6008063E-006  0.1586634E+03  0.7546771E-02  0.1198389E+00
          2   -1    0    0  501    0  0.00000000000E+00  0.00000000000E+00  0.48904430338E+03  0.48904430338E+03  0.00000000000E+00 0. -1.
         -2   -1    0    0    0  501 -0.00000000000E+00 -0.00000000000E+00 -0.45780528817E+02  0.45780528817E+02  0.00000000000E+00 0.  1.
         23    2    1    2    0    0  0.78539358420E+02 -0.58160538480E+02  0.30148555793E+03  0.34068698857E+03  0.12499201367E+03 0.  0.
          5    1    3    3  502    0 -0.80916153996E+01 -0.43973439966E+02  0.20619390579E+03  0.21103827721E+03  0.47000000000E+01 0.  1.
         -5    1    3    3    0  502  0.86630973819E+02 -0.14187098514E+02  0.95291652133E+02  0.12964871135E+03  0.47000000000E+01 0.  1.
        -11    1    1    2    0    0 -0.37372144258E+02  0.64978638935E+02  0.41857896786E+02  0.85854436156E+02  0.00000000000E+00 0.  1.
         11    1    1    2    0    0 -0.41167214161E+02 -0.68181004550E+01  0.99920319846E+02  0.10828340747E+03  0.00000000000E+00 0. -1.
<mgrwt>
<rscale>  0 0.15170889E+03</rscale>
<asrwt>0</asrwt>
<pdfrwt beam="1">  1        2 0.75237582E-01 0.15866343E+03</pdfrwt>
<pdfrwt beam="2">  1       -2 0.70431586E-02 0.15866343E+03</pdfrwt>
<totfact> 0.71222042E+03</totfact>
</mgrwt>
</event>
<event>
 7    1  0.6008063E-006  0.1299331E+03  0.7546771E-02  0.1241899E+00
          2   -1    0    0  501    0  0.00000000000E+00  0.00000000000E+00  0.12122336172E+04  0.12122336172E+04  0.00000000000E+00 0. -1.
         -2   -1    0    0    0  501 -0.00000000000E+00 -0.00000000000E+00 -0.11577301650E+02  0.11577301650E+02  0.00000000000E+00 0.  1.
         23    2    1    2    0    0  0.30493434107E+02  0.18106951565E+02  0.85603359242E+03  0.86583839341E+03  0.12499960371E+03 0.  0.
          5    1    3    3  502    0  0.59675188816E+01 -0.32774035778E+02  0.68155186841E+03  0.68238170260E+03  0.47000000000E+01 0. -1.
         -5    1    3    3    0  502  0.24525915225E+02  0.50880987342E+02  0.17448172401E+03  0.18345669081E+03  0.47000000000E+01 0. -1.
        -11    1    1    2    0    0  0.28063163831E+02 -0.12581278249E+02  0.60986211053E+02  0.68301886249E+02  0.00000000000E+00 0.  1.
         11    1    1    2    0    0 -0.58556597938E+02 -0.55256733155E+01  0.28363651206E+03  0.28967063917E+03  0.00000000000E+00 0. -1.
<mgrwt>
<rscale>  0 0.12072921E+03</rscale>
<asrwt>0</asrwt>
<pdfrwt beam="1">  1        2 0.18649738E+00 0.12993311E+03</pdfrwt>
<pdfrwt beam="2">  1       -2 0.17811243E-02 0.12993311E+03</pdfrwt>
<totfact> 0.17273421E+04</totfact>
</mgrwt>
</event>
<event>
 7    1  0.6008063E-006  0.1378343E+03  0.7546771E-02  0.1228308E+00
          1   -1    0    0  501    0  0.00000000000E+00  0.00000000000E+00  0.11018533300E+03  0.11018533300E+03  0.00000000000E+00 0. -1.
         -1   -1    0    0    0  501 -0.00000000000E+00 -0.00000000000E+00 -0.13625045351E+03  0.13625045351E+03  0.00000000000E+00 0.  1.
         23    2    1    2    0    0  0.58067763737E+02 -0.54305719375E+00 -0.17335749366E+02  0.13892015603E+03  0.12500448571E+03 0.  0.
          5    1    3    3  502    0 -0.43118523600E+01 -0.46028375195E+02 -0.36671128621E+02  0.59195143958E+02  0.47000000000E+01 0.  1.
         -5    1    3    3    0  502  0.62379616097E+02  0.45485318002E+02  0.19335379255E+02  0.79725012067E+02  0.47000000000E+01 0.  1.
        -11    1    1    2    0    0  0.97429919951E+01 -0.20270728602E+02 -0.26133235894E+02  0.34478607126E+02  0.00000000000E+00 0.  1.
         11    1    1    2    0    0 -0.67810755732E+02  0.20813785796E+02  0.17403864750E+02  0.73037023354E+02  0.00000000000E+00 0. -1.
<mgrwt>
<rscale>  0 0.12942755E+03</rscale>
<asrwt>0</asrwt>
<pdfrwt beam="1">  1        1 0.16951590E-01 0.13783425E+03</pdfrwt>
<pdfrwt beam="2">  1       -1 0.20961608E-01 0.13783425E+03</pdfrwt>
<totfact> 0.56396994E+03</totfact>
</mgrwt>
</event>
<event>
 7    1  0.6008063E-006  0.1340820E+03  0.7546771E-02  0.1233146E+00
          3   -1    0    0  501    0  0.00000000000E+00  0.00000000000E+00  0.16883132989E+03  0.16883132989E+03  0.00000000000E+00 0. -1.
         -3   -1    0    0    0  501 -0.00000000000E+00 -0.00000000000E+00 -0.95314560205E+02  0.95314560205E+02  0.00000000000E+00 0.  1.
         23    2    1    2    0    0 -0.12176816741E+02  0.46901597601E+02  0.84075279229E+02  0.15826131270E+03  0.12501982161E+03 0.  0.
          5    1    3    3  502    0  0.28447640946E+02 -0.24121241725E+02 -0.41772423120E+01  0.37823827557E+02  0.47000000000E+01 0. -1.
         -5    1    3    3    0  502 -0.40624457687E+02  0.71022839326E+02  0.88252521541E+02  0.12043748514E+03  0.47000000000E+01 0. -1.
        -11    1    1    2    0    0 -0.11947786269E+02  0.85264082371E+00 -0.42104309437E+02  0.43774986765E+02  0.00000000000E+00 0.  1.
         11    1    1    2    0    0  0.24124603010E+02 -0.47754238425E+02  0.31545799897E+02  0.62109590636E+02  0.00000000000E+00 0. -1.
<mgrwt>
<rscale>  0 0.12623902E+03</rscale>
<asrwt>0</asrwt>
<pdfrwt beam="1">  1        3 0.25974051E-01 0.13408203E+03</pdfrwt>
<pdfrwt beam="2">  1       -3 0.14663779E-01 0.13408203E+03</pdfrwt>
<totfact> 0.12423797E+03</totfact>
</mgrwt>
</event>
<event>
 7    1  0.6008063E-006  0.1518394E+03  0.7546771E-02  0.1206948E+00
         -2   -1    0    0    0  501 -0.00000000000E+00  0.00000000000E+00  0.89739193202E+02  0.89739193202E+02  0.00000000000E+00 0.  1.
          2   -1    0    0  501    0  0.00000000000E+00 -0.00000000000E+00 -0.22240769560E+03  0.22240769560E+03  0.00000000000E+00 0. -1.
         23    2    1    2    0    0  0.56239882794E+02  0.65324730768E+02 -0.43370751053E+02  0.15791203882E+03  0.12499978037E+03 0.  0.
          5    1    3    3  502    0  0.67854836387E+02  0.17616554345E+02  0.24147250905E+02  0.74295366843E+02  0.47000000000E+01 0.  1.
         -5    1    3    3    0  502 -0.11614953593E+02  0.47708176423E+02 -0.67518001958E+02  0.83616671980E+02  0.47000000000E+01 0.  1.
        -11    1    1    2    0    0 -0.69533226457E+02 -0.60528101000E+02 -0.10037012538E+03  0.13628162994E+03  0.00000000000E+00 0. -1.
         11    1    1    2    0    0  0.13293343663E+02 -0.47966297673E+01  0.11072374032E+02  0.17953220034E+02  0.00000000000E+00 0.  1.
<mgrwt>
<rscale>  0 0.14485034E+03</rscale>
<asrwt>0</asrwt>
<pdfrwt beam="2">  1        2 0.34216568E-01 0.15183936E+03</pdfrwt>
<pdfrwt beam="1">  1       -2 0.13806030E-01 0.15183936E+03</pdfrwt>
<totfact> 0.57241761E+03</totfact>
</mgrwt>
</event>
<event>
 7    1  0.6008063E-006  0.1495691E+03  0.7546771E-02  0.1209332E+00
          2   -1    0    0  501    0  0.00000000000E+00  0.00000000000E+00  0.16515674460E+03  0.16515674460E+03  0.00000000000E+00 0. -1.
         -2   -1    0    0    0  501 -0.00000000000E+00 -0.00000000000E+00 -0.14922311806E+03  0.14922311806E+03  0.00000000000E+00 0.  1.
         23    2    1    2    0    0 -0.19135035613E+02  0.79873520796E+02  0.84506033098E+02  0.17179111696E+03  0.12499995729E+03 0.  0.
          5    1    3    3  502    0 -0.43402034474E+02  0.17018600791E+02  0.92587835771E+02  0.10376881373E+03  0.47000000000E+01 0.  1.
         -5    1    3    3    0  502  0.24266998861E+02  0.62854920005E+02 -0.80818026728E+01  0.68022303232E+02  0.47000000000E+01 0.  1.
        -11    1    1    2    0    0 -0.31756620407E+02 -0.59090871016E+02 -0.52884573395E+02  0.85422433121E+02  0.00000000000E+00 0.  1.
         11    1    1    2    0    0  0.50891656021E+02 -0.20782649780E+02 -0.15687833169E+02  0.57166312579E+02  0.00000000000E+00 0. -1.
<mgrwt>
<rscale>  0 0.14301254E+03</rscale>
<asrwt>0</asrwt>
<pdfrwt beam="1">  1        2 0.25408730E-01 0.14956911E+03</pdfrwt>
<pdfrwt beam="2">  1       -2 0.22957403E-01 0.14956911E+03</pdfrwt>
<totfact> 0.33781830E+03</totfact>
</mgrwt>
</event>
<event>
 7    1  0.6008063E-006  0.1744453E+03  0.7546771E-02  0.1179443E+00
          1   -1    0    0  501    0  0.00000000000E+00  0.00000000000E+00  0.14294507248E+04  0.14294507248E+04  0.00000000000E+00 0. -1.
         -1   -1    0    0    0  501 -0.00000000000E+00 -0.00000000000E+00 -0.26899970117E+02  0.26899970117E+02  0.00000000000E+00 0.  1.
         23    2    1    2    0    0  0.10562642581E+03 -0.60411918775E+02  0.11384948211E+04  0.11517819253E+04  0.12499841618E+03 0.  0.
          5    1    3    3  502    0  0.10227990964E+03 -0.93920555020E+02  0.96899776963E+03  0.97890807439E+03  0.47000000000E+01 0. -1.
         -5    1    3    3    0  502  0.33465161696E+01  0.33508636245E+02  0.16949705145E+03  0.17287385090E+03  0.47000000000E+01 0. -1.
        -11    1    1    2    0    0 -0.70845724869E+02 -0.11057147776E+02  0.13870508273E+03  0.15614249013E+03  0.00000000000E+00 0.  1.
         11    1    1    2    0    0 -0.34780700945E+02  0.71469066551E+02  0.12535085092E+03  0.14842627954E+03  0.00000000000E+00 0. -1.
<mgrwt>
<rscale>  0 0.16847934E+03</rscale>
<asrwt>0</asrwt>
<pdfrwt beam="1">  1        1 0.21991544E+00 0.17444525E+03</pdfrwt>
<pdfrwt beam="2">  1       -1 0.41384581E-02 0.17444525E+03</pdfrwt>
<totfact> 0.18645098E+03</totfact>
</mgrwt>
</event>
<event>
 7    1  0.6008063E-006  0.1393919E+03  0.7546771E-02  0.1222483E+00
          3   -1    0    0  501    0  0.00000000000E+00  0.00000000000E+00  0.21650528773E+02  0.21650528773E+02  0.00000000000E+00 0. -1.
         -3   -1    0    0    0  501 -0.00000000000E+00 -0.00000000000E+00 -0.78782976040E+03  0.78782976040E+03  0.00000000000E+00 0.  1.
         23    2    1    2    0    0 -0.75324843041E+02  0.73228721648E+01 -0.33800728722E+03  0.36562142986E+03  0.11705830736E+03 0.  0.
          5    1    3    3  502    0 -0.90404719785E+02 -0.27004187812E+01 -0.33455679791E+03  0.34659868241E+03  0.47000000000E+01 0. -1.
         -5    1    3    3    0  502  0.15079876743E+02  0.10023290946E+02 -0.34504893088E+01  0.19022747447E+02  0.47000000000E+01 0.  1.
        -11    1    1    2    0    0 -0.16157769159E+02 -0.46644220116E+01 -0.23081407392E+02  0.28558391133E+02  0.00000000000E+00 0. -1.
         11    1    1    2    0    0  0.91482612200E+02 -0.26584501532E+01 -0.40509053702E+03  0.41530046818E+03  0.00000000000E+00 0.  1.
<mgrwt>
<rscale>  0 0.13340953E+03</rscale>
<asrwt>0</asrwt>
<pdfrwt beam="1">  1        3 0.33308506E-02 0.13939191E+03</pdfrwt>
<pdfrwt beam="2">  1       -3 0.12120458E+00 0.13939191E+03</pdfrwt>
<totfact> 0.58191943E+02</totfact>
</mgrwt>
</event>
<event>
 7    1  0.6008063E-006  0.1296982E+03  0.7546771E-02  0.1239511E+00
         -2   -1    0    0    0  501 -0.00000000000E+00  0.00000000000E+00  0.18598862039E+02  0.18598862039E+02  0.00000000000E+00 0.  1.
          2   -1    0    0  501    0  0.00000000000E+00 -0.00000000000E+00 -0.72580170504E+03  0.72580170504E+03  0.00000000000E+00 0. -1.
         23    2    1    2    0    0  0.62006387032E+00  0.34594358636E+02 -0.41872955605E+03  0.43835607932E+03  0.12499782814E+03 0.  0.
          5    1    3    3  502    0  0.49267538001E+02  0.53280622339E+02 -0.29856842528E+03  0.30729677771E+03  0.47000000000E+01 0. -1.
         -5    1    3    3    0  502 -0.48647474131E+02 -0.18686263703E+02 -0.12016113076E+03  0.13105930160E+03  0.47000000000E+01 0. -1.
        -11    1    1    2    0    0  0.39626199743E+02 -0.42334117110E+02 -0.12979396004E+03  0.14215795876E+03  0.00000000000E+00 0.  1.
         11    1    1    2    0    0 -0.40246263613E+02  0.77397584744E+01 -0.15867932692E+03  0.16388652900E+03  0.00000000000E+00 0. -1.
<mgrwt>
<rscale>  0 0.12219998E+03</rscale>
<asrwt>0</asrwt>
<pdfrwt beam="2">  1        2 0.11166180E+00 0.12969815E+03</pdfrwt>
<pdfrwt beam="1">  1       -2 0.28613634E-02 0.12969815E+03</pdfrwt>
<totfact> 0.17245958E+04</totfact>
</mgrwt>
</event>
<event>
 7    1  0.6008063E-006  0.1438628E+03  0.7546771E-02  0.1218239E+00
         -2   -1    0    0    0  501 -0.00000000000E+00  0.00000000000E+00  0.50837726226E+02  0.50837726226E+02  0.00000000000E+00 0.  1.
          2   -1    0    0  501    0  0.00000000000E+00 -0.00000000000E+00 -0.33761561762E+03  0.33761561762E+03  0.00000000000E+00 0. -1.
         23    2    1    2    0    0 -0.48224939399E+02  0.52405108403E+02 -0.18132727231E+03  0.23146511147E+03  0.12499831191E+03 0.  0.
          5    1    3    3  502    0 -0.50716933949E+02 -0.23059347409E+02 -0.32905788613E+02  0.64875433073E+02  0.47000000000E+01 0.  1.
         -5    1    3    3    0  502  0.24919945498E+01  0.75464455812E+02 -0.14842148370E+03  0.16658967840E+03  0.47000000000E+01 0.  1.
        -11    1    1    2    0    0  0.60301757464E+02 -0.33346667665E+02 -0.24790112339E+02  0.73231495051E+02  0.00000000000E+00 0.  1.
         11    1    1    2    0    0 -0.12076818064E+02 -0.19058440738E+02 -0.80660506750E+02  0.83756737323E+02  0.00000000000E+00 0. -1.
<mgrwt>
<rscale>  0 0.13641293E+03</rscale>
<asrwt>0</asrwt>
<pdfrwt beam="2">  1        2 0.51940864E-01 0.14386284E+03</pdfrwt>
<pdfrwt beam="1">  1       -2 0.78211887E-02 0.14386284E+03</pdfrwt>
<totfact> 0.89768269E+03</totfact>
</mgrwt>
</event>
<event>
 7    1  0.6008063E-006  0.1265864E+03  0.7546771E-02  0.1247143E+00
         -1   -1    0    0    0  501 -0.00000000000E+00  0.00000000000E+00  0.35009650169E+02  0.35009650169E+02  0.00000000000E+00 0.  1.
          1   -1    0    0  501    0  0.00000000000E+00 -0.00000000000E+00 -0.36323736611E+03  0.36323736611E+03  0.00000000000E+00 0. -1.
         23    2    1    2    0    0 -0.19747392841E+02 -0.30361192028E+01 -0.22729217084E+03  0.26016503275E+03  0.12499974318E+03 0.  0.
          5    1    3    3  502    0  0.16420124240E+01 -0.60000124547E+02 -0.15036103810E+03  0.16196679576E+03  0.47000000000E+01 0.  1.
         -5    1    3    3    0  502 -0.21389405265E+02  0.56964005344E+02 -0.76931132741E+02  0.98198236987E+02  0.47000000000E+01 0.  1.
        -11    1    1    2    0    0  0.41228789790E+02  0.54731049310E+01 -0.10768187975E+03  0.11543463610E+03  0.00000000000E+00 0. -1.
         11    1    1    2    0    0 -0.21481396949E+02 -0.24369857283E+01  0.67463346532E+01  0.22647347429E+02  0.00000000000E+00 0.  1.
<mgrwt>
<rscale>  0 0.11758004E+03</rscale>
<asrwt>0</asrwt>
<pdfrwt beam="2">  1        1 0.55882674E-01 0.12658639E+03</pdfrwt>
<pdfrwt beam="1">  1       -1 0.53860998E-02 0.12658639E+03</pdfrwt>
<totfact> 0.10175694E+04</totfact>
</mgrwt>
</event>
<event>
 7    1  0.6008063E-006  0.1486684E+03  0.7546771E-02  0.1211399E+00
          1   -1    0    0  501    0  0.00000000000E+00  0.00000000000E+00  0.13030345150E+03  0.13030345150E+03  0.00000000000E+00 0. -1.
         -1   -1    0    0    0  501 -0.00000000000E+00 -0.00000000000E+00 -0.14237201290E+03  0.14237201290E+03  0.00000000000E+00 0.  1.
         23    2    1    2    0    0 -0.69534557650E+02  0.40513288681E+02  0.94906967477E+01  0.14897098763E+03  0.12500360220E+03 0.  0.
          5    1    3    3  502    0 -0.89232902080E+02  0.57581089506E+02  0.35280760590E+02  0.11200408363E+03  0.47000000000E+01 0.  1.
         -5    1    3    3    0  502  0.19698344430E+02 -0.17067800826E+02 -0.25790063842E+02  0.36966903999E+02  0.47000000000E+01 0.  1.
        -11    1    1    2    0    0  0.34559904589E+02 -0.14312012516E+02 -0.56494802852E+02  0.67756058450E+02  0.00000000000E+00 0.  1.
         11    1    1    2    0    0  0.34974653061E+02 -0.26201276165E+02  0.34935544697E+02  0.55948418322E+02  0.00000000000E+00 0. -1.
<mgrwt>
<rscale>  0 0.14144442E+03</rscale>
<asrwt>0</asrwt>
<pdfrwt beam="1">  1        1 0.20046685E-01 0.14866836E+03</pdfrwt>
<pdfrwt beam="2">  1       -1 0.21903387E-01 0.14866836E+03</pdfrwt>
<totfact> 0.42575505E+03</totfact>
</mgrwt>
</event>
<event>
 7    1  0.6008063E-006  0.1368014E+03  0.7546771E-02  0.1220518E+00
         -1   -1    0    0    0  501 -0.00000000000E+00  0.00000000000E+00  0.86717610154E+02  0.86717610154E+02  0.00000000000E+00 0.  1.
          1   -1    0    0  501    0  0.00000000000E+00 -0.00000000000E+00 -0.26660574897E+03  0.26660574897E+03  0.00000000000E+00 0. -1.
         23    2    1    2    0    0 -0.43358366486E+02  0.52978411522E+02 -0.17785427362E+03  0.22438083289E+03  0.11843967027E+03 0.  0.
          5    1    3    3  502    0 -0.78700214864E+01  0.14850528134E+02  0.15950809001E+02  0.23643048278E+02  0.47000000000E+01 0. -1.
         -5    1    3    3    0  502 -0.35488345000E+02  0.38127883388E+02 -0.19380508262E+03  0.20073778462E+03  0.47000000000E+01 0.  1.
        -11    1    1    2    0    0  0.37303421194E+02 -0.84750560267E+02  0.12584923204E+02  0.93448290463E+02  0.00000000000E+00 0. -1.
         11    1    1    2    0    0  0.60549452917E+01  0.31772148745E+02 -0.14618788397E+02  0.35494235765E+02  0.00000000000E+00 0.  1.
<mgrwt>
<rscale>  0 0.13478867E+03</rscale>
<asrwt>0</asrwt>
<pdfrwt beam="2">  1        1 0.41016268E-01 0.13680137E+03</pdfrwt>
<pdfrwt beam="1">  1       -1 0.13341171E-01 0.13680137E+03</pdfrwt>
<totfact> 0.38017484E+03</totfact>
</mgrwt>
</event>
<event>
 7    1  0.6008063E-006  0.1662346E+03  0.7546771E-02  0.1188859E+00
         -1   -1    0    0    0  501 -0.00000000000E+00  0.00000000000E+00  0.36486642004E+03  0.36486642004E+03  0.00000000000E+00 0.  1.
          1   -1    0    0  501    0  0.00000000000E+00 -0.00000000000E+00 -0.65346854954E+02  0.65346854954E+02  0.00000000000E+00 0. -1.
         23    2    1    2    0    0  0.84976191718E+01 -0.10835797616E+03  0.15005613234E+03  0.22394369099E+03  0.12577866813E+03 0.  0.
          5    1    3    3  502    0 -0.56078135349E+02 -0.73842444682E+02  0.82042928130E+02  0.12389752200E+03  0.47000000000E+01 0. -1.
         -5    1    3    3    0  502  0.64575754520E+02 -0.34515531474E+02  0.68013204205E+02  0.10004616900E+03  0.47000000000E+01 0.  1.
        -11    1    1    2    0    0 -0.43075478971E+02  0.26183754558E+02  0.35871665573E+02  0.61869720237E+02  0.00000000000E+00 0.  1.
         11    1    1    2    0    0  0.34577859799E+02  0.82174221598E+02  0.11359176717E+03  0.14439986376E+03  0.00000000000E+00 0. -1.
<mgrwt>
<rscale>  0 0.15985674E+03</rscale>
<asrwt>0</asrwt>
<pdfrwt beam="2">  1        1 0.10053362E-01 0.16623457E+03</pdfrwt>
<pdfrwt beam="1">  1       -1 0.56133294E-01 0.16623457E+03</pdfrwt>
<totfact> 0.20622368E+03</totfact>
</mgrwt>
</event>
<event>
 7    1  0.6008063E-006  0.1402772E+03  0.7546771E-02  0.1224146E+00
         -1   -1    0    0    0  501 -0.00000000000E+00  0.00000000000E+00  0.34977424928E+02  0.34977424928E+02  0.00000000000E+00 0.  1.
          1   -1    0    0  501    0  0.00000000000E+00 -0.00000000000E+00 -0.48425851895E+03  0.48425851895E+03  0.00000000000E+00 0. -1.
         23    2    1    2    0    0 -0.41247969094E+02 -0.48438317282E+02 -0.31703066144E+03  0.34667873034E+03  0.12502014333E+03 0.  0.
          5    1    3    3  502    0  0.35390250722E+02 -0.26822333162E+02 -0.45816641605E+02  0.63977824677E+02  0.47000000000E+01 0. -1.
         -5    1    3    3    0  502 -0.76638219815E+02 -0.21615984121E+02 -0.27121401984E+03  0.28270090566E+03  0.47000000000E+01 0. -1.
        -11    1    1    2    0    0  0.51156549907E+02 -0.14498666550E+01 -0.32604119379E+02  0.60680501911E+02  0.00000000000E+00 0.  1.
         11    1    1    2    0    0 -0.99085808128E+01  0.49888183937E+02 -0.99646313205E+02  0.11187671163E+03  0.00000000000E+00 0. -1.
<mgrwt>
<rscale>  0 0.13225615E+03</rscale>
<asrwt>0</asrwt>
<pdfrwt beam="2">  1        1 0.74501303E-01 0.14027723E+03</pdfrwt>
<pdfrwt beam="1">  1       -1 0.53811428E-02 0.14027723E+03</pdfrwt>
<totfact> 0.71244567E+03</totfact>
</mgrwt>
</event>
<event>
 7    1  0.6008063E-006  0.1945588E+03  0.7546771E-02  0.1159054E+00
         -1   -1    0    0    0  501 -0.00000000000E+00  0.00000000000E+00  0.44624993896E+02  0.44624993896E+02  0.00000000000E+00 0.  1.
          1   -1    0    0  501    0  0.00000000000E+00 -0.00000000000E+00 -0.78402015395E+03  0.78402015395E+03  0.00000000000E+00 0. -1.
         23    2    1    2    0    0 -0.65639150172E+02 -0.13390511828E+03 -0.45674307676E+03  0.49645479458E+03  0.12495617697E+03 0.  0.
          5    1    3    3  502    0  0.19720269082E+02 -0.35789116604E+02 -0.31681908040E+02  0.51919005933E+02  0.47000000000E+01 0.  1.
         -5    1    3    3    0  502 -0.85359419255E+02 -0.98116001677E+02 -0.42506116872E+03  0.44453578865E+03  0.47000000000E+01 0.  1.
        -11    1    1    2    0    0  0.26470577521E+02  0.77943153959E+02 -0.67490531004E+02  0.10644622351E+03  0.00000000000E+00 0.  1.
         11    1    1    2    0    0  0.39168572651E+02  0.55961964323E+02 -0.21516155230E+03  0.22574412976E+03  0.00000000000E+00 0. -1.
<mgrwt>
<rscale>  0 0.18934386E+03</rscale>
<asrwt>0</asrwt>
<pdfrwt beam="2">  1        1 0.12061847E+00 0.19455880E+03</pdfrwt>
<pdfrwt beam="1">  1       -1 0.68653844E-02 0.19455880E+03</pdfrwt>
<totfact> 0.25668884E+03</totfact>
</mgrwt>
</event>
<event>
 7    1  0.6008063E-006  0.1299984E+03  0.7546771E-02  0.1241693E+00
         -2   -1    0    0    0  501 -0.00000000000E+00  0.00000000000E+00  0.77293358201E+02  0.77293358201E+02  0.00000000000E+00 0.  1.
          2   -1    0    0  501    0  0.00000000000E+00 -0.00000000000E+00 -0.17071697183E+03  0.17071697183E+03  0.00000000000E+00 0. -1.
         23    2    1    2    0    0 -0.14169281200E+02  0.32773878162E+02 -0.71860806653E+02  0.14853805705E+03  0.12499873295E+03 0.  0.
          5    1    3    3  502    0  0.27950136069E+02  0.16161299640E+02  0.25270998729E+02  0.41268766508E+02  0.47000000000E+01 0.  1.
         -5    1    3    3    0  502 -0.42119417270E+02  0.16612578522E+02 -0.97131805381E+02  0.10726929054E+03  0.47000000000E+01 0.  1.
        -11    1    1    2    0    0  0.34832282563E+02  0.14221528054E+02  0.10353799811E+02  0.39022313351E+02  0.00000000000E+00 0.  1.
         11    1    1    2    0    0 -0.20663001363E+02 -0.46995406216E+02 -0.31916606785E+02  0.60449959631E+02  0.00000000000E+00 0. -1.
<mgrwt>
<rscale>  0 0.12085542E+03</rscale>
<asrwt>0</asrwt>
<pdfrwt beam="2">  1        2 0.26264149E-01 0.12999838E+03</pdfrwt>
<pdfrwt beam="1">  1       -2 0.11891286E-01 0.12999838E+03</pdfrwt>
<totfact> 0.95926911E+03</totfact>
</mgrwt>
</event>
<event>
 7    1  0.6008063E-006  0.1346420E+03  0.7546771E-02  0.1233436E+00
         -2   -1    0    0    0  501 -0.00000000000E+00  0.00000000000E+00  0.10426669316E+03  0.10426669316E+03  0.00000000000E+00 0.  1.
          2   -1    0    0  501    0  0.00000000000E+00 -0.00000000000E+00 -0.13620295608E+03  0.13620295608E+03  0.00000000000E+00 0. -1.
         23    2    1    2    0    0  0.26099954873E+02 -0.42694250553E+02 -0.23714354554E+02  0.13671444769E+03  0.12499785167E+03 0.  0.
          5    1    3    3  502    0  0.15086833320E+02 -0.62179589280E+02 -0.63853661193E+02  0.90516815622E+02  0.47000000000E+01 0.  1.
         -5    1    3    3    0  502  0.11013121554E+02  0.19485338727E+02  0.40139306639E+02  0.46197632073E+02  0.47000000000E+01 0.  1.
        -11    1    1    2    0    0  0.15260981775E+02 -0.11449972370E+02  0.22084580308E+02  0.29184381429E+02  0.00000000000E+00 0. -1.
         11    1    1    2    0    0 -0.41360936648E+02  0.54144222923E+02 -0.30306488674E+02  0.74570820111E+02  0.00000000000E+00 0.  1.
<mgrwt>
<rscale>  0 0.12605089E+03</rscale>
<asrwt>0</asrwt>
<pdfrwt beam="2">  1        2 0.20954301E-01 0.13464201E+03</pdfrwt>
<pdfrwt beam="1">  1       -2 0.16041030E-01 0.13464201E+03</pdfrwt>
<totfact> 0.76122186E+03</totfact>
</mgrwt>
</event>
<event>
 7    1  0.6008063E-006  0.1800228E+03  0.7546771E-02  0.1173114E+00
         -1   -1    0    0    0  501 -0.00000000000E+00  0.00000000000E+00  0.12064739168E+03  0.12064739168E+03  0.00000000000E+00 0.  1.
          1   -1    0    0  501    0  0.00000000000E+00 -0.00000000000E+00 -0.23874491106E+03  0.23874491106E+03  0.00000000000E+00 0. -1.
         23    2    1    2    0    0 -0.11606067630E+03 -0.57574075752E+02 -0.65611696733E+02  0.19160664811E+03  0.12499343210E+03 0.  0.
          5    1    3    3  502    0 -0.14040604216E+03 -0.54459665446E+02 -0.40146413640E+02  0.15592798455E+03  0.47000000000E+01 0. -1.
         -5    1    3    3    0  502  0.24345365860E+02 -0.31144103056E+01 -0.25465283093E+02  0.35678663560E+02  0.47000000000E+01 0. -1.
        -11    1    1    2    0    0  0.70899529065E+02  0.17397461168E+02  0.17741091321E+02  0.75127632719E+02  0.00000000000E+00 0.  1.
         11    1    1    2    0    0  0.45161147239E+02  0.40176614583E+02 -0.70226913972E+02  0.92658021915E+02  0.00000000000E+00 0. -1.
<mgrwt>
<rscale>  0 0.17462002E+03</rscale>
<asrwt>0</asrwt>
<pdfrwt beam="2">  1        1 0.36729986E-01 0.18002281E+03</pdfrwt>
<pdfrwt beam="1">  1       -1 0.18561137E-01 0.18002281E+03</pdfrwt>
<totfact> 0.26200721E+03</totfact>
</mgrwt>
</event>
<event>
 7    1  0.6008063E-006  0.1425836E+03  0.7546771E-02  0.1220875E+00
          2   -1    0    0  501    0  0.00000000000E+00  0.00000000000E+00  0.30575447453E+03  0.30575447453E+03  0.00000000000E+00 0. -1.
         -2   -1    0    0    0  501 -0.00000000000E+00 -0.00000000000E+00 -0.53573428278E+02  0.53573428278E+02  0.00000000000E+00 0.  1.
         23    2    1    2    0    0  0.43771228464E+02 -0.52798504703E+02  0.15017514837E+03  0.20708125037E+03  0.12500586597E+03 0.  0.
          5    1    3    3  502    0  0.76205348476E+02 -0.67432801949E+02  0.84974368152E+02  0.13265432959E+03  0.47000000000E+01 0. -1.
         -5    1    3    3    0  502 -0.32434120012E+02  0.14634297246E+02  0.65200780214E+02  0.74426920784E+02  0.47000000000E+01 0. -1.
        -11    1    1    2    0    0 -0.59491070891E+02  0.24427328331E+02  0.10107277383E+03  0.11979811140E+03  0.00000000000E+00 0. -1.
         11    1    1    2    0    0  0.15719842427E+02  0.28371176373E+02  0.93312405038E+00  0.32448541034E+02  0.00000000000E+00 0.  1.
<mgrwt>
<rscale>  0 0.13453716E+03</rscale>
<asrwt>0</asrwt>
<pdfrwt beam="1">  1        2 0.47039149E-01 0.14258355E+03</pdfrwt>
<pdfrwt beam="2">  1       -2 0.82420661E-02 0.14258355E+03</pdfrwt>
<totfact> 0.91909334E+03</totfact>
</mgrwt>
</event>
<event>
 6    1  0.6008063E-006  0.2115921E+03  0.7546771E-02  0.1167862E+00
          1   -1    0    0  501    0  0.00000000000E+00  0.00000000000E+00  0.12866792625E+04  0.12866792625E+04  0.00000000000E+00 0. -1.
         -1   -1    0    0    0  501 -0.00000000000E+00 -0.00000000000E+00 -0.20257670060E+02  0.20257670060E+02  0.00000000000E+00 0.  1.
          5    1    1    2  502    0 -0.97833506323E+02 -0.34086631100E+02  0.51666022413E+03  0.52696600514E+03  0.47000000000E+01 0. -1.
         -5    1    1    2    0  502  0.10149163395E+03 -0.23261094002E+02  0.35311124127E+03  0.36817287918E+03  0.47000000000E+01 0.  1.
        -11    1    1    2    0    0 -0.25381705012E+02  0.59676551375E+02  0.37660500515E+03  0.38214768302E+03  0.00000000000E+00 0. -1.
         11    1    1    2    0    0  0.21723577390E+02 -0.23288262735E+01  0.20045121927E+02  0.29650365251E+02  0.00000000000E+00 0.  1.
<mgrwt>
<rscale>  0 0.17993898E+03</rscale>
<asrwt>0</asrwt>
<pdfrwt beam="1">  1        1 0.19795059E+00 0.21159211E+03</pdfrwt>
<pdfrwt beam="2">  1       -1 0.31165656E-02 0.21159211E+03</pdfrwt>
<totfact> 0.35388849E+03</totfact>
</mgrwt>
</event>
<event>
 7    1  0.6008063E-006  0.1764036E+03  0.7546771E-02  0.1175365E+00
          2   -1    0    0  501    0  0.00000000000E+00  0.00000000000E+00  0.50178110286E+03  0.50178110286E+03  0.00000000000E+00 0. -1.
         -2   -1    0    0    0  501 -0.00000000000E+00 -0.00000000000E+00 -0.65652199109E+02  0.65652199109E+02  0.00000000000E+00 0.  1.
         23    2    1    2    0    0 -0.37852823406E+02 -0.11857700568E+03  0.33138352102E+03  0.37541081618E+03  0.12499960152E+03 0.  0.
          5    1    3    3  502    0 -0.51217510783E+02 -0.85086658814E+02  0.99382094047E+02  0.14057689546E+03  0.47000000000E+01 0. -1.
         -5    1    3    3    0  502  0.13364687378E+02 -0.33490346862E+02  0.23200142698E+03  0.23483392072E+03  0.47000000000E+01 0. -1.
        -11    1    1    2    0    0 -0.47411297448E+01  0.10869957899E+03  0.10045994349E+03  0.14808874714E+03  0.00000000000E+00 0. -1.
         11    1    1    2    0    0  0.42593953150E+02  0.98774266908E+01  0.42854392399E+01  0.43933738658E+02  0.00000000000E+00 0.  1.
<mgrwt>
<rscale>  0 0.17240319E+03</rscale>
<asrwt>0</asrwt>
<pdfrwt beam="1">  1        2 0.77197090E-01 0.17640364E+03</pdfrwt>
<pdfrwt beam="2">  1       -2 0.10100339E-01 0.17640364E+03</pdfrwt>
<totfact> 0.39669745E+03</totfact>
</mgrwt>
</event>
<event>
 7    1  0.6008063E-006  0.1418148E+03  0.7546771E-02  0.1221691E+00
         -2   -1    0    0    0  501 -0.00000000000E+00  0.00000000000E+00  0.30669174859E+02  0.30669174859E+02  0.00000000000E+00 0.  1.
          2   -1    0    0  501    0  0.00000000000E+00 -0.00000000000E+00 -0.78083907203E+03  0.78083907203E+03  0.00000000000E+00 0. -1.
         23    2    1    2    0    0  0.36700146970E+02 -0.56006349319E+02 -0.63335484153E+03  0.64903758603E+03  0.12501128284E+03 0.  0.
          5    1    3    3  502    0 -0.34251870942E+02 -0.53235215946E+02 -0.19860687603E+03  0.20850410088E+03  0.47000000000E+01 0. -1.
         -5    1    3    3    0  502  0.70952017912E+02 -0.27711333733E+01 -0.43474796550E+03  0.44053348514E+03  0.47000000000E+01 0. -1.
        -11    1    1    2    0    0 -0.26955205924E+02 -0.18494484421E+02 -0.15086731134E+02  0.36003312858E+02  0.00000000000E+00 0.  1.
         11    1    1    2    0    0 -0.97449410457E+01  0.74500833741E+02 -0.10172832451E+03  0.12646734801E+03  0.00000000000E+00 0. -1.
<mgrwt>
<rscale>  0 0.13396273E+03</rscale>
<asrwt>0</asrwt>
<pdfrwt beam="2">  1        2 0.12012907E+00 0.14181478E+03</pdfrwt>
<pdfrwt beam="1">  1       -2 0.47183352E-02 0.14181478E+03</pdfrwt>
<totfact> 0.75654836E+03</totfact>
</mgrwt>
</event>
<event>
 7    1  0.1354639E-005  0.2186791E+03  0.7546771E-02  0.1138411E+00
         -1   -1    0    0    0  501 -0.00000000000E+00  0.00000000000E+00  0.30174894338E+02  0.30174894338E+02  0.00000000000E+00 0.  1.
          1   -1    0    0  501    0  0.00000000000E+00 -0.00000000000E+00 -0.14616593618E+04  0.14616593618E+04  0.00000000000E+00 0. -1.
         23    2    1    2    0    0  0.17123405861E+03  0.53612966019E+02 -0.78823271466E+03  0.81800450690E+03  0.12500043159E+03 0.  0.
          5    1    3    3  502    0  0.41979642393E+02  0.46922248272E+02 -0.47313038386E+03  0.47732424817E+03  0.47000000000E+01 0. -1.
         -5    1    3    3    0  502  0.12925441621E+03  0.66907177462E+01 -0.31510233080E+03  0.34068025874E+03  0.47000000000E+01 0. -1.
        -11    1    1    2    0    0 -0.92862095869E+02  0.13527659201E+02 -0.37072756312E+03  0.38242030865E+03  0.00000000000E+00 0.  1.
         11    1    1    2    0    0 -0.78371962739E+02 -0.67140625220E+02 -0.27252418965E+03  0.29140944055E+03  0.00000000000E+00 0. -1.
<mgrwt>
<rscale>  0 0.21403422E+03</rscale>
<asrwt>0</asrwt>
<pdfrwt beam="2">  1        1 0.22487064E+00 0.21867913E+03</pdfrwt>
<pdfrwt beam="1">  1       -1 0.46422921E-02 0.21867913E+03</pdfrwt>
<totfact> 0.14959218E+03</totfact>
</mgrwt>
</event>
<event>
 7    1  0.6008063E-006  0.1522006E+03  0.7546771E-02  0.1203790E+00
         -2   -1    0    0    0  501 -0.00000000000E+00  0.00000000000E+00  0.48478792488E+02  0.48478792488E+02  0.00000000000E+00 0.  1.
          2   -1    0    0  501    0  0.00000000000E+00 -0.00000000000E+00 -0.42636110238E+03  0.42636110238E+03  0.00000000000E+00 0. -1.
         23    2    1    2    0    0 -0.84250563065E+02 -0.21038048846E+02 -0.22675102769E+03  0.27309530746E+03  0.12499704605E+03 0.  0.
          5    1    3    3  502    0 -0.10680167879E+03 -0.30607196015E+02 -0.12055529104E+03  0.16400935107E+03  0.47000000000E+01 0.  1.
         -5    1    3    3    0  502  0.22551115725E+02  0.95691471695E+01 -0.10619573666E+03  0.10908595639E+03  0.47000000000E+01 0.  1.
        -11    1    1    2    0    0  0.87702894876E+02  0.40412424841E+02 -0.15408585477E+03  0.18184447336E+03  0.00000000000E+00 0. -1.
         11    1    1    2    0    0 -0.34523318112E+01 -0.19374375995E+02  0.29545725701E+01  0.19900114050E+02  0.00000000000E+00 0.  1.
<mgrwt>
<rscale>  0 0.14733234E+03</rscale>
<asrwt>0</asrwt>
<pdfrwt beam="2">  1        2 0.65594016E-01 0.15220059E+03</pdfrwt>
<pdfrwt beam="1">  1       -2 0.74582758E-02 0.15220059E+03</pdfrwt>
<totfact> 0.75534826E+03</totfact>
</mgrwt>
</event>
<event>
 7    1  0.6008063E-006  0.1269929E+03  0.7546771E-02  0.1246475E+00
         -1   -1    0    0    0  501 -0.00000000000E+00  0.00000000000E+00  0.38550749016E+03  0.38550749016E+03  0.00000000000E+00 0.  1.
          1   -1    0    0  501    0  0.00000000000E+00 -0.00000000000E+00 -0.35726605939E+02  0.35726605939E+02  0.00000000000E+00 0. -1.
         23    2    1    2    0    0  0.14073094345E+02 -0.17428849411E+02  0.12887616562E+03  0.18093166477E+03  0.12500153789E+03 0.  0.
          5    1    3    3  502    0 -0.37361672272E+02 -0.13508199187E+02 -0.21247580121E+01  0.40062084279E+02  0.47000000000E+01 0. -1.
         -5    1    3    3    0  502  0.51434766616E+02 -0.39206502238E+01  0.13100092363E+03  0.14086958049E+03  0.47000000000E+01 0. -1.
        -11    1    1    2    0    0 -0.38857450080E+02  0.39546023721E+02  0.17546507289E+03  0.18401570917E+03  0.00000000000E+00 0.  1.
         11    1    1    2    0    0  0.24784355735E+02 -0.22117174311E+02  0.45439645714E+02  0.56286722158E+02  0.00000000000E+00 0. -1.
<mgrwt>
<rscale>  0 0.11797513E+03</rscale>
<asrwt>0</asrwt>
<pdfrwt beam="2">  1        1 0.54964012E-02 0.12699292E+03</pdfrwt>
<pdfrwt beam="1">  1       -1 0.59308842E-01 0.12699292E+03</pdfrwt>
<totfact> 0.41357520E+03</totfact>
</mgrwt>
</event>
<event>
 7    1  0.6008063E-006  0.1280173E+03  0.7546771E-02  0.1244541E+00
         -1   -1    0    0    0  501 -0.00000000000E+00  0.00000000000E+00  0.45887501001E+03  0.45887501001E+03  0.00000000000E+00 0.  1.
          1   -1    0    0  501    0  0.00000000000E+00 -0.00000000000E+00 -0.28295757157E+02  0.28295757157E+02  0.00000000000E+00 0. -1.
         23    2    1    2    0    0  0.27527553232E+02  0.24020180461E+01  0.20069926710E+03  0.23805170349E+03  0.12499952737E+03 0.  0.
          5    1    3    3  502    0 -0.14311639735E+02  0.55928172659E+02  0.11336316050E+03  0.12730310164E+03  0.47000000000E+01 0.  1.
         -5    1    3    3    0  502  0.41839192967E+02 -0.53526154613E+02  0.87336106602E+02  0.11074860185E+03  0.47000000000E+01 0.  1.
        -11    1    1    2    0    0 -0.31362768033E+01  0.43621625801E+02  0.11245965198E+03  0.12066422748E+03  0.00000000000E+00 0.  1.
         11    1    1    2    0    0 -0.24391276429E+02 -0.46023643847E+02  0.11742033377E+03  0.12845483619E+03  0.00000000000E+00 0. -1.
<mgrwt>
<rscale>  0 0.11912866E+03</rscale>
<asrwt>0</asrwt>
<pdfrwt beam="2">  1        1 0.43531937E-02 0.12801726E+03</pdfrwt>
<pdfrwt beam="1">  1       -1 0.70596150E-01 0.12801726E+03</pdfrwt>
<totfact> 0.40633937E+03</totfact>
</mgrwt>
</event>
<event>
 7    1  0.6008063E-006  0.1324938E+03  0.7546771E-02  0.1237098E+00
          4   -1    0    0  501    0  0.00000000000E+00  0.00000000000E+00  0.36119628737E+03  0.36119628737E+03  0.00000000000E+00 0. -1.
         -4   -1    0    0    0  501 -0.00000000000E+00 -0.00000000000E+00 -0.41238924884E+02  0.41238924884E+02  0.00000000000E+00 0.  1.
         23    2    1    2    0    0 -0.32057397192E+02  0.30134364853E+02  0.23882692999E+03  0.27311701054E+03  0.12497536677E+03 0.  0.
          5    1    3    3  502    0 -0.76712131547E+02  0.45531197469E+01  0.17354820688E+03  0.18985929563E+03  0.47000000000E+01 0.  1.
         -5    1    3    3    0  502  0.44654734355E+02  0.25581245107E+02  0.65278723111E+02  0.83257714912E+02  0.47000000000E+01 0.  1.
        -11    1    1    2    0    0  0.46792651417E+01 -0.14220554275E+02 -0.19063418250E+02  0.24239092423E+02  0.00000000000E+00 0.  1.
         11    1    1    2    0    0  0.27378132051E+02 -0.15913810579E+02  0.10019385075E+03  0.10507910929E+03  0.00000000000E+00 0. -1.
<mgrwt>
<rscale>  0 0.12371061E+03</rscale>
<asrwt>0</asrwt>
<pdfrwt beam="1">  1        4 0.55568657E-01 0.13249377E+03</pdfrwt>
<pdfrwt beam="2">  1       -4 0.63444502E-02 0.13249377E+03</pdfrwt>
<totfact> 0.83160259E+02</totfact>
</mgrwt>
</event>
<event>
 7    1  0.6008063E-006  0.1574033E+03  0.7546771E-02  0.1193353E+00
         -2   -1    0    0    0  501 -0.00000000000E+00  0.00000000000E+00  0.90764831560E+02  0.90764831560E+02  0.00000000000E+00 0.  1.
          2   -1    0    0  501    0  0.00000000000E+00 -0.00000000000E+00 -0.27160036255E+03  0.27160036255E+03  0.00000000000E+00 0. -1.
         23    2    1    2    0    0  0.72454598180E+02  0.46068544046E+02 -0.12087735130E+03  0.19392894489E+03  0.12500048825E+03 0.  0.
          5    1    3    3  502    0  0.41135968081E+02  0.87538638133E+02 -0.60738044269E+02  0.11430827204E+03  0.47000000000E+01 0. -1.
         -5    1    3    3    0  502  0.31318630099E+02 -0.41470094087E+02 -0.60139307032E+02  0.79620672850E+02  0.47000000000E+01 0. -1.
        -11    1    1    2    0    0 -0.98691051465E+02 -0.59315379245E+02 -0.72943216435E+02  0.13630462457E+03  0.00000000000E+00 0. -1.
         11    1    1    2    0    0  0.26236453284E+02  0.13246835199E+02  0.12985036741E+02  0.32131624654E+02  0.00000000000E+00 0.  1.
<mgrwt>
<rscale>  0 0.15594427E+03</rscale>
<asrwt>0</asrwt>
<pdfrwt beam="2">  1        2 0.41784671E-01 0.15740326E+03</pdfrwt>
<pdfrwt beam="1">  1       -2 0.13963820E-01 0.15740326E+03</pdfrwt>
<totfact> 0.45464211E+03</totfact>
</mgrwt>
</event>
<event>
 7    1  0.6008063E-006  0.1216107E+03  0.7546771E-02  0.1292253E+00
         -4   -1    0    0    0  501 -0.00000000000E+00  0.00000000000E+00  0.17291574068E+03  0.17291574068E+03  0.00000000000E+00 0.  1.
          4   -1    0    0  501    0  0.00000000000E+00 -0.00000000000E+00 -0.43821951043E+02  0.43821951043E+02  0.00000000000E+00 0. -1.
         23    2    1    2    0    0 -0.51459654123E+01 -0.32027826202E+02  0.62562775464E+02  0.13675990238E+03  0.11720455372E+03 0.  0.
          5    1    3    3  502    0  0.32583955193E+02 -0.29052485648E+02 -0.18134168212E+02  0.47504727293E+02  0.47000000000E+01 0. -1.
         -5    1    3    3    0  502 -0.37729920606E+02 -0.29753405539E+01  0.80696943677E+02  0.89255175083E+02  0.47000000000E+01 0.  1.
        -11    1    1    2    0    0  0.13677162451E+02  0.61363380188E+01  0.36284625824E+02  0.39259310847E+02  0.00000000000E+00 0. -1.
         11    1    1    2    0    0 -0.85311970390E+01  0.25891488183E+02  0.30246388349E+02  0.40718478501E+02  0.00000000000E+00 0.  1.
<mgrwt>
<rscale>  0 0.94523362E+02</rscale>
<asrwt>0</asrwt>
<pdfrwt beam="2">  1        4 0.67418387E-02 0.12161073E+03</pdfrwt>
<pdfrwt beam="1">  1       -4 0.26602421E-01 0.12161073E+03</pdfrwt>
<totfact> 0.31218874E+03</totfact>
</mgrwt>
</event>
<event>
 6    1  0.6008063E-006  0.2576944E+03  0.7546771E-02  0.1140559E+00
          1   -1    0    0  501    0  0.00000000000E+00  0.00000000000E+00  0.82787871414E+03  0.82787871414E+03  0.00000000000E+00 0. -1.
         -1   -1    0    0    0  501 -0.00000000000E+00 -0.00000000000E+00 -0.96361588286E+02  0.96361588286E+02  0.00000000000E+00 0.  1.
          5    1    1    2  502    0 -0.68861831857E+02 -0.10963905253E+03  0.33725261631E+03  0.36128117987E+03  0.47000000000E+01 0. -1.
         -5    1    1    2    0  502  0.11444842304E+03  0.53129727331E+02  0.42431834059E+03  0.44270684841E+03  0.47000000000E+01 0.  1.
        -11    1    1    2    0    0  0.26363564315E+02  0.22650436939E+02  0.12840583875E+01  0.34781153271E+02  0.00000000000E+00 0.  1.
         11    1    1    2    0    0 -0.71950155499E+02  0.33858888258E+02 -0.31337889428E+02  0.85471120878E+02  0.00000000000E+00 0. -1.
<mgrwt>
<rscale>  0 0.21127628E+03</rscale>
<asrwt>0</asrwt>
<pdfrwt beam="1">  1        1 0.12736595E+00 0.25769445E+03</pdfrwt>
<pdfrwt beam="2">  1       -1 0.14824860E-01 0.25769445E+03</pdfrwt>
<totfact> 0.71808046E+02</totfact>
</mgrwt>
</event>
<event>
 7    1  0.6008063E-006  0.1829753E+03  0.7546771E-02  0.1170347E+00
          2   -1    0    0  501    0  0.00000000000E+00  0.00000000000E+00  0.21768055268E+04  0.21768055268E+04  0.00000000000E+00 0. -1.
         -2   -1    0    0    0  501 -0.00000000000E+00 -0.00000000000E+00 -0.16106144159E+02  0.16106144159E+02  0.00000000000E+00 0.  1.
         23    2    1    2    0    0  0.24845228361E+02  0.13131448153E+03  0.15652193659E+04  0.15758780483E+04  0.12497672345E+03 0.  0.
          5    1    3    3  502    0 -0.71542803525E+01  0.54497053726E+02  0.18265719727E+03  0.19080580260E+03  0.47000000000E+01 0.  1.
         -5    1    3    3    0  502  0.31999508714E+02  0.76817427806E+02  0.13825621686E+04  0.13850722457E+04  0.47000000000E+01 0.  1.
        -11    1    1    2    0    0 -0.16463422900E+01 -0.13711275865E+03  0.48609109839E+03  0.50506155561E+03  0.00000000000E+00 0.  1.
         11    1    1    2    0    0 -0.23198886071E+02  0.57982771159E+01  0.10938891842E+03  0.11197206708E+03  0.00000000000E+00 0. -1.
<mgrwt>
<rscale>  0 0.17739655E+03</rscale>
<asrwt>0</asrwt>
<pdfrwt beam="1">  1        2 0.33489292E+00 0.18297530E+03</pdfrwt>
<pdfrwt beam="2">  1       -2 0.24778701E-02 0.18297530E+03</pdfrwt>
<totfact> 0.33795068E+03</totfact>
</mgrwt>
</event>
<event>
 7    1  0.6008063E-006  0.1352479E+03  0.7546771E-02  0.1233995E+00
         -1   -1    0    0    0  501 -0.00000000000E+00  0.00000000000E+00  0.23103873609E+02  0.23103873609E+02  0.00000000000E+00 0.  1.
          1   -1    0    0  501    0  0.00000000000E+00 -0.00000000000E+00 -0.61551216480E+03  0.61551216480E+03  0.00000000000E+00 0. -1.
         23    2    1    2    0    0 -0.48216425758E+02 -0.18526565521E+02 -0.38291592105E+03  0.40609925835E+03  0.12499579071E+03 0.  0.
          5    1    3    3  502    0 -0.87364046247E+02 -0.17176754116E+02 -0.19995070083E+03  0.21892896159E+03  0.47000000000E+01 0. -1.
         -5    1    3    3    0  502  0.39147620488E+02 -0.13498114056E+01 -0.18296522022E+03  0.18717029677E+03  0.47000000000E+01 0. -1.
        -11    1    1    2    0    0  0.50458417345E+02  0.48971712179E+02 -0.14311275820E+03  0.15945388686E+03  0.00000000000E+00 0.  1.
         11    1    1    2    0    0 -0.22419915870E+01 -0.30445146658E+02 -0.66379611941E+02  0.73062893200E+02  0.00000000000E+00 0. -1.
<mgrwt>
<rscale>  0 0.12568992E+03</rscale>
<asrwt>0</asrwt>
<pdfrwt beam="2">  1        1 0.94694173E-01 0.13524794E+03</pdfrwt>
<pdfrwt beam="1">  1       -1 0.35544423E-02 0.13524794E+03</pdfrwt>
<totfact> 0.95158063E+03</totfact>
</mgrwt>
</event>
<event>
 7    1  0.6008063E-006  0.1316796E+03  0.7546771E-02  0.1239334E+00
         -2   -1    0    0    0  501 -0.00000000000E+00  0.00000000000E+00  0.21380983488E+02  0.21380983488E+02  0.00000000000E+00 0.  1.
          2   -1    0    0  501    0  0.00000000000E+00 -0.00000000000E+00 -0.90895279438E+03  0.90895279438E+03  0.00000000000E+00 0. -1.
         23    2    1    2    0    0  0.28311071626E+02  0.30245422379E+02 -0.74967201175E+03  0.76114889376E+03  0.12499284345E+03 0.  0.
          5    1    3    3  502    0  0.96280279115E+01 -0.48833040433E+02 -0.26099036126E+03  0.26573562695E+03  0.47000000000E+01 0. -1.
         -5    1    3    3    0  502  0.18683043714E+02  0.79078462812E+02 -0.48868165049E+03  0.49541326681E+03  0.47000000000E+01 0. -1.
        -11    1    1    2    0    0 -0.11785783577E+02 -0.42217369863E+02 -0.14179078556E+03  0.14841104366E+03  0.00000000000E+00 0. -1.
         11    1    1    2    0    0 -0.16525288049E+02  0.11971947484E+02  0.38909864139E+01  0.20773840447E+02  0.00000000000E+00 0.  1.
<mgrwt>
<rscale>  0 0.12231037E+03</rscale>
<asrwt>0</asrwt>
<pdfrwt beam="2">  1        2 0.13983889E+00 0.13167959E+03</pdfrwt>
<pdfrwt beam="1">  1       -2 0.32893821E-02 0.13167959E+03</pdfrwt>
<totfact> 0.10615404E+04</totfact>
</mgrwt>
</event>
<event>
 7    1  0.6008063E-006  0.1477209E+03  0.7546771E-02  0.1214550E+00
          1   -1    0    0  501    0  0.00000000000E+00  0.00000000000E+00  0.42119442840E+03  0.42119442840E+03  0.00000000000E+00 0. -1.
         -1   -1    0    0    0  501 -0.00000000000E+00 -0.00000000000E+00 -0.41640353918E+02  0.41640353918E+02  0.00000000000E+00 0.  1.
         23    2    1    2    0    0 -0.58774008644E+02  0.52368899058E+02  0.19220487727E+03  0.24241321691E+03  0.12499826880E+03 0.  0.
          5    1    3    3  502    0 -0.70074014526E+02  0.84802375131E+02  0.12349434128E+03  0.16545317364E+03  0.47000000000E+01 0.  1.
         -5    1    3    3    0  502  0.11300005882E+02 -0.32433476073E+02  0.68710535991E+02  0.76960043265E+02  0.47000000000E+01 0.  1.
        -11    1    1    2    0    0  0.36280678226E+02 -0.22913429630E+02  0.17673525447E+03  0.18186990691E+03  0.00000000000E+00 0. -1.
         11    1    1    2    0    0  0.22493330418E+02 -0.29455469428E+02  0.10613942747E+02  0.38551658501E+02  0.00000000000E+00 0.  1.
<mgrwt>
<rscale>  0 0.13909661E+03</rscale>
<asrwt>0</asrwt>
<pdfrwt beam="1">  1        1 0.64799140E-01 0.14772086E+03</pdfrwt>
<pdfrwt beam="2">  1       -1 0.64062086E-02 0.14772086E+03</pdfrwt>
<totfact> 0.65922413E+03</totfact>
</mgrwt>
</event>
<event>
 6    1  0.6008063E-006  0.3464125E+03  0.7546771E-02  0.1076820E+00
          2   -1    0    0  501    0  0.00000000000E+00  0.00000000000E+00  0.19654254857E+04  0.19654254857E+04  0.00000000000E+00 0. -1.
         -2   -1    0    0    0  501 -0.00000000000E+00 -0.00000000000E+00 -0.51613740671E+02  0.51613740671E+02  0.00000000000E+00 0.  1.
          5    1    1    2  502    0  0.38861410563E+02 -0.58173403696E+02  0.11030027993E+04  0.11052292158E+04  0.47000000000E+01 0. -1.
         -5    1    1    2    0  502 -0.35762802101E+02 -0.16775820296E+03  0.36840291558E+03  0.40640446710E+03  0.47000000000E+01 0.  1.
        -11    1    1    2    0    0 -0.26981822036E+02  0.21267210715E+03  0.36473744733E+03  0.42307310168E+03  0.00000000000E+00 0.  1.
         11    1    1    2    0    0  0.23883213575E+02  0.13259499511E+02  0.77668582780E+02  0.82332441777E+02  0.00000000000E+00 0. -1.
<mgrwt>
<rscale>  0 0.31746990E+03</rscale>
<asrwt>0</asrwt>
<pdfrwt beam="1">  1        2 0.30237309E+00 0.34641249E+03</pdfrwt>
<pdfrwt beam="2">  1       -2 0.79405770E-02 0.34641249E+03</pdfrwt>
<totfact> 0.73473613E+02</totfact>
</mgrwt>
</event>
<event>
 6    1  0.6008063E-006  0.1677046E+03  0.7546771E-02  0.1249290E+00
          2   -1    0    0  501    0  0.00000000000E+00  0.00000000000E+00  0.46105045635E+02  0.46105045635E+02  0.00000000000E+00 0. -1.
         -2   -1    0    0    0  501 -0.00000000000E+00 -0.00000000000E+00 -0.23891177243E+03  0.23891177243E+03  0.00000000000E+00 0.  1.
          5    1    1    2  502    0  0.24720500043E+02  0.60675762688E+02 -0.25821964072E+02  0.70579849311E+02  0.47000000000E+01 0. -1.
         -5    1    1    2    0  502 -0.43713340409E+02 -0.84294669334E+02 -0.10870728799E+03  0.14441541424E+03  0.47000000000E+01 0.  1.
        -11    1    1    2    0    0  0.76135491089E+01  0.26076723726E+02 -0.41509389791E+02  0.49608377228E+02  0.00000000000E+00 0. -1.
         11    1    1    2    0    0  0.11379291257E+02 -0.24578170803E+01 -0.16768084941E+02  0.20413177286E+02  0.00000000000E+00 0.  1.
<mgrwt>
<rscale>  0 0.11632260E+03</rscale>
<asrwt>0</asrwt>
<pdfrwt beam="1">  1        2 0.70930839E-02 0.16770463E+03</pdfrwt>
<pdfrwt beam="2">  1       -2 0.36755658E-01 0.16770463E+03</pdfrwt>
<totfact> 0.66793399E+03</totfact>
</mgrwt>
</event>
<event>
 7    1  0.6008063E-006  0.1522046E+03  0.7546771E-02  0.1205732E+00
         -2   -1    0    0    0  501 -0.00000000000E+00  0.00000000000E+00  0.42352250635E+03  0.42352250635E+03  0.00000000000E+00 0. -1.
          2   -1    0    0  501    0  0.00000000000E+00 -0.00000000000E+00 -0.47712879321E+02  0.47712879321E+02  0.00000000000E+00 0.  1.
         23    2    1    2    0    0  0.23369831673E+02  0.83630867418E+02  0.16459771598E+03  0.22418440109E+03  0.12500386622E+03 0.  0.
          5    1    3    3  502    0 -0.45500194606E+02  0.28132822270E+02  0.25907707865E+02  0.59624011311E+02  0.47000000000E+01 0.  1.
         -5    1    3    3    0  502  0.68870026279E+02  0.55498045148E+02  0.13869000811E+03  0.16456038978E+03  0.47000000000E+01 0.  1.
        -11    1    1    2    0    0 -0.45664714692E+02 -0.93257662534E+02  0.17333906912E+03  0.20206110628E+03  0.00000000000E+00 0.  1.
         11    1    1    2    0    0  0.22294883019E+02  0.96267951153E+01  0.37872841933E+02  0.44989878297E+02  0.00000000000E+00 0. -1.
<mgrwt>
<rscale>  0 0.14579907E+03</rscale>
<asrwt>0</asrwt>
<pdfrwt beam="2">  1        2 0.73404433E-02 0.15220459E+03</pdfrwt>
<pdfrwt beam="1">  1       -2 0.65157306E-01 0.15220459E+03</pdfrwt>
<totfact> 0.20482157E+03</totfact>
</mgrwt>
</event>
<event>
 6    1  0.6008063E-006  0.1722013E+03  0.7546771E-02  0.1194134E+00
         -2   -1    0    0    0  501 -0.00000000000E+00  0.00000000000E+00  0.11186355531E+03  0.11186355531E+03  0.00000000000E+00 0.  1.
          2   -1    0    0  501    0  0.00000000000E+00 -0.00000000000E+00 -0.20583127118E+03  0.20583127118E+03  0.00000000000E+00 0. -1.
          5    1    1    2  502    0 -0.97603905533E+02 -0.49847257268E+02 -0.99191839620E+02  0.14789314548E+03  0.47000000000E+01 0. -1.
         -5    1    1    2    0  502  0.54278583039E+02 -0.15522470598E+01 -0.83748367723E+01  0.55143466871E+02  0.47000000000E+01 0.  1.
        -11    1    1    2    0    0  0.44379783361E+01  0.65314293815E+02 -0.11297987418E+02  0.66432651219E+02  0.00000000000E+00 0.  1.
         11    1    1    2    0    0  0.38887344158E+02 -0.13914789487E+02  0.24896947947E+02  0.48225562923E+02  0.00000000000E+00 0. -1.
<mgrwt>
<rscale>  0 0.15527784E+03</rscale>
<asrwt>0</asrwt>
<pdfrwt beam="2">  1        2 0.31666349E-01 0.17220127E+03</pdfrwt>
<pdfrwt beam="1">  1       -2 0.17209778E-01 0.17220127E+03</pdfrwt>
<totfact> 0.43617503E+03</totfact>
</mgrwt>
</event>
<event>
 7    1  0.6008063E-006  0.1487965E+03  0.7546771E-02  0.1209831E+00
          2   -1    0    0  501    0  0.00000000000E+00  0.00000000000E+00  0.43060479391E+03  0.43060479391E+03  0.00000000000E+00 0. -1.
         -2   -1    0    0    0  501 -0.00000000000E+00 -0.00000000000E+00 -0.47398115454E+02  0.47398115454E+02  0.00000000000E+00 0.  1.
         23    2    1    2    0    0 -0.73852266510E+02 -0.32584828787E+02  0.27285927718E+03  0.31079345362E+03  0.12499782930E+03 0.  0.
          5    1    3    3  502    0 -0.62240938097E+02 -0.69576859443E+02  0.24662776459E+03  0.26374650332E+03  0.47000000000E+01 0. -1.
         -5    1    3    3    0  502 -0.11611328414E+02  0.36992030656E+02  0.26231512591E+02  0.47046950298E+02  0.47000000000E+01 0. -1.
        -11    1    1    2    0    0  0.89980114031E+02  0.43410945311E+02  0.68674060764E+02  0.12123142215E+03  0.00000000000E+00 0.  1.
         11    1    1    2    0    0 -0.16127847520E+02 -0.10826116523E+02  0.41673340508E+02  0.45978033600E+02  0.00000000000E+00 0. -1.
<mgrwt>
<rscale>  0 0.14263177E+03</rscale>
<asrwt>0</asrwt>
<pdfrwt beam="1">  1        2 0.66246889E-01 0.14879646E+03</pdfrwt>
<pdfrwt beam="2">  1       -2 0.72920181E-02 0.14879646E+03</pdfrwt>
<totfact> 0.77262143E+03</totfact>
</mgrwt>
</event>
<event>
 7    1  0.6008063E-006  0.1401761E+03  0.7546771E-02  0.1223768E+00
         -1   -1    0    0    0  501 -0.00000000000E+00  0.00000000000E+00  0.91586269312E+02  0.91586269312E+02  0.00000000000E+00 0.  1.
          1   -1    0    0  501    0  0.00000000000E+00 -0.00000000000E+00 -0.17371034522E+03  0.17371034522E+03  0.00000000000E+00 0. -1.
         23    2    1    2    0    0  0.15253628921E+02 -0.61572794108E+02 -0.41419250984E+02  0.14616735837E+03  0.12500184051E+03 0.  0.
          5    1    3    3  502    0 -0.51999697372E+02 -0.48936927546E+02 -0.19782484416E+02  0.74244380892E+02  0.47000000000E+01 0.  1.
         -5    1    3    3    0  502  0.67253326293E+02 -0.12635866563E+02 -0.21636766568E+02  0.71922977474E+02  0.47000000000E+01 0.  1.
        -11    1    1    2    0    0  0.33039744683E+01 -0.16878678034E+02 -0.34162612026E+02  0.38247746076E+02  0.00000000000E+00 0. -1.
         11    1    1    2    0    0 -0.18557603389E+02  0.78451472143E+02 -0.65422128989E+01  0.80881510090E+02  0.00000000000E+00 0.  1.
<mgrwt>
<rscale>  0 0.13251670E+03</rscale>
<asrwt>0</asrwt>
<pdfrwt beam="2">  1        1 0.26724669E-01 0.14017611E+03</pdfrwt>
<pdfrwt beam="1">  1       -1 0.14090195E-01 0.14017611E+03</pdfrwt>
<totfact> 0.59517534E+03</totfact>
</mgrwt>
</event>
<event>
 7    1  0.6008063E-006  0.2108367E+03  0.7546771E-02  0.1145173E+00
         -1   -1    0    0    0  501 -0.00000000000E+00  0.00000000000E+00  0.43912289563E+02  0.43912289563E+02  0.00000000000E+00 0.  1.
          1   -1    0    0  501    0  0.00000000000E+00 -0.00000000000E+00 -0.10606187721E+04  0.10606187721E+04  0.00000000000E+00 0. -1.
         23    2    1    2    0    0 -0.10760775003E+03 -0.13132871723E+03 -0.73439659805E+03  0.76406183615E+03  0.12500186553E+03 0.  0.
          5    1    3    3  502    0 -0.71990738447E+02 -0.14122472275E+03 -0.67917214611E+03  0.69744102460E+03  0.47000000000E+01 0. -1.
         -5    1    3    3    0  502 -0.35617011579E+02  0.98960055187E+01 -0.55224451939E+02  0.66620811546E+02  0.47000000000E+01 0. -1.
        -11    1    1    2    0    0 -0.11405428877E+02  0.29610383153E+02 -0.30855243388E+02  0.44259514716E+02  0.00000000000E+00 0.  1.
         11    1    1    2    0    0  0.11901317890E+03  0.10171833408E+03 -0.25145464105E+03  0.29620971076E+03  0.00000000000E+00 0. -1.
<mgrwt>
<rscale>  0 0.20550808E+03</rscale>
<asrwt>0</asrwt>
<pdfrwt beam="2">  1        1 0.16317210E+00 0.21083673E+03</pdfrwt>
<pdfrwt beam="1">  1       -1 0.67557376E-02 0.21083673E+03</pdfrwt>
<totfact> 0.16073891E+03</totfact>
</mgrwt>
</event>
<event>
 7    1  0.6008063E-006  0.1339304E+03  0.7546771E-02  0.1235746E+00
          1   -1    0    0  501    0  0.00000000000E+00  0.00000000000E+00  0.30492779964E+02  0.30492779964E+02  0.00000000000E+00 0. -1.
         -1   -1    0    0    0  501 -0.00000000000E+00 -0.00000000000E+00 -0.66502057846E+03  0.66502057846E+03  0.00000000000E+00 0.  1.
         23    2    1    2    0    0  0.44018485183E+02 -0.19341690972E+02 -0.15156566350E+03  0.20226100773E+03  0.12500254737E+03 0.  0.
          5    1    3    3  502    0  0.17691676847E+02  0.11238822299E+02 -0.15943988829E+03  0.16088031121E+03  0.47000000000E+01 0. -1.
         -5    1    3    3    0  502  0.26326808336E+02 -0.30580513271E+02  0.78742247896E+01  0.41380696527E+02  0.47000000000E+01 0. -1.
        -11    1    1    2    0    0 -0.61535257422E+02 -0.13068205620E+02 -0.32723231230E+03  0.33322417697E+03  0.00000000000E+00 0.  1.
         11    1    1    2    0    0  0.17516772239E+02  0.32409896592E+02 -0.15572982270E+03  0.16002817372E+03  0.00000000000E+00 0. -1.
<mgrwt>
<rscale>  0 0.12456777E+03</rscale>
<asrwt>0</asrwt>
<pdfrwt beam="1">  1        1 0.46911975E-02 0.13393045E+03</pdfrwt>
<pdfrwt beam="2">  1       -1 0.10231085E+00 0.13393045E+03</pdfrwt>
<totfact> 0.16954728E+03</totfact>
</mgrwt>
</event>
<event>
 7    1  0.6008063E-006  0.1443728E+03  0.7546771E-02  0.1222603E+00
         -1   -1    0    0    0  501 -0.00000000000E+00  0.00000000000E+00  0.38528934090E+02  0.38528934090E+02  0.00000000000E+00 0.  1.
          1   -1    0    0  501    0  0.00000000000E+00 -0.00000000000E+00 -0.41308515865E+03  0.41308515865E+03  0.00000000000E+00 0. -1.
         23    2    1    2    0    0 -0.63014640211E+02 -0.35296509472E+02 -0.25010649172E+03  0.28878496985E+03  0.12500725238E+03 0.  0.
          5    1    3    3  502    0 -0.65973392127E+02  0.34332592177E+02 -0.12986646353E+03  0.14972843319E+03  0.47000000000E+01 0. -1.
         -5    1    3    3    0  502  0.29587519164E+01 -0.69629101649E+02 -0.12024002818E+03  0.13905653666E+03  0.47000000000E+01 0. -1.
        -11    1    1    2    0    0 -0.17770024905E+01 -0.19826834542E+02 -0.25111333054E+02  0.32044346670E+02  0.00000000000E+00 0.  1.
         11    1    1    2    0    0  0.64791642701E+02  0.55123344014E+02 -0.99338399787E+02  0.13078477622E+03  0.00000000000E+00 0. -1.
<mgrwt>
<rscale>  0 0.13332581E+03</rscale>
<asrwt>0</asrwt>
<pdfrwt beam="2">  1        1 0.63551562E-01 0.14437279E+03</pdfrwt>
<pdfrwt beam="1">  1       -1 0.59275284E-02 0.14437279E+03</pdfrwt>
<totfact> 0.75776309E+03</totfact>
</mgrwt>
</event>
<event>
 7    1  0.6008063E-006  0.1479649E+03  0.7546771E-02  0.1212447E+00
         -2   -1    0    0    0  501 -0.00000000000E+00  0.00000000000E+00  0.21695265269E+02  0.21695265269E+02  0.00000000000E+00 0.  1.
          2   -1    0    0  501    0  0.00000000000E+00 -0.00000000000E+00 -0.85793353885E+03  0.85793353885E+03  0.00000000000E+00 0. -1.
         23    2    1    2    0    0 -0.15677563185E+02  0.77615673048E+02 -0.53433169090E+03  0.55444021845E+03  0.12499448484E+03 0.  0.
          5    1    3    3  502    0  0.22848431694E+02  0.57717086139E+02 -0.99114955184E+02  0.11704348425E+03  0.47000000000E+01 0.  1.
         -5    1    3    3    0  502 -0.38525994878E+02  0.19898586909E+02 -0.43521673572E+03  0.43739673420E+03  0.47000000000E+01 0.  1.
        -11    1    1    2    0    0 -0.24272598072E+02 -0.36492654576E+02 -0.22518878611E+03  0.22941417184E+03  0.00000000000E+00 0. -1.
         11    1    1    2    0    0  0.39950161256E+02 -0.41123018472E+02 -0.76717796573E+02  0.95774413826E+02  0.00000000000E+00 0.  1.
<mgrwt>
<rscale>  0 0.14065759E+03</rscale>
<asrwt>0</asrwt>
<pdfrwt beam="2">  1        2 0.13198976E+00 0.14796486E+03</pdfrwt>
<pdfrwt beam="1">  1       -2 0.33377336E-02 0.14796486E+03</pdfrwt>
<totfact> 0.11275635E+04</totfact>
</mgrwt>
</event>
<event>
 7    1  0.6008063E-006  0.1987245E+03  0.7546771E-02  0.1155134E+00
         -4   -1    0    0    0  501 -0.00000000000E+00  0.00000000000E+00  0.84759009062E+02  0.84759009062E+02  0.00000000000E+00 0. -1.
          4   -1    0    0  501    0  0.00000000000E+00 -0.00000000000E+00 -0.42546406961E+03  0.42546406961E+03  0.00000000000E+00 0.  1.
         23    2    1    2    0    0 -0.15178044808E+03  0.28772674475E+02 -0.15583996319E+03  0.25254211651E+03  0.12500502098E+03 0.  0.
          5    1    3    3  502    0 -0.40771599788E+01 -0.11134037199E+02 -0.81284934863E+02  0.82279527548E+02  0.47000000000E+01 0. -1.
         -5    1    3    3    0  502 -0.14770328810E+03  0.39906711673E+02 -0.74555028324E+02  0.17026258896E+03  0.47000000000E+01 0. -1.
        -11    1    1    2    0    0  0.55477522863E+02 -0.39383950345E+00 -0.13421792025E+03  0.14523209276E+03  0.00000000000E+00 0.  1.
         11    1    1    2    0    0  0.96302925217E+02 -0.28378834971E+02 -0.50647177118E+02  0.11244886940E+03  0.00000000000E+00 0. -1.
<mgrwt>
<rscale>  0 0.19373658E+03</rscale>
<asrwt>0</asrwt>
<pdfrwt beam="2">  1        4 0.65456010E-01 0.19872450E+03</pdfrwt>
<pdfrwt beam="1">  1       -4 0.13039848E-01 0.19872450E+03</pdfrwt>
<totfact> 0.18847267E+02</totfact>
</mgrwt>
</event>
<event>
 7    1  0.6008063E-006  0.1373711E+03  0.7546771E-02  0.1228737E+00
         -1   -1    0    0    0  501 -0.00000000000E+00  0.00000000000E+00  0.50806518138E+02  0.50806518138E+02  0.00000000000E+00 0.  1.
          1   -1    0    0  501    0  0.00000000000E+00 -0.00000000000E+00 -0.40735326834E+03  0.40735326834E+03  0.00000000000E+00 0. -1.
         23    2    1    2    0    0  0.50247458492E+02  0.26828302211E+02 -0.31401158445E+03  0.34274493781E+03  0.12500500928E+03 0.  0.
          5    1    3    3  502    0 -0.34383015371E+02 -0.14457339501E+02 -0.13852209810E+03  0.14353281184E+03  0.47000000000E+01 0. -1.
         -5    1    3    3    0  502  0.84630473863E+02  0.41285641712E+02 -0.17548948635E+03  0.19921212598E+03  0.47000000000E+01 0. -1.
        -11    1    1    2    0    0 -0.49709070263E+02  0.24429284351E+02 -0.28384373671E+02  0.62237081141E+02  0.00000000000E+00 0. -1.
         11    1    1    2    0    0 -0.53838822972E+00 -0.51257586562E+02 -0.14150792082E+02  0.53177767522E+02  0.00000000000E+00 0.  1.
<mgrwt>
<rscale>  0 0.12914045E+03</rscale>
<asrwt>0</asrwt>
<pdfrwt beam="2">  1        1 0.62669735E-01 0.13737109E+03</pdfrwt>
<pdfrwt beam="1">  1       -1 0.78163872E-02 0.13737109E+03</pdfrwt>
<totfact> 0.50800778E+03</totfact>
</mgrwt>
</event>
<event>
 7    1  0.6008063E-006  0.1387888E+03  0.7546771E-02  0.1229496E+00
          1   -1    0    0  501    0  0.00000000000E+00  0.00000000000E+00  0.71794109367E+03  0.71794109367E+03  0.00000000000E+00 0. -1.
         -1   -1    0    0    0  501 -0.00000000000E+00 -0.00000000000E+00 -0.53322313462E+02  0.53322313462E+02  0.00000000000E+00 0.  1.
         23    2    1    2    0    0  0.47657363909E+02  0.37065558353E+02  0.65369625730E+03  0.66826725052E+03  0.12496896158E+03 0.  0.
          5    1    3    3  502    0  0.75023137479E+02  0.45847562530E+02  0.60614697751E+03  0.61250854565E+03  0.47000000000E+01 0. -1.
         -5    1    3    3    0  502 -0.27365773570E+02 -0.87820041773E+01  0.47549279793E+02  0.55758704875E+02  0.47000000000E+01 0. -1.
        -11    1    1    2    0    0  0.83674536254E+01  0.79091600625E+01 -0.21334579494E+02  0.24243212973E+02  0.00000000000E+00 0.  1.
         11    1    1    2    0    0 -0.56024817534E+02 -0.44974718416E+02  0.32257102398E+02  0.78752943637E+02  0.00000000000E+00 0. -1.
<mgrwt>
<rscale>  0 0.12863437E+03</rscale>
<asrwt>0</asrwt>
<pdfrwt beam="1">  1        1 0.11045247E+00 0.13878877E+03</pdfrwt>
<pdfrwt beam="2">  1       -1 0.82034334E-02 0.13878877E+03</pdfrwt>
<totfact> 0.22162877E+03</totfact>
</mgrwt>
</event>
<event>
 7    1  0.6008063E-006  0.1306921E+03  0.7546771E-02  0.1239859E+00
         -1   -1    0    0    0  501 -0.00000000000E+00  0.00000000000E+00  0.33825521362E+02  0.33825521362E+02  0.00000000000E+00 0.  1.
          1   -1    0    0  501    0  0.00000000000E+00 -0.00000000000E+00 -0.53965606832E+03  0.53965606832E+03  0.00000000000E+00 0. -1.
         23    2    1    2    0    0  0.86249556363E+01 -0.37154308478E+02 -0.42768218103E+03  0.44720518471E+03  0.12500238705E+03 0.  0.
          5    1    3    3  502    0  0.36148237545E+02  0.19545501074E+02 -0.31750219834E+03  0.32018503657E+03  0.47000000000E+01 0. -1.
         -5    1    3    3    0  502 -0.27523281909E+02 -0.56699809552E+02 -0.11017998269E+03  0.12702014815E+03  0.47000000000E+01 0. -1.
        -11    1    1    2    0    0 -0.22549639295E+02  0.21282859619E+02 -0.94572951825E+02  0.99526325979E+02  0.00000000000E+00 0. -1.
         11    1    1    2    0    0  0.13924683659E+02  0.15871448859E+02  0.16424585898E+02  0.26750078987E+02  0.00000000000E+00 0.  1.
<mgrwt>
<rscale>  0 0.12198418E+03</rscale>
<asrwt>0</asrwt>
<pdfrwt beam="2">  1        1 0.83024013E-01 0.13069212E+03</pdfrwt>
<pdfrwt beam="1">  1       -1 0.52039262E-02 0.13069212E+03</pdfrwt>
<totfact> 0.64694368E+03</totfact>
</mgrwt>
</event>
<event>
 7    1  0.6008063E-006  0.1792479E+03  0.7546771E-02  0.1174472E+00
          1   -1    0    0  501    0  0.00000000000E+00  0.00000000000E+00  0.72525940042E+03  0.72525940042E+03  0.00000000000E+00 0. -1.
         -1   -1    0    0    0  501 -0.00000000000E+00 -0.00000000000E+00 -0.46108421743E+02  0.46108421743E+02  0.00000000000E+00 0.  1.
         23    2    1    2    0    0  0.12685122225E+03  0.20361331965E+02  0.51150270619E+03  0.54200075736E+03  0.12499594437E+03 0.  0.
          5    1    3    3  502    0  0.43577675820E+02 -0.31819189447E+02  0.33996117995E+03  0.34424870155E+03  0.47000000000E+01 0.  1.
         -5    1    3    3    0  502  0.83273546433E+02  0.52180521412E+02  0.17154152624E+03  0.19775205581E+03  0.47000000000E+01 0.  1.
        -11    1    1    2    0    0  0.10176159489E+02 -0.70815387940E+00  0.39264231499E+02  0.40567666670E+02  0.00000000000E+00 0.  1.
         11    1    1    2    0    0 -0.13702738174E+03 -0.19653178085E+02  0.12838404098E+03  0.18879939813E+03  0.00000000000E+00 0. -1.
<mgrwt>
<rscale>  0 0.17327807E+03</rscale>
<asrwt>0</asrwt>
<pdfrwt beam="1">  1        1 0.11157836E+00 0.17924788E+03</pdfrwt>
<pdfrwt beam="2">  1       -1 0.70936039E-02 0.17924788E+03</pdfrwt>
<totfact> 0.27379132E+03</totfact>
</mgrwt>
</event>
<event>
 7    1  0.6008063E-006  0.1254867E+03  0.7546771E-02  0.1259208E+00
          1   -1    0    0  501    0  0.00000000000E+00  0.00000000000E+00  0.10940158047E+04  0.10940158047E+04  0.00000000000E+00 0. -1.
         -1   -1    0    0    0  501 -0.00000000000E+00 -0.00000000000E+00 -0.11622476430E+02  0.11622476430E+02  0.00000000000E+00 0.  1.
         23    2    1    2    0    0 -0.50465970790E+00 -0.10965411894E+02  0.88895120924E+03  0.89776453175E+03  0.12500562835E+03 0.  0.
          5    1    3    3  502    0 -0.35405856596E+02  0.83854782438E+01  0.79155627780E+03  0.79240603345E+03  0.47000000000E+01 0.  1.
         -5    1    3    3    0  502  0.34901196888E+02 -0.19350890138E+02  0.97394931449E+02  0.10535849831E+03  0.47000000000E+01 0.  1.
        -11    1    1    2    0    0 -0.33716118704E+02 -0.50619927882E+01  0.58193888971E+02  0.67445749644E+02  0.00000000000E+00 0.  1.
         11    1    1    2    0    0  0.34220778412E+02  0.16027404682E+02  0.13524823003E+03  0.14042799971E+03  0.00000000000E+00 0. -1.
<mgrwt>
<rscale>  0 0.11073844E+03</rscale>
<asrwt>0</asrwt>
<pdfrwt beam="1">  1        1 0.16831004E+00 0.12548666E+03</pdfrwt>
<pdfrwt beam="2">  1       -1 0.17880742E-02 0.12548666E+03</pdfrwt>
<totfact> 0.10579801E+04</totfact>
</mgrwt>
</event>
<event>
 7    1  0.6008063E-006  0.1338365E+03  0.7546771E-02  0.1234892E+00
          4   -1    0    0  501    0  0.00000000000E+00  0.00000000000E+00  0.92078231783E+02  0.92078231783E+02  0.00000000000E+00 0. -1.
         -4   -1    0    0    0  501 -0.00000000000E+00 -0.00000000000E+00 -0.15418913389E+03  0.15418913389E+03  0.00000000000E+00 0.  1.
         23    2    1    2    0    0  0.26964422657E+01 -0.47744080980E+02 -0.18371583885E+02  0.13509150735E+03  0.12500172877E+03 0.  0.
          5    1    3    3  502    0 -0.59628874354E+02 -0.34609305271E+02 -0.17199755708E+02  0.71213259050E+02  0.47000000000E+01 0.  1.
         -5    1    3    3    0  502  0.62325316620E+02 -0.13134775708E+02 -0.11718281767E+01  0.63878248301E+02  0.47000000000E+01 0.  1.
        -11    1    1    2    0    0 -0.56216403958E+01  0.10615750458E+02  0.27932018379E+02  0.30405503601E+02  0.00000000000E+00 0. -1.
         11    1    1    2    0    0  0.29251981301E+01  0.37128330521E+02 -0.71671336602E+02  0.80770354721E+02  0.00000000000E+00 0.  1.
<mgrwt>
<rscale>  0 0.12511360E+03</rscale>
<asrwt>0</asrwt>
<pdfrwt beam="1">  1        4 0.14165882E-01 0.13383647E+03</pdfrwt>
<pdfrwt beam="2">  1       -4 0.23721405E-01 0.13383647E+03</pdfrwt>
<totfact> 0.11315778E+03</totfact>
</mgrwt>
</event>
<event>
 7    1  0.6008063E-006  0.1596727E+03  0.7546771E-02  0.1196090E+00
          1   -1    0    0  501    0  0.00000000000E+00  0.00000000000E+00  0.89354816071E+03  0.89354816071E+03  0.00000000000E+00 0. -1.
         -1   -1    0    0    0  501 -0.00000000000E+00 -0.00000000000E+00 -0.27716756098E+02  0.27716756098E+02  0.00000000000E+00 0.  1.
         23    2    1    2    0    0 -0.19119556719E+02 -0.99550737102E+02  0.61672531768E+03  0.63706003237E+03  0.12336717823E+03 0.  0.
          5    1    3    3  502    0 -0.53389002581E+02 -0.46101607714E+02  0.49171951217E+03  0.49677551518E+03  0.47000000000E+01 0. -1.
         -5    1    3    3    0  502  0.34269445862E+02 -0.53449129388E+02  0.12500580551E+03  0.14028451719E+03  0.47000000000E+01 0.  1.
        -11    1    1    2    0    0 -0.66738731760E+01  0.10813390464E+03  0.21342290974E+03  0.23934665303E+03  0.00000000000E+00 0. -1.
         11    1    1    2    0    0  0.25793429895E+02 -0.85831675344E+01  0.35683177181E+02  0.44858231401E+02  0.00000000000E+00 0.  1.
<mgrwt>
<rscale>  0 0.15362329E+03</rscale>
<asrwt>0</asrwt>
<pdfrwt beam="1">  1        1 0.13746893E+00 0.15967269E+03</pdfrwt>
<pdfrwt beam="2">  1       -1 0.42641170E-02 0.15967269E+03</pdfrwt>
<totfact> 0.42435494E+03</totfact>
</mgrwt>
</event>
<event>
 7    1  0.6008063E-006  0.1352498E+03  0.7546771E-02  0.1231533E+00
         -3   -1    0    0    0  501 -0.00000000000E+00  0.00000000000E+00  0.64671602868E+02  0.64671602868E+02  0.00000000000E+00 0.  1.
          3   -1    0    0  501    0  0.00000000000E+00 -0.00000000000E+00 -0.27404222006E+03  0.27404222006E+03  0.00000000000E+00 0. -1.
         23    2    1    2    0    0  0.48669779215E+02 -0.17250785105E+02 -0.18613910304E+03  0.23008755262E+03  0.12500471668E+03 0.  0.
          5    1    3    3  502    0  0.58436483339E+02  0.43573103363E+02 -0.10985615948E+03  0.13192385568E+03  0.47000000000E+01 0. -1.
         -5    1    3    3    0  502 -0.97667041243E+01 -0.60823888468E+02 -0.76282943567E+02  0.98163696941E+02  0.47000000000E+01 0. -1.
        -11    1    1    2    0    0 -0.83713591948E+01 -0.34639133787E+02  0.69785954623E+01  0.36313221269E+02  0.00000000000E+00 0. -1.
         11    1    1    2    0    0 -0.40298420020E+02  0.51889918892E+02 -0.30210109607E+02  0.72313049038E+02  0.00000000000E+00 0.  1.
<mgrwt>
<rscale>  0 0.12729011E+03</rscale>
<asrwt>0</asrwt>
<pdfrwt beam="2">  1        3 0.42160342E-01 0.13524983E+03</pdfrwt>
<pdfrwt beam="1">  1       -3 0.99494773E-02 0.13524983E+03</pdfrwt>
<totfact> 0.96183099E+02</totfact>
</mgrwt>
</event>
<event>
 7    1  0.6008063E-006  0.1253412E+03  0.7546771E-02  0.1250252E+00
         -2   -1    0    0    0  501 -0.00000000000E+00  0.00000000000E+00  0.16272196367E+02  0.16272196367E+02  0.00000000000E+00 0.  1.
          2   -1    0    0  501    0  0.00000000000E+00 -0.00000000000E+00 -0.72489029242E+03  0.72489029242E+03  0.00000000000E+00 0. -1.
         23    2    1    2    0    0 -0.58911278847E+01 -0.71163892188E+01 -0.43848604001E+03  0.45604870869E+03  0.12500027613E+03 0.  0.
          5    1    3    3  502    0  0.14874233871E+02 -0.55967922593E+02 -0.33119299546E+03  0.33625071217E+03  0.47000000000E+01 0.  1.
         -5    1    3    3    0  502 -0.20765361756E+02  0.48851533375E+02 -0.10729304455E+03  0.11979799652E+03  0.47000000000E+01 0.  1.
        -11    1    1    2    0    0 -0.23275380908E+02 -0.33737659323E+02 -0.11834739228E+03  0.12524407480E+03  0.00000000000E+00 0.  1.
         11    1    1    2    0    0  0.29166508792E+02  0.40854048542E+02 -0.15178466376E+03  0.15986970529E+03  0.00000000000E+00 0. -1.
<mgrwt>
<rscale>  0 0.11576474E+03</rscale>
<asrwt>0</asrwt>
<pdfrwt beam="2">  1        2 0.11152157E+00 0.12534120E+03</pdfrwt>
<pdfrwt beam="1">  1       -2 0.25034151E-02 0.12534120E+03</pdfrwt>
<totfact> 0.20939738E+04</totfact>
</mgrwt>
</event>
<event>
 7    1  0.6008063E-006  0.1778216E+03  0.7546771E-02  0.1175850E+00
          1   -1    0    0  501    0  0.00000000000E+00  0.00000000000E+00  0.10789895017E+04  0.10789895017E+04  0.00000000000E+00 0. -1.
         -1   -1    0    0    0  501 -0.00000000000E+00 -0.00000000000E+00 -0.27053129406E+02  0.27053129406E+02  0.00000000000E+00 0.  1.
         23    2    1    2    0    0 -0.12601778680E+03  0.10683827067E+02  0.68178949318E+03  0.70459735821E+03  0.12500358968E+03 0.  0.
          5    1    3    3  502    0 -0.52524695646E+02 -0.38622201655E+02  0.12761783969E+03  0.14338382447E+03  0.47000000000E+01 0. -1.
         -5    1    3    3    0  502 -0.73493091150E+02  0.49306028723E+02  0.55417165350E+03  0.56121353374E+03  0.47000000000E+01 0. -1.
        -11    1    1    2    0    0  0.10859398549E+03 -0.19195999796E+02  0.36512310788E+03  0.38141319327E+03  0.00000000000E+00 0. -1.
         11    1    1    2    0    0  0.17423801307E+02  0.85121727288E+01  0.50237712260E+01  0.20032079619E+02  0.00000000000E+00 0.  1.
<mgrwt>
<rscale>  0 0.17193019E+03</rscale>
<asrwt>0</asrwt>
<pdfrwt beam="1">  1        1 0.16599835E+00 0.17782161E+03</pdfrwt>
<pdfrwt beam="2">  1       -1 0.41620207E-02 0.17782161E+03</pdfrwt>
<totfact> 0.32112350E+03</totfact>
</mgrwt>
</event>
<event>
 7    1  0.6008063E-006  0.1708846E+03  0.7546771E-02  0.1183674E+00
          2   -1    0    0  501    0  0.00000000000E+00  0.00000000000E+00  0.14298918271E+04  0.14298918271E+04  0.00000000000E+00 0. -1.
         -2   -1    0    0    0  501 -0.00000000000E+00 -0.00000000000E+00 -0.18209990143E+02  0.18209990143E+02  0.00000000000E+00 0.  1.
         23    2    1    2    0    0 -0.96018360080E+02  0.66024997793E+02  0.88408202701E+03  0.90044576371E+03  0.12499086805E+03 0.  0.
          5    1    3    3  502    0 -0.10640798383E+03  0.27118129024E+01  0.54744889575E+03  0.55772071543E+03  0.47000000000E+01 0. -1.
         -5    1    3    3    0  502  0.10389623751E+02  0.63313184890E+02  0.33663313125E+03  0.34272504828E+03  0.47000000000E+01 0. -1.
        -11    1    1    2    0    0  0.19023930488E+02 -0.12715313274E+01  0.12442134150E+02  0.22766937109E+02  0.00000000000E+00 0.  1.
         11    1    1    2    0    0  0.76994429593E+02 -0.64753466465E+02  0.51515767576E+03  0.52488911639E+03  0.00000000000E+00 0. -1.
<mgrwt>
<rscale>  0 0.16453085E+03</rscale>
<asrwt>0</asrwt>
<pdfrwt beam="1">  1        2 0.21998327E+00 0.17088459E+03</pdfrwt>
<pdfrwt beam="2">  1       -2 0.28015381E-02 0.17088459E+03</pdfrwt>
<totfact> 0.68929024E+03</totfact>
</mgrwt>
</event>
<event>
 6    1  0.6008063E-006  0.4925077E+03  0.7546771E-02  0.1015753E+00
          1   -1    0    0  501    0  0.00000000000E+00  0.00000000000E+00  0.23449277075E+04  0.23449277075E+04  0.00000000000E+00 0. -1.
         -1   -1    0    0    0  501 -0.00000000000E+00 -0.00000000000E+00 -0.25860476876E+02  0.25860476876E+02  0.00000000000E+00 0.  1.
          5    1    1    2  502    0  0.52765444023E+01  0.86901882232E+02  0.21162660739E+04  0.21180613694E+04  0.47000000000E+01 0. -1.
         -5    1    1    2    0  502 -0.13933104854E+02 -0.19231248957E+02  0.83548657153E+02  0.86985288753E+02  0.47000000000E+01 0.  1.
        -11    1    1    2    0    0 -0.75930423816E+01 -0.27034818826E+02 -0.95866947987E+01  0.29672216613E+02  0.00000000000E+00 0.  1.
         11    1    1    2    0    0  0.16249602833E+02 -0.40635814449E+02  0.12883919434E+03  0.13606930957E+03  0.00000000000E+00 0. -1.
<mgrwt>
<rscale>  0 0.49250766E+03</rscale>
<asrwt>0</asrwt>
<pdfrwt beam="1">  1        1 0.36075794E+00 0.49250766E+03</pdfrwt>
<pdfrwt beam="2">  1       -1 0.39785368E-02 0.49250766E+03</pdfrwt>
<totfact> 0.48417271E+02</totfact>
</mgrwt>
</event>
<event>
 7    1  0.6008063E-006  0.1276014E+03  0.7546771E-02  0.1245652E+00
         -2   -1    0    0    0  501 -0.00000000000E+00  0.00000000000E+00  0.25047676604E+03  0.25047676604E+03  0.00000000000E+00 0.  1.
          2   -1    0    0  501    0  0.00000000000E+00 -0.00000000000E+00 -0.50257603394E+02  0.50257603394E+02  0.00000000000E+00 0. -1.
         23    2    1    2    0    0  0.56444997281E+00  0.25621056321E+02  0.94806248019E+02  0.15896651251E+03  0.12500148121E+03 0.  0.
          5    1    3    3  502    0  0.40721665889E+01 -0.18459588019E+02  0.11020008040E+03  0.11190838508E+03  0.47000000000E+01 0. -1.
         -5    1    3    3    0  502 -0.35077166161E+01  0.44080644340E+02 -0.15393832385E+02  0.47058127425E+02  0.47000000000E+01 0. -1.
        -11    1    1    2    0    0 -0.20557760298E+02  0.22156663436E+01  0.10548776217E+03  0.10749510990E+03  0.00000000000E+00 0.  1.
         11    1    1    2    0    0  0.19993310325E+02 -0.27836722665E+02 -0.74847541400E-01  0.34272747025E+02  0.00000000000E+00 0. -1.
<mgrwt>
<rscale>  0 0.11846470E+03</rscale>
<asrwt>0</asrwt>
<pdfrwt beam="2">  1        2 0.77319391E-02 0.12760144E+03</pdfrwt>
<pdfrwt beam="1">  1       -2 0.38534887E-01 0.12760144E+03</pdfrwt>
<totfact> 0.53690574E+03</totfact>
</mgrwt>
</event>
<event>
 7    1  0.6008063E-006  0.1420725E+03  0.7546771E-02  0.1221397E+00
          1   -1    0    0  501    0  0.00000000000E+00  0.00000000000E+00  0.13038872283E+04  0.13038872283E+04  0.00000000000E+00 0. -1.
         -1   -1    0    0    0  501 -0.00000000000E+00 -0.00000000000E+00 -0.12478803406E+02  0.12478803406E+02  0.00000000000E+00 0.  1.
         23    2    1    2    0    0 -0.25003731634E+02 -0.62726773334E+02  0.70764043859E+03  0.72176144695E+03  0.12499904518E+03 0.  0.
          5    1    3    3  502    0 -0.12195604718E+02 -0.20337377428E+01  0.57611362600E+03  0.57626545005E+03  0.47000000000E+01 0.  1.
         -5    1    3    3    0  502 -0.12808126916E+02 -0.60693035591E+02  0.13152681259E+03  0.14549599690E+03  0.47000000000E+01 0.  1.
        -11    1    1    2    0    0  0.59316880865E+02  0.44271213098E+02  0.37652786810E+03  0.38373385063E+03  0.00000000000E+00 0. -1.
         11    1    1    2    0    0 -0.34313149231E+02  0.18455560236E+02  0.20724011817E+03  0.21087073408E+03  0.00000000000E+00 0.  1.
<mgrwt>
<rscale>  0 0.13416971E+03</rscale>
<asrwt>0</asrwt>
<pdfrwt beam="1">  1        1 0.20059793E+00 0.14207250E+03</pdfrwt>
<pdfrwt beam="2">  1       -1 0.19198169E-02 0.14207250E+03</pdfrwt>
<totfact> 0.69030814E+03</totfact>
</mgrwt>
</event>
<event>
 7    1  0.6008063E-006  0.1484765E+03  0.7546771E-02  0.1211794E+00
          1   -1    0    0  501    0  0.00000000000E+00  0.00000000000E+00  0.11615164041E+03  0.11615164041E+03  0.00000000000E+00 0. -1.
         -1   -1    0    0    0  501 -0.00000000000E+00 -0.00000000000E+00 -0.15724841208E+03  0.15724841208E+03  0.00000000000E+00 0.  1.
         23    2    1    2    0    0  0.50677233099E+02 -0.62056866113E+02 -0.31360866516E+02  0.15175234940E+03  0.12500413998E+03 0.  0.
          5    1    3    3  502    0 -0.40979718721E+02 -0.82049572428E+01 -0.80956671653E+01  0.42828594381E+02  0.47000000000E+01 0.  1.
         -5    1    3    3    0  502  0.91656951820E+02 -0.53851908870E+02 -0.23265199351E+02  0.10892375502E+03  0.47000000000E+01 0.  1.
        -11    1    1    2    0    0  0.16940011244E+01  0.54213362798E+02 -0.33342939495E+02  0.63668751832E+02  0.00000000000E+00 0.  1.
         11    1    1    2    0    0 -0.52371234224E+02  0.78435033143E+01  0.23607034349E+02  0.57978951259E+02  0.00000000000E+00 0. -1.
<mgrwt>
<rscale>  0 0.14114660E+03</rscale>
<asrwt>0</asrwt>
<pdfrwt beam="1">  1        1 0.17869483E-01 0.14847650E+03</pdfrwt>
<pdfrwt beam="2">  1       -1 0.24192063E-01 0.14847650E+03</pdfrwt>
<totfact> 0.41932237E+03</totfact>
</mgrwt>
</event>
<event>
 7    1  0.6008063E-006  0.1494454E+03  0.7546771E-02  0.1210440E+00
          1   -1    0    0  501    0  0.00000000000E+00  0.00000000000E+00  0.62727708225E+02  0.62727708225E+02  0.00000000000E+00 0. -1.
         -1   -1    0    0    0  501 -0.00000000000E+00 -0.00000000000E+00 -0.35571065981E+03  0.35571065981E+03  0.00000000000E+00 0.  1.
         23    2    1    2    0    0  0.55666371172E+02 -0.60075687240E+02 -0.72140183510E+02  0.16594615594E+03  0.12500434999E+03 0.  0.
          5    1    3    3  502    0  0.88377332838E+02 -0.65134771969E+02 -0.33563492887E+02  0.11489860545E+03  0.47000000000E+01 0. -1.
         -5    1    3    3    0  502 -0.32710961666E+02  0.50590847289E+01 -0.38576690623E+02  0.51047550488E+02  0.47000000000E+01 0. -1.
        -11    1    1    2    0    0 -0.38499474830E+02  0.84030363022E+02 -0.17671990455E+03  0.19943228459E+03  0.00000000000E+00 0.  1.
         11    1    1    2    0    0 -0.17166896343E+02 -0.23954675782E+02 -0.44122863524E+02  0.53059927510E+02  0.00000000000E+00 0. -1.
<mgrwt>
<rscale>  0 0.14216860E+03</rscale>
<asrwt>0</asrwt>
<pdfrwt beam="1">  1        1 0.96504165E-02 0.14944538E+03</pdfrwt>
<pdfrwt beam="2">  1       -1 0.54724718E-01 0.14944538E+03</pdfrwt>
<totfact> 0.22736840E+03</totfact>
</mgrwt>
</event>
<event>
 7    1  0.6008063E-006  0.2757143E+03  0.7546771E-02  0.1099997E+00
         -2   -1    0    0    0  501 -0.00000000000E+00  0.00000000000E+00  0.22892947268E+03  0.22892947268E+03  0.00000000000E+00 0. -1.
          2   -1    0    0  501    0  0.00000000000E+00 -0.00000000000E+00 -0.33534312111E+03  0.33534312111E+03  0.00000000000E+00 0.  1.
         23    2    1    2    0    0 -0.12946633622E+03 -0.20887871615E+03 -0.12239204715E+03  0.30165907198E+03  0.12500612877E+03 0.  0.
          5    1    3    3  502    0 -0.65222377321E+02 -0.13359077895E+03 -0.13612876299E+03  0.20162734149E+03  0.47000000000E+01 0.  1.
         -5    1    3    3    0  502 -0.64243958898E+02 -0.75287937200E+02  0.13736715842E+02  0.10003173049E+03  0.47000000000E+01 0.  1.
        -11    1    1    2    0    0  0.49112139171E+02  0.50784734117E+02 -0.33942321217E+02  0.78378393725E+02  0.00000000000E+00 0.  1.
         11    1    1    2    0    0  0.80354197048E+02  0.15809398203E+03  0.49920719946E+02  0.18423512808E+03  0.00000000000E+00 0. -1.
<mgrwt>
<rscale>  0 0.27225284E+03</rscale>
<asrwt>0</asrwt>
<pdfrwt beam="2">  1        2 0.51591249E-01 0.27571431E+03</pdfrwt>
<pdfrwt beam="1">  1       -2 0.35219919E-01 0.27571431E+03</pdfrwt>
<totfact> 0.73729567E+02</totfact>
</mgrwt>
</event>
<event>
 7    1  0.6008063E-006  0.1636993E+03  0.7546771E-02  0.1191085E+00
          2   -1    0    0  501    0  0.00000000000E+00  0.00000000000E+00  0.10320966477E+04  0.10320966477E+04  0.00000000000E+00 0. -1.
         -2   -1    0    0    0  501 -0.00000000000E+00 -0.00000000000E+00 -0.23596374768E+02  0.23596374768E+02  0.00000000000E+00 0.  1.
         23    2    1    2    0    0 -0.30552501608E+02  0.10118055765E+03  0.64749785779E+03  0.66787045950E+03  0.12500605678E+03 0.  0.
          5    1    3    3  502    0 -0.30862937685E+02  0.16189439705E+02  0.46684701381E+03  0.46816967350E+03  0.47000000000E+01 0. -1.
         -5    1    3    3    0  502  0.31043607789E+00  0.84991117941E+02  0.18065084398E+03  0.19970078600E+03  0.47000000000E+01 0. -1.
        -11    1    1    2    0    0  0.15907443391E+01 -0.11044202353E+03  0.26427203671E+03  0.28642569790E+03  0.00000000000E+00 0. -1.
         11    1    1    2    0    0  0.28961757268E+02  0.92614658870E+01  0.96730378478E+02  0.10139686511E+03  0.00000000000E+00 0.  1.
<mgrwt>
<rscale>  0 0.15790300E+03</rscale>
<asrwt>0</asrwt>
<pdfrwt beam="1">  1        2 0.15878407E+00 0.16369934E+03</pdfrwt>
<pdfrwt beam="2">  1       -2 0.36302123E-02 0.16369934E+03</pdfrwt>
<totfact> 0.78068057E+03</totfact>
</mgrwt>
</event>
<event>
 7    1  0.6008063E-006  0.1492138E+03  0.7546771E-02  0.1210675E+00
          1   -1    0    0  501    0  0.00000000000E+00  0.00000000000E+00  0.12741586027E+03  0.12741586027E+03  0.00000000000E+00 0. -1.
         -1   -1    0    0    0  501 -0.00000000000E+00 -0.00000000000E+00 -0.15004724041E+03  0.15004724041E+03  0.00000000000E+00 0.  1.
         23    2    1    2    0    0  0.49594769848E+02 -0.64653567629E+02  0.13667662492E+02  0.14983848189E+03  0.12500016261E+03 0.  0.
          5    1    3    3  502    0 -0.32058365738E+02 -0.36270791075E+02  0.35907351888E+02  0.60454421001E+02  0.47000000000E+01 0. -1.
         -5    1    3    3    0  502  0.81653135586E+02 -0.28382776554E+02 -0.22239689396E+02  0.89384060885E+02  0.47000000000E+01 0. -1.
        -11    1    1    2    0    0 -0.26004586995E+02  0.35938520264E+02 -0.66363081640E+02  0.79824021374E+02  0.00000000000E+00 0.  1.
         11    1    1    2    0    0 -0.23590182853E+02  0.28715047366E+02  0.30064039008E+02  0.47800597420E+02  0.00000000000E+00 0. -1.
<mgrwt>
<rscale>  0 0.14199108E+03</rscale>
<asrwt>0</asrwt>
<pdfrwt beam="1">  1        1 0.19602440E-01 0.14921383E+03</pdfrwt>
<pdfrwt beam="2">  1       -1 0.23084191E-01 0.14921383E+03</pdfrwt>
<totfact> 0.40228646E+03</totfact>
</mgrwt>
</event>
<event>
 7    1  0.6008063E-006  0.1364561E+03  0.7546771E-02  0.1228839E+00
          2   -1    0    0  501    0  0.00000000000E+00  0.00000000000E+00  0.22369284924E+03  0.22369284924E+03  0.00000000000E+00 0. -1.
         -2   -1    0    0    0  501 -0.00000000000E+00 -0.00000000000E+00 -0.75883057019E+02  0.75883057019E+02  0.00000000000E+00 0.  1.
         23    2    1    2    0    0  0.46239682407E+02 -0.29290330508E+02  0.13081122933E+03  0.18902866422E+03  0.12499690590E+03 0.  0.
          5    1    3    3  502    0  0.17211738585E+02 -0.97116835182E+01  0.14824729093E+03  0.14963258339E+03  0.47000000000E+01 0. -1.
         -5    1    3    3    0  502  0.29027943822E+02 -0.19578646990E+02 -0.17436061602E+02  0.39396080829E+02  0.47000000000E+01 0. -1.
        -11    1    1    2    0    0  0.46628365630E+01  0.19162570358E+02  0.46739194122E+02  0.50729660109E+02  0.00000000000E+00 0. -1.
         11    1    1    2    0    0 -0.50902518970E+02  0.10127760149E+02 -0.29740631228E+02  0.59817581939E+02  0.00000000000E+00 0.  1.
<mgrwt>
<rscale>  0 0.12907217E+03</rscale>
<asrwt>0</asrwt>
<pdfrwt beam="1">  1        2 0.34414284E-01 0.13645607E+03</pdfrwt>
<pdfrwt beam="2">  1       -2 0.11674317E-01 0.13645607E+03</pdfrwt>
<totfact> 0.73983564E+03</totfact>
</mgrwt>
</event>
<event>
 7    1  0.6008063E-006  0.3649508E+03  0.7546771E-02  0.1057632E+00
          2   -1    0    0  501    0  0.00000000000E+00  0.00000000000E+00  0.14256709571E+04  0.14256709571E+04  0.00000000000E+00 0. -1.
         -2   -1    0    0    0  501 -0.00000000000E+00 -0.00000000000E+00 -0.10956005103E+03  0.10956005103E+03  0.00000000000E+00 0.  1.
         23    2    1    2    0    0 -0.22635692859E+03 -0.25757426173E+03  0.98268586943E+03  0.10482655212E+04  0.12492848173E+03 0.  0.
          5    1    3    3  502    0  0.59903848522E+01 -0.47023762822E+01  0.19845128426E+01  0.91665339469E+01  0.47000000000E+01 0.  1.
         -5    1    3    3    0  502 -0.23234731345E+03 -0.25287188544E+03  0.98070135658E+03  0.10390989873E+04  0.47000000000E+01 0.  1.
        -11    1    1    2    0    0  0.12431104968E+03  0.20515051094E+03  0.21586716484E+03  0.32270513176E+03  0.00000000000E+00 0. -1.
         11    1    1    2    0    0  0.10204587891E+03  0.52423750787E+02  0.11755787178E+03  0.16426035513E+03  0.00000000000E+00 0.  1.
<mgrwt>
<rscale>  0 0.36241500E+03</rscale>
<asrwt>0</asrwt>
<pdfrwt beam="1">  1        2 0.21933398E+00 0.36495080E+03</pdfrwt>
<pdfrwt beam="2">  1       -2 0.16855393E-01 0.36495080E+03</pdfrwt>
<totfact> 0.41862167E+02</totfact>
</mgrwt>
</event>
<event>
 7    1  0.6008063E-006  0.1401128E+03  0.7546771E-02  0.1223344E+00
          2   -1    0    0  501    0  0.00000000000E+00  0.00000000000E+00  0.87006642061E+03  0.87006642061E+03  0.00000000000E+00 0. -1.
         -2   -1    0    0    0  501 -0.00000000000E+00 -0.00000000000E+00 -0.20352600969E+02  0.20352600969E+02  0.00000000000E+00 0.  1.
         23    2    1    2    0    0 -0.10892375147E+02 -0.65234979380E+02  0.60220038328E+03  0.61828544200E+03  0.12352060475E+03 0.  0.
          5    1    3    3  502    0  0.15805858822E+02 -0.94249203137E+02  0.34435925233E+03  0.35740470356E+03  0.47000000000E+01 0. -1.
         -5    1    3    3    0  502 -0.26698233969E+02  0.29014223757E+02  0.25784113095E+03  0.26088073844E+03  0.47000000000E+01 0.  1.
        -11    1    1    2    0    0 -0.39979050942E+02  0.30471115580E+02  0.91588589880E+02  0.10447623268E+03  0.00000000000E+00 0.  1.
         11    1    1    2    0    0  0.50871426089E+02  0.34763863801E+02  0.15592484648E+03  0.16765734689E+03  0.00000000000E+00 0. -1.
<mgrwt>
<rscale>  0 0.13281073E+03</rscale>
<asrwt>0</asrwt>
<pdfrwt beam="1">  1        2 0.13385634E+00 0.14011276E+03</pdfrwt>
<pdfrwt beam="2">  1       -2 0.31311701E-02 0.14011276E+03</pdfrwt>
<totfact> 0.12128162E+04</totfact>
</mgrwt>
</event>
<event>
 7    1  0.6008063E-006  0.1321412E+03  0.7546771E-02  0.1237247E+00
          2   -1    0    0  501    0  0.00000000000E+00  0.00000000000E+00  0.17779774831E+04  0.17779774831E+04  0.00000000000E+00 0. -1.
         -2   -1    0    0    0  501 -0.00000000000E+00 -0.00000000000E+00 -0.11110078171E+02  0.11110078171E+02  0.00000000000E+00 0.  1.
         23    2    1    2    0    0  0.21498671675E+02  0.37096957832E+02  0.14598919376E+04  0.14658600756E+04  0.12499165835E+03 0.  0.
          5    1    3    3  502    0 -0.43493407514E+02 -0.63313000299E+01  0.82066123466E+03  0.82185078569E+03  0.47000000000E+01 0.  1.
         -5    1    3    3    0  502  0.64992079189E+02  0.43428257862E+02  0.63923070289E+03  0.64400928989E+03  0.47000000000E+01 0.  1.
        -11    1    1    2    0    0  0.25993836824E+02  0.75831837630E+01  0.39304675721E+02  0.47728835753E+02  0.00000000000E+00 0.  1.
         11    1    1    2    0    0 -0.47492508499E+02 -0.44680141595E+02  0.26767079160E+03  0.27549864990E+03  0.00000000000E+00 0. -1.
<mgrwt>
<rscale>  0 0.12361669E+03</rscale>
<asrwt>0</asrwt>
<pdfrwt beam="1">  1        2 0.27353477E+00 0.13214118E+03</pdfrwt>
<pdfrwt beam="2">  1       -2 0.17092442E-02 0.13214118E+03</pdfrwt>
<totfact> 0.92763905E+03</totfact>
</mgrwt>
</event>
<event>
 7    1  0.6008063E-006  0.1427442E+03  0.7546771E-02  0.1220003E+00
         -1   -1    0    0    0  501 -0.00000000000E+00  0.00000000000E+00  0.72091760373E+02  0.72091760373E+02  0.00000000000E+00 0.  1.
          1   -1    0    0  501    0  0.00000000000E+00 -0.00000000000E+00 -0.23167673430E+03  0.23167673430E+03  0.00000000000E+00 0. -1.
         23    2    1    2    0    0 -0.56289490144E+02  0.39751343983E+02 -0.75083672125E+02  0.16128689561E+03  0.12500891499E+03 0.  0.
          5    1    3    3  502    0  0.99734171269E+01  0.37234144986E+02  0.21231801653E+02  0.44257541769E+02  0.47000000000E+01 0.  1.
         -5    1    3    3    0  502 -0.66262907271E+02  0.25171989962E+01 -0.96315473777E+02  0.11702935384E+03  0.47000000000E+01 0.  1.
        -11    1    1    2    0    0  0.14905870506E+02 -0.31093920081E+02 -0.93149256233E+02  0.99326737479E+02  0.00000000000E+00 0. -1.
         11    1    1    2    0    0  0.41383619638E+02 -0.86574239020E+01  0.86479544286E+01  0.43154861589E+02  0.00000000000E+00 0.  1.
<mgrwt>
<rscale>  0 0.13515373E+03</rscale>
<asrwt>0</asrwt>
<pdfrwt beam="2">  1        1 0.35642574E-01 0.14274419E+03</pdfrwt>
<pdfrwt beam="1">  1       -1 0.11091040E-01 0.14274419E+03</pdfrwt>
<totfact> 0.60323786E+03</totfact>
</mgrwt>
</event>
<event>
 7    1  0.6008063E-006  0.1422152E+03  0.7546771E-02  0.1222715E+00
         -1   -1    0    0    0  501 -0.00000000000E+00  0.00000000000E+00  0.12464113527E+03  0.12464113527E+03  0.00000000000E+00 0.  1.
          1   -1    0    0  501    0  0.00000000000E+00 -0.00000000000E+00 -0.13823932977E+03  0.13823932977E+03  0.00000000000E+00 0. -1.
         23    2    1    2    0    0 -0.64436088802E+02  0.22938683219E+02 -0.44492305225E+02  0.14901252114E+03  0.12468750340E+03 0.  0.
          5    1    3    3  502    0 -0.70629116542E+02 -0.30743358512E+02 -0.53667953456E+02  0.93999816086E+02  0.47000000000E+01 0.  1.
         -5    1    3    3    0  502  0.61930277392E+01  0.53682041732E+02  0.91756482302E+01  0.55012705055E+02  0.47000000000E+01 0.  1.
        -11    1    1    2    0    0  0.24396293675E+02 -0.43479118598E+02 -0.12450614818E+02  0.51387067522E+02  0.00000000000E+00 0. -1.
         11    1    1    2    0    0  0.40039795127E+02  0.20540435378E+02  0.43344725543E+02  0.62480876368E+02  0.00000000000E+00 0.  1.
<mgrwt>
<rscale>  0 0.13324749E+03</rscale>
<asrwt>0</asrwt>
<pdfrwt beam="2">  1        1 0.21267589E-01 0.14221521E+03</pdfrwt>
<pdfrwt beam="1">  1       -1 0.19175559E-01 0.14221521E+03</pdfrwt>
<totfact> 0.48812002E+03</totfact>
</mgrwt>
</event>
<event>
 7    1  0.6008063E-006  0.1649083E+03  0.7546771E-02  0.1190106E+00
          2   -1    0    0  501    0  0.00000000000E+00  0.00000000000E+00  0.88682055990E+03  0.88682055990E+03  0.00000000000E+00 0. -1.
         -2   -1    0    0    0  501 -0.00000000000E+00 -0.00000000000E+00 -0.27666659760E+02  0.27666659760E+02  0.00000000000E+00 0.  1.
         23    2    1    2    0    0  0.10736470996E+03  0.64227767533E+01  0.55469262557E+03  0.57868701907E+03  0.12500529656E+03 0.  0.
          5    1    3    3  502    0  0.27386789584E+02  0.11110172055E+02  0.15779672685E+02  0.33831349911E+02  0.47000000000E+01 0. -1.
         -5    1    3    3    0  502  0.79977920372E+02 -0.46873953012E+01  0.53891295289E+03  0.54485566916E+03  0.47000000000E+01 0. -1.
        -11    1    1    2    0    0 -0.61156889037E+02  0.63423571202E+01  0.57342934540E+02  0.84074982677E+02  0.00000000000E+00 0.  1.
         11    1    1    2    0    0 -0.46207820918E+02 -0.12765133873E+02  0.24711834003E+03  0.25172521792E+03  0.00000000000E+00 0. -1.
<mgrwt>
<rscale>  0 0.15875855E+03</rscale>
<asrwt>0</asrwt>
<pdfrwt beam="1">  1        2 0.13643391E+00 0.16490833E+03</pdfrwt>
<pdfrwt beam="2">  1       -2 0.42564099E-02 0.16490833E+03</pdfrwt>
<totfact> 0.75670785E+03</totfact>
</mgrwt>
</event>
<event>
 7    1  0.6008063E-006  0.1389217E+03  0.7546771E-02  0.1227538E+00
         -1   -1    0    0    0  501 -0.00000000000E+00  0.00000000000E+00  0.43152095865E+02  0.43152095865E+02  0.00000000000E+00 0.  1.
          1   -1    0    0  501    0  0.00000000000E+00 -0.00000000000E+00 -0.35009333766E+03  0.35009333766E+03  0.00000000000E+00 0. -1.
         23    2    1    2    0    0  0.52576642001E+02  0.30108161113E+02 -0.18684645630E+03  0.23283223306E+03  0.12501378272E+03 0.  0.
          5    1    3    3  502    0  0.16922066297E+02  0.14948242113E+02  0.14826586112E+02  0.27417584244E+02  0.47000000000E+01 0. -1.
         -5    1    3    3    0  502  0.35654575704E+02  0.15159919000E+02 -0.20167304241E+03  0.20541464882E+03  0.47000000000E+01 0. -1.
        -11    1    1    2    0    0 -0.26088226561E+02  0.28388410924E+02 -0.26028028742E+02  0.46518337460E+02  0.00000000000E+00 0.  1.
         11    1    1    2    0    0 -0.26488415440E+02 -0.58496572037E+02 -0.94066756751E+02  0.11389486300E+03  0.00000000000E+00 0. -1.
<mgrwt>
<rscale>  0 0.12994475E+03</rscale>
<asrwt>0</asrwt>
<pdfrwt beam="2">  1        1 0.53860513E-01 0.13892174E+03</pdfrwt>
<pdfrwt beam="1">  1       -1 0.66387840E-02 0.13892174E+03</pdfrwt>
<totfact> 0.78569314E+03</totfact>
</mgrwt>
</event>
<event>
 7    1  0.7886779E-006  0.2046113E+03  0.7546771E-02  0.1149957E+00
         -1   -1    0    0    0  501 -0.00000000000E+00  0.00000000000E+00  0.55862268534E+02  0.55862268534E+02  0.00000000000E+00 0.  1.
          1   -1    0    0  501    0  0.00000000000E+00 -0.00000000000E+00 -0.73261479603E+03  0.73261479603E+03  0.00000000000E+00 0. -1.
         23    2    1    2    0    0  0.90973738454E+01 -0.16173372459E+03 -0.45686353196E+03  0.50058973307E+03  0.12500093656E+03 0.  0.
          5    1    3    3  502    0  0.37780904985E+02 -0.78924376491E+02 -0.99398283288E+02  0.13250872691E+03  0.47000000000E+01 0. -1.
         -5    1    3    3    0  502 -0.28683531140E+02 -0.82809348098E+02 -0.35746524867E+03  0.36808100616E+03  0.47000000000E+01 0. -1.
        -11    1    1    2    0    0 -0.23955640568E+02  0.69417302377E+02 -0.36430545891E+02  0.81974503708E+02  0.00000000000E+00 0.  1.
         11    1    1    2    0    0  0.14858266723E+02  0.92316422213E+02 -0.18345844965E+03  0.20591282779E+03  0.00000000000E+00 0. -1.
<mgrwt>
<rscale>  0 0.19974163E+03</rscale>
<asrwt>0</asrwt>
<pdfrwt beam="2">  1        1 0.11270997E+00 0.20461132E+03</pdfrwt>
<pdfrwt beam="1">  1       -1 0.85941952E-02 0.20461132E+03</pdfrwt>
<totfact> 0.20208400E+03</totfact>
</mgrwt>
</event>
<event>
 7    1  0.6008063E-006  0.1336733E+03  0.7546771E-02  0.1236875E+00
         -1   -1    0    0    0  501 -0.00000000000E+00  0.00000000000E+00  0.62585047814E+02  0.62585047814E+02  0.00000000000E+00 0.  1.
          1   -1    0    0  501    0  0.00000000000E+00 -0.00000000000E+00 -0.27591581706E+03  0.27591581706E+03  0.00000000000E+00 0. -1.
         23    2    1    2    0    0 -0.36168434235E+02 -0.30383214017E+02 -0.19786443337E+03  0.23878627177E+03  0.12504900744E+03 0.  0.
          5    1    3    3  502    0  0.37395601143E+02 -0.72291758563E+01 -0.16737550426E+02  0.41867977771E+02  0.47000000000E+01 0. -1.
         -5    1    3    3    0  502 -0.73564035378E+02 -0.23154038161E+02 -0.18112688295E+03  0.19691829399E+03  0.47000000000E+01 0. -1.
        -11    1    1    2    0    0  0.63102568147E+02  0.25747783963E+02  0.31748644438E+00  0.68154114207E+02  0.00000000000E+00 0.  1.
         11    1    1    2    0    0 -0.26934133912E+02  0.46354300547E+01 -0.15783822314E+02  0.31560478897E+02  0.00000000000E+00 0. -1.
<mgrwt>
<rscale>  0 0.12385147E+03</rscale>
<asrwt>0</asrwt>
<pdfrwt beam="2">  1        1 0.42448587E-01 0.13367329E+03</pdfrwt>
<pdfrwt beam="1">  1       -1 0.96284689E-02 0.13367329E+03</pdfrwt>
<totfact> 0.60087730E+03</totfact>
</mgrwt>
</event>
<event>
 7    1  0.6008063E-006  0.1309178E+03  0.7546771E-02  0.1262637E+00
         -2   -1    0    0    0  501 -0.00000000000E+00  0.00000000000E+00  0.19509066647E+02  0.19509066647E+02  0.00000000000E+00 0.  1.
          2   -1    0    0  501    0  0.00000000000E+00 -0.00000000000E+00 -0.53857403108E+03  0.53857403108E+03  0.00000000000E+00 0. -1.
         23    2    1    2    0    0 -0.35186798207E+02 -0.16744018722E+02 -0.42776650556E+03  0.44735183458E+03  0.12498402974E+03 0.  0.
          5    1    3    3  502    0 -0.59848379572E+02  0.29600788056E+02 -0.14484536924E+03  0.15956285966E+03  0.47000000000E+01 0. -1.
         -5    1    3    3    0  502  0.24661581365E+02 -0.46344806778E+02 -0.28292113632E+03  0.28778897492E+03  0.47000000000E+01 0. -1.
        -11    1    1    2    0    0  0.27470484801E+02 -0.12595451476E+02 -0.31352561877E+02  0.43546022429E+02  0.00000000000E+00 0.  1.
         11    1    1    2    0    0  0.77163134060E+01  0.29339470199E+02 -0.59945897000E+02  0.67185240725E+02  0.00000000000E+00 0. -1.
<mgrwt>
<rscale>  0 0.10889125E+03</rscale>
<asrwt>0</asrwt>
<pdfrwt beam="2">  1        2 0.82857535E-01 0.13091784E+03</pdfrwt>
<pdfrwt beam="1">  1       -2 0.30013952E-02 0.13091784E+03</pdfrwt>
<totfact> 0.22677362E+04</totfact>
</mgrwt>
</event>
<event>
 7    1  0.6008063E-006  0.1506744E+03  0.7546771E-02  0.1208965E+00
          2   -1    0    0  501    0  0.00000000000E+00  0.00000000000E+00  0.52291830211E+03  0.52291830211E+03  0.00000000000E+00 0. -1.
         -2   -1    0    0    0  501 -0.00000000000E+00 -0.00000000000E+00 -0.39953613522E+02  0.39953613522E+02  0.00000000000E+00 0.  1.
         23    2    1    2    0    0  0.41857849211E+02 -0.72975460449E+02  0.35272434314E+03  0.38355864253E+03  0.12500109061E+03 0.  0.
          5    1    3    3  502    0 -0.40078217728E+02  0.72205856456E+00  0.92424606525E+02  0.10085228206E+03  0.47000000000E+01 0.  1.
         -5    1    3    3    0  502  0.81936066939E+02 -0.73697519013E+02  0.26029973661E+03  0.28270636048E+03  0.47000000000E+01 0.  1.
        -11    1    1    2    0    0 -0.51309083971E+02  0.49907667138E+02  0.32801154461E+02  0.78735716616E+02  0.00000000000E+00 0. -1.
         11    1    1    2    0    0  0.94512347599E+01  0.23067793311E+02  0.97439190988E+02  0.10057755648E+03  0.00000000000E+00 0.  1.
<mgrwt>
<rscale>  0 0.14329360E+03</rscale>
<asrwt>0</asrwt>
<pdfrwt beam="1">  1        2 0.80448965E-01 0.15067438E+03</pdfrwt>
<pdfrwt beam="2">  1       -2 0.61467102E-02 0.15067438E+03</pdfrwt>
<totfact> 0.81200557E+03</totfact>
</mgrwt>
</event>
<event>
 7    1  0.6008063E-006  0.3692641E+03  0.7546771E-02  0.1055953E+00
          2   -1    0    0  501    0  0.00000000000E+00  0.00000000000E+00  0.18679862291E+04  0.18679862291E+04  0.00000000000E+00 0. -1.
         -2   -1    0    0    0  501 -0.00000000000E+00 -0.00000000000E+00 -0.71877853604E+02  0.71877853604E+02  0.00000000000E+00 0.  1.
         23    2    1    2    0    0  0.32138108414E+03 -0.13208103708E+03  0.10161999851E+04  0.10812115501E+04  0.12499921922E+03 0.  0.
          5    1    3    3  502    0  0.32838890333E+03 -0.13110524999E+03  0.10114368122E+04  0.10714729924E+04  0.47000000000E+01 0.  1.
         -5    1    3    3    0  502 -0.70078191842E+01 -0.97578708837E+00  0.47631728967E+01  0.97385577066E+01  0.47000000000E+01 0.  1.
        -11    1    1    2    0    0 -0.53467624135E+02  0.50069324259E+02  0.10627956016E+03  0.12907776327E+03  0.00000000000E+00 0.  1.
         11    1    1    2    0    0 -0.26791346001E+03  0.82011712819E+02  0.67362883030E+03  0.72957476937E+03  0.00000000000E+00 0. -1.
<mgrwt>
<rscale>  0 0.36672284E+03</rscale>
<asrwt>0</asrwt>
<pdfrwt beam="1">  1        2 0.28738246E+00 0.36926414E+03</pdfrwt>
<pdfrwt beam="2">  1       -2 0.11058133E-01 0.36926414E+03</pdfrwt>
<totfact> 0.48629177E+02</totfact>
</mgrwt>
</event>
<event>
 7    1  0.6008063E-006  0.1375974E+03  0.7546771E-02  0.1228599E+00
         -3   -1    0    0    0  501 -0.00000000000E+00  0.00000000000E+00  0.17632145286E+03  0.17632145286E+03  0.00000000000E+00 0.  1.
          3   -1    0    0  501    0  0.00000000000E+00 -0.00000000000E+00 -0.85689117007E+02  0.85689117007E+02  0.00000000000E+00 0. -1.
         23    2    1    2    0    0 -0.10152944356E+02  0.56524613650E+02  0.63589346606E+02  0.15158050031E+03  0.12503970908E+03 0.  0.
          5    1    3    3  502    0 -0.32920158712E+02  0.23952252661E+02 -0.29339368111E+02  0.50401743802E+02  0.47000000000E+01 0.  1.
         -5    1    3    3    0  502  0.22767214356E+02  0.32572360989E+02  0.92928714718E+02  0.10117875651E+03  0.47000000000E+01 0.  1.
        -11    1    1    2    0    0  0.43967307364E+02 -0.45977456505E+02  0.37054607036E+02  0.73621291255E+02  0.00000000000E+00 0.  1.
         11    1    1    2    0    0 -0.33814363008E+02 -0.10547157145E+02 -0.10011617785E+02  0.36808778303E+02  0.00000000000E+00 0. -1.
<mgrwt>
<rscale>  0 0.12923264E+03</rscale>
<asrwt>0</asrwt>
<pdfrwt beam="2">  1        3 0.13182941E-01 0.13759739E+03</pdfrwt>
<pdfrwt beam="1">  1       -3 0.27126377E-01 0.13759739E+03</pdfrwt>
<totfact> 0.13811406E+03</totfact>
</mgrwt>
</event>
<event>
 7    1  0.6008063E-006  0.1504628E+03  0.7546771E-02  0.1208878E+00
          2   -1    0    0  501    0  0.00000000000E+00  0.00000000000E+00  0.90169171649E+03  0.90169171649E+03  0.00000000000E+00 0. -1.
         -2   -1    0    0    0  501 -0.00000000000E+00 -0.00000000000E+00 -0.21186550996E+02  0.21186550996E+02  0.00000000000E+00 0.  1.
         23    2    1    2    0    0  0.61781188224E+02 -0.56527295241E+02  0.53683511330E+03  0.55752219717E+03  0.12500724433E+03 0.  0.
          5    1    3    3  502    0  0.37933626070E+02 -0.84729321405E+02  0.48425506051E+03  0.49309539799E+03  0.47000000000E+01 0.  1.
         -5    1    3    3    0  502  0.23847562154E+02  0.28202026163E+02  0.52580052792E+02  0.64426799176E+02  0.47000000000E+01 0.  1.
        -11    1    1    2    0    0  0.23979181644E+02  0.71834896792E+01  0.66482322130E+02  0.71038741769E+02  0.00000000000E+00 0. -1.
         11    1    1    2    0    0 -0.85760369868E+02  0.49343805562E+02  0.27718773007E+03  0.29431732855E+03  0.00000000000E+00 0.  1.
<mgrwt>
<rscale>  0 0.14335973E+03</rscale>
<asrwt>0</asrwt>
<pdfrwt beam="1">  1        2 0.13872177E+00 0.15046282E+03</pdfrwt>
<pdfrwt beam="2">  1       -2 0.32594701E-02 0.15046282E+03</pdfrwt>
<totfact> 0.10958382E+04</totfact>
</mgrwt>
</event>
<event>
 7    1  0.6008063E-006  0.1432354E+03  0.7546771E-02  0.1219368E+00
          2   -1    0    0  501    0  0.00000000000E+00  0.00000000000E+00  0.30426122924E+03  0.30426122924E+03  0.00000000000E+00 0.  1.
         -2   -1    0    0    0  501 -0.00000000000E+00 -0.00000000000E+00 -0.54976282868E+02  0.54976282868E+02  0.00000000000E+00 0. -1.
         23    2    1    2    0    0  0.69167859358E+02  0.10366235250E+02  0.12873212394E+03  0.19258331543E+03  0.12499888817E+03 0.  0.
          5    1    3    3  502    0  0.29615138259E+02 -0.48629946129E+02  0.10129428073E+03  0.11629509613E+03  0.47000000000E+01 0. -1.
         -5    1    3    3    0  502  0.39552721099E+02  0.58996181379E+02  0.27437843211E+02  0.76288219299E+02  0.47000000000E+01 0. -1.
        -11    1    1    2    0    0 -0.51409920774E+02 -0.42045816926E+02  0.11058208236E+03  0.12899313011E+03  0.00000000000E+00 0.  1.
         11    1    1    2    0    0 -0.17757938583E+02  0.31679581676E+02  0.99707400632E+01  0.37661066571E+02  0.00000000000E+00 0. -1.
<mgrwt>
<rscale>  0 0.13560520E+03</rscale>
<asrwt>0</asrwt>
<pdfrwt beam="1">  1        2 0.46809419E-01 0.14323538E+03</pdfrwt>
<pdfrwt beam="2">  1       -2 0.84578899E-02 0.14323538E+03</pdfrwt>
<totfact> 0.88785971E+03</totfact>
</mgrwt>
</event>
<event>
 7    1  0.6008063E-006  0.2558365E+03  0.7546771E-02  0.1112097E+00
          1   -1    0    0  501    0  0.00000000000E+00  0.00000000000E+00  0.15834458590E+04  0.15834458590E+04  0.00000000000E+00 0. -1.
         -1   -1    0    0    0  501 -0.00000000000E+00 -0.00000000000E+00 -0.42721444076E+02  0.42721444076E+02  0.00000000000E+00 0.  1.
         23    2    1    2    0    0  0.20094935005E+03 -0.97220895471E+02  0.10350957002E+04  0.10662436003E+04  0.12497904931E+03 0.  0.
          5    1    3    3  502    0  0.19208111649E+03 -0.10219744709E+03  0.75021778739E+03  0.78114549990E+03  0.47000000000E+01 0. -1.
         -5    1    3    3    0  502  0.88682335647E+01  0.49765516222E+01  0.28487791279E+03  0.28509810036E+03  0.47000000000E+01 0. -1.
        -11    1    1    2    0    0 -0.10698481960E+03  0.25738569930E+01  0.23475026065E+03  0.25799236663E+03  0.00000000000E+00 0.  1.
         11    1    1    2    0    0 -0.93964530458E+02  0.94647038478E+02  0.27087845408E+03  0.30193133617E+03  0.00000000000E+00 0. -1.
<mgrwt>
<rscale>  0 0.25192060E+03</rscale>
<asrwt>0</asrwt>
<pdfrwt beam="1">  1        1 0.24360701E+00 0.25583648E+03</pdfrwt>
<pdfrwt beam="2">  1       -1 0.65725311E-02 0.25583648E+03</pdfrwt>
<totfact> 0.73480271E+02</totfact>
</mgrwt>
</event>
<event>
 7    1  0.6008063E-006  0.1360655E+03  0.7546771E-02  0.1230369E+00
         -1   -1    0    0    0  501 -0.00000000000E+00  0.00000000000E+00  0.91173958919E+02  0.91173958919E+02  0.00000000000E+00 0.  1.
          1   -1    0    0  501    0  0.00000000000E+00 -0.00000000000E+00 -0.16808042060E+03  0.16808042060E+03  0.00000000000E+00 0. -1.
         23    2    1    2    0    0 -0.53712892105E+02  0.41748444144E+00 -0.68069400479E+02  0.15214228542E+03  0.12501432982E+03 0.  0.
          5    1    3    3  502    0 -0.27007204632E+02  0.62117629347E+02 -0.42252409883E+02  0.79970901699E+02  0.47000000000E+01 0. -1.
         -5    1    3    3    0  502 -0.26705687473E+02 -0.61700144905E+02 -0.25816990596E+02  0.72171383721E+02  0.47000000000E+01 0. -1.
        -11    1    1    2    0    0  0.75467784837E+01 -0.33106525162E+02  0.24114068420E+02  0.41647138792E+02  0.00000000000E+00 0.  1.
         11    1    1    2    0    0  0.46166113621E+02  0.32689040720E+02 -0.32951129624E+02  0.65464955309E+02  0.00000000000E+00 0. -1.
<mgrwt>
<rscale>  0 0.12805601E+03</rscale>
<asrwt>0</asrwt>
<pdfrwt beam="2">  1        1 0.25858526E-01 0.13606554E+03</pdfrwt>
<pdfrwt beam="1">  1       -1 0.14026763E-01 0.13606554E+03</pdfrwt>
<totfact> 0.62343387E+03</totfact>
</mgrwt>
</event>
<event>
 6    1  0.6008063E-006  0.2665643E+03  0.7546771E-02  0.1136927E+00
          1   -1    0    0  501    0  0.00000000000E+00  0.00000000000E+00  0.68267466342E+03  0.68267466342E+03  0.00000000000E+00 0. -1.
         -1   -1    0    0    0  501 -0.00000000000E+00 -0.00000000000E+00 -0.57644780848E+02  0.57644780848E+02  0.00000000000E+00 0.  1.
          5    1    1    2  502    0 -0.12755408111E+03  0.90659146953E+02  0.36063947220E+03  0.39315651265E+03  0.47000000000E+01 0. -1.
         -5    1    1    2    0  502  0.10293120127E+03 -0.23937240561E+02  0.16093060182E+03  0.19258393569E+03  0.47000000000E+01 0.  1.
        -11    1    1    2    0    0  0.28213825271E+02  0.36096880296E+01  0.72064081462E+02  0.77474393325E+02  0.00000000000E+00 0.  1.
         11    1    1    2    0    0 -0.35909454339E+01 -0.70331594421E+02  0.31395727088E+02  0.77104602601E+02  0.00000000000E+00 0. -1.
<mgrwt>
<rscale>  0 0.21596587E+03</rscale>
<asrwt>0</asrwt>
<pdfrwt beam="1">  1        1 0.10502687E+00 0.26656431E+03</pdfrwt>
<pdfrwt beam="2">  1       -1 0.88684283E-02 0.26656431E+03</pdfrwt>
<totfact> 0.21441342E+03</totfact>
</mgrwt>
</event>
<event>
 7    1  0.6008063E-006  0.1269673E+03  0.7546771E-02  0.1278440E+00
          2   -1    0    0  501    0  0.00000000000E+00  0.00000000000E+00  0.19035555478E+03  0.19035555478E+03  0.00000000000E+00 0. -1.
         -2   -1    0    0    0  501 -0.00000000000E+00 -0.00000000000E+00 -0.45711120122E+02  0.45711120122E+02  0.00000000000E+00 0.  1.
         23    2    1    2    0    0  0.90806205350E+01 -0.20248193595E+02  0.13350580390E+03  0.18424029918E+03  0.12501296394E+03 0.  0.
          5    1    3    3  502    0  0.34849092470E+02 -0.62929477228E+02  0.53173258684E+02  0.89577138764E+02  0.47000000000E+01 0. -1.
         -5    1    3    3    0  502 -0.25768471935E+02  0.42681283633E+02  0.80332545221E+02  0.94663160417E+02  0.47000000000E+01 0. -1.
        -11    1    1    2    0    0  0.11868625511E+02  0.11953853565E+02 -0.11095999689E+02  0.20171269064E+02  0.00000000000E+00 0.  1.
         11    1    1    2    0    0 -0.20949246046E+02  0.82943400308E+01  0.22234630438E+02  0.31655106652E+02  0.00000000000E+00 0. -1.
<mgrwt>
<rscale>  0 0.10088793E+03</rscale>
<asrwt>0</asrwt>
<pdfrwt beam="1">  1        2 0.29285470E-01 0.12696727E+03</pdfrwt>
<pdfrwt beam="2">  1       -2 0.70324801E-02 0.12696727E+03</pdfrwt>
<totfact> 0.19280402E+04</totfact>
</mgrwt>
</event>
<event>
 7    1  0.6008063E-006  0.1550660E+03  0.7546771E-02  0.1204055E+00
         -2   -1    0    0    0  501 -0.00000000000E+00  0.00000000000E+00  0.22533958696E+02  0.22533958696E+02  0.00000000000E+00 0.  1.
          2   -1    0    0  501    0  0.00000000000E+00 -0.00000000000E+00 -0.87805409137E+03  0.87805409137E+03  0.00000000000E+00 0. -1.
         23    2    1    2    0    0  0.91711373774E+02 -0.31179126003E+01 -0.44286567141E+03  0.46922858477E+03  0.12499905756E+03 0.  0.
          5    1    3    3  502    0 -0.19320480042E+02 -0.33324265390E+02 -0.88919498707E+02  0.97018322307E+02  0.47000000000E+01 0.  1.
         -5    1    3    3    0  502  0.11103185382E+03  0.30206352790E+02 -0.35394617271E+03  0.37221026247E+03  0.47000000000E+01 0.  1.
        -11    1    1    2    0    0 -0.34899914560E+02 -0.35739814224E+02 -0.24654152696E+03  0.25155131260E+03  0.00000000000E+00 0. -1.
         11    1    1    2    0    0 -0.56811459214E+02  0.38857726824E+02 -0.16611293430E+03  0.17980815269E+03  0.00000000000E+00 0.  1.
<mgrwt>
<rscale>  0 0.14712140E+03</rscale>
<asrwt>0</asrwt>
<pdfrwt beam="2">  1        2 0.13508524E+00 0.15506599E+03</pdfrwt>
<pdfrwt beam="1">  1       -2 0.34667630E-02 0.15506599E+03</pdfrwt>
<totfact> 0.10373754E+04</totfact>
</mgrwt>
</event>
<event>
 7    1  0.6008063E-006  0.1193012E+03  0.7546771E-02  0.1257981E+00
         -1   -1    0    0    0  501 -0.00000000000E+00  0.00000000000E+00  0.66210062086E+02  0.66210062086E+02  0.00000000000E+00 0.  1.
          1   -1    0    0  501    0  0.00000000000E+00 -0.00000000000E+00 -0.16657569579E+03  0.16657569579E+03  0.00000000000E+00 0. -1.
         23    2    1    2    0    0 -0.16723562904E+01  0.10755723564E+02 -0.56211013607E+02  0.13188041513E+03  0.11880354994E+03 0.  0.
          5    1    3    3  502    0 -0.27656147845E+01 -0.35719644939E+02 -0.73626462547E+02  0.82015167176E+02  0.47000000000E+01 0. -1.
         -5    1    3    3    0  502  0.10932584941E+01  0.46475368502E+02  0.17415448940E+02  0.49865247952E+02  0.47000000000E+01 0.  1.
        -11    1    1    2    0    0  0.23686831145E+01  0.25639768634E+02  0.16201122879E+02  0.30421781306E+02  0.00000000000E+00 0.  1.
         11    1    1    2    0    0 -0.69632682409E+00 -0.36395492197E+02 -0.60355742972E+02  0.70483561439E+02  0.00000000000E+00 0. -1.
<mgrwt>
<rscale>  0 0.11140979E+03</rscale>
<asrwt>0</asrwt>
<pdfrwt beam="2">  1        1 0.25627030E-01 0.11930116E+03</pdfrwt>
<pdfrwt beam="1">  1       -1 0.10186164E-01 0.11930116E+03</pdfrwt>
<totfact> 0.10218644E+04</totfact>
</mgrwt>
</event>
<event>
 6    1  0.6008063E-006  0.1406209E+03  0.7546771E-02  0.1250008E+00
         -2   -1    0    0    0  501 -0.00000000000E+00  0.00000000000E+00  0.18497307902E+03  0.18497307902E+03  0.00000000000E+00 0.  1.
          2   -1    0    0  501    0  0.00000000000E+00 -0.00000000000E+00 -0.57091126645E+02  0.57091126645E+02  0.00000000000E+00 0. -1.
          5    1    1    2  502    0  0.48423894601E+02  0.42515095573E+02  0.18649144816E+02  0.67247955525E+02  0.47000000000E+01 0. -1.
         -5    1    1    2    0  502 -0.34302902684E+02 -0.61283152787E+02  0.68330273689E+02  0.98099083841E+02  0.47000000000E+01 0.  1.
        -11    1    1    2    0    0 -0.22088336204E+02  0.37930243661E+02  0.30907672434E+02  0.53683164919E+02  0.00000000000E+00 0. -1.
         11    1    1    2    0    0  0.79673442874E+01 -0.19162186447E+02  0.99948614365E+01  0.23034001380E+02  0.00000000000E+00 0.  1.
<mgrwt>
<rscale>  0 0.11590572E+03</rscale>
<asrwt>0</asrwt>
<pdfrwt beam="2">  1        2 0.87832503E-02 0.14062085E+03</pdfrwt>
<pdfrwt beam="1">  1       -2 0.28457397E-01 0.14062085E+03</pdfrwt>
<totfact> 0.80297614E+03</totfact>
</mgrwt>
</event>
<event>
 7    1  0.6008063E-006  0.1305250E+03  0.7546771E-02  0.1239947E+00
          2   -1    0    0  501    0  0.00000000000E+00  0.00000000000E+00  0.28976711377E+03  0.28976711377E+03  0.00000000000E+00 0. -1.
         -2   -1    0    0    0  501 -0.00000000000E+00 -0.00000000000E+00 -0.54034809196E+02  0.54034809196E+02  0.00000000000E+00 0.  1.
         23    2    1    2    0    0  0.70378364914E+01 -0.36917598854E+02  0.19869408847E+03  0.23773119792E+03  0.12499736567E+03 0.  0.
          5    1    3    3  502    0  0.63543569157E+02 -0.37248875476E+02  0.11046215243E+03  0.13285044609E+03  0.47000000000E+01 0. -1.
         -5    1    3    3    0  502 -0.56505732666E+02  0.33127662241E+00  0.88231936036E+02  0.10488075183E+03  0.47000000000E+01 0. -1.
        -11    1    1    2    0    0 -0.38591145437E+01  0.22012575733E+02 -0.29950941479E+02  0.37369842800E+02  0.00000000000E+00 0.  1.
         11    1    1    2    0    0 -0.31787219476E+01  0.14905023121E+02  0.66989157584E+02  0.68700882245E+02  0.00000000000E+00 0. -1.
<mgrwt>
<rscale>  0 0.12192995E+03</rscale>
<asrwt>0</asrwt>
<pdfrwt beam="1">  1        2 0.44579555E-01 0.13052502E+03</pdfrwt>
<pdfrwt beam="2">  1       -2 0.83130478E-02 0.13052502E+03</pdfrwt>
<totfact> 0.95396984E+03</totfact>
</mgrwt>
</event>
<event>
 7    1  0.6982939E-006  0.1581527E+03  0.7546771E-02  0.1198698E+00
         -1   -1    0    0    0  501 -0.00000000000E+00  0.00000000000E+00  0.42693267811E+02  0.42693267811E+02  0.00000000000E+00 0.  1.
          1   -1    0    0  501    0  0.00000000000E+00 -0.00000000000E+00 -0.49670260132E+03  0.49670260132E+03  0.00000000000E+00 0. -1.
         23    2    1    2    0    0  0.70567148460E+02  0.66390986545E+02 -0.25291692269E+03  0.29829388758E+03  0.12499915219E+03 0.  0.
          5    1    3    3  502    0  0.23505896526E+02  0.95041242640E+02 -0.19482279907E+03  0.21809029784E+03  0.47000000000E+01 0.  1.
         -5    1    3    3    0  502  0.47061251933E+02 -0.28650256094E+02 -0.58094123618E+02  0.80203589738E+02  0.47000000000E+01 0.  1.
        -11    1    1    2    0    0 -0.29203847697E+02 -0.60474479684E+02 -0.48359801610E+02  0.82756859686E+02  0.00000000000E+00 0.  1.
         11    1    1    2    0    0 -0.41363300762E+02 -0.59165068612E+01 -0.15273260920E+03  0.15834512186E+03  0.00000000000E+00 0. -1.
<mgrwt>
<rscale>  0 0.15145359E+03</rscale>
<asrwt>0</asrwt>
<pdfrwt beam="2">  1        1 0.76415783E-01 0.15815269E+03</pdfrwt>
<pdfrwt beam="1">  1       -1 0.65681952E-02 0.15815269E+03</pdfrwt>
<totfact> 0.51529867E+03</totfact>
</mgrwt>
</event>
<event>
 7    1  0.6008063E-006  0.1347832E+03  0.7546771E-02  0.1235281E+00
         -2   -1    0    0    0  501 -0.00000000000E+00  0.00000000000E+00  0.14148733858E+02  0.14148733858E+02  0.00000000000E+00 0.  1.
          2   -1    0    0  501    0  0.00000000000E+00 -0.00000000000E+00 -0.10531340137E+04  0.10531340137E+04  0.00000000000E+00 0. -1.
         23    2    1    2    0    0  0.30969022453E+02 -0.39784546546E+02 -0.74202943181E+03  0.75417119253E+03  0.12499847790E+03 0.  0.
          5    1    3    3  502    0  0.13503988582E+02 -0.59187327005E+02 -0.15482794660E+03  0.16637091222E+03  0.47000000000E+01 0.  1.
         -5    1    3    3    0  502  0.17465033870E+02  0.19402780459E+02 -0.58720148521E+03  0.58780028031E+03  0.47000000000E+01 0.  1.
        -11    1    1    2    0    0  0.76480821849E+01  0.65414982839E+01  0.16421738695E+01  0.10197112136E+02  0.00000000000E+00 0.  1.
         11    1    1    2    0    0 -0.38617104638E+02  0.33243048262E+02 -0.29859802195E+03  0.30291444293E+03  0.00000000000E+00 0. -1.
<mgrwt>
<rscale>  0 0.12486473E+03</rscale>
<asrwt>0</asrwt>
<pdfrwt beam="2">  1        2 0.16202056E+00 0.13478320E+03</pdfrwt>
<pdfrwt beam="1">  1       -2 0.21767291E-02 0.13478320E+03</pdfrwt>
<totfact> 0.15924028E+04</totfact>
</mgrwt>
</event>
<event>
 7    1  0.6008063E-006  0.1347982E+03  0.7546771E-02  0.1232747E+00
         -2   -1    0    0    0  501 -0.00000000000E+00  0.00000000000E+00  0.50584282752E+02  0.50584282752E+02  0.00000000000E+00 0.  1.
          2   -1    0    0  501    0  0.00000000000E+00 -0.00000000000E+00 -0.36639870407E+03  0.36639870407E+03  0.00000000000E+00 0. -1.
         23    2    1    2    0    0  0.50999681381E+01 -0.50197806862E+02 -0.27212569453E+03  0.30368232667E+03  0.12499892967E+03 0.  0.
          5    1    3    3  502    0 -0.88796058280E+00  0.41366222067E+02 -0.66488761432E+02  0.78452521941E+02  0.47000000000E+01 0. -1.
         -5    1    3    3    0  502  0.59879287209E+01 -0.91564028930E+02 -0.20563693310E+03  0.22522980473E+03  0.47000000000E+01 0. -1.
        -11    1    1    2    0    0  0.16780034882E+00  0.15910428421E+02 -0.68710309540E+02  0.70528551145E+02  0.00000000000E+00 0. -1.
         11    1    1    2    0    0 -0.52677684869E+01  0.34287378442E+02  0.25021582755E+02  0.42772109006E+02  0.00000000000E+00 0.  1.
<mgrwt>
<rscale>  0 0.12649763E+03</rscale>
<asrwt>0</asrwt>
<pdfrwt beam="2">  1        2 0.56369033E-01 0.13479823E+03</pdfrwt>
<pdfrwt beam="1">  1       -2 0.77821971E-02 0.13479823E+03</pdfrwt>
<totfact> 0.82558118E+03</totfact>
</mgrwt>
</event>
<event>
 7    1  0.6008063E-006  0.1319698E+03  0.7546771E-02  0.1237627E+00
         -2   -1    0    0    0  501 -0.00000000000E+00  0.00000000000E+00  0.40462590444E+02  0.40462590444E+02  0.00000000000E+00 0.  1.
          2   -1    0    0  501    0  0.00000000000E+00 -0.00000000000E+00 -0.38070256612E+03  0.38070256612E+03  0.00000000000E+00 0. -1.
         23    2    1    2    0    0  0.16070118431E+02 -0.39130354893E+02 -0.26268218903E+03  0.29396934080E+03  0.12500642989E+03 0.  0.
          5    1    3    3  502    0 -0.50098312767E+02  0.17572597100E+01 -0.70882243746E+02  0.86944300458E+02  0.47000000000E+01 0. -1.
         -5    1    3    3    0  502  0.66168431198E+02 -0.40887614603E+02 -0.19179994529E+03  0.20702504034E+03  0.47000000000E+01 0. -1.
        -11    1    1    2    0    0 -0.45746758237E+02 -0.34413856566E+01 -0.52015717270E+02  0.69355921647E+02  0.00000000000E+00 0. -1.
         11    1    1    2    0    0  0.29676639807E+02  0.42571740549E+02 -0.25542069371E+02  0.57839894116E+02  0.00000000000E+00 0.  1.
<mgrwt>
<rscale>  0 0.12337774E+03</rscale>
<asrwt>0</asrwt>
<pdfrwt beam="2">  1        2 0.58569625E-01 0.13196985E+03</pdfrwt>
<pdfrwt beam="1">  1       -2 0.62250140E-02 0.13196985E+03</pdfrwt>
<totfact> 0.11135603E+04</totfact>
</mgrwt>
</event>
<event>
 7    1  0.6008063E-006  0.1301273E+03  0.7546771E-02  0.1241309E+00
         -2   -1    0    0    0  501 -0.00000000000E+00  0.00000000000E+00  0.23098825688E+02  0.23098825688E+02  0.00000000000E+00 0.  1.
          2   -1    0    0  501    0  0.00000000000E+00 -0.00000000000E+00 -0.72110494901E+03  0.72110494901E+03  0.00000000000E+00 0. -1.
         23    2    1    2    0    0  0.35277784598E+02  0.78651399321E+01 -0.56168367807E+03  0.57656020605E+03  0.12500693771E+03 0.  0.
          5    1    3    3  502    0  0.22237423951E+02 -0.58011707005E+02 -0.29535643775E+03  0.30185654953E+03  0.47000000000E+01 0.  1.
         -5    1    3    3    0  502  0.13040360648E+02  0.65876846937E+02 -0.26632724032E+03  0.27470365652E+03  0.47000000000E+01 0.  1.
        -11    1    1    2    0    0  0.35812171002E+01 -0.44120005392E+02 -0.66788032535E+02  0.80125160103E+02  0.00000000000E+00 0.  1.
         11    1    1    2    0    0 -0.38859001699E+02  0.36254865460E+02 -0.69534412717E+02  0.87518408546E+02  0.00000000000E+00 0. -1.
<mgrwt>
<rscale>  0 0.12109024E+03</rscale>
<asrwt>0</asrwt>
<pdfrwt beam="2">  1        2 0.11093921E+00 0.13012731E+03</pdfrwt>
<pdfrwt beam="1">  1       -2 0.35536660E-02 0.13012731E+03</pdfrwt>
<totfact> 0.12638988E+04</totfact>
</mgrwt>
</event>
<event>
 7    1  0.6008063E-006  0.1306714E+03  0.7546771E-02  0.1236379E+00
          2   -1    0    0  501    0  0.00000000000E+00  0.00000000000E+00  0.11696034178E+04  0.11696034178E+04  0.00000000000E+00 0. -1.
         -2   -1    0    0    0  501 -0.00000000000E+00 -0.00000000000E+00 -0.20692239217E+02  0.20692239217E+02  0.00000000000E+00 0.  1.
         23    2    1    2    0    0  0.32006067385E+02 -0.61767230987E+02  0.99242441710E+03  0.10009901262E+04  0.11061387796E+03 0.  0.
          5    1    3    3  502    0 -0.29893896118E+02 -0.52267115684E+02  0.65442533429E+03  0.65720628768E+03  0.47000000000E+01 0. -1.
         -5    1    3    3    0  502  0.61899963503E+02 -0.95001153028E+01  0.33799908281E+03  0.34378383856E+03  0.47000000000E+01 0.  1.
        -11    1    1    2    0    0 -0.41229702100E+02  0.41429430015E+02  0.15640957076E+03  0.16697376989E+03  0.00000000000E+00 0.  1.
         11    1    1    2    0    0  0.92236347154E+01  0.20337800971E+02  0.77190718777E-01  0.22331760883E+02  0.00000000000E+00 0. -1.
<mgrwt>
<rscale>  0 0.12416596E+03</rscale>
<asrwt>0</asrwt>
<pdfrwt beam="1">  1        2 0.17993894E+00 0.13067138E+03</pdfrwt>
<pdfrwt beam="2">  1       -2 0.31834223E-02 0.13067138E+03</pdfrwt>
<totfact> 0.78248723E+03</totfact>
</mgrwt>
</event>
<event>
 7    1  0.6008063E-006  0.2176998E+03  0.7546771E-02  0.1139256E+00
          2   -1    0    0  501    0  0.00000000000E+00  0.00000000000E+00  0.17243176708E+04  0.17243176708E+04  0.00000000000E+00 0. -1.
         -2   -1    0    0    0  501 -0.00000000000E+00 -0.00000000000E+00 -0.25608689917E+02  0.25608689917E+02  0.00000000000E+00 0.  1.
         23    2    1    2    0    0  0.14960636055E+03  0.96883502833E+02  0.99531731084E+03  0.10188472655E+04  0.12499889980E+03 0.  0.
          5    1    3    3  502    0  0.12892596338E+03  0.16485706258E+02  0.70321242408E+03  0.71513878788E+03  0.47000000000E+01 0.  1.
         -5    1    3    3    0  502  0.20680397174E+02  0.80397796575E+02  0.29210488676E+03  0.30370847764E+03  0.47000000000E+01 0.  1.
        -11    1    1    2    0    0 -0.71482914578E+02  0.30520877080E+01  0.22130289611E+03  0.23258137101E+03  0.00000000000E+00 0. -1.
         11    1    1    2    0    0 -0.78123445977E+02 -0.99935590541E+02  0.48208877397E+03  0.49849772422E+03  0.00000000000E+00 0.  1.
<mgrwt>
<rscale>  0 0.21294395E+03</rscale>
<asrwt>0</asrwt>
<pdfrwt beam="1">  1        2 0.26527955E+00 0.21769980E+03</pdfrwt>
<pdfrwt beam="2">  1       -2 0.39397998E-02 0.21769980E+03</pdfrwt>
<totfact> 0.29169079E+03</totfact>
</mgrwt>
</event>
<event>
 7    1  0.6008063E-006  0.1368845E+03  0.7546771E-02  0.1230346E+00
         -1   -1    0    0    0  501 -0.00000000000E+00  0.00000000000E+00  0.24253513941E+03  0.24253513941E+03  0.00000000000E+00 0.  1.
          1   -1    0    0  501    0  0.00000000000E+00 -0.00000000000E+00 -0.61478273010E+02  0.61478273010E+02  0.00000000000E+00 0. -1.
         23    2    1    2    0    0  0.54079333768E+02  0.13692906641E+02  0.81012470983E+02  0.15906093147E+03  0.12500115773E+03 0.  0.
          5    1    3    3  502    0  0.84381983888E+02  0.42357065795E+02  0.50581475165E+02  0.10721481174E+03  0.47000000000E+01 0.  1.
         -5    1    3    3    0  502 -0.30302650120E+02 -0.28664159154E+02  0.30430995818E+02  0.51846119727E+02  0.47000000000E+01 0.  1.
        -11    1    1    2    0    0  0.22597414375E+02  0.98890091133E+01  0.24094103134E+02  0.34481320211E+02  0.00000000000E+00 0. -1.
         11    1    1    2    0    0 -0.76676748143E+02 -0.23581915754E+02  0.75950292279E+02  0.11047116073E+03  0.00000000000E+00 0.  1.
<mgrwt>
<rscale>  0 0.12807114E+03</rscale>
<asrwt>0</asrwt>
<pdfrwt beam="2">  1        1 0.94581960E-02 0.13688447E+03</pdfrwt>
<pdfrwt beam="1">  1       -1 0.37313098E-01 0.13688447E+03</pdfrwt>
<totfact> 0.46220531E+03</totfact>
</mgrwt>
</event>
<event>
 7    1  0.6008063E-006  0.1348775E+03  0.7546771E-02  0.1232698E+00
         -1   -1    0    0    0  501 -0.00000000000E+00  0.00000000000E+00  0.47391576621E+02  0.47391576621E+02  0.00000000000E+00 0.  1.
          1   -1    0    0  501    0  0.00000000000E+00 -0.00000000000E+00 -0.30489921606E+03  0.30489921606E+03  0.00000000000E+00 0. -1.
         23    2    1    2    0    0  0.22953642844E+02 -0.45242323369E+02 -0.16148043347E+03  0.21039929761E+03  0.12497278303E+03 0.  0.
          5    1    3    3  502    0 -0.43164133618E+02 -0.39270468312E+00 -0.10146154879E+03  0.11036227857E+03  0.47000000000E+01 0.  1.
         -5    1    3    3    0  502  0.66117776462E+02 -0.44849618686E+02 -0.60018884675E+02  0.10003701904E+03  0.47000000000E+01 0.  1.
        -11    1    1    2    0    0 -0.48760229653E+02 -0.17452097458E+01 -0.59851979551E+02  0.77219590837E+02  0.00000000000E+00 0. -1.
         11    1    1    2    0    0  0.25806586809E+02  0.46987533115E+02 -0.36175226424E+02  0.64671904238E+02  0.00000000000E+00 0.  1.
<mgrwt>
<rscale>  0 0.12652970E+03</rscale>
<asrwt>0</asrwt>
<pdfrwt beam="2">  1        1 0.46907572E-01 0.13487748E+03</pdfrwt>
<pdfrwt beam="1">  1       -1 0.72910117E-02 0.13487748E+03</pdfrwt>
<totfact> 0.80904503E+03</totfact>
</mgrwt>
</event>
<event>
 7    1  0.6008063E-006  0.1779422E+03  0.7546771E-02  0.1176257E+00
         -2   -1    0    0    0  501 -0.00000000000E+00  0.00000000000E+00  0.11402466071E+03  0.11402466071E+03  0.00000000000E+00 0.  1.
          2   -1    0    0  501    0  0.00000000000E+00 -0.00000000000E+00 -0.24288993923E+03  0.24288993923E+03  0.00000000000E+00 0. -1.
         23    2    1    2    0    0  0.15413586270E+02 -0.12570393935E+03 -0.84414997150E+02  0.19695001541E+03  0.12499743123E+03 0.  0.
          5    1    3    3  502    0  0.53197285730E+01 -0.12268137913E+03 -0.11830991905E+02  0.12345477984E+03  0.47000000000E+01 0. -1.
         -5    1    3    3    0  502  0.10093857697E+02 -0.30225602242E+01 -0.72584005244E+02  0.73495235565E+02  0.47000000000E+01 0. -1.
        -11    1    1    2    0    0 -0.43181093422E+02  0.90012925157E+02 -0.54354782272E+02  0.11367223003E+03  0.00000000000E+00 0.  1.
         11    1    1    2    0    0  0.27767507152E+02  0.35691014193E+02  0.99045009043E+01  0.46292354506E+02  0.00000000000E+00 0. -1.
<mgrwt>
<rscale>  0 0.17153498E+03</rscale>
<asrwt>0</asrwt>
<pdfrwt beam="2">  1        2 0.37367683E-01 0.17794217E+03</pdfrwt>
<pdfrwt beam="1">  1       -2 0.17542256E-01 0.17794217E+03</pdfrwt>
<totfact> 0.35380499E+03</totfact>
</mgrwt>
</event>
<event>
 7    1  0.6008063E-006  0.1867682E+03  0.7546771E-02  0.1167165E+00
         -1   -1    0    0    0  501 -0.00000000000E+00  0.00000000000E+00  0.84408645063E+02  0.84408645063E+02  0.00000000000E+00 0.  1.
          1   -1    0    0  501    0  0.00000000000E+00 -0.00000000000E+00 -0.37942608522E+03  0.37942608522E+03  0.00000000000E+00 0. -1.
         23    2    1    2    0    0  0.97541019492E+02  0.98712262390E+02 -0.20444870301E+03  0.27691445295E+03  0.12499592337E+03 0.  0.
          5    1    3    3  502    0  0.10697309943E+03  0.83583879070E+02 -0.21599697436E+03  0.25515934585E+03  0.47000000000E+01 0.  1.
         -5    1    3    3    0  502 -0.94320799376E+01  0.15128383320E+02  0.11548271346E+02  0.21755107100E+02  0.47000000000E+01 0.  1.
        -11    1    1    2    0    0 -0.37740655749E+02 -0.58473981568E+02  0.19694358697E+01  0.69623575709E+02  0.00000000000E+00 0.  1.
         11    1    1    2    0    0 -0.59800363743E+02 -0.40238280822E+02 -0.92538173015E+02  0.11729670163E+03  0.00000000000E+00 0. -1.
<mgrwt>
<rscale>  0 0.18066132E+03</rscale>
<asrwt>0</asrwt>
<pdfrwt beam="2">  1        1 0.58373243E-01 0.18676815E+03</pdfrwt>
<pdfrwt beam="1">  1       -1 0.12985945E-01 0.18676815E+03</pdfrwt>
<totfact> 0.25853863E+03</totfact>
</mgrwt>
</event>
<event>
 7    1  0.6008063E-006  0.1299876E+03  0.7546771E-02  0.1228505E+00
         -4   -1    0    0    0  501 -0.00000000000E+00  0.00000000000E+00  0.24010994385E+03  0.24010994385E+03  0.00000000000E+00 0.  1.
          4   -1    0    0  501    0  0.00000000000E+00 -0.00000000000E+00 -0.70665087372E+02  0.70665087372E+02  0.00000000000E+00 0. -1.
         23    2    1    2    0    0 -0.31766068377E+02 -0.16252713175E+02  0.60987384515E+02  0.14358355187E+03  0.12499416591E+03 0.  0.
          5    1    3    3  502    0 -0.56126758983E+02 -0.57510416446E+02  0.47992187028E+02  0.93717666901E+02  0.47000000000E+01 0. -1.
         -5    1    3    3    0  502  0.24360690606E+02  0.41257703271E+02  0.12995197488E+02  0.49865884969E+02  0.47000000000E+01 0. -1.
        -11    1    1    2    0    0  0.44232205355E+02 -0.83685230582E+01 -0.95341542605E+01  0.46015435087E+02  0.00000000000E+00 0. -1.
         11    1    1    2    0    0 -0.12466136979E+02  0.24621236233E+02  0.11799162622E+03  0.12117604426E+03  0.00000000000E+00 0.  1.
<mgrwt>
<rscale>  0 0.12929513E+03</rscale>
<asrwt>0</asrwt>
<pdfrwt beam="2">  1        4 0.10871552E-01 0.12998760E+03</pdfrwt>
<pdfrwt beam="1">  1       -4 0.36939991E-01 0.12998760E+03</pdfrwt>
<totfact> 0.76782146E+02</totfact>
</mgrwt>
</event>
<event>
 7    1  0.6008063E-006  0.1363772E+03  0.7546771E-02  0.1229397E+00
         -1   -1    0    0    0  501 -0.00000000000E+00  0.00000000000E+00  0.88224021189E+02  0.88224021189E+02  0.00000000000E+00 0.  1.
          1   -1    0    0  501    0  0.00000000000E+00 -0.00000000000E+00 -0.18511636062E+03  0.18511636062E+03  0.00000000000E+00 0. -1.
         23    2    1    2    0    0  0.36773771009E+02 -0.40282501954E+02 -0.93064472112E+02  0.16510524374E+03  0.12499502128E+03 0.  0.
          5    1    3    3  502    0 -0.12644244901E+02  0.28577166794E+02 -0.70517497587E+02  0.77274438575E+02  0.47000000000E+01 0.  1.
         -5    1    3    3    0  502  0.49418015909E+02 -0.68859668748E+02 -0.22546974525E+02  0.87830805169E+02  0.47000000000E+01 0.  1.
        -11    1    1    2    0    0  0.35198339920E+01  0.53888531866E+02  0.22183883965E+02  0.58382255915E+02  0.00000000000E+00 0.  1.
         11    1    1    2    0    0 -0.40293605000E+02 -0.13606029912E+02 -0.26011751287E+02  0.49852882152E+02  0.00000000000E+00 0. -1.
<mgrwt>
<rscale>  0 0.12870058E+03</rscale>
<asrwt>0</asrwt>
<pdfrwt beam="2">  1        1 0.28479440E-01 0.13637722E+03</pdfrwt>
<pdfrwt beam="1">  1       -1 0.13572927E-01 0.13637722E+03</pdfrwt>
<totfact> 0.58170718E+03</totfact>
</mgrwt>
</event>
<event>
 7    1  0.6008063E-006  0.1387379E+03  0.7546771E-02  0.1222180E+00
         -2   -1    0    0    0  501 -0.00000000000E+00  0.00000000000E+00  0.40195777035E+02  0.40195777035E+02  0.00000000000E+00 0.  1.
          2   -1    0    0  501    0  0.00000000000E+00 -0.00000000000E+00 -0.41750267700E+03  0.41750267700E+03  0.00000000000E+00 0. -1.
         23    2    1    2    0    0 -0.38780459609E+02  0.46041916720E+02 -0.22250040037E+03  0.26221102920E+03  0.12499765407E+03 0.  0.
          5    1    3    3  502    0 -0.10152471472E+02  0.83076879672E+02 -0.97111322313E+02  0.12828694218E+03  0.47000000000E+01 0.  1.
         -5    1    3    3    0  502 -0.28627988136E+02 -0.37034962952E+02 -0.12538907806E+03  0.13392408701E+03  0.47000000000E+01 0.  1.
        -11    1    1    2    0    0  0.96266155298E+01 -0.71753296373E+02 -0.13164459171E+03  0.15023816358E+03  0.00000000000E+00 0. -1.
         11    1    1    2    0    0  0.29153844079E+02  0.25711379653E+02 -0.23161907875E+02  0.45249261261E+02  0.00000000000E+00 0.  1.
<mgrwt>
<rscale>  0 0.13362084E+03</rscale>
<asrwt>0</asrwt>
<pdfrwt beam="2">  1        2 0.64231181E-01 0.13873787E+03</pdfrwt>
<pdfrwt beam="1">  1       -2 0.61839657E-02 0.13873787E+03</pdfrwt>
<totfact> 0.10228988E+04</totfact>
</mgrwt>
</event>
<event>
 7    1  0.6008063E-006  0.1377844E+03  0.7546771E-02  0.1224288E+00
         -2   -1    0    0    0  501 -0.00000000000E+00  0.00000000000E+00  0.23216042721E+03  0.23216042721E+03  0.00000000000E+00 0.  1.
          2   -1    0    0  501    0  0.00000000000E+00 -0.00000000000E+00 -0.71542252493E+02  0.71542252493E+02  0.00000000000E+00 0. -1.
         23    2    1    2    0    0 -0.21437389046E+02 -0.53869845838E+02  0.62500578707E+02  0.15129724849E+03  0.12499205223E+03 0.  0.
          5    1    3    3  502    0 -0.15872109314E+02 -0.63897304766E-01 -0.35550901460E+02  0.39215870914E+02  0.47000000000E+01 0. -1.
         -5    1    3    3    0  502 -0.55652797316E+01 -0.53805948533E+02  0.98051480167E+02  0.11208137757E+03  0.47000000000E+01 0. -1.
        -11    1    1    2    0    0 -0.19288487779E+02  0.63466074755E+02  0.86453641697E+02  0.10896889725E+03  0.00000000000E+00 0.  1.
         11    1    1    2    0    0  0.40725876825E+02 -0.95962289169E+01  0.11663954314E+02  0.43436533964E+02  0.00000000000E+00 0. -1.
<mgrwt>
<rscale>  0 0.13215809E+03</rscale>
<asrwt>0</asrwt>
<pdfrwt beam="2">  1        2 0.11006500E-01 0.13778438E+03</pdfrwt>
<pdfrwt beam="1">  1       -2 0.35716988E-01 0.13778438E+03</pdfrwt>
<totfact> 0.40193281E+03</totfact>
</mgrwt>
</event>
<event>
 7    1  0.6008063E-006  0.1365430E+03  0.7546771E-02  0.1229269E+00
          1   -1    0    0  501    0  0.00000000000E+00  0.00000000000E+00  0.18208661436E+02  0.18208661436E+02  0.00000000000E+00 0. -1.
         -1   -1    0    0    0  501 -0.00000000000E+00 -0.00000000000E+00 -0.82216976164E+03  0.82216976164E+03  0.00000000000E+00 0.  1.
         23    2    1    2    0    0  0.54882259326E+02 -0.27175084782E+01 -0.43638465017E+03  0.45724780042E+03  0.12499816333E+03 0.  0.
          5    1    3    3  502    0  0.45577630812E+02 -0.66853428847E+01 -0.41422893631E+02  0.62128579226E+02  0.47000000000E+01 0. -1.
         -5    1    3    3    0  502  0.93046285135E+01  0.39678344065E+01 -0.39496175654E+03  0.39511922119E+03  0.47000000000E+01 0. -1.
        -11    1    1    2    0    0  0.11913958284E+02 -0.29225185797E+02 -0.75830235867E+02  0.82135732532E+02  0.00000000000E+00 0. -1.
         11    1    1    2    0    0 -0.66796217610E+02  0.31942694276E+02 -0.29174621417E+03  0.30099489013E+03  0.00000000000E+00 0.  1.
<mgrwt>
<rscale>  0 0.12878543E+03</rscale>
<asrwt>0</asrwt>
<pdfrwt beam="1">  1        1 0.28013328E-02 0.13654299E+03</pdfrwt>
<pdfrwt beam="2">  1       -1 0.12648764E+00 0.13654299E+03</pdfrwt>
<totfact> 0.21191359E+03</totfact>
</mgrwt>
</event>
<event>
 7    1  0.6008063E-006  0.1261223E+03  0.7546771E-02  0.1248202E+00
          2   -1    0    0  501    0  0.00000000000E+00  0.00000000000E+00  0.31016247727E+03  0.31016247727E+03  0.00000000000E+00 0.  1.
         -2   -1    0    0    0  501 -0.00000000000E+00 -0.00000000000E+00 -0.47554771352E+02  0.47554771352E+02  0.00000000000E+00 0. -1.
         23    2    1    2    0    0 -0.12350633246E+01 -0.16791125219E+02  0.22339600179E+03  0.25653969637E+03  0.12499349956E+03 0.  0.
          5    1    3    3  502    0  0.39409511010E+02 -0.44889199891E+02  0.56267223421E+02  0.82196351844E+02  0.47000000000E+01 0. -1.
         -5    1    3    3    0  502 -0.40644574334E+02  0.28098074672E+02  0.16712877837E+03  0.17434334453E+03  0.47000000000E+01 0. -1.
        -11    1    1    2    0    0  0.24672915904E+02  0.46771757248E+01 -0.22717128656E+02  0.33862910187E+02  0.00000000000E+00 0. -1.
         11    1    1    2    0    0 -0.23437852580E+02  0.12113949494E+02  0.61928832783E+02  0.67314642061E+02  0.00000000000E+00 0.  1.
<mgrwt>
<rscale>  0 0.11695796E+03</rscale>
<asrwt>0</asrwt>
<pdfrwt beam="1">  1        2 0.47717303E-01 0.12612233E+03</pdfrwt>
<pdfrwt beam="2">  1       -2 0.73161189E-02 0.12612233E+03</pdfrwt>
<totfact> 0.10778241E+04</totfact>
</mgrwt>
</event>
<event>
 7    1  0.6008063E-006  0.1545164E+03  0.7546771E-02  0.1202958E+00
         -2   -1    0    0    0  501 -0.00000000000E+00  0.00000000000E+00  0.28924174066E+02  0.28924174066E+02  0.00000000000E+00 0.  1.
          2   -1    0    0  501    0  0.00000000000E+00 -0.00000000000E+00 -0.16026765294E+04  0.16026765294E+04  0.00000000000E+00 0. -1.
         23    2    1    2    0    0  0.89803793831E+02  0.13615703887E+02 -0.14277387635E+04  0.14360756565E+04  0.12500082253E+03 0.  0.
          5    1    3    3  502    0  0.82191001670E+02 -0.45137442184E+02 -0.78481267020E+03  0.79040860746E+03  0.47000000000E+01 0.  1.
         -5    1    3    3    0  502  0.76127921606E+01  0.58753146071E+02 -0.64292609332E+03  0.64566704907E+03  0.47000000000E+01 0.  1.
        -11    1    1    2    0    0 -0.39000730255E+02  0.33742485096E+02 -0.28238676896E+02  0.58796557159E+02  0.00000000000E+00 0.  1.
         11    1    1    2    0    0 -0.50803063576E+02 -0.47358188983E+02 -0.11777491489E+03  0.13672848975E+03  0.00000000000E+00 0. -1.
<mgrwt>
<rscale>  0 0.14799570E+03</rscale>
<asrwt>0</asrwt>
<pdfrwt beam="2">  1        2 0.24656568E+00 0.15451639E+03</pdfrwt>
<pdfrwt beam="1">  1       -2 0.44498719E-02 0.15451639E+03</pdfrwt>
<totfact> 0.28086214E+03</totfact>
</mgrwt>
</event>
<event>
 7    1  0.6008063E-006  0.1407386E+03  0.7546771E-02  0.1223132E+00
         -1   -1    0    0    0  501 -0.00000000000E+00  0.00000000000E+00  0.14590031765E+02  0.14590031765E+02  0.00000000000E+00 0.  1.
          1   -1    0    0  501    0  0.00000000000E+00 -0.00000000000E+00 -0.11556374381E+04  0.11556374381E+04  0.00000000000E+00 0. -1.
         23    2    1    2    0    0 -0.39379123588E+02  0.51309973692E+02 -0.76453411283E+03  0.77738005526E+03  0.12499564732E+03 0.  0.
          5    1    3    3  502    0 -0.60305783354E+02  0.70176988045E+02 -0.35632752650E+03  0.36817522092E+03  0.47000000000E+01 0. -1.
         -5    1    3    3    0  502  0.20926659765E+02 -0.18867014353E+02 -0.40820658634E+03  0.40920483434E+03  0.47000000000E+01 0. -1.
        -11    1    1    2    0    0  0.50663535378E+02 -0.10334760575E+00 -0.10840492504E+03  0.11965965181E+03  0.00000000000E+00 0.  1.
         11    1    1    2    0    0 -0.11284411789E+02 -0.51206626086E+02 -0.26810836842E+03  0.27318776276E+03  0.00000000000E+00 0. -1.
<mgrwt>
<rscale>  0 0.13295756E+03</rscale>
<asrwt>0</asrwt>
<pdfrwt beam="2">  1        1 0.17779041E+00 0.14073855E+03</pdfrwt>
<pdfrwt beam="1">  1       -1 0.22446199E-02 0.14073855E+03</pdfrwt>
<totfact> 0.69441993E+03</totfact>
</mgrwt>
</event>
<event>
 7    1  0.6008063E-006  0.1966922E+03  0.7546771E-02  0.1156943E+00
          1   -1    0    0  501    0  0.00000000000E+00  0.00000000000E+00  0.13159199852E+03  0.13159199852E+03  0.00000000000E+00 0. -1.
         -1   -1    0    0    0  501 -0.00000000000E+00 -0.00000000000E+00 -0.30041384206E+03  0.30041384206E+03  0.00000000000E+00 0.  1.
         23    2    1    2    0    0 -0.15517231804E+01  0.15184721631E+03 -0.15159631142E+02  0.19727549784E+03  0.12501129024E+03 0.  0.
          5    1    3    3  502    0  0.17988461147E+02  0.14447138307E+03 -0.52000212536E+02  0.15466634206E+03  0.47000000000E+01 0. -1.
         -5    1    3    3    0  502 -0.19540184327E+02  0.73758332407E+01  0.36840581395E+02  0.42609155789E+02  0.47000000000E+01 0. -1.
        -11    1    1    2    0    0  0.23509329215E+02 -0.72997476130E+01 -0.49282237293E+02  0.55088236385E+02  0.00000000000E+00 0.  1.
         11    1    1    2    0    0 -0.21957606035E+02 -0.14454746870E+03 -0.10437997511E+03  0.17964210635E+03  0.00000000000E+00 0. -1.
<mgrwt>
<rscale>  0 0.19169263E+03</rscale>
<asrwt>0</asrwt>
<pdfrwt beam="1">  1        1 0.20244923E-01 0.19669216E+03</pdfrwt>
<pdfrwt beam="2">  1       -1 0.46217513E-01 0.19669216E+03</pdfrwt>
<totfact> 0.11869557E+03</totfact>
</mgrwt>
</event>
<event>
 7    1  0.6008063E-006  0.1607674E+03  0.7546771E-02  0.1195778E+00
         -2   -1    0    0    0  501 -0.00000000000E+00  0.00000000000E+00  0.18266909339E+02  0.18266909339E+02  0.00000000000E+00 0.  1.
          2   -1    0    0  501    0  0.00000000000E+00 -0.00000000000E+00 -0.11970315914E+04  0.11970315914E+04  0.00000000000E+00 0. -1.
         23    2    1    2    0    0 -0.26984646543E+02 -0.97431768893E+02 -0.64745052795E+03  0.66711193349E+03  0.12500009968E+03 0.  0.
          5    1    3    3  502    0 -0.22562779419E+02 -0.11899664775E+03 -0.38338702417E+03  0.40209076275E+03  0.47000000000E+01 0. -1.
         -5    1    3    3    0  502 -0.44218671244E+01  0.21564878853E+02 -0.26406350379E+03  0.26502117074E+03  0.47000000000E+01 0. -1.
        -11    1    1    2    0    0 -0.24184543329E+02  0.13682915117E+02 -0.52317811961E+02  0.59239072837E+02  0.00000000000E+00 0. -1.
         11    1    1    2    0    0  0.51169189872E+02  0.83748853776E+02 -0.47899634212E+03  0.48894749439E+03  0.00000000000E+00 0.  1.
<mgrwt>
<rscale>  0 0.15388576E+03</rscale>
<asrwt>0</asrwt>
<pdfrwt beam="2">  1        2 0.18415870E+00 0.16076737E+03</pdfrwt>
<pdfrwt beam="1">  1       -2 0.28102939E-02 0.16076737E+03</pdfrwt>
<totfact> 0.91600680E+03</totfact>
</mgrwt>
</event>
<event>
 7    1  0.6008063E-006  0.1432964E+03  0.7546771E-02  0.1219465E+00
          1   -1    0    0  501    0  0.00000000000E+00  0.00000000000E+00  0.14446061627E+04  0.14446061627E+04  0.00000000000E+00 0. -1.
         -1   -1    0    0    0  501 -0.00000000000E+00 -0.00000000000E+00 -0.13027867342E+02  0.13027867342E+02  0.00000000000E+00 0.  1.
         23    2    1    2    0    0  0.30197748360E+02  0.63215368028E+02  0.10327487237E+04  0.10426426861E+04  0.12500303042E+03 0.  0.
          5    1    3    3  502    0  0.64323731081E+02  0.36344713610E+02  0.31568471783E+03  0.32424899639E+03  0.47000000000E+01 0.  1.
         -5    1    3    3    0  502 -0.34125982721E+02  0.26870654418E+02  0.71706400592E+03  0.71839368966E+03  0.47000000000E+01 0.  1.
        -11    1    1    2    0    0  0.16742730631E+02 -0.63031052539E+02  0.18772024867E+03  0.19872625487E+03  0.00000000000E+00 0. -1.
         11    1    1    2    0    0 -0.46940478991E+02 -0.18431548866E+00  0.21110932290E+03  0.21626508908E+03  0.00000000000E+00 0.  1.
<mgrwt>
<rscale>  0 0.13553566E+03</rscale>
<asrwt>0</asrwt>
<pdfrwt beam="1">  1        1 0.22224698E+00 0.14329635E+03</pdfrwt>
<pdfrwt beam="2">  1       -1 0.20042884E-02 0.14329635E+03</pdfrwt>
<totfact> 0.52381899E+03</totfact>
</mgrwt>
</event>
<event>
 7    1  0.6008063E-006  0.1353148E+03  0.7546771E-02  0.1231019E+00
          2   -1    0    0  501    0  0.00000000000E+00  0.00000000000E+00  0.32950665015E+02  0.32950665015E+02  0.00000000000E+00 0. -1.
         -2   -1    0    0    0  501 -0.00000000000E+00 -0.00000000000E+00 -0.56973210188E+03  0.56973210188E+03  0.00000000000E+00 0.  1.
         23    2    1    2    0    0 -0.22963997416E+02 -0.49211341580E+02 -0.15305645525E+03  0.20429481698E+03  0.12393947084E+03 0.  0.
          5    1    3    3  502    0  0.22343844541E+02 -0.55776551883E+02 -0.19994807950E+02  0.63499239947E+02  0.47000000000E+01 0. -1.
         -5    1    3    3    0  502 -0.45307841956E+02  0.65652103034E+01 -0.13306164730E+03  0.14079557703E+03  0.47000000000E+01 0.  1.
        -11    1    1    2    0    0 -0.32542973147E+02  0.35020541016E+00 -0.13744089220E+03  0.14124151866E+03  0.00000000000E+00 0.  1.
         11    1    1    2    0    0  0.55506970563E+02  0.48861136170E+02 -0.24628408941E+03  0.25714643126E+03  0.00000000000E+00 0. -1.
<mgrwt>
<rscale>  0 0.12762783E+03</rscale>
<asrwt>0</asrwt>
<pdfrwt beam="1">  1        2 0.50693327E-02 0.13531480E+03</pdfrwt>
<pdfrwt beam="2">  1       -2 0.87651100E-01 0.13531480E+03</pdfrwt>
<totfact> 0.17257863E+03</totfact>
</mgrwt>
</event>
<event>
 7    1  0.6008063E-006  0.1329916E+03  0.7546771E-02  0.1239559E+00
          1   -1    0    0  501    0  0.00000000000E+00  0.00000000000E+00  0.13990573810E+03  0.13990573810E+03  0.00000000000E+00 0. -1.
         -1   -1    0    0    0  501 -0.00000000000E+00 -0.00000000000E+00 -0.98675358293E+02  0.98675358293E+02  0.00000000000E+00 0.  1.
         23    2    1    2    0    0 -0.13784225239E+02 -0.43276528616E+02  0.52960291921E+02  0.14314871540E+03  0.12499559754E+03 0.  0.
          5    1    3    3  502    0  0.63922204326E+01 -0.49904347326E+02 -0.29061376869E+02  0.58292006224E+02  0.47000000000E+01 0. -1.
         -5    1    3    3    0  502 -0.20176445672E+02  0.66278187096E+01  0.82021668790E+02  0.84856709174E+02  0.47000000000E+01 0. -1.
        -11    1    1    2    0    0  0.16261387729E+02  0.24231710212E+02  0.34609636215E+02  0.45270690624E+02  0.00000000000E+00 0. -1.
         11    1    1    2    0    0 -0.24771624900E+01  0.19044818404E+02 -0.46339548327E+02  0.50161690374E+02  0.00000000000E+00 0.  1.
<mgrwt>
<rscale>  0 0.12217031E+03</rscale>
<asrwt>0</asrwt>
<pdfrwt beam="1">  1        1 0.21523960E-01 0.13299159E+03</pdfrwt>
<pdfrwt beam="2">  1       -1 0.15180824E-01 0.13299159E+03</pdfrwt>
<totfact> 0.69300323E+03</totfact>
</mgrwt>
</event>
<event>
 7    1  0.6008063E-006  0.1843813E+03  0.7546771E-02  0.1168080E+00
          2   -1    0    0  501    0  0.00000000000E+00  0.00000000000E+00  0.30289172233E+03  0.30289172233E+03  0.00000000000E+00 0. -1.
         -2   -1    0    0    0  501 -0.00000000000E+00 -0.00000000000E+00 -0.10393444053E+03  0.10393444053E+03  0.00000000000E+00 0.  1.
         23    2    1    2    0    0  0.10077249229E+03  0.90658607617E+02  0.13512302563E+03  0.22859289996E+03  0.12498961365E+03 0.  0.
          5    1    3    3  502    0  0.10712108623E+03  0.94838375665E+02  0.15243407861E+03  0.20911117363E+03  0.47000000000E+01 0. -1.
         -5    1    3    3    0  502 -0.63485939404E+01 -0.41797680482E+01 -0.17311052976E+02  0.19481726338E+02  0.47000000000E+01 0. -1.
        -11    1    1    2    0    0  0.95301654609E+01 -0.19435475685E+02 -0.13827381369E+02  0.25685759563E+02  0.00000000000E+00 0.  1.
         11    1    1    2    0    0 -0.11030265775E+03 -0.71223131932E+02  0.77661637532E+02  0.15254750334E+03  0.00000000000E+00 0. -1.
<mgrwt>
<rscale>  0 0.17971428E+03</rscale>
<asrwt>0</asrwt>
<pdfrwt beam="1">  1        2 0.46598726E-01 0.18438135E+03</pdfrwt>
<pdfrwt beam="2">  1       -2 0.15989914E-01 0.18438135E+03</pdfrwt>
<totfact> 0.32637708E+03</totfact>
</mgrwt>
</event>
<event>
 7    1  0.6008063E-006  0.1308747E+03  0.7546771E-02  0.1242991E+00
          1   -1    0    0  501    0  0.00000000000E+00  0.00000000000E+00  0.21751009935E+04  0.21751009935E+04  0.00000000000E+00 0. -1.
         -1   -1    0    0    0  501 -0.00000000000E+00 -0.00000000000E+00 -0.14959829301E+02  0.14959829301E+02  0.00000000000E+00 0.  1.
         23    2    1    2    0    0  0.17085555765E+01 -0.38747231569E+02  0.20054747058E+04  0.20097405239E+04  0.12499564257E+03 0.  0.
          5    1    3    3  502    0 -0.21318205047E+02 -0.58030805610E+02  0.48310516893E+03  0.48706748456E+03  0.47000000000E+01 0.  1.
         -5    1    3    3    0  502  0.23026760623E+02  0.19283574041E+02  0.15223695369E+04  0.15226730393E+04  0.47000000000E+01 0.  1.
        -11    1    1    2    0    0 -0.41423666807E+02  0.30135167135E+02  0.98105995619E+02  0.11067445435E+03  0.00000000000E+00 0. -1.
         11    1    1    2    0    0  0.39715111230E+02  0.86120644343E+01  0.56560462787E+02  0.69645844560E+02  0.00000000000E+00 0.  1.
<mgrwt>
<rscale>  0 0.12006438E+03</rscale>
<asrwt>0</asrwt>
<pdfrwt beam="1">  1        1 0.33463067E+00 0.13087466E+03</pdfrwt>
<pdfrwt beam="2">  1       -1 0.23015139E-02 0.13087466E+03</pdfrwt>
<totfact> 0.14620131E+03</totfact>
</mgrwt>
</event>
<event>
 7    1  0.6008063E-006  0.1579528E+03  0.7546771E-02  0.1199324E+00
          4   -1    0    0  501    0  0.00000000000E+00  0.00000000000E+00  0.70869712095E+03  0.70869712095E+03  0.00000000000E+00 0. -1.
         -4   -1    0    0    0  501 -0.00000000000E+00 -0.00000000000E+00 -0.32556776351E+02  0.32556776351E+02  0.00000000000E+00 0.  1.
         23    2    1    2    0    0  0.96113492907E+02  0.93842877557E+01  0.47722212071E+03  0.50268284532E+03  0.12499288825E+03 0.  0.
          5    1    3    3  502    0  0.61785140377E+02  0.53222560067E+02  0.15069584221E+03  0.17140995108E+03  0.47000000000E+01 0.  1.
         -5    1    3    3    0  502  0.34328352530E+02 -0.43838272311E+02  0.32652627850E+03  0.33127289424E+03  0.47000000000E+01 0.  1.
        -11    1    1    2    0    0 -0.87025600133E+02  0.67157290409E+01  0.20179279729E+03  0.21986106780E+03  0.00000000000E+00 0. -1.
         11    1    1    2    0    0 -0.90878927740E+01 -0.16100016797E+02 -0.28745733976E+01  0.18709984183E+02  0.00000000000E+00 0.  1.
<mgrwt>
<rscale>  0 0.15093874E+03</rscale>
<asrwt>0</asrwt>
<pdfrwt beam="1">  1        4 0.10903031E+00 0.15795281E+03</pdfrwt>
<pdfrwt beam="2">  1       -4 0.50087354E-02 0.15795281E+03</pdfrwt>
<totfact> 0.28479810E+02</totfact>
</mgrwt>
</event>
<event>
 7    1  0.6008063E-006  0.2127038E+03  0.7546771E-02  0.1143279E+00
          2   -1    0    0  501    0  0.00000000000E+00  0.00000000000E+00  0.16583083808E+03  0.16583083808E+03  0.00000000000E+00 0. -1.
         -2   -1    0    0    0  501 -0.00000000000E+00 -0.00000000000E+00 -0.27109379245E+03  0.27109379245E+03  0.00000000000E+00 0.  1.
         23    2    1    2    0    0  0.15976414488E+03 -0.58300381029E+02  0.70204418466E+01  0.21281964605E+03  0.12774740203E+03 0.  0.
          5    1    3    3  502    0  0.71468163344E+02 -0.13415886552E+02 -0.58942583131E+02  0.93723009394E+02  0.47000000000E+01 0. -1.
         -5    1    3    3    0  502  0.88295981533E+02 -0.44884494477E+02  0.65963024977E+02  0.11909663666E+03  0.47000000000E+01 0.  1.
        -11    1    1    2    0    0 -0.12801238109E+02 -0.93601543743E+01  0.12166595718E+02  0.19987752209E+02  0.00000000000E+00 0.  1.
         11    1    1    2    0    0 -0.14696290677E+03  0.67660535403E+02 -0.12444999194E+03  0.20411723227E+03  0.00000000000E+00 0. -1.
<mgrwt>
<rscale>  0 0.20785109E+03</rscale>
<asrwt>0</asrwt>
<pdfrwt beam="1">  1        2 0.25512437E-01 0.21270382E+03</pdfrwt>
<pdfrwt beam="2">  1       -2 0.41706737E-01 0.21270382E+03</pdfrwt>
<totfact> 0.11491711E+03</totfact>
</mgrwt>
</event>
<event>
 7    1  0.6008063E-006  0.1678865E+03  0.7546771E-02  0.1187030E+00
          2   -1    0    0  501    0  0.00000000000E+00  0.00000000000E+00  0.57401882640E+03  0.57401882640E+03  0.00000000000E+00 0. -1.
         -2   -1    0    0    0  501 -0.00000000000E+00 -0.00000000000E+00 -0.42652621115E+02  0.42652621115E+02  0.00000000000E+00 0.  1.
         23    2    1    2    0    0  0.34513331659E+02 -0.10663578718E+03  0.31460956725E+03  0.35660212137E+03  0.12499412782E+03 0.  0.
          5    1    3    3  502    0 -0.19193973551E+02  0.12662386854E+02  0.10897994747E+02  0.25876648759E+02  0.47000000000E+01 0.  1.
         -5    1    3    3    0  502  0.53707305210E+02 -0.11929817403E+03  0.30371157250E+03  0.33072547261E+03  0.47000000000E+01 0.  1.
        -11    1    1    2    0    0 -0.22975887500E+02  0.79491945020E+02  0.21517071484E+03  0.23053263815E+03  0.00000000000E+00 0. -1.
         11    1    1    2    0    0 -0.11537444160E+02  0.27143842160E+02  0.15859231921E+01  0.29536687988E+02  0.00000000000E+00 0.  1.
<mgrwt>
<rscale>  0 0.16148560E+03</rscale>
<asrwt>0</asrwt>
<pdfrwt beam="1">  1        2 0.88310583E-01 0.16788655E+03</pdfrwt>
<pdfrwt beam="2">  1       -2 0.65619421E-02 0.16788655E+03</pdfrwt>
<totfact> 0.66584828E+03</totfact>
</mgrwt>
</event>
<event>
 6    1  0.6008063E-006  0.3985331E+03  0.7546771E-02  0.1095977E+00
         -2   -1    0    0    0  501 -0.00000000000E+00  0.00000000000E+00  0.68078909064E+02  0.68078909064E+02  0.00000000000E+00 0.  1.
          2   -1    0    0  501    0  0.00000000000E+00 -0.00000000000E+00 -0.91875113145E+03  0.91875113145E+03  0.00000000000E+00 0. -1.
          5    1    1    2  502    0  0.66994266399E+02  0.40882079516E+02 -0.77492441807E+03  0.77890276664E+03  0.47000000000E+01 0. -1.
         -5    1    1    2    0  502 -0.34149415556E+02 -0.27698820638E+02  0.38377333745E+02  0.58551831679E+02  0.47000000000E+01 0.  1.
        -11    1    1    2    0    0 -0.16610008996E+02 -0.49944017019E+02 -0.84095796998E+02  0.99208872121E+02  0.00000000000E+00 0.  1.
         11    1    1    2    0    0 -0.16234841847E+02  0.36760758140E+02 -0.30029341071E+02  0.50166570084E+02  0.00000000000E+00 0. -1.
<mgrwt>
<rscale>  0 0.27947394E+03</rscale>
<asrwt>0</asrwt>
<pdfrwt beam="2">  1        2 0.14134634E+00 0.39853306E+03</pdfrwt>
<pdfrwt beam="1">  1       -2 0.10473678E-01 0.39853306E+03</pdfrwt>
<totfact> 0.18211500E+03</totfact>
</mgrwt>
</event>
<event>
 7    1  0.6008063E-006  0.1492851E+03  0.7546771E-02  0.1211520E+00
         -1   -1    0    0    0  501 -0.00000000000E+00  0.00000000000E+00  0.30658323862E+03  0.30658323862E+03  0.00000000000E+00 0.  1.
          1   -1    0    0  501    0  0.00000000000E+00 -0.00000000000E+00 -0.91869549795E+02  0.91869549795E+02  0.00000000000E+00 0. -1.
         23    2    1    2    0    0  0.58245131212E+02 -0.57173314461E+02 -0.36056520435E+01  0.14932865682E+03  0.12499905529E+03 0.  0.
          5    1    3    3  502    0 -0.62074114351E+01  0.10295944137E+02 -0.45240317926E+02  0.47045879611E+02  0.47000000000E+01 0. -1.
         -5    1    3    3    0  502  0.64452542647E+02 -0.67469258598E+02  0.41634665882E+02  0.10228277720E+03  0.47000000000E+01 0. -1.
        -11    1    1    2    0    0 -0.11037261289E+02  0.25442102184E+02  0.47839327205E+01  0.28142631585E+02  0.00000000000E+00 0. -1.
         11    1    1    2    0    0 -0.47207869924E+02  0.31731212277E+02  0.21353540815E+03  0.22098150001E+03  0.00000000000E+00 0.  1.
<mgrwt>
<rscale>  0 0.14135325E+03</rscale>
<asrwt>0</asrwt>
<pdfrwt beam="2">  1        1 0.14133777E-01 0.14928512E+03</pdfrwt>
<pdfrwt beam="1">  1       -1 0.47166651E-01 0.14928512E+03</pdfrwt>
<totfact> 0.18066014E+03</totfact>
</mgrwt>
</event>
<event>
 7    1  0.6008063E-006  0.2272201E+03  0.7546771E-02  0.1131777E+00
          2   -1    0    0  501    0  0.00000000000E+00  0.00000000000E+00  0.79479018581E+03  0.79479018581E+03  0.00000000000E+00 0. -1.
         -2   -1    0    0    0  501 -0.00000000000E+00 -0.00000000000E+00 -0.65603020856E+02  0.65603020856E+02  0.00000000000E+00 0.  1.
         23    2    1    2    0    0 -0.18335956482E+03  0.48815143181E+02  0.50104002762E+03  0.55015460526E+03  0.12500132874E+03 0.  0.
          5    1    3    3  502    0 -0.15650057947E+03  0.24803483450E+02  0.48534384142E+03  0.51057651588E+03  0.47000000000E+01 0. -1.
         -5    1    3    3    0  502 -0.26858985353E+02  0.24011659731E+02  0.15696186206E+02  0.39578089376E+02  0.47000000000E+01 0. -1.
        -11    1    1    2    0    0  0.12450183037E+03 -0.52079926730E+02  0.96232283923E+02  0.16575185369E+03  0.00000000000E+00 0.  1.
         11    1    1    2    0    0  0.58857734449E+02  0.32647835489E+01  0.13191485341E+03  0.14448674772E+03  0.00000000000E+00 0. -1.
<mgrwt>
<rscale>  0 0.22284815E+03</rscale>
<asrwt>0</asrwt>
<pdfrwt beam="1">  1        2 0.12227541E+00 0.22722011E+03</pdfrwt>
<pdfrwt beam="2">  1       -2 0.10092773E-01 0.22722011E+03</pdfrwt>
<totfact> 0.23291967E+03</totfact>
</mgrwt>
</event>
<event>
 7    1  0.6008063E-006  0.1267935E+03  0.7546771E-02  0.1247279E+00
         -2   -1    0    0    0  501 -0.00000000000E+00  0.00000000000E+00  0.56901649022E+02  0.56901649022E+02  0.00000000000E+00 0.  1.
          2   -1    0    0  501    0  0.00000000000E+00 -0.00000000000E+00 -0.21555639339E+03  0.21555639339E+03  0.00000000000E+00 0. -1.
         23    2    1    2    0    0 -0.20212841417E+02  0.64981609234E+01 -0.10515693969E+03  0.16472577899E+03  0.12500326094E+03 0.  0.
          5    1    3    3  502    0  0.49725219087E+02 -0.83753030925E+01 -0.22743318683E+02  0.55516589052E+02  0.47000000000E+01 0. -1.
         -5    1    3    3    0  502 -0.69938060505E+02  0.14873464016E+02 -0.82413621006E+02  0.10920918994E+03  0.47000000000E+01 0. -1.
        -11    1    1    2    0    0  0.47131262266E+02 -0.29194159510E+02 -0.19450834779E+02  0.58753636533E+02  0.00000000000E+00 0. -1.
         11    1    1    2    0    0 -0.26918420849E+02  0.22695998587E+02 -0.34046969896E+02  0.48978626889E+02  0.00000000000E+00 0.  1.
<mgrwt>
<rscale>  0 0.11750004E+03</rscale>
<asrwt>0</asrwt>
<pdfrwt beam="2">  1        2 0.33162522E-01 0.12679353E+03</pdfrwt>
<pdfrwt beam="1">  1       -2 0.87540999E-02 0.12679353E+03</pdfrwt>
<totfact> 0.12034979E+04</totfact>
</mgrwt>
</event>
<event>
 7    1  0.6008063E-006  0.1367698E+03  0.7546771E-02  0.1230139E+00
          1   -1    0    0  501    0  0.00000000000E+00  0.00000000000E+00  0.45781830308E+03  0.45781830308E+03  0.00000000000E+00 0. -1.
         -1   -1    0    0    0  501 -0.00000000000E+00 -0.00000000000E+00 -0.32358576554E+02  0.32358576554E+02  0.00000000000E+00 0.  1.
         23    2    1    2    0    0 -0.33869926149E+02 -0.44072473440E+02  0.26242579327E+03  0.29592782138E+03  0.12496569002E+03 0.  0.
          5    1    3    3  502    0 -0.18027234016E+02  0.10556922359E+02 -0.54039124389E+01  0.22084429936E+02  0.47000000000E+01 0. -1.
         -5    1    3    3    0  502 -0.15842692133E+02 -0.54629395799E+02  0.26782970571E+03  0.27384339145E+03  0.47000000000E+01 0. -1.
        -11    1    1    2    0    0  0.15330215137E+02  0.22332554926E+02 -0.16182415667E+01  0.27136271141E+02  0.00000000000E+00 0.  1.
         11    1    1    2    0    0  0.18539711012E+02  0.21739918514E+02  0.16465217482E+03  0.16711278711E+03  0.00000000000E+00 0. -1.
<mgrwt>
<rscale>  0 0.12820792E+03</rscale>
<asrwt>0</asrwt>
<pdfrwt beam="1">  1        1 0.70433580E-01 0.13676980E+03</pdfrwt>
<pdfrwt beam="2">  1       -1 0.49782429E-02 0.13676980E+03</pdfrwt>
<totfact> 0.85826149E+03</totfact>
</mgrwt>
</event>
<event>
 7    1  0.6008063E-006  0.1327950E+03  0.7546771E-02  0.1236296E+00
         -1   -1    0    0    0  501 -0.00000000000E+00  0.00000000000E+00  0.30015455847E+02  0.30015455847E+02  0.00000000000E+00 0.  1.
          1   -1    0    0  501    0  0.00000000000E+00 -0.00000000000E+00 -0.14472322547E+04  0.14472322547E+04  0.00000000000E+00 0. -1.
         23    2    1    2    0    0  0.44257016317E+02  0.69545440351E+01 -0.13473646788E+04  0.13538929357E+04  0.12500981691E+03 0.  0.
          5    1    3    3  502    0  0.87267457893E+02  0.15305857496E+02 -0.89429482977E+03  0.89868526806E+03  0.47000000000E+01 0.  1.
         -5    1    3    3    0  502 -0.43010441576E+02 -0.83513134612E+01 -0.45306984907E+03  0.45520766761E+03  0.47000000000E+01 0.  1.
        -11    1    1    2    0    0 -0.18097322551E+02  0.55431218522E+01  0.20833650464E+02  0.28147473688E+02  0.00000000000E+00 0.  1.
         11    1    1    2    0    0 -0.26159693766E+02 -0.12497665887E+02 -0.90685770447E+02  0.95207301149E+02  0.00000000000E+00 0. -1.
<mgrwt>
<rscale>  0 0.12421841E+03</rscale>
<asrwt>0</asrwt>
<pdfrwt beam="2">  1        1 0.22265112E+00 0.13279497E+03</pdfrwt>
<pdfrwt beam="1">  1       -1 0.46177624E-02 0.13279497E+03</pdfrwt>
<totfact> 0.15432738E+03</totfact>
</mgrwt>
</event>
<event>
 7    1  0.6008063E-006  0.1560795E+03  0.7546771E-02  0.1201164E+00
          2   -1    0    0  501    0  0.00000000000E+00  0.00000000000E+00  0.61584586444E+03  0.61584586444E+03  0.00000000000E+00 0. -1.
         -2   -1    0    0    0  501 -0.00000000000E+00 -0.00000000000E+00 -0.35974745837E+02  0.35974745837E+02  0.00000000000E+00 0.  1.
         23    2    1    2    0    0  0.66489246258E+02 -0.65690114214E+02  0.39862897007E+03  0.42809562518E+03  0.12499919018E+03 0.  0.
          5    1    3    3  502    0  0.52027884204E+00  0.10755832186E+02  0.23811386759E+03  0.23840357077E+03  0.47000000000E+01 0.  1.
         -5    1    3    3    0  502  0.65968967416E+02 -0.76445946399E+02  0.16051510247E+03  0.18969205441E+03  0.47000000000E+01 0.  1.
        -11    1    1    2    0    0 -0.46735828604E+02 -0.12807469031E+02  0.86176614611E+02  0.98866970441E+02  0.00000000000E+00 0. -1.
         11    1    1    2    0    0 -0.19753417654E+02  0.78497583245E+02  0.95065533924E+02  0.12485801466E+03  0.00000000000E+00 0.  1.
<mgrwt>
<rscale>  0 0.14943886E+03</rscale>
<asrwt>0</asrwt>
<pdfrwt beam="1">  1        2 0.94745510E-01 0.15607949E+03</pdfrwt>
<pdfrwt beam="2">  1       -2 0.55345767E-02 0.15607949E+03</pdfrwt>
<totfact> 0.79320532E+03</totfact>
</mgrwt>
</event>
<event>
 7    1  0.6008063E-006  0.1257705E+03  0.7546771E-02  0.1248983E+00
          1   -1    0    0  501    0  0.00000000000E+00  0.00000000000E+00  0.10324076105E+04  0.10324076105E+04  0.00000000000E+00 0. -1.
         -1   -1    0    0    0  501 -0.00000000000E+00 -0.00000000000E+00 -0.21306732818E+02  0.21306732818E+02  0.00000000000E+00 0.  1.
         23    2    1    2    0    0  0.92408508851E+01  0.10330221702E+02  0.90151961222E+03  0.91025042216E+03  0.12500445199E+03 0.  0.
          5    1    3    3  502    0  0.59513894402E+02  0.61112382475E+01  0.26466079340E+03  0.27137921148E+03  0.47000000000E+01 0. -1.
         -5    1    3    3    0  502 -0.50273043517E+02  0.42189834544E+01  0.63685881882E+03  0.63887121068E+03  0.47000000000E+01 0. -1.
        -11    1    1    2    0    0  0.39621517999E+02  0.67594658580E+01  0.39661608497E+02  0.56467674432E+02  0.00000000000E+00 0. -1.
         11    1    1    2    0    0 -0.48862368884E+02 -0.17089687560E+02  0.69919656946E+02  0.86996246708E+02  0.00000000000E+00 0.  1.
<mgrwt>
<rscale>  0 0.11650137E+03</rscale>
<asrwt>0</asrwt>
<pdfrwt beam="1">  1        1 0.15883190E+00 0.12577050E+03</pdfrwt>
<pdfrwt beam="2">  1       -1 0.32779597E-02 0.12577050E+03</pdfrwt>
<totfact> 0.48729631E+03</totfact>
</mgrwt>
</event>
<event>
 7    1  0.6178658E-006  0.2023165E+03  0.7546771E-02  0.1151816E+00
          1   -1    0    0  501    0  0.00000000000E+00  0.00000000000E+00  0.53735649199E+03  0.53735649199E+03  0.00000000000E+00 0. -1.
         -1   -1    0    0    0  501 -0.00000000000E+00 -0.00000000000E+00 -0.69604967600E+02  0.69604967600E+02  0.00000000000E+00 0.  1.
         23    2    1    2    0    0 -0.13564096589E+03 -0.83112944074E+02  0.26093582836E+03  0.33018096151E+03  0.12500291083E+03 0.  0.
          5    1    3    3  502    0 -0.97592696159E+02 -0.61162467317E+01  0.68751968476E+02  0.11962719585E+03  0.47000000000E+01 0. -1.
         -5    1    3    3    0  502 -0.38048269736E+02 -0.76996697343E+02  0.19218385988E+03  0.21055376566E+03  0.47000000000E+01 0. -1.
        -11    1    1    2    0    0  0.30894574238E+02  0.71576390840E+02  0.76971425734E+02  0.10955480283E+03  0.00000000000E+00 0. -1.
         11    1    1    2    0    0  0.10474639166E+03  0.11536553235E+02  0.12984427029E+03  0.16722569526E+03  0.00000000000E+00 0.  1.
<mgrwt>
<rscale>  0 0.19755761E+03</rscale>
<asrwt>0</asrwt>
<pdfrwt beam="1">  1        1 0.82670227E-01 0.20231649E+03</pdfrwt>
<pdfrwt beam="2">  1       -1 0.10708457E-01 0.20231649E+03</pdfrwt>
<totfact> 0.22249829E+03</totfact>
</mgrwt>
</event>
<event>
 7    1  0.6008063E-006  0.1921443E+03  0.7546771E-02  0.1161251E+00
          1   -1    0    0  501    0  0.00000000000E+00  0.00000000000E+00  0.76938056588E+03  0.76938056588E+03  0.00000000000E+00 0. -1.
         -1   -1    0    0    0  501 -0.00000000000E+00 -0.00000000000E+00 -0.46239140196E+02  0.46239140196E+02  0.00000000000E+00 0.  1.
         23    2    1    2    0    0  0.14292411085E+03 -0.29444195401E+02  0.48577053358E+03  0.52239108368E+03  0.12500068363E+03 0.  0.
          5    1    3    3  502    0  0.82019358750E+02  0.22816889155E+02  0.11589622929E+03  0.14388124132E+03  0.47000000000E+01 0.  1.
         -5    1    3    3    0  502  0.60904752098E+02 -0.52261084555E+02  0.36987430430E+03  0.37850984236E+03  0.47000000000E+01 0.  1.
        -11    1    1    2    0    0 -0.22513747201E+02 -0.43685626376E+01 -0.21363875703E+01  0.23032961260E+02  0.00000000000E+00 0.  1.
         11    1    1    2    0    0 -0.12041036365E+03  0.33812758038E+02  0.23950727967E+03  0.27019566113E+03  0.00000000000E+00 0. -1.
<mgrwt>
<rscale>  0 0.18693985E+03</rscale>
<asrwt>0</asrwt>
<pdfrwt beam="1">  1        1 0.11836623E+00 0.19214430E+03</pdfrwt>
<pdfrwt beam="2">  1       -1 0.71137145E-02 0.19214430E+03</pdfrwt>
<totfact> 0.25020545E+03</totfact>
</mgrwt>
</event>
<event>
 7    1  0.6008063E-006  0.1334349E+03  0.7546771E-02  0.1233910E+00
          1   -1    0    0  501    0  0.00000000000E+00  0.00000000000E+00  0.36841829394E+03  0.36841829394E+03  0.00000000000E+00 0. -1.
         -1   -1    0    0    0  501 -0.00000000000E+00 -0.00000000000E+00 -0.41388674309E+02  0.41388674309E+02  0.00000000000E+00 0.  1.
         23    2    1    2    0    0 -0.73243629874E+01 -0.46117269805E+02  0.23389325106E+03  0.26927851969E+03  0.12499767762E+03 0.  0.
          5    1    3    3  502    0 -0.29320406553E+02  0.36790283269E+02  0.75249879987E+02  0.88869824021E+02  0.47000000000E+01 0.  1.
         -5    1    3    3    0  502  0.21996043566E+02 -0.82907553074E+02  0.15864337107E+03  0.18040869567E+03  0.47000000000E+01 0.  1.
        -11    1    1    2    0    0 -0.32671727441E+02  0.44152401645E+02  0.82472053215E+02  0.99088424685E+02  0.00000000000E+00 0. -1.
         11    1    1    2    0    0  0.39996090429E+02  0.19648681599E+01  0.10664315357E+02  0.41440023872E+02  0.00000000000E+00 0.  1.
<mgrwt>
<rscale>  0 0.12574462E+03</rscale>
<asrwt>0</asrwt>
<pdfrwt beam="1">  1        1 0.56679735E-01 0.13343488E+03</pdfrwt>
<pdfrwt beam="2">  1       -1 0.63674886E-02 0.13343488E+03</pdfrwt>
<totfact> 0.78250014E+03</totfact>
</mgrwt>
</event>
<event>
 7    1  0.6008063E-006  0.1429003E+03  0.7546771E-02  0.1219552E+00
         -2   -1    0    0    0  501 -0.00000000000E+00  0.00000000000E+00  0.20747428163E+02  0.20747428163E+02  0.00000000000E+00 0.  1.
          2   -1    0    0  501    0  0.00000000000E+00 -0.00000000000E+00 -0.82793055572E+03  0.82793055572E+03  0.00000000000E+00 0. -1.
         23    2    1    2    0    0  0.32734727142E+02  0.61018937010E+02 -0.51681340074E+03  0.53620573822E+03  0.12500251786E+03 0.  0.
          5    1    3    3  502    0 -0.45931511714E+00  0.68876376742E+01  0.55169674042E+01  0.10008868690E+02  0.47000000000E+01 0.  1.
         -5    1    3    3    0  502  0.33194042259E+02  0.54131299336E+02 -0.52233036815E+03  0.52619686953E+03  0.47000000000E+01 0.  1.
        -11    1    1    2    0    0 -0.25117879617E+02  0.20520173280E+02 -0.10303580110E+03  0.10802019115E+03  0.00000000000E+00 0. -1.
         11    1    1    2    0    0 -0.76168475254E+01 -0.81539110290E+02 -0.18733392571E+03  0.20445205451E+03  0.00000000000E+00 0.  1.
<mgrwt>
<rscale>  0 0.13547388E+03</rscale>
<asrwt>0</asrwt>
<pdfrwt beam="2">  1        2 0.12737393E+00 0.14290032E+03</pdfrwt>
<pdfrwt beam="1">  1       -2 0.31919120E-02 0.14290032E+03</pdfrwt>
<totfact> 0.12576035E+04</totfact>
</mgrwt>
</event>
<event>
 7    1  0.6008063E-006  0.1596702E+03  0.7546771E-02  0.1197652E+00
         -1   -1    0    0    0  501 -0.00000000000E+00  0.00000000000E+00  0.10777203288E+02  0.10777203288E+02  0.00000000000E+00 0.  1.
          1   -1    0    0  501    0  0.00000000000E+00 -0.00000000000E+00 -0.26439710247E+04  0.26439710247E+04  0.00000000000E+00 0. -1.
         23    2    1    2    0    0 -0.76134039342E+02 -0.63827711920E+02 -0.20738011820E+04  0.20799389210E+04  0.12499681577E+03 0.  0.
          5    1    3    3  502    0  0.12269720457E+02 -0.28788077201E+02 -0.12958670075E+03  0.13339453677E+03  0.47000000000E+01 0. -1.
         -5    1    3    3    0  502 -0.88403759799E+02 -0.35039634719E+02 -0.19442144812E+04  0.19465443842E+04  0.47000000000E+01 0. -1.
        -11    1    1    2    0    0 -0.84584868669E+01  0.43164835456E+02 -0.22538239797E+03  0.22963443630E+03  0.00000000000E+00 0. -1.
         11    1    1    2    0    0  0.84592526209E+02  0.20662876464E+02 -0.33401024148E+03  0.34517487071E+03  0.00000000000E+00 0.  1.
<mgrwt>
<rscale>  0 0.15231863E+03</rscale>
<asrwt>0</asrwt>
<pdfrwt beam="2">  1        1 0.40676454E+00 0.15967020E+03</pdfrwt>
<pdfrwt beam="1">  1       -1 0.16580322E-02 0.15967020E+03</pdfrwt>
<totfact> 0.11603645E+03</totfact>
</mgrwt>
</event>
<event>
 6    1  0.6008063E-006  0.1783956E+03  0.7546771E-02  0.1196183E+00
          2   -1    0    0  501    0  0.00000000000E+00  0.00000000000E+00  0.79545012428E+03  0.79545012428E+03  0.00000000000E+00 0. -1.
         -2   -1    0    0    0  501 -0.00000000000E+00 -0.00000000000E+00 -0.26293873881E+02  0.26293873881E+02  0.00000000000E+00 0.  1.
          5    1    1    2  502    0 -0.34246482308E+02 -0.57196366505E+02  0.42174350442E+03  0.42700576039E+03  0.47000000000E+01 0. -1.
         -5    1    1    2    0  502  0.60622764864E+02  0.64790467226E+02  0.18181577338E+03  0.20236597963E+03  0.47000000000E+01 0.  1.
        -11    1    1    2    0    0 -0.21798456341E+02  0.23239949069E+02  0.95808459406E+01  0.33272519299E+02  0.00000000000E+00 0. -1.
         11    1    1    2    0    0 -0.45778262148E+01 -0.30834049789E+02  0.15601612666E+03  0.15909973884E+03  0.00000000000E+00 0.  1.
<mgrwt>
<rscale>  0 0.15354496E+03</rscale>
<asrwt>0</asrwt>
<pdfrwt beam="1">  1        2 0.12237692E+00 0.17839559E+03</pdfrwt>
<pdfrwt beam="2">  1       -2 0.40452120E-02 0.17839559E+03</pdfrwt>
<totfact> 0.94234457E+03</totfact>
</mgrwt>
</event>
<event>
 6    1  0.6008063E-006  0.1641044E+03  0.7546771E-02  0.1196056E+00
          2   -1    0    0  501    0  0.00000000000E+00  0.00000000000E+00  0.12246140782E+04  0.12246140782E+04  0.00000000000E+00 0. -1.
         -2   -1    0    0    0  501 -0.00000000000E+00 -0.00000000000E+00 -0.20457988644E+02  0.20457988644E+02  0.00000000000E+00 0.  1.
          5    1    1    2  502    0  0.51629050412E+01 -0.89651896009E+02  0.75342157595E+03  0.75876892342E+03  0.47000000000E+01 0. -1.
         -5    1    1    2    0  502  0.50722926601E+02  0.21957313164E+02  0.16169473862E+03  0.17094507124E+03  0.47000000000E+01 0.  1.
        -11    1    1    2    0    0 -0.61355223263E+02  0.29656133470E+02  0.91353343255E+02  0.11397097437E+03  0.00000000000E+00 0.  1.
         11    1    1    2    0    0  0.54693916208E+01  0.38038449374E+02  0.19768643176E+03  0.20138709784E+03  0.00000000000E+00 0. -1.
<mgrwt>
<rscale>  0 0.15365181E+03</rscale>
<asrwt>0</asrwt>
<pdfrwt beam="1">  1        2 0.18840211E+00 0.16410437E+03</pdfrwt>
<pdfrwt beam="2">  1       -2 0.31473838E-02 0.16410437E+03</pdfrwt>
<totfact> 0.74870097E+03</totfact>
</mgrwt>
</event>
<event>
 7    1  0.6008063E-006  0.1256409E+03  0.7546771E-02  0.1249519E+00
          1   -1    0    0  501    0  0.00000000000E+00  0.00000000000E+00  0.32983823429E+03  0.32983823429E+03  0.00000000000E+00 0. -1.
         -1   -1    0    0    0  501 -0.00000000000E+00 -0.00000000000E+00 -0.36346879178E+02  0.36346879178E+02  0.00000000000E+00 0.  1.
         23    2    1    2    0    0 -0.57963216835E+01 -0.11303964245E+02  0.19001708974E+03  0.22779846015E+03  0.12499706836E+03 0.  0.
          5    1    3    3  502    0 -0.14833796934E+02  0.26486825615E+02 -0.29883464584E+01  0.30864440335E+02  0.47000000000E+01 0. -1.
         -5    1    3    3    0  502  0.90374752508E+01 -0.37790789859E+02  0.19300543620E+03  0.19693401981E+03  0.47000000000E+01 0. -1.
        -11    1    1    2    0    0 -0.36958054436E+02  0.23866954837E+02  0.32959447036E+02  0.54971396834E+02  0.00000000000E+00 0.  1.
         11    1    1    2    0    0  0.42754376120E+02 -0.12562990592E+02  0.70514818342E+02  0.83415256493E+02  0.00000000000E+00 0. -1.
<mgrwt>
<rscale>  0 0.11618940E+03</rscale>
<asrwt>0</asrwt>
<pdfrwt beam="1">  1        1 0.50744342E-01 0.12564093E+03</pdfrwt>
<pdfrwt beam="2">  1       -1 0.55918278E-02 0.12564093E+03</pdfrwt>
<totfact> 0.10846318E+04</totfact>
</mgrwt>
</event>
<event>
 7    1  0.6008063E-006  0.1576003E+03  0.7546771E-02  0.1199331E+00
          1   -1    0    0  501    0  0.00000000000E+00  0.00000000000E+00  0.23884261427E+03  0.23884261427E+03  0.00000000000E+00 0. -1.
         -1   -1    0    0    0  501 -0.00000000000E+00 -0.00000000000E+00 -0.94418277293E+02  0.94418277293E+02  0.00000000000E+00 0.  1.
         23    2    1    2    0    0  0.68005279540E+02 -0.67738549167E+02  0.12085657323E+03  0.19860554682E+03  0.12499849138E+03 0.  0.
          5    1    3    3  502    0  0.56493300567E+02 -0.73702439217E+02  0.14414948556E+03  0.17153631319E+03  0.47000000000E+01 0.  1.
         -5    1    3    3    0  502  0.11511978973E+02  0.59638900491E+01 -0.23292912333E+02  0.27069233631E+02  0.47000000000E+01 0.  1.
        -11    1    1    2    0    0  0.48158620262E+01 -0.16091943375E+02 -0.88385935500E+01  0.18980619184E+02  0.00000000000E+00 0. -1.
         11    1    1    2    0    0 -0.72821141566E+02  0.83830492543E+02  0.32406357297E+02  0.11567472556E+03  0.00000000000E+00 0.  1.
<mgrwt>
<rscale>  0 0.15093317E+03</rscale>
<asrwt>0</asrwt>
<pdfrwt beam="1">  1        1 0.36745018E-01 0.15760029E+03</pdfrwt>
<pdfrwt beam="2">  1       -1 0.14525889E-01 0.15760029E+03</pdfrwt>
<totfact> 0.38420175E+03</totfact>
</mgrwt>
</event>
<event>
 7    1  0.6008063E-006  0.1282352E+03  0.7546771E-02  0.1243819E+00
          1   -1    0    0  501    0  0.00000000000E+00  0.00000000000E+00  0.17994870328E+03  0.17994870328E+03  0.00000000000E+00 0. -1.
         -1   -1    0    0    0  501 -0.00000000000E+00 -0.00000000000E+00 -0.77707575704E+02  0.77707575704E+02  0.00000000000E+00 0.  1.
         23    2    1    2    0    0 -0.25932336293E+02 -0.12190385985E+02  0.96659452890E+02  0.16058429261E+03  0.12499269429E+03 0.  0.
          5    1    3    3  502    0 -0.78197126633E+01  0.53198981108E+02  0.67899791867E+02  0.86739559791E+02  0.47000000000E+01 0. -1.
         -5    1    3    3    0  502 -0.18112623630E+02 -0.65389367093E+02  0.28759661023E+02  0.73844732823E+02  0.47000000000E+01 0. -1.
        -11    1    1    2    0    0 -0.17563366502E+02  0.20529866986E+02 -0.29918508249E+02  0.40312087730E+02  0.00000000000E+00 0.  1.
         11    1    1    2    0    0  0.43495702795E+02 -0.83394810017E+01  0.35500182931E+02  0.56759898636E+02  0.00000000000E+00 0. -1.
<mgrwt>
<rscale>  0 0.11956364E+03</rscale>
<asrwt>0</asrwt>
<pdfrwt beam="1">  1        1 0.27684416E-01 0.12823519E+03</pdfrwt>
<pdfrwt beam="2">  1       -1 0.11955012E-01 0.12823519E+03</pdfrwt>
<totfact> 0.73034245E+03</totfact>
</mgrwt>
</event>
<event>
 7    1  0.6008063E-006  0.1290250E+03  0.7546771E-02  0.1249770E+00
          1   -1    0    0  501    0  0.00000000000E+00  0.00000000000E+00  0.35006909411E+03  0.35006909411E+03  0.00000000000E+00 0. -1.
         -1   -1    0    0    0  501 -0.00000000000E+00 -0.00000000000E+00 -0.33800879921E+02  0.33800879921E+02  0.00000000000E+00 0.  1.
         23    2    1    2    0    0  0.31808673567E+02  0.31066969307E+01  0.22627078858E+03  0.26047247035E+03  0.12500397899E+03 0.  0.
          5    1    3    3  502    0 -0.36831846263E+00  0.21864670263E+02  0.22150379982E+03  0.22263023784E+03  0.47000000000E+01 0. -1.
         -5    1    3    3    0  502  0.32176992029E+02 -0.18757973332E+02  0.47669887603E+01  0.37842232511E+02  0.47000000000E+01 0. -1.
        -11    1    1    2    0    0 -0.10288225516E+02  0.18563860548E+02  0.90395870038E+02  0.92854067345E+02  0.00000000000E+00 0. -1.
         11    1    1    2    0    0 -0.21520448050E+02 -0.21670557479E+02 -0.39844442299E+00  0.30543436344E+02  0.00000000000E+00 0.  1.
<mgrwt>
<rscale>  0 0.11604374E+03</rscale>
<asrwt>0</asrwt>
<pdfrwt beam="1">  1        1 0.53856781E-01 0.12902495E+03</pdfrwt>
<pdfrwt beam="2">  1       -1 0.52001356E-02 0.12902495E+03</pdfrwt>
<totfact> 0.11240568E+04</totfact>
</mgrwt>
</event>
<event>
 7    1  0.6008063E-006  0.1341122E+03  0.7546771E-02  0.1235639E+00
          1   -1    0    0  501    0  0.00000000000E+00  0.00000000000E+00  0.43680873230E+03  0.43680873230E+03  0.00000000000E+00 0. -1.
         -1   -1    0    0    0  501 -0.00000000000E+00 -0.00000000000E+00 -0.40767997077E+02  0.40767997077E+02  0.00000000000E+00 0.  1.
         23    2    1    2    0    0 -0.43959469122E+02  0.20647359719E+02  0.33385422930E+03  0.35978427455E+03  0.12500931728E+03 0.  0.
          5    1    3    3  502    0  0.19770923592E+02  0.56982873539E+02  0.14373845104E+03  0.15595117699E+03  0.47000000000E+01 0. -1.
         -5    1    3    3    0  502 -0.63730392714E+02 -0.36335513820E+02  0.19011577825E+03  0.20383309756E+03  0.47000000000E+01 0. -1.
        -11    1    1    2    0    0  0.31641263577E+02 -0.98932534340E+01 -0.16775838750E+02  0.37154741152E+02  0.00000000000E+00 0.  1.
         11    1    1    2    0    0  0.12318205545E+02 -0.10754106285E+02  0.78962344680E+02  0.80637713678E+02  0.00000000000E+00 0. -1.
<mgrwt>
<rscale>  0 0.12463616E+03</rscale>
<asrwt>0</asrwt>
<pdfrwt beam="1">  1        1 0.67201340E-01 0.13411218E+03</pdfrwt>
<pdfrwt beam="2">  1       -1 0.62719999E-02 0.13411218E+03</pdfrwt>
<totfact> 0.64588382E+03</totfact>
</mgrwt>
</event>
<event>
 7    1  0.6008063E-006  0.1329329E+03  0.7546771E-02  0.1235992E+00
          2   -1    0    0  501    0  0.00000000000E+00  0.00000000000E+00  0.64483034618E+02  0.64483034618E+02  0.00000000000E+00 0. -1.
         -2   -1    0    0    0  501 -0.00000000000E+00 -0.00000000000E+00 -0.21783744191E+03  0.21783744191E+03  0.00000000000E+00 0.  1.
         23    2    1    2    0    0 -0.25150730377E+02 -0.37595222366E+02 -0.67931070604E+02  0.14928420460E+03  0.12500073362E+03 0.  0.
          5    1    3    3  502    0 -0.29547817936E+02 -0.44864780863E+02  0.22428714405E+02  0.58404274985E+02  0.47000000000E+01 0.  1.
         -5    1    3    3    0  502  0.43970875597E+01  0.72695584963E+01 -0.90359785008E+02  0.90879929613E+02  0.47000000000E+01 0.  1.
        -11    1    1    2    0    0  0.22981849284E+02  0.50781022432E+02 -0.99235377900E+02  0.11381800324E+03  0.00000000000E+00 0.  1.
         11    1    1    2    0    0  0.21688810930E+01 -0.13185800066E+02  0.13812041216E+02  0.19218268681E+02  0.00000000000E+00 0. -1.
<mgrwt>
<rscale>  0 0.12441171E+03</rscale>
<asrwt>0</asrwt>
<pdfrwt beam="1">  1        2 0.99204668E-02 0.13293285E+03</pdfrwt>
<pdfrwt beam="2">  1       -2 0.33513453E-01 0.13293285E+03</pdfrwt>
<totfact> 0.51186647E+03</totfact>
</mgrwt>
</event>
<event>
 7    1  0.6008063E-006  0.1373394E+03  0.7546771E-02  0.1228446E+00
         -2   -1    0    0    0  501 -0.00000000000E+00  0.00000000000E+00  0.25281777079E+02  0.25281777079E+02  0.00000000000E+00 0.  1.
          2   -1    0    0  501    0  0.00000000000E+00 -0.00000000000E+00 -0.67533507706E+03  0.67533507706E+03  0.00000000000E+00 0. -1.
         23    2    1    2    0    0 -0.11429684062E+02 -0.55744437260E+02 -0.47912542352E+03  0.49842079777E+03  0.12499616087E+03 0.  0.
          5    1    3    3  502    0  0.39060290123E+02 -0.56377468558E+02 -0.38881711976E+03  0.39484803133E+03  0.47000000000E+01 0. -1.
         -5    1    3    3    0  502 -0.50489974185E+02  0.63303129813E+00 -0.90308303752E+02  0.10357276644E+03  0.47000000000E+01 0. -1.
        -11    1    1    2    0    0 -0.12061383401E+02 -0.12999906310E+01  0.69102853329E+01  0.13961339068E+02  0.00000000000E+00 0.  1.
         11    1    1    2    0    0  0.23491067463E+02  0.57044427891E+02 -0.17783816179E+03  0.18823471729E+03  0.00000000000E+00 0. -1.
<mgrwt>
<rscale>  0 0.12933495E+03</rscale>
<asrwt>0</asrwt>
<pdfrwt beam="2">  1        2 0.10389769E+00 0.13733943E+03</pdfrwt>
<pdfrwt beam="1">  1       -2 0.38895045E-02 0.13733943E+03</pdfrwt>
<totfact> 0.11995046E+04</totfact>
</mgrwt>
</event>
<event>
 7    1  0.6008063E-006  0.1252865E+03  0.7546771E-02  0.1253300E+00
          4   -1    0    0  501    0  0.00000000000E+00  0.00000000000E+00  0.82873480277E+02  0.82873480277E+02  0.00000000000E+00 0. -1.
         -4   -1    0    0    0  501 -0.00000000000E+00 -0.00000000000E+00 -0.14642583537E+03  0.14642583537E+03  0.00000000000E+00 0.  1.
         23    2    1    2    0    0  0.42112907839E+01  0.73559250083E+01 -0.51571720107E+01  0.12539256309E+03  0.12499941541E+03 0.  0.
          5    1    3    3  502    0  0.39115394613E+02 -0.31142472108E+01  0.47117554398E+02  0.61496882554E+02  0.47000000000E+01 0.  1.
         -5    1    3    3    0  502 -0.34904103829E+02  0.10470172219E+02 -0.52274726409E+02  0.63895680539E+02  0.47000000000E+01 0.  1.
        -11    1    1    2    0    0  0.33388118878E+02 -0.22535843218E+01  0.93915368459E+00  0.33477262943E+02  0.00000000000E+00 0. -1.
         11    1    1    2    0    0 -0.37599409662E+02 -0.51023406865E+01 -0.59334336768E+02  0.70429489612E+02  0.00000000000E+00 0.  1.
<mgrwt>
<rscale>  0 0.11402073E+03</rscale>
<asrwt>0</asrwt>
<pdfrwt beam="1">  1        4 0.12749766E-01 0.12528647E+03</pdfrwt>
<pdfrwt beam="2">  1       -4 0.22527051E-01 0.12528647E+03</pdfrwt>
<totfact> 0.14699498E+03</totfact>
</mgrwt>
</event>
<event>
 7    1  0.6008063E-006  0.1618062E+03  0.7546771E-02  0.1194169E+00
          1   -1    0    0  501    0  0.00000000000E+00  0.00000000000E+00  0.10168797384E+03  0.10168797384E+03  0.00000000000E+00 0. -1.
         -1   -1    0    0    0  501 -0.00000000000E+00 -0.00000000000E+00 -0.21972481090E+03  0.21972481090E+03  0.00000000000E+00 0.  1.
         23    2    1    2    0    0  0.10256082382E+03 -0.69415891535E+01 -0.65838821610E+02  0.17468830074E+03  0.12495736769E+03 0.  0.
          5    1    3    3  502    0  0.96891669594E+02  0.46695719235E+02 -0.44529806692E+02  0.11650527677E+03  0.47000000000E+01 0. -1.
         -5    1    3    3    0  502  0.56691542259E+01 -0.53637308388E+02 -0.21309014918E+02  0.58183023964E+02  0.47000000000E+01 0. -1.
        -11    1    1    2    0    0 -0.32399589466E+02  0.33554266780E+01 -0.67388742929E+02  0.74848079196E+02  0.00000000000E+00 0.  1.
         11    1    1    2    0    0 -0.70161234354E+02  0.35861624755E+01  0.15190727474E+02  0.71876404812E+02  0.00000000000E+00 0. -1.
<mgrwt>
<rscale>  0 0.15524802E+03</rscale>
<asrwt>0</asrwt>
<pdfrwt beam="1">  1        1 0.15644304E-01 0.16180622E+03</pdfrwt>
<pdfrwt beam="2">  1       -1 0.33803817E-01 0.16180622E+03</pdfrwt>
<totfact> 0.28544867E+03</totfact>
</mgrwt>
</event>
<event>
 7    1  0.6008063E-006  0.1545658E+03  0.7546771E-02  0.1204046E+00
         -1   -1    0    0    0  501 -0.00000000000E+00  0.00000000000E+00  0.43237048917E+02  0.43237048917E+02  0.00000000000E+00 0.  1.
          1   -1    0    0  501    0  0.00000000000E+00 -0.00000000000E+00 -0.59102990306E+03  0.59102990306E+03  0.00000000000E+00 0. -1.
         23    2    1    2    0    0  0.15472331912E+02 -0.89586594906E+02 -0.44461918695E+03  0.47071944969E+03  0.12500171146E+03 0.  0.
          5    1    3    3  502    0  0.54084718659E+02 -0.69743024031E+02 -0.16015600566E+03  0.18292425302E+03  0.47000000000E+01 0.  1.
         -5    1    3    3    0  502 -0.38612386747E+02 -0.19843570875E+02 -0.28446318129E+03  0.28779519667E+03  0.47000000000E+01 0.  1.
        -11    1    1    2    0    0  0.50847209210E+01  0.32898878106E+02  0.10469799525E+02  0.34897095431E+02  0.00000000000E+00 0.  1.
         11    1    1    2    0    0 -0.20557052833E+02  0.56687716801E+02 -0.11364346671E+03  0.12865040685E+03  0.00000000000E+00 0. -1.
<mgrwt>
<rscale>  0 0.14712900E+03</rscale>
<asrwt>0</asrwt>
<pdfrwt beam="2">  1        1 0.90927672E-01 0.15456578E+03</pdfrwt>
<pdfrwt beam="1">  1       -1 0.66518540E-02 0.15456578E+03</pdfrwt>
<totfact> 0.40049653E+03</totfact>
</mgrwt>
</event>
<event>
 7    1  0.6008063E-006  0.1472865E+03  0.7546771E-02  0.1213939E+00
         -1   -1    0    0    0  501 -0.00000000000E+00  0.00000000000E+00  0.55197285915E+02  0.55197285915E+02  0.00000000000E+00 0.  1.
          1   -1    0    0  501    0  0.00000000000E+00 -0.00000000000E+00 -0.33348883623E+03  0.33348883623E+03  0.00000000000E+00 0. -1.
         23    2    1    2    0    0  0.55811968744E+02 -0.54355671951E+02 -0.19180763099E+03  0.24183356332E+03  0.12499516037E+03 0.  0.
          5    1    3    3  502    0 -0.24934551723E+01 -0.48601260369E+02 -0.17352148009E+03  0.18027782415E+03  0.47000000000E+01 0. -1.
         -5    1    3    3    0  502  0.58305423916E+02 -0.57544115820E+01 -0.18286150900E+02  0.61555739175E+02  0.47000000000E+01 0. -1.
        -11    1    1    2    0    0 -0.52554221923E+02  0.19085233678E-01 -0.10842863628E+02  0.53661106006E+02  0.00000000000E+00 0.  1.
         11    1    1    2    0    0 -0.32577468212E+01  0.54336586717E+02 -0.75641055705E+02  0.93191452820E+02  0.00000000000E+00 0. -1.
<mgrwt>
<rscale>  0 0.13954729E+03</rscale>
<asrwt>0</asrwt>
<pdfrwt beam="2">  1        1 0.51305974E-01 0.14728647E+03</pdfrwt>
<pdfrwt beam="1">  1       -1 0.84918903E-02 0.14728647E+03</pdfrwt>
<totfact> 0.57827092E+03</totfact>
</mgrwt>
</event>
<event>
 7    1  0.6008063E-006  0.1346715E+03  0.7546771E-02  0.1228059E+00
         -2   -1    0    0    0  501 -0.00000000000E+00  0.00000000000E+00  0.68762061009E+02  0.68762061009E+02  0.00000000000E+00 0.  1.
          2   -1    0    0  501    0  0.00000000000E+00 -0.00000000000E+00 -0.12279316322E+04  0.12279316322E+04  0.00000000000E+00 0. -1.
         23    2    1    2    0    0  0.39019794482E+02 -0.60610769280E+02 -0.11727134818E+04  0.11804208238E+04  0.11375500466E+03 0.  0.
          5    1    3    3  502    0  0.77827328847E+02 -0.50378360793E+02 -0.89130860022E+03  0.89612955714E+03  0.47000000000E+01 0. -1.
         -5    1    3    3    0  502 -0.38807534364E+02 -0.10232408487E+02 -0.28140488160E+03  0.28429126665E+03  0.47000000000E+01 0.  1.
        -11    1    1    2    0    0 -0.28937478738E+02 -0.64350659122E+01  0.34330524352E+02  0.45358269933E+02  0.00000000000E+00 0.  1.
         11    1    1    2    0    0 -0.10082315745E+02  0.67045835192E+02 -0.20786613697E+02  0.70914599459E+02  0.00000000000E+00 0. -1.
<mgrwt>
<rscale>  0 0.12959395E+03</rscale>
<asrwt>0</asrwt>
<pdfrwt beam="2">  1        2 0.18891254E+00 0.13467149E+03</pdfrwt>
<pdfrwt beam="1">  1       -2 0.10578780E-01 0.13467149E+03</pdfrwt>
<totfact> 0.11763011E+03</totfact>
</mgrwt>
</event>
<event>
 7    1  0.6008063E-006  0.1274180E+03  0.7546771E-02  0.1246662E+00
          1   -1    0    0  501    0  0.00000000000E+00  0.00000000000E+00  0.42878114353E+03  0.42878114353E+03  0.00000000000E+00 0. -1.
         -1   -1    0    0    0  501 -0.00000000000E+00 -0.00000000000E+00 -0.35091084644E+02  0.35091084644E+02  0.00000000000E+00 0.  1.
         23    2    1    2    0    0 -0.14615067958E+02  0.19796585042E+02  0.32175867843E+03  0.34606934420E+03  0.12501935395E+03 0.  0.
          5    1    3    3  502    0  0.38770470637E+02  0.39736486100E+02  0.23945597409E+03  0.24585237694E+03  0.47000000000E+01 0. -1.
         -5    1    3    3    0  502 -0.53385538595E+02 -0.19939901057E+02  0.82302704338E+02  0.10021696726E+03  0.47000000000E+01 0. -1.
        -11    1    1    2    0    0  0.12641907236E+02  0.26795557313E+02 -0.27520196430E+01  0.29755559520E+02  0.00000000000E+00 0.  1.
         11    1    1    2    0    0  0.19731607218E+01 -0.46592142355E+02  0.74683400100E+02  0.88047324451E+02  0.00000000000E+00 0. -1.
<mgrwt>
<rscale>  0 0.11786481E+03</rscale>
<asrwt>0</asrwt>
<pdfrwt beam="1">  1        1 0.65966326E-01 0.12741799E+03</pdfrwt>
<pdfrwt beam="2">  1       -1 0.53986287E-02 0.12741799E+03</pdfrwt>
<totfact> 0.82364167E+03</totfact>
</mgrwt>
</event>
<event>
 7    1  0.6008063E-006  0.1266693E+03  0.7546771E-02  0.1246067E+00
          1   -1    0    0  501    0  0.00000000000E+00  0.00000000000E+00  0.75855972898E+02  0.75855972898E+02  0.00000000000E+00 0. -1.
         -1   -1    0    0    0  501 -0.00000000000E+00 -0.00000000000E+00 -0.18124837543E+03  0.18124837543E+03  0.00000000000E+00 0.  1.
         23    2    1    2    0    0  0.14449961096E+02 -0.14547536216E+02 -0.19393369223E+02  0.12814524540E+03  0.12499867584E+03 0.  0.
          5    1    3    3  502    0 -0.24792536079E+02 -0.80214828533E+01 -0.63357803649E+02  0.68668153577E+02  0.47000000000E+01 0. -1.
         -5    1    3    3    0  502  0.39242497176E+02 -0.65260533624E+01  0.43964434426E+02  0.59477091821E+02  0.47000000000E+01 0. -1.
        -11    1    1    2    0    0 -0.27287207474E+01  0.53831193216E+02 -0.38629293130E+02  0.66313389053E+02  0.00000000000E+00 0. -1.
         11    1    1    2    0    0 -0.11721240349E+02 -0.39283657000E+02 -0.47369740182E+02  0.62645713880E+02  0.00000000000E+00 0.  1.
<mgrwt>
<rscale>  0 0.11821723E+03</rscale>
<asrwt>0</asrwt>
<pdfrwt beam="1">  1        1 0.11670150E-01 0.12666926E+03</pdfrwt>
<pdfrwt beam="2">  1       -1 0.27884365E-01 0.12666926E+03</pdfrwt>
<totfact> 0.57082963E+03</totfact>
</mgrwt>
</event>
<event>
 7    1  0.6008063E-006  0.1599362E+03  0.7546771E-02  0.1196409E+00
         -3   -1    0    0    0  501 -0.00000000000E+00  0.00000000000E+00  0.64558879637E+03  0.64558879637E+03  0.00000000000E+00 0.  1.
          3   -1    0    0  501    0  0.00000000000E+00 -0.00000000000E+00 -0.40594425748E+02  0.40594425748E+02  0.00000000000E+00 0. -1.
         23    2    1    2    0    0 -0.98085050500E+02  0.18275286559E+02  0.18289253514E+03  0.24295937789E+03  0.12499966667E+03 0.  0.
          5    1    3    3  502    0 -0.52596447387E+02 -0.65172036693E+01  0.18337514549E+03  0.19093819473E+03  0.47000000000E+01 0.  1.
         -5    1    3    3    0  502 -0.45488603113E+02  0.24792490229E+02 -0.48261035968E+00  0.52021183163E+02  0.47000000000E+01 0.  1.
        -11    1    1    2    0    0  0.76353371951E+02 -0.32489483560E+02  0.40175427647E+03  0.41023396082E+03  0.00000000000E+00 0.  1.
         11    1    1    2    0    0  0.21731678549E+02  0.14214197000E+02  0.20347559016E+02  0.32989883401E+02  0.00000000000E+00 0. -1.
<mgrwt>
<rscale>  0 0.15335551E+03</rscale>
<asrwt>0</asrwt>
<pdfrwt beam="2">  1        3 0.62452967E-02 0.15993617E+03</pdfrwt>
<pdfrwt beam="1">  1       -3 0.99321346E-01 0.15993617E+03</pdfrwt>
<totfact> 0.34884639E+02</totfact>
</mgrwt>
</event>
<event>
 7    1  0.6008063E-006  0.1697385E+03  0.7546771E-02  0.1184668E+00
          1   -1    0    0  501    0  0.00000000000E+00  0.00000000000E+00  0.70561023434E+03  0.70561023434E+03  0.00000000000E+00 0. -1.
         -1   -1    0    0    0  501 -0.00000000000E+00 -0.00000000000E+00 -0.53139451433E+02  0.53139451433E+02  0.00000000000E+00 0.  1.
         23    2    1    2    0    0 -0.60894226697E+02  0.97360432939E+02  0.56069773279E+03  0.58582685492E+03  0.12499598252E+03 0.  0.
          5    1    3    3  502    0 -0.63590631697E+02  0.19707383639E+02  0.11160740173E+03  0.13004019198E+03  0.47000000000E+01 0.  1.
         -5    1    3    3    0  502  0.26964049998E+01  0.77653049299E+02  0.44909033105E+03  0.45578666294E+03  0.47000000000E+01 0.  1.
        -11    1    1    2    0    0  0.49717263722E+02 -0.41339494554E+01  0.16389717105E+02  0.52512081247E+02  0.00000000000E+00 0.  1.
         11    1    1    2    0    0  0.11176962975E+02 -0.93226483483E+02  0.75383333014E+02  0.12041074960E+03  0.00000000000E+00 0. -1.
<mgrwt>
<rscale>  0 0.16362120E+03</rscale>
<asrwt>0</asrwt>
<pdfrwt beam="1">  1        1 0.10855541E+00 0.16973849E+03</pdfrwt>
<pdfrwt beam="2">  1       -1 0.81753007E-02 0.16973849E+03</pdfrwt>
<totfact> 0.22952798E+03</totfact>
</mgrwt>
</event>
<event>
 7    1  0.6008063E-006  0.1613629E+03  0.7546771E-02  0.1194591E+00
          2   -1    0    0  501    0  0.00000000000E+00  0.00000000000E+00  0.18686709199E+03  0.18686709199E+03  0.00000000000E+00 0. -1.
         -2   -1    0    0    0  501 -0.00000000000E+00 -0.00000000000E+00 -0.14263453910E+03  0.14263453910E+03  0.00000000000E+00 0.  1.
         23    2    1    2    0    0  0.60364562988E+02  0.82263476423E+02  0.90384621375E+02  0.18495231879E+03  0.12500728150E+03 0.  0.
          5    1    3    3  502    0 -0.15559668538E+02  0.40693128549E+02  0.87914700314E+02  0.98229926842E+02  0.47000000000E+01 0.  1.
         -5    1    3    3    0  502  0.75924231525E+02  0.41570347874E+02  0.24699210607E+01  0.86722391948E+02  0.47000000000E+01 0.  1.
        -11    1    1    2    0    0  0.83716875139E+01  0.60580280474E+01  0.14071158474E+02  0.17458016968E+02  0.00000000000E+00 0. -1.
         11    1    1    2    0    0 -0.68736250502E+02 -0.88321504470E+02 -0.60223226957E+02  0.12709129534E+03  0.00000000000E+00 0.  1.
<mgrwt>
<rscale>  0 0.15488873E+03</rscale>
<asrwt>0</asrwt>
<pdfrwt beam="1">  1        2 0.28748783E-01 0.16136288E+03</pdfrwt>
<pdfrwt beam="2">  1       -2 0.21943775E-01 0.16136288E+03</pdfrwt>
<totfact> 0.32006538E+03</totfact>
</mgrwt>
</event>
<event>
 7    1  0.6008063E-006  0.1294814E+03  0.7546771E-02  0.1242061E+00
         -3   -1    0    0    0  501 -0.00000000000E+00  0.00000000000E+00  0.13571698815E+03  0.13571698815E+03  0.00000000000E+00 0.  1.
          3   -1    0    0  501    0  0.00000000000E+00 -0.00000000000E+00 -0.95229850717E+02  0.95229850717E+02  0.00000000000E+00 0. -1.
         23    2    1    2    0    0  0.27950980415E+02 -0.18961113749E+02  0.16796531130E+02  0.13056630474E+03  0.12499862133E+03 0.  0.
          5    1    3    3  502    0  0.70939287292E+02 -0.24105300517E+02 -0.15114732171E+02  0.76576713975E+02  0.47000000000E+01 0.  1.
         -5    1    3    3    0  502 -0.42988306877E+02  0.51441867679E+01  0.31911263301E+02  0.53989590766E+02  0.47000000000E+01 0.  1.
        -11    1    1    2    0    0 -0.25834023483E+02  0.38741246679E+02 -0.21287202340E+02  0.51199862763E+02  0.00000000000E+00 0. -1.
         11    1    1    2    0    0 -0.21169569323E+01 -0.19780132930E+02  0.44977808638E+02  0.49180671358E+02  0.00000000000E+00 0.  1.
<mgrwt>
<rscale>  0 0.12063038E+03</rscale>
<asrwt>0</asrwt>
<pdfrwt beam="2">  1        3 0.14650746E-01 0.12948141E+03</pdfrwt>
<pdfrwt beam="1">  1       -3 0.20879537E-01 0.12948141E+03</pdfrwt>
<totfact> 0.18283554E+03</totfact>
</mgrwt>
</event>
<event>
 7    1  0.6008063E-006  0.1420594E+03  0.7546771E-02  0.1220645E+00
          1   -1    0    0  501    0  0.00000000000E+00  0.00000000000E+00  0.17317219813E+03  0.17317219813E+03  0.00000000000E+00 0. -1.
         -1   -1    0    0    0  501 -0.00000000000E+00 -0.00000000000E+00 -0.13979454198E+03  0.13979454198E+03  0.00000000000E+00 0.  1.
         23    2    1    2    0    0 -0.55934909081E+02 -0.37778444955E+02  0.10586917536E+03  0.17716982443E+03  0.12499975776E+03 0.  0.
          5    1    3    3  502    0  0.26065108661E+02 -0.41999770018E+02  0.73685537815E+02  0.88853919746E+02  0.47000000000E+01 0.  1.
         -5    1    3    3    0  502 -0.82000017743E+02  0.42213250631E+01  0.32183637548E+02  0.88315904688E+02  0.47000000000E+01 0.  1.
        -11    1    1    2    0    0  0.29546676713E+02  0.59647479029E+02 -0.76368081419E+02  0.10130603002E+03  0.00000000000E+00 0.  1.
         11    1    1    2    0    0  0.26388232368E+02 -0.21869034074E+02  0.38765622083E+01  0.34490885657E+02  0.00000000000E+00 0. -1.
<mgrwt>
<rscale>  0 0.13469940E+03</rscale>
<asrwt>0</asrwt>
<pdfrwt beam="1">  1        1 0.26641877E-01 0.14205937E+03</pdfrwt>
<pdfrwt beam="2">  1       -1 0.21506853E-01 0.14205937E+03</pdfrwt>
<totfact> 0.30547278E+03</totfact>
</mgrwt>
</event>
<event>
 7    1  0.6008063E-006  0.1371177E+03  0.7546771E-02  0.1228536E+00
         -2   -1    0    0    0  501 -0.00000000000E+00  0.00000000000E+00  0.91307253598E+02  0.91307253598E+02  0.00000000000E+00 0.  1.
          2   -1    0    0  501    0  0.00000000000E+00 -0.00000000000E+00 -0.18646467086E+03  0.18646467086E+03  0.00000000000E+00 0. -1.
         23    2    1    2    0    0 -0.48253992650E+02 -0.29113041338E+02 -0.99393174453E+02  0.16935248379E+03  0.12500097462E+03 0.  0.
          5    1    3    3  502    0 -0.53810238134E+02 -0.56045797632E+02 -0.11386202144E+03  0.13792506330E+03  0.47000000000E+01 0. -1.
         -5    1    3    3    0  502  0.55562454838E+01  0.26932756294E+02  0.14468846988E+02  0.31427420489E+02  0.47000000000E+01 0. -1.
        -11    1    1    2    0    0 -0.20791988215E+02  0.14731360305E+02  0.24177509175E+02  0.35126509936E+02  0.00000000000E+00 0.  1.
         11    1    1    2    0    0  0.69045980866E+02  0.14381681033E+02 -0.19941751985E+02  0.73292930732E+02  0.00000000000E+00 0. -1.
<mgrwt>
<rscale>  0 0.12927483E+03</rscale>
<asrwt>0</asrwt>
<pdfrwt beam="2">  1        2 0.28686872E-01 0.13711769E+03</pdfrwt>
<pdfrwt beam="1">  1       -2 0.14047270E-01 0.13711769E+03</pdfrwt>
<totfact> 0.66903247E+03</totfact>
</mgrwt>
</event>
<event>
 7    1  0.6008063E-006  0.1790654E+03  0.7546771E-02  0.1174467E+00
          2   -1    0    0  501    0  0.00000000000E+00  0.00000000000E+00  0.16155438352E+03  0.16155438352E+03  0.00000000000E+00 0. -1.
         -2   -1    0    0    0  501 -0.00000000000E+00 -0.00000000000E+00 -0.17481498455E+03  0.17481498455E+03  0.00000000000E+00 0.  1.
         23    2    1    2    0    0  0.11157705995E+03 -0.63168234969E+02 -0.83053973555E+01  0.17925793013E+03  0.12499903869E+03 0.  0.
          5    1    3    3  502    0  0.64355426311E+02 -0.83032024060E+02 -0.46704826236E+02  0.11506245569E+03  0.47000000000E+01 0.  1.
         -5    1    3    3    0  502  0.47221633643E+02  0.19863789090E+02  0.38399428880E+02  0.64195474445E+02  0.47000000000E+01 0.  1.
        -11    1    1    2    0    0 -0.95357770443E+02  0.47556252167E+02 -0.41363739684E+02  0.11430512003E+03  0.00000000000E+00 0.  1.
         11    1    1    2    0    0 -0.16219289511E+02  0.15611982802E+02  0.36408536006E+02  0.42806317914E+02  0.00000000000E+00 0. -1.
<mgrwt>
<rscale>  0 0.17328331E+03</rscale>
<asrwt>0</asrwt>
<pdfrwt beam="1">  1        2 0.24854520E-01 0.17906542E+03</pdfrwt>
<pdfrwt beam="2">  1       -2 0.26894613E-01 0.17906542E+03</pdfrwt>
<totfact> 0.26457551E+03</totfact>
</mgrwt>
</event>
<event>
 7    1  0.6008063E-006  0.1799545E+03  0.7546771E-02  0.1173484E+00
          2   -1    0    0  501    0  0.00000000000E+00  0.00000000000E+00  0.76111138092E+03  0.76111138092E+03  0.00000000000E+00 0. -1.
         -2   -1    0    0    0  501 -0.00000000000E+00 -0.00000000000E+00 -0.68095325430E+02  0.68095325430E+02  0.00000000000E+00 0.  1.
         23    2    1    2    0    0  0.76151798276E+02 -0.10468939544E+03  0.63611091317E+03  0.66107542078E+03  0.12499860881E+03 0.  0.
          5    1    3    3  502    0 -0.44370657634E+01 -0.58036539057E+02  0.44079901797E+03  0.44465019022E+03  0.47000000000E+01 0.  1.
         -5    1    3    3    0  502  0.80588864040E+02 -0.46652856384E+02  0.19531189520E+03  0.21642523056E+03  0.47000000000E+01 0.  1.
        -11    1    1    2    0    0 -0.51876919823E+02  0.21590671490E+02 -0.12033051938E+02  0.57464478112E+02  0.00000000000E+00 0.  1.
         11    1    1    2    0    0 -0.24274878454E+02  0.83098723951E+02  0.68938194265E+02  0.11066680747E+03  0.00000000000E+00 0. -1.
<mgrwt>
<rscale>  0 0.17425268E+03</rscale>
<asrwt>0</asrwt>
<pdfrwt beam="1">  1        2 0.11709405E+00 0.17995449E+03</pdfrwt>
<pdfrwt beam="2">  1       -2 0.10476204E-01 0.17995449E+03</pdfrwt>
<totfact> 0.23074498E+03</totfact>
</mgrwt>
</event>
<event>
 7    1  0.6008063E-006  0.1659248E+03  0.7546771E-02  0.1188741E+00
         -1   -1    0    0    0  501 -0.00000000000E+00  0.00000000000E+00  0.10487598703E+03  0.10487598703E+03  0.00000000000E+00 0.  1.
          1   -1    0    0  501    0  0.00000000000E+00 -0.00000000000E+00 -0.37147193018E+03  0.37147193018E+03  0.00000000000E+00 0. -1.
         23    2    1    2    0    0 -0.10152675190E+03 -0.39988324372E+02 -0.28706676966E+03  0.33156956926E+03  0.12499720627E+03 0.  0.
          5    1    3    3  502    0 -0.33156453665E+02 -0.15984216542E+02 -0.24470466613E+03  0.24750213984E+03  0.47000000000E+01 0. -1.
         -5    1    3    3    0  502 -0.68370298239E+02 -0.24004107830E+02 -0.42362103531E+02  0.84067429421E+02  0.47000000000E+01 0. -1.
        -11    1    1    2    0    0  0.66550280546E+02  0.36394086243E+02  0.56388710569E+02  0.94515374590E+02  0.00000000000E+00 0.  1.
         11    1    1    2    0    0  0.34976471358E+02  0.35942381289E+01 -0.35917884057E+02  0.50262973365E+02  0.00000000000E+00 0. -1.
<mgrwt>
<rscale>  0 0.15996064E+03</rscale>
<asrwt>0</asrwt>
<pdfrwt beam="2">  1        1 0.57149527E-01 0.16592483E+03</pdfrwt>
<pdfrwt beam="1">  1       -1 0.16134767E-01 0.16592483E+03</pdfrwt>
<totfact> 0.18805174E+03</totfact>
</mgrwt>
</event>
<event>
 7    1  0.6008063E-006  0.1774618E+03  0.7546771E-02  0.1175136E+00
          2   -1    0    0  501    0  0.00000000000E+00  0.00000000000E+00  0.37725254497E+03  0.37725254497E+03  0.00000000000E+00 0. -1.
         -2   -1    0    0    0  501 -0.00000000000E+00 -0.00000000000E+00 -0.91430530512E+02  0.91430530512E+02  0.00000000000E+00 0.  1.
         23    2    1    2    0    0 -0.12475296031E+03 -0.17461119830E+02  0.24867015245E+03  0.30549884129E+03  0.12499802197E+03 0.  0.
          5    1    3    3  502    0  0.17154708645E+02 -0.79520739213E+01  0.57838066897E+00  0.19492153101E+02  0.47000000000E+01 0. -1.
         -5    1    3    3    0  502 -0.14190766896E+03 -0.95090459087E+01  0.24809177178E+03  0.28600668819E+03  0.47000000000E+01 0. -1.
        -11    1    1    2    0    0  0.40957358872E+02  0.44468284152E+02 -0.13033342020E+02  0.61844979953E+02  0.00000000000E+00 0. -1.
         11    1    1    2    0    0  0.83795601442E+02 -0.27007164322E+02  0.50185204022E+02  0.10133925423E+03  0.00000000000E+00 0.  1.
<mgrwt>
<rscale>  0 0.17262706E+03</rscale>
<asrwt>0</asrwt>
<pdfrwt beam="1">  1        2 0.58038852E-01 0.17746182E+03</pdfrwt>
<pdfrwt beam="2">  1       -2 0.14066236E-01 0.17746182E+03</pdfrwt>
<totfact> 0.31799362E+03</totfact>
</mgrwt>
</event>
<event>
 7    1  0.6008063E-006  0.1411383E+03  0.7546771E-02  0.1221664E+00
          1   -1    0    0  501    0  0.00000000000E+00  0.00000000000E+00  0.58597501997E+03  0.58597501997E+03  0.00000000000E+00 0. -1.
         -1   -1    0    0    0  501 -0.00000000000E+00 -0.00000000000E+00 -0.27930626937E+02  0.27930626937E+02  0.00000000000E+00 0.  1.
         23    2    1    2    0    0  0.43307071470E+02  0.52930034743E+02  0.31687046401E+03  0.34688168008E+03  0.12346221284E+03 0.  0.
          5    1    3    3  502    0  0.71360440202E+02  0.63428585122E+02  0.29328073634E+03  0.30846584599E+03  0.47000000000E+01 0. -1.
         -5    1    3    3    0  502 -0.28053368732E+02 -0.10498550379E+02  0.23589727668E+02  0.38415834089E+02  0.47000000000E+01 0.  1.
        -11    1    1    2    0    0 -0.55511615550E+02  0.46981242772E+01  0.11737154828E+03  0.12992186951E+03  0.00000000000E+00 0. -1.
         11    1    1    2    0    0  0.12204544080E+02 -0.57628159020E+02  0.12380238074E+03  0.13710209731E+03  0.00000000000E+00 0.  1.
<mgrwt>
<rscale>  0 0.13398165E+03</rscale>
<asrwt>0</asrwt>
<pdfrwt beam="1">  1        1 0.90149994E-01 0.14113826E+03</pdfrwt>
<pdfrwt beam="2">  1       -1 0.42970200E-02 0.14113826E+03</pdfrwt>
<totfact> 0.77224281E+03</totfact>
</mgrwt>
</event>
<event>
 7    1  0.6008063E-006  0.1591202E+03  0.7546771E-02  0.1197895E+00
          4   -1    0    0  501    0  0.00000000000E+00  0.00000000000E+00  0.18437744248E+03  0.18437744248E+03  0.00000000000E+00 0. -1.
         -4   -1    0    0    0  501 -0.00000000000E+00 -0.00000000000E+00 -0.17208967047E+03  0.17208967047E+03  0.00000000000E+00 0.  1.
         23    2    1    2    0    0 -0.98390422109E+02  0.26971869389E+01  0.10832756010E+03  0.19249440435E+03  0.12502513927E+03 0.  0.
          5    1    3    3  502    0  0.87702771435E+01  0.17632055250E+02 -0.17299941539E+02  0.26630529675E+02  0.47000000000E+01 0.  1.
         -5    1    3    3    0  502 -0.10716069925E+03 -0.14934868311E+02  0.12562750164E+03  0.16586387468E+03  0.47000000000E+01 0.  1.
        -11    1    1    2    0    0  0.37784691199E+02  0.41887083877E+02 -0.52405521813E+02  0.76997073979E+02  0.00000000000E+00 0.  1.
         11    1    1    2    0    0  0.60605730910E+02 -0.44584270816E+02 -0.43634266272E+02  0.86975634613E+02  0.00000000000E+00 0. -1.
<mgrwt>
<rscale>  0 0.15211719E+03</rscale>
<asrwt>0</asrwt>
<pdfrwt beam="1">  1        4 0.28365760E-01 0.15912019E+03</pdfrwt>
<pdfrwt beam="2">  1       -4 0.26475334E-01 0.15912019E+03</pdfrwt>
<totfact> 0.27274699E+02</totfact>
</mgrwt>
</event>
<event>
 7    1  0.6008063E-006  0.1653711E+03  0.7546771E-02  0.1189567E+00
         -1   -1    0    0    0  501 -0.00000000000E+00  0.00000000000E+00  0.21207993327E+02  0.21207993327E+02  0.00000000000E+00 0.  1.
          1   -1    0    0  501    0  0.00000000000E+00 -0.00000000000E+00 -0.12678610367E+04  0.12678610367E+04  0.00000000000E+00 0. -1.
         23    2    1    2    0    0  0.20926125120E+02  0.10622692742E+03 -0.88812085695E+03  0.90338600335E+03  0.12500220673E+03 0.  0.
          5    1    3    3  502    0  0.59975650186E+02  0.32109989857E+02 -0.58174886804E+03  0.58573199121E+03  0.47000000000E+01 0.  1.
         -5    1    3    3    0  502 -0.39049525066E+02  0.74116937563E+02 -0.30637198891E+03  0.31765401214E+03  0.47000000000E+01 0.  1.
        -11    1    1    2    0    0 -0.57085615301E+02 -0.55311371949E+02 -0.21117929619E+03  0.22564310422E+03  0.00000000000E+00 0.  1.
         11    1    1    2    0    0  0.36159490181E+02 -0.50915555471E+02 -0.14735289022E+03  0.16003992244E+03  0.00000000000E+00 0. -1.
<mgrwt>
<rscale>  0 0.15923188E+03</rscale>
<asrwt>0</asrwt>
<pdfrwt beam="2">  1        1 0.19505557E+00 0.16537114E+03</pdfrwt>
<pdfrwt beam="1">  1       -1 0.32627678E-02 0.16537114E+03</pdfrwt>
<totfact> 0.33911095E+03</totfact>
</mgrwt>
</event>
<event>
 7    1  0.6008063E-006  0.1987477E+03  0.7546771E-02  0.1155144E+00
         -1   -1    0    0    0  501 -0.00000000000E+00  0.00000000000E+00  0.18933939647E+03  0.18933939647E+03  0.00000000000E+00 0.  1.
          1   -1    0    0  501    0  0.00000000000E+00 -0.00000000000E+00 -0.27115118816E+03  0.27115118816E+03  0.00000000000E+00 0. -1.
         23    2    1    2    0    0 -0.78932100861E+02  0.13283662972E+03 -0.16912319563E+03  0.26096606306E+03  0.12499913611E+03 0.  0.
          5    1    3    3  502    0 -0.89614898405E+02  0.12510460493E+03 -0.85359910960E+02  0.17604089465E+03  0.47000000000E+01 0.  1.
         -5    1    3    3    0  502  0.10682797543E+02  0.77320247920E+01 -0.83763284670E+02  0.84925168410E+02  0.47000000000E+01 0.  1.
        -11    1    1    2    0    0 -0.73554286304E+01  0.10000322128E+02  0.79153897271E+01  0.14722845089E+02  0.00000000000E+00 0.  1.
         11    1    1    2    0    0  0.86287529492E+02 -0.14283695185E+03  0.79396014211E+02  0.18480167649E+03  0.00000000000E+00 0. -1.
<mgrwt>
<rscale>  0 0.19372522E+03</rscale>
<asrwt>0</asrwt>
<pdfrwt beam="2">  1        1 0.41715567E-01 0.19874766E+03</pdfrwt>
<pdfrwt beam="1">  1       -1 0.29129138E-01 0.19874766E+03</pdfrwt>
<totfact> 0.10677885E+03</totfact>
</mgrwt>
</event>
<event>
 7    1  0.6008063E-006  0.1550750E+03  0.7546771E-02  0.1202211E+00
          2   -1    0    0  501    0  0.00000000000E+00  0.00000000000E+00  0.59325287708E+03  0.59325287708E+03  0.00000000000E+00 0. -1.
         -2   -1    0    0    0  501 -0.00000000000E+00 -0.00000000000E+00 -0.34734081010E+02  0.34734081010E+02  0.00000000000E+00 0.  1.
         23    2    1    2    0    0 -0.90771053865E+02  0.13570327758E+02  0.27321307195E+03  0.31415542831E+03  0.12499884974E+03 0.  0.
          5    1    3    3  502    0 -0.33074983234E+02  0.44829344783E+01  0.24814243015E+03  0.25042125880E+03  0.47000000000E+01 0. -1.
         -5    1    3    3    0  502 -0.57696070631E+02  0.90873932798E+01  0.25070641797E+02  0.63734169509E+02  0.47000000000E+01 0. -1.
        -11    1    1    2    0    0  0.11338289025E+01  0.21078074493E+02  0.12357661215E+02  0.24459815679E+02  0.00000000000E+00 0.  1.
         11    1    1    2    0    0  0.89637224963E+02 -0.34648402251E+02  0.27294806290E+03  0.28937171410E+03  0.00000000000E+00 0. -1.
<mgrwt>
<rscale>  0 0.14859419E+03</rscale>
<asrwt>0</asrwt>
<pdfrwt beam="1">  1        2 0.91269666E-01 0.15507498E+03</pdfrwt>
<pdfrwt beam="2">  1       -2 0.53437052E-02 0.15507498E+03</pdfrwt>
<totfact> 0.87274412E+03</totfact>
</mgrwt>
</event>
<event>
 7    1  0.6008063E-006  0.1661109E+03  0.7546771E-02  0.1189320E+00
          2   -1    0    0  501    0  0.00000000000E+00  0.00000000000E+00  0.48367981344E+03  0.48367981344E+03  0.00000000000E+00 0. -1.
         -2   -1    0    0    0  501 -0.00000000000E+00 -0.00000000000E+00 -0.59605444903E+02  0.59605444903E+02  0.00000000000E+00 0.  1.
         23    2    1    2    0    0  0.28737853795E+02 -0.10554752670E+03  0.34177516448E+03  0.38000406927E+03  0.12500673971E+03 0.  0.
          5    1    3    3  502    0 -0.62116007326E+01 -0.11151841120E+03  0.31794775219E+03  0.33702789669E+03  0.47000000000E+01 0. -1.
         -5    1    3    3    0  502  0.34949454528E+02  0.59708845010E+01  0.23827412283E+02  0.42976172580E+02  0.47000000000E+01 0. -1.
        -11    1    1    2    0    0 -0.39704184216E+02  0.98798555055E+02  0.31740116414E+02  0.11110810823E+03  0.00000000000E+00 0.  1.
         11    1    1    2    0    0  0.10966330422E+02  0.67489716427E+01  0.50559087647E+02  0.52173080845E+02  0.00000000000E+00 0. -1.
<mgrwt>
<rscale>  0 0.15944884E+03</rscale>
<asrwt>0</asrwt>
<pdfrwt beam="1">  1        2 0.74412276E-01 0.16611090E+03</pdfrwt>
<pdfrwt beam="2">  1       -2 0.91700688E-02 0.16611090E+03</pdfrwt>
<totfact> 0.47979898E+03</totfact>
</mgrwt>
</event>
<event>
 7    1  0.6008063E-006  0.1697454E+03  0.7546771E-02  0.1184266E+00
         -2   -1    0    0    0  501 -0.00000000000E+00  0.00000000000E+00  0.39627197986E+03  0.39627197986E+03  0.00000000000E+00 0.  1.
          2   -1    0    0  501    0  0.00000000000E+00 -0.00000000000E+00 -0.65740480690E+02  0.65740480690E+02  0.00000000000E+00 0. -1.
         23    2    1    2    0    0 -0.35680219550E+02 -0.10916699937E+03  0.13509011014E+03  0.21693973554E+03  0.12499199646E+03 0.  0.
          5    1    3    3  502    0  0.77479398059E+01 -0.87132059865E+02  0.17164257957E+02  0.89267733134E+02  0.47000000000E+01 0. -1.
         -5    1    3    3    0  502 -0.43428159356E+02 -0.22034939500E+02  0.11792585218E+03  0.12767200240E+03  0.47000000000E+01 0. -1.
        -11    1    1    2    0    0  0.26793262091E+01  0.97712060851E+02  0.86013080913E+02  0.13020397733E+03  0.00000000000E+00 0. -1.
         11    1    1    2    0    0  0.33000893341E+02  0.11454938515E+02  0.10942830812E+03  0.11486874769E+03  0.00000000000E+00 0.  1.
<mgrwt>
<rscale>  0 0.16398837E+03</rscale>
<asrwt>0</asrwt>
<pdfrwt beam="2">  1        2 0.10113920E-01 0.16974543E+03</pdfrwt>
<pdfrwt beam="1">  1       -2 0.60964919E-01 0.16974543E+03</pdfrwt>
<totfact> 0.15832267E+03</totfact>
</mgrwt>
</event>
<event>
 7    1  0.6008063E-006  0.1717241E+03  0.7546771E-02  0.1182335E+00
         -3   -1    0    0    0  501 -0.00000000000E+00  0.00000000000E+00  0.18127949667E+03  0.18127949667E+03  0.00000000000E+00 0.  1.
          3   -1    0    0  501    0  0.00000000000E+00 -0.00000000000E+00 -0.14967472906E+03  0.14967472906E+03  0.00000000000E+00 0. -1.
         23    2    1    2    0    0 -0.86877169893E+02  0.79549500082E+02 -0.20636271317E+02  0.17295957919E+03  0.12495357028E+03 0.  0.
          5    1    3    3  502    0 -0.10245540692E+03  0.72633357493E+02 -0.52751246295E+02  0.13629929939E+03  0.47000000000E+01 0.  1.
         -5    1    3    3    0  502  0.15578237025E+02  0.69161425894E+01  0.32114974978E+02  0.36660279800E+02  0.47000000000E+01 0.  1.
        -11    1    1    2    0    0  0.68085965523E+02 -0.74420519539E+00  0.24372709090E+02  0.72320685083E+02  0.00000000000E+00 0. -1.
         11    1    1    2    0    0  0.18791204370E+02 -0.78805294887E+02  0.27868329845E+02  0.85673961460E+02  0.00000000000E+00 0.  1.
<mgrwt>
<rscale>  0 0.16576720E+03</rscale>
<asrwt>0</asrwt>
<pdfrwt beam="2">  1        3 0.23026882E-01 0.17172408E+03</pdfrwt>
<pdfrwt beam="1">  1       -3 0.27889153E-01 0.17172408E+03</pdfrwt>
<totfact> 0.51337146E+02</totfact>
</mgrwt>
</event>
<event>
 6    1  0.6008063E-006  0.1673955E+03  0.7546771E-02  0.1197012E+00
          1   -1    0    0  501    0  0.00000000000E+00  0.00000000000E+00  0.28958973969E+03  0.28958973969E+03  0.00000000000E+00 0. -1.
         -1   -1    0    0    0  501 -0.00000000000E+00 -0.00000000000E+00 -0.13067982116E+03  0.13067982116E+03  0.00000000000E+00 0.  1.
          5    1    1    2  502    0  0.10247401669E+03  0.23034046779E+02  0.21550959875E+03  0.23978734028E+03  0.47000000000E+01 0. -1.
         -5    1    1    2    0  502 -0.25479636014E+02 -0.33112950637E+02  0.14064127116E+02  0.44334738331E+02  0.47000000000E+01 0.  1.
        -11    1    1    2    0    0 -0.21870158858E+02  0.39425233298E+02 -0.47279917695E+01  0.45332182556E+02  0.00000000000E+00 0. -1.
         11    1    1    2    0    0 -0.55124221813E+02 -0.29346329440E+02 -0.65935815570E+02  0.90815299685E+02  0.00000000000E+00 0.  1.
<mgrwt>
<rscale>  0 0.15285206E+03</rscale>
<asrwt>0</asrwt>
<pdfrwt beam="1">  1        1 0.44552267E-01 0.16739552E+03</pdfrwt>
<pdfrwt beam="2">  1       -1 0.20104588E-01 0.16739552E+03</pdfrwt>
<totfact> 0.18071294E+03</totfact>
</mgrwt>
</event>
<event>
 7    1  0.6008063E-006  0.1482016E+03  0.7546771E-02  0.1209097E+00
          2   -1    0    0  501    0  0.00000000000E+00  0.00000000000E+00  0.25938034768E+03  0.25938034768E+03  0.00000000000E+00 0. -1.
         -2   -1    0    0    0  501 -0.00000000000E+00 -0.00000000000E+00 -0.76762142093E+02  0.76762142093E+02  0.00000000000E+00 0.  1.
         23    2    1    2    0    0  0.73006270577E+01 -0.79263503935E+02  0.12831753147E+03  0.19603340285E+03  0.12501081528E+03 0.  0.
          5    1    3    3  502    0  0.54984608383E+01 -0.10462610131E+03  0.55278280127E+02  0.11855223490E+03  0.47000000000E+01 0. -1.
         -5    1    3    3    0  502  0.18021662194E+01  0.25362597374E+02  0.73039251345E+02  0.77481167942E+02  0.47000000000E+01 0. -1.
        -11    1    1    2    0    0  0.34937825152E+02 -0.46177818694E+01  0.14523401421E+02  0.38116987349E+02  0.00000000000E+00 0.  1.
         11    1    1    2    0    0 -0.42238452210E+02  0.83881285805E+02  0.39777272694E+02  0.10199209958E+03  0.00000000000E+00 0. -1.
<mgrwt>
<rscale>  0 0.14319261E+03</rscale>
<asrwt>0</asrwt>
<pdfrwt beam="1">  1        2 0.39904668E-01 0.14820157E+03</pdfrwt>
<pdfrwt beam="2">  1       -2 0.11809561E-01 0.14820157E+03</pdfrwt>
<totfact> 0.62338258E+03</totfact>
</mgrwt>
</event>
<event>
 7    1  0.6008063E-006  0.1203285E+03  0.7546771E-02  0.1252846E+00
          2   -1    0    0  501    0  0.00000000000E+00  0.00000000000E+00  0.36931963255E+03  0.36931963255E+03  0.00000000000E+00 0. -1.
         -2   -1    0    0    0  501 -0.00000000000E+00 -0.00000000000E+00 -0.35778006028E+02  0.35778006028E+02  0.00000000000E+00 0.  1.
         23    2    1    2    0    0 -0.31025082448E+02 -0.66501253279E+01  0.24565295158E+03  0.27354035764E+03  0.11606969773E+03 0.  0.
          5    1    3    3  502    0  0.35143536480E+02  0.16377144221E+02  0.14924854236E+03  0.15427409505E+03  0.47000000000E+01 0. -1.
         -5    1    3    3    0  502 -0.66168618928E+02 -0.23027269548E+02  0.96404409226E+02  0.11926626259E+03  0.47000000000E+01 0.  1.
        -11    1    1    2    0    0 -0.23861877501E+02 -0.20813950099E+02  0.50758734572E+02  0.59825235912E+02  0.00000000000E+00 0.  1.
         11    1    1    2    0    0  0.54886959949E+02  0.27464075427E+02  0.37129940369E+02  0.71732045024E+02  0.00000000000E+00 0. -1.
<mgrwt>
<rscale>  0 0.11427825E+03</rscale>
<asrwt>0</asrwt>
<pdfrwt beam="1">  1        2 0.56818402E-01 0.12032853E+03</pdfrwt>
<pdfrwt beam="2">  1       -2 0.55043089E-02 0.12032853E+03</pdfrwt>
<totfact> 0.13747711E+04</totfact>
</mgrwt>
</event>
<event>
 7    1  0.6008063E-006  0.1512520E+03  0.7546771E-02  0.1207820E+00
         -4   -1    0    0    0  501 -0.00000000000E+00  0.00000000000E+00  0.67300649552E+02  0.67300649552E+02  0.00000000000E+00 0.  1.
          4   -1    0    0  501    0  0.00000000000E+00 -0.00000000000E+00 -0.31370374923E+03  0.31370374923E+03  0.00000000000E+00 0. -1.
         23    2    1    2    0    0  0.18258978176E+01  0.85145196873E+02 -0.19297685524E+03  0.24518816215E+03  0.12499651892E+03 0.  0.
          5    1    3    3  502    0  0.61932228557E+02  0.58340863348E+02 -0.11214000523E+03  0.14084291975E+03  0.47000000000E+01 0. -1.
         -5    1    3    3    0  502 -0.60106330740E+02  0.26804333525E+02 -0.80836850009E+02  0.10434524239E+03  0.47000000000E+01 0. -1.
        -11    1    1    2    0    0  0.24546850665E+02 -0.31490595599E+02 -0.63675468522E+02  0.75158304799E+02  0.00000000000E+00 0. -1.
         11    1    1    2    0    0 -0.26372748483E+02 -0.53654601275E+02  0.10249224087E+02  0.60657931838E+02  0.00000000000E+00 0.  1.
<mgrwt>
<rscale>  0 0.14417418E+03</rscale>
<asrwt>0</asrwt>
<pdfrwt beam="2">  1        4 0.48262117E-01 0.15125200E+03</pdfrwt>
<pdfrwt beam="1">  1       -4 0.10353946E-01 0.15125200E+03</pdfrwt>
<totfact> 0.50525353E+02</totfact>
</mgrwt>
</event>
<event>
 7    1  0.6008063E-006  0.1482597E+03  0.7546771E-02  0.1211987E+00
          1   -1    0    0  501    0  0.00000000000E+00  0.00000000000E+00  0.10994427064E+03  0.10994427064E+03  0.00000000000E+00 0. -1.
         -1   -1    0    0    0  501 -0.00000000000E+00 -0.00000000000E+00 -0.16605234440E+03  0.16605234440E+03  0.00000000000E+00 0.  1.
         23    2    1    2    0    0  0.59723323815E+02  0.52807182289E+02 -0.21106632754E+02  0.14975452950E+03  0.12500182099E+03 0.  0.
          5    1    3    3  502    0  0.82159649894E+02  0.67610307992E+02 -0.42911325636E+02  0.11482523105E+03  0.47000000000E+01 0. -1.
         -5    1    3    3    0  502 -0.22436326079E+02 -0.14803125703E+02  0.21804692882E+02  0.34929298450E+02  0.47000000000E+01 0. -1.
        -11    1    1    2    0    0  0.20006001292E+02 -0.19346419073E+02 -0.28023582270E+02  0.39494875388E+02  0.00000000000E+00 0.  1.
         11    1    1    2    0    0 -0.79729325107E+02 -0.33460763215E+02 -0.69778587387E+01  0.86747210154E+02  0.00000000000E+00 0. -1.
<mgrwt>
<rscale>  0 0.14100227E+03</rscale>
<asrwt>0</asrwt>
<pdfrwt beam="1">  1        1 0.16914503E-01 0.14825967E+03</pdfrwt>
<pdfrwt beam="2">  1       -1 0.25546514E-01 0.14825967E+03</pdfrwt>
<totfact> 0.41139262E+03</totfact>
</mgrwt>
</event>
<event>
 7    1  0.6008063E-006  0.1289610E+03  0.7546771E-02  0.1242673E+00
         -1   -1    0    0    0  501 -0.00000000000E+00  0.00000000000E+00  0.19318139611E+02  0.19318139611E+02  0.00000000000E+00 0.  1.
          1   -1    0    0  501    0  0.00000000000E+00 -0.00000000000E+00 -0.67464012782E+03  0.67464012782E+03  0.00000000000E+00 0. -1.
         23    2    1    2    0    0 -0.31652073731E+02  0.21333952679E+01 -0.41603522834E+03  0.43556428339E+03  0.12499811438E+03 0.  0.
          5    1    3    3  502    0  0.44956999885E+02  0.11650629734E+02 -0.10246242770E+03  0.11259444081E+03  0.47000000000E+01 0. -1.
         -5    1    3    3    0  502 -0.76609073616E+02 -0.95172344665E+01 -0.31357280064E+03  0.32296984258E+03  0.47000000000E+01 0. -1.
        -11    1    1    2    0    0  0.50681395486E+02  0.29187211026E+02 -0.17344323835E+03  0.18303839505E+03  0.00000000000E+00 0. -1.
         11    1    1    2    0    0 -0.19029321755E+02 -0.31320606294E+02 -0.65843521516E+02  0.75355588981E+02  0.00000000000E+00 0.  1.
<mgrwt>
<rscale>  0 0.12025753E+03</rscale>
<asrwt>0</asrwt>
<pdfrwt beam="2">  1        1 0.10379080E+00 0.12896098E+03</pdfrwt>
<pdfrwt beam="1">  1       -1 0.29720212E-02 0.12896098E+03</pdfrwt>
<totfact> 0.10840628E+04</totfact>
</mgrwt>
</event>
<event>
 7    1  0.6008063E-006  0.1256098E+03  0.7546771E-02  0.1248941E+00
         -1   -1    0    0    0  501 -0.00000000000E+00  0.00000000000E+00  0.13456209227E+03  0.13456209227E+03  0.00000000000E+00 0.  1.
          1   -1    0    0  501    0  0.00000000000E+00 -0.00000000000E+00 -0.94339972007E+02  0.94339972007E+02  0.00000000000E+00 0. -1.
         23    2    1    2    0    0 -0.54721545962E+01  0.11106608094E+02 -0.44800005772E+01  0.12568963978E+03  0.12499805568E+03 0.  0.
          5    1    3    3  502    0 -0.17105560820E+02  0.99158661877E+01  0.58256577731E+02  0.61699622868E+02  0.47000000000E+01 0.  1.
         -5    1    3    3    0  502  0.11633406223E+02  0.11907419065E+01 -0.62736578308E+02  0.63990016912E+02  0.47000000000E+01 0.  1.
        -11    1    1    2    0    0 -0.29976513293E+02 -0.10566500067E+02 -0.13923832584E+02  0.34700365800E+02  0.00000000000E+00 0. -1.
         11    1    1    2    0    0  0.35448667889E+02 -0.54010802695E+00  0.58625953423E+02  0.68512058694E+02  0.00000000000E+00 0.  1.
<mgrwt>
<rscale>  0 0.11652604E+03</rscale>
<asrwt>0</asrwt>
<pdfrwt beam="2">  1        1 0.14513842E-01 0.12560977E+03</pdfrwt>
<pdfrwt beam="1">  1       -1 0.20701860E-01 0.12560977E+03</pdfrwt>
<totfact> 0.69837406E+03</totfact>
</mgrwt>
</event>
<event>
 7    1  0.6008063E-006  0.1412878E+03  0.7546771E-02  0.1217095E+00
         -1   -1    0    0    0  501 -0.00000000000E+00  0.00000000000E+00  0.12734684705E+03  0.12734684705E+03  0.00000000000E+00 0.  1.
          1   -1    0    0  501    0  0.00000000000E+00 -0.00000000000E+00 -0.36065105423E+03  0.36065105423E+03  0.00000000000E+00 0. -1.
         23    2    1    2    0    0 -0.39858612634E+02  0.70585062769E+02 -0.31000573776E+03  0.34068431754E+03  0.11572072712E+03 0.  0.
          5    1    3    3  502    0  0.33523760393E+02  0.49051321157E+02 -0.18188486207E+03  0.19140028126E+03  0.47000000000E+01 0. -1.
         -5    1    3    3    0  502 -0.73382373027E+02  0.21533741613E+02 -0.12812087570E+03  0.14928403628E+03  0.47000000000E+01 0.  1.
        -11    1    1    2    0    0  0.46960198519E+02 -0.40767727666E+02  0.93552307222E+02  0.11233566687E+03  0.00000000000E+00 0.  1.
         11    1    1    2    0    0 -0.71015858844E+01 -0.29817335103E+02 -0.16850776639E+02  0.34977916863E+02  0.00000000000E+00 0. -1.
<mgrwt>
<rscale>  0 0.13723758E+03</rscale>
<asrwt>0</asrwt>
<pdfrwt beam="2">  1        1 0.55484777E-01 0.14128782E+03</pdfrwt>
<pdfrwt beam="1">  1       -1 0.19591823E-01 0.14128782E+03</pdfrwt>
<totfact> 0.14266146E+03</totfact>
</mgrwt>
</event>
<event>
 7    1  0.6008063E-006  0.1440785E+03  0.7546771E-02  0.1223583E+00
         -1   -1    0    0    0  501 -0.00000000000E+00  0.00000000000E+00  0.24098402611E+02  0.24098402611E+02  0.00000000000E+00 0.  1.
          1   -1    0    0  501    0  0.00000000000E+00 -0.00000000000E+00 -0.74259483901E+03  0.74259483901E+03  0.00000000000E+00 0. -1.
         23    2    1    2    0    0  0.80014508534E+01  0.71201125044E+02 -0.55327802904E+03  0.57173000789E+03  0.12500000430E+03 0.  0.
          5    1    3    3  502    0 -0.30234520113E+02  0.36092683500E+01 -0.31061230394E+02  0.43749777806E+02  0.47000000000E+01 0.  1.
         -5    1    3    3    0  502  0.38235970966E+02  0.67591856694E+02 -0.52221679865E+03  0.52798023008E+03  0.47000000000E+01 0.  1.
        -11    1    1    2    0    0 -0.23320758398E+02 -0.12703223389E+02 -0.99913129759E+01  0.28373508625E+02  0.00000000000E+00 0.  1.
         11    1    1    2    0    0  0.15319307544E+02 -0.58497901655E+02 -0.15522709439E+03  0.16658972511E+03  0.00000000000E+00 0. -1.
<mgrwt>
<rscale>  0 0.13264506E+03</rscale>
<asrwt>0</asrwt>
<pdfrwt beam="2">  1        1 0.11424536E+00 0.14407854E+03</pdfrwt>
<pdfrwt beam="1">  1       -1 0.37074466E-02 0.14407854E+03</pdfrwt>
<totfact> 0.68850570E+03</totfact>
</mgrwt>
</event>
<event>
 7    1  0.6008063E-006  0.1435844E+03  0.7546771E-02  0.1218871E+00
         -1   -1    0    0    0  501 -0.00000000000E+00  0.00000000000E+00  0.48221516430E+02  0.48221516430E+02  0.00000000000E+00 0.  1.
          1   -1    0    0  501    0  0.00000000000E+00 -0.00000000000E+00 -0.36147725725E+03  0.36147725725E+03  0.00000000000E+00 0. -1.
         23    2    1    2    0    0  0.60031639241E+02 -0.37258719422E+02 -0.21260598251E+03  0.25654978793E+03  0.12499792000E+03 0.  0.
          5    1    3    3  502    0 -0.26519998708E+01 -0.29829209452E+02 -0.18504688981E+03  0.18751334957E+03  0.47000000000E+01 0.  1.
         -5    1    3    3    0  502  0.62683639111E+02 -0.74295099705E+01 -0.27559092703E+02  0.69036438359E+02  0.47000000000E+01 0.  1.
        -11    1    1    2    0    0 -0.29569352877E+02 -0.14509646068E+02 -0.84881203236E+02  0.91047762857E+02  0.00000000000E+00 0. -1.
         11    1    1    2    0    0 -0.30462286364E+02  0.51768365490E+02 -0.15768555076E+02  0.62101222896E+02  0.00000000000E+00 0.  1.
<mgrwt>
<rscale>  0 0.13595989E+03</rscale>
<asrwt>0</asrwt>
<pdfrwt beam="2">  1        1 0.55611889E-01 0.14358443E+03</pdfrwt>
<pdfrwt beam="1">  1       -1 0.74186944E-02 0.14358443E+03</pdfrwt>
<totfact> 0.64028773E+03</totfact>
</mgrwt>
</event>
<event>
 7    1  0.6008063E-006  0.1454617E+03  0.7546771E-02  0.1216505E+00
          2   -1    0    0  501    0  0.00000000000E+00  0.00000000000E+00  0.11761754808E+04  0.11761754808E+04  0.00000000000E+00 0. -1.
         -2   -1    0    0    0  501 -0.00000000000E+00 -0.00000000000E+00 -0.15859238050E+02  0.15859238050E+02  0.00000000000E+00 0.  1.
         23    2    1    2    0    0 -0.58514830789E+02 -0.45959667434E+02  0.80527425161E+03  0.81830662278E+03  0.12499132817E+03 0.  0.
          5    1    3    3  502    0 -0.93435100046E+02 -0.49838487598E+02  0.50906917841E+03  0.51998799138E+03  0.47000000000E+01 0. -1.
         -5    1    3    3    0  502  0.34920269257E+02  0.38788201638E+01  0.29620507320E+03  0.29831863140E+03  0.47000000000E+01 0. -1.
        -11    1    1    2    0    0  0.38258688869E+02 -0.23084235793E+02  0.14179737299E+03  0.14867112767E+03  0.00000000000E+00 0.  1.
         11    1    1    2    0    0  0.20256141920E+02  0.69043903227E+02  0.21324461820E+03  0.22505696845E+03  0.00000000000E+00 0. -1.
<mgrwt>
<rscale>  0 0.13766552E+03</rscale>
<asrwt>0</asrwt>
<pdfrwt beam="1">  1        2 0.18095001E+00 0.14546171E+03</pdfrwt>
<pdfrwt beam="2">  1       -2 0.24398837E-02 0.14546171E+03</pdfrwt>
<totfact> 0.11521822E+04</totfact>
</mgrwt>
</event>
<event>
 7    1  0.6008063E-006  0.1350263E+03  0.7546771E-02  0.1232790E+00
          1   -1    0    0  501    0  0.00000000000E+00  0.00000000000E+00  0.21927996471E+02  0.21927996471E+02  0.00000000000E+00 0. -1.
         -1   -1    0    0    0  501 -0.00000000000E+00 -0.00000000000E+00 -0.69224498810E+03  0.69224498810E+03  0.00000000000E+00 0.  1.
         23    2    1    2    0    0  0.49371404767E+02 -0.12955672639E+02 -0.28965303035E+03  0.31957936966E+03  0.12500684165E+03 0.  0.
          5    1    3    3  502    0  0.56136729314E+02 -0.36748025393E+02 -0.28640028314E+03  0.29419204940E+03  0.47000000000E+01 0. -1.
         -5    1    3    3    0  502 -0.67653245473E+01  0.23792352753E+02 -0.32527472146E+01  0.25387320265E+02  0.47000000000E+01 0. -1.
        -11    1    1    2    0    0 -0.72393450900E+02 -0.52325820663E+01 -0.30300797137E+03  0.31157988119E+03  0.00000000000E+00 0. -1.
         11    1    1    2    0    0  0.23022046133E+02  0.18188254706E+02 -0.77655989912E+02  0.83013733723E+02  0.00000000000E+00 0.  1.
<mgrwt>
<rscale>  0 0.12646985E+03</rscale>
<asrwt>0</asrwt>
<pdfrwt beam="1">  1        1 0.33735375E-02 0.13502628E+03</pdfrwt>
<pdfrwt beam="2">  1       -1 0.10649924E+00 0.13502628E+03</pdfrwt>
<totfact> 0.24408203E+03</totfact>
</mgrwt>
</event>
<event>
 7    1  0.6008063E-006  0.1308014E+03  0.7546771E-02  0.1240147E+00
          2   -1    0    0  501    0  0.00000000000E+00  0.00000000000E+00  0.34603994026E+02  0.34603994026E+02  0.00000000000E+00 0. -1.
         -2   -1    0    0    0  501 -0.00000000000E+00 -0.00000000000E+00 -0.40727018172E+03  0.40727018172E+03  0.00000000000E+00 0.  1.
         23    2    1    2    0    0  0.29060656578E+02 -0.25288319009E+02 -0.15366380104E+03  0.20179589169E+03  0.12499998925E+03 0.  0.
          5    1    3    3  502    0 -0.45679162950E+02 -0.11165952005E+02 -0.93269460921E+02  0.10455881958E+03  0.47000000000E+01 0.  1.
         -5    1    3    3    0  502  0.74739819528E+02 -0.14122367004E+02 -0.60394340117E+02  0.97237072103E+02  0.47000000000E+01 0.  1.
        -11    1    1    2    0    0 -0.45293062381E+02  0.14897634943E+02 -0.21521885457E+03  0.22043719375E+03  0.00000000000E+00 0.  1.
         11    1    1    2    0    0  0.16232405803E+02  0.10390684066E+02 -0.37835320857E+01  0.19641090310E+02  0.00000000000E+00 0. -1.
<mgrwt>
<rscale>  0 0.12180603E+03</rscale>
<asrwt>0</asrwt>
<pdfrwt beam="1">  1        2 0.53236915E-02 0.13080145E+03</pdfrwt>
<pdfrwt beam="2">  1       -2 0.62656950E-01 0.13080145E+03</pdfrwt>
<totfact> 0.33257662E+03</totfact>
</mgrwt>
</event>
<event>
 7    1  0.6008063E-006  0.1753821E+03  0.7546771E-02  0.1178470E+00
          2   -1    0    0  501    0  0.00000000000E+00  0.00000000000E+00  0.55366124532E+03  0.55366124532E+03  0.00000000000E+00 0. -1.
         -2   -1    0    0    0  501 -0.00000000000E+00 -0.00000000000E+00 -0.70720146947E+02  0.70720146947E+02  0.00000000000E+00 0.  1.
         23    2    1    2    0    0 -0.62849024169E+02  0.10576873261E+03  0.42729597952E+03  0.46188822741E+03  0.12498742282E+03 0.  0.
          5    1    3    3  502    0 -0.44891673961E+02 -0.17830004531E+02  0.15174464512E+03  0.15931634811E+03  0.47000000000E+01 0.  1.
         -5    1    3    3    0  502 -0.17957350208E+02  0.12359873714E+03  0.27555133440E+03  0.30257187930E+03  0.47000000000E+01 0.  1.
        -11    1    1    2    0    0  0.15645025606E+02  0.15619531813E+02  0.44586232145E+01  0.22552514743E+02  0.00000000000E+00 0.  1.
         11    1    1    2    0    0  0.47203998563E+02 -0.12138826442E+03  0.51186495638E+02  0.13994065012E+03  0.00000000000E+00 0. -1.
<mgrwt>
<rscale>  0 0.16940501E+03</rscale>
<asrwt>0</asrwt>
<pdfrwt beam="1">  1        2 0.85178650E-01 0.17538210E+03</pdfrwt>
<pdfrwt beam="2">  1       -2 0.10880023E-01 0.17538210E+03</pdfrwt>
<totfact> 0.31571619E+03</totfact>
</mgrwt>
</event>
<event>
 7    1  0.6008063E-006  0.2061479E+03  0.7546771E-02  0.1148736E+00
         -2   -1    0    0    0  501 -0.00000000000E+00  0.00000000000E+00  0.55066489031E+02  0.55066489031E+02  0.00000000000E+00 0. -1.
          2   -1    0    0  501    0  0.00000000000E+00 -0.00000000000E+00 -0.70186276115E+03  0.70186276115E+03  0.00000000000E+00 0.  1.
         23    2    1    2    0    0  0.14678132403E+03  0.72927633429E+02 -0.34100734607E+03  0.39847578349E+03  0.12503496773E+03 0.  0.
          5    1    3    3  502    0  0.15688051591E+02  0.52560133024E+02 -0.35854645281E+02  0.65698768135E+02  0.47000000000E+01 0. -1.
         -5    1    3    3    0  502  0.13109327243E+03  0.20367500405E+02 -0.30515270079E+03  0.33277701536E+03  0.47000000000E+01 0. -1.
        -11    1    1    2    0    0 -0.13820445431E+03 -0.29987062055E+02 -0.25323362535E+03  0.29004648608E+03  0.00000000000E+00 0.  1.
         11    1    1    2    0    0 -0.85768697125E+01 -0.42940571374E+02 -0.52555300703E+02  0.68406980609E+02  0.00000000000E+00 0. -1.
<mgrwt>
<rscale>  0 0.20119386E+03</rscale>
<asrwt>0</asrwt>
<pdfrwt beam="2">  1        2 0.10797887E+00 0.20614786E+03</pdfrwt>
<pdfrwt beam="1">  1       -2 0.84717687E-02 0.20614786E+03</pdfrwt>
<totfact> 0.35729599E+03</totfact>
</mgrwt>
</event>
<event>
 7    1  0.6008063E-006  0.1632045E+03  0.7546771E-02  0.1192283E+00
          2   -1    0    0  501    0  0.00000000000E+00  0.00000000000E+00  0.71533662334E+03  0.71533662334E+03  0.00000000000E+00 0. -1.
         -2   -1    0    0    0  501 -0.00000000000E+00 -0.00000000000E+00 -0.38280065549E+02  0.38280065549E+02  0.00000000000E+00 0.  1.
         23    2    1    2    0    0  0.58956292496E+02 -0.86832520509E+02  0.51338127480E+03  0.53869847803E+03  0.12497994189E+03 0.  0.
          5    1    3    3  502    0  0.30028931670E+02 -0.70380654527E+02  0.11091296710E+03  0.13482933486E+03  0.47000000000E+01 0. -1.
         -5    1    3    3    0  502  0.28927360826E+02 -0.16451865982E+02  0.40246830771E+03  0.40386914317E+03  0.47000000000E+01 0. -1.
        -11    1    1    2    0    0 -0.22518273997E+02  0.36214099698E+02  0.32178048019E+01  0.42765499511E+02  0.00000000000E+00 0.  1.
         11    1    1    2    0    0 -0.36438018499E+02  0.50618420812E+02  0.16045747819E+03  0.17215271135E+03  0.00000000000E+00 0. -1.
<mgrwt>
<rscale>  0 0.15686463E+03</rscale>
<asrwt>0</asrwt>
<pdfrwt beam="1">  1        2 0.11005178E+00 0.16320452E+03</pdfrwt>
<pdfrwt beam="2">  1       -2 0.58892414E-02 0.16320452E+03</pdfrwt>
<totfact> 0.60659527E+03</totfact>
</mgrwt>
</event>
<event>
 7    1  0.6008063E-006  0.1525325E+03  0.7546771E-02  0.1204122E+00
          2   -1    0    0  501    0  0.00000000000E+00  0.00000000000E+00  0.55767532454E+03  0.55767532454E+03  0.00000000000E+00 0. -1.
         -2   -1    0    0    0  501 -0.00000000000E+00 -0.00000000000E+00 -0.38499518306E+02  0.38499518306E+02  0.00000000000E+00 0.  1.
         23    2    1    2    0    0 -0.45842519820E+02  0.74436525195E+02  0.34929998953E+03  0.38115175085E+03  0.12499536626E+03 0.  0.
          5    1    3    3  502    0  0.32436620652E+02  0.65139348444E+02  0.18521961207E+03  0.19905693600E+03  0.47000000000E+01 0. -1.
         -5    1    3    3    0  502 -0.78279140472E+02  0.92971767515E+01  0.16408037746E+03  0.18209481485E+03  0.47000000000E+01 0. -1.
        -11    1    1    2    0    0 -0.27559937509E+02 -0.35356944795E+02  0.36326024263E+02  0.57699599128E+02  0.00000000000E+00 0.  1.
         11    1    1    2    0    0  0.73402457329E+02 -0.39079580401E+02  0.13354979244E+03  0.15732349287E+03  0.00000000000E+00 0. -1.
<mgrwt>
<rscale>  0 0.14706832E+03</rscale>
<asrwt>0</asrwt>
<pdfrwt beam="1">  1        2 0.85796198E-01 0.15253254E+03</pdfrwt>
<pdfrwt beam="2">  1       -2 0.59230032E-02 0.15253254E+03</pdfrwt>
<totfact> 0.80008241E+03</totfact>
</mgrwt>
</event>
<event>
 6    1  0.6008063E-006  0.2293180E+03  0.7546771E-02  0.1146104E+00
         -2   -1    0    0    0  501 -0.00000000000E+00  0.00000000000E+00  0.73457860525E+02  0.73457860525E+02  0.00000000000E+00 0.  1.
          2   -1    0    0  501    0  0.00000000000E+00 -0.00000000000E+00 -0.16345052512E+04  0.16345052512E+04  0.00000000000E+00 0. -1.
          5    1    1    2  502    0  0.64708255541E+02 -0.11635449757E+03 -0.14741890698E+04  0.14801962813E+04  0.47000000000E+01 0. -1.
         -5    1    1    2    0  502  0.17035285544E+02  0.36937061322E+02 -0.71366125213E+02  0.82278559058E+02  0.47000000000E+01 0.  1.
        -11    1    1    2    0    0 -0.50858720107E+02  0.92158583209E+02  0.65469775125E+01  0.10546410188E+03  0.00000000000E+00 0.  1.
         11    1    1    2    0    0 -0.30884820978E+02 -0.12741146963E+02 -0.22039173107E+02  0.40024169498E+02  0.00000000000E+00 0. -1.
<mgrwt>
<rscale>  0 0.20436974E+03</rscale>
<asrwt>0</asrwt>
<pdfrwt beam="2">  1        2 0.25146236E+00 0.22931804E+03</pdfrwt>
<pdfrwt beam="1">  1       -2 0.11301209E-01 0.22931804E+03</pdfrwt>
<totfact> 0.63577610E+02</totfact>
</mgrwt>
</event>
<event>
 7    1  0.6008063E-006  0.1316591E+03  0.7546771E-02  0.1238623E+00
          3   -1    0    0  501    0  0.00000000000E+00  0.00000000000E+00  0.15396813220E+03  0.15396813220E+03  0.00000000000E+00 0. -1.
         -3   -1    0    0    0  501 -0.00000000000E+00 -0.00000000000E+00 -0.87649050023E+02  0.87649050023E+02  0.00000000000E+00 0.  1.
         23    2    1    2    0    0 -0.18694361408E+02  0.36882600341E+02  0.49816680266E+02  0.14076870354E+03  0.12499728359E+03 0.  0.
          5    1    3    3  502    0 -0.31421345457E+02 -0.41401395386E+02  0.20991390693E+02  0.56250377541E+02  0.47000000000E+01 0.  1.
         -5    1    3    3    0  502  0.12726984048E+02  0.78283995727E+02  0.28825289573E+02  0.84518325995E+02  0.47000000000E+01 0.  1.
        -11    1    1    2    0    0  0.27650780403E+02  0.81186823613E+01  0.39998373507E+02  0.49298565328E+02  0.00000000000E+00 0. -1.
         11    1    1    2    0    0 -0.89564189950E+01 -0.45001282702E+02 -0.23495971596E+02  0.51549913359E+02  0.00000000000E+00 0.  1.
<mgrwt>
<rscale>  0 0.12275301E+03</rscale>
<asrwt>0</asrwt>
<pdfrwt beam="1">  1        3 0.23687405E-01 0.13165913E+03</pdfrwt>
<pdfrwt beam="2">  1       -3 0.13484469E-01 0.13165913E+03</pdfrwt>
<totfact> 0.16865581E+03</totfact>
</mgrwt>
</event>
<event>
 7    1  0.6008063E-006  0.1685283E+03  0.7546771E-02  0.1186178E+00
          2   -1    0    0  501    0  0.00000000000E+00  0.00000000000E+00  0.10057154488E+03  0.10057154488E+03  0.00000000000E+00 0. -1.
         -2   -1    0    0    0  501 -0.00000000000E+00 -0.00000000000E+00 -0.28492811590E+03  0.28492811590E+03  0.00000000000E+00 0.  1.
         23    2    1    2    0    0 -0.47137128291E+02 -0.10274109586E+03 -0.25309362555E+02  0.17041813288E+03  0.12499653811E+03 0.  0.
          5    1    3    3  502    0  0.20312665187E+02 -0.26263180025E+02  0.37701510767E+02  0.50456445635E+02  0.47000000000E+01 0.  1.
         -5    1    3    3    0  502 -0.67449793478E+02 -0.76477915834E+02 -0.63010873322E+02  0.11996168725E+03  0.47000000000E+01 0.  1.
        -11    1    1    2    0    0  0.28295781151E+02  0.98161200321E+02 -0.16563301794E+03  0.19460362050E+03  0.00000000000E+00 0.  1.
         11    1    1    2    0    0  0.18841347140E+02  0.45798955377E+01  0.65858094654E+01  0.20477907400E+02  0.00000000000E+00 0. -1.
<mgrwt>
<rscale>  0 0.16225159E+03</rscale>
<asrwt>0</asrwt>
<pdfrwt beam="1">  1        2 0.15472545E-01 0.16852827E+03</pdfrwt>
<pdfrwt beam="2">  1       -2 0.43835095E-01 0.16852827E+03</pdfrwt>
<totfact> 0.18353381E+03</totfact>
</mgrwt>
</event>
<event>
 7    1  0.6008063E-006  0.1324029E+03  0.7546771E-02  0.1240513E+00
         -1   -1    0    0    0  501 -0.00000000000E+00  0.00000000000E+00  0.10930880770E+03  0.10930880770E+03  0.00000000000E+00 0.  1.
          1   -1    0    0  501    0  0.00000000000E+00 -0.00000000000E+00 -0.12037815025E+03  0.12037815025E+03  0.00000000000E+00 0. -1.
         23    2    1    2    0    0  0.39051624789E+02  0.19506560495E+02 -0.24332904650E+02  0.13462024456E+03  0.12499993879E+03 0.  0.
          5    1    3    3  502    0 -0.18272112544E+02  0.26709399148E+02 -0.58727932941E+02  0.67218466266E+02  0.47000000000E+01 0.  1.
         -5    1    3    3    0  502  0.57323737333E+02 -0.72028386531E+01  0.34395028290E+02  0.67401778297E+02  0.47000000000E+01 0.  1.
        -11    1    1    2    0    0  0.37141138009E+01  0.14805813700E+02 -0.24234489900E+02  0.28641181215E+02  0.00000000000E+00 0. -1.
         11    1    1    2    0    0 -0.42765738590E+02 -0.34312374195E+02  0.37498051999E+02  0.66425532168E+02  0.00000000000E+00 0.  1.
<mgrwt>
<rscale>  0 0.12158025E+03</rscale>
<asrwt>0</asrwt>
<pdfrwt beam="2">  1        1 0.18519716E-01 0.13240287E+03</pdfrwt>
<pdfrwt beam="1">  1       -1 0.16816740E-01 0.13240287E+03</pdfrwt>
<totfact> 0.71382205E+03</totfact>
</mgrwt>
</event>
<event>
 7    1  0.6008063E-006  0.1371748E+03  0.7546771E-02  0.1228502E+00
          3   -1    0    0  501    0  0.00000000000E+00  0.00000000000E+00  0.47726481718E+03  0.47726481718E+03  0.00000000000E+00 0. -1.
         -3   -1    0    0    0  501 -0.00000000000E+00 -0.00000000000E+00 -0.35661446238E+02  0.35661446238E+02  0.00000000000E+00 0.  1.
         23    2    1    2    0    0  0.14628946833E+02 -0.54572037860E+02  0.33026533276E+03  0.35762006526E+03  0.12499923059E+03 0.  0.
          5    1    3    3  502    0 -0.46898142174E+01 -0.43697495694E+02  0.33196505966E+03  0.33489454508E+03  0.47000000000E+01 0. -1.
         -5    1    3    3    0  502  0.19318761050E+02 -0.10874542166E+02 -0.16997268978E+01  0.22725520178E+02  0.47000000000E+01 0. -1.
        -11    1    1    2    0    0 -0.26903964051E+02  0.69264580898E+02  0.46397151569E+02  0.87601947024E+02  0.00000000000E+00 0.  1.
         11    1    1    2    0    0  0.12275017218E+02 -0.14692543038E+02  0.64940886612E+02  0.67704251141E+02  0.00000000000E+00 0. -1.
<mgrwt>
<rscale>  0 0.12929732E+03</rscale>
<asrwt>0</asrwt>
<pdfrwt beam="1">  1        3 0.73425352E-01 0.13717478E+03</pdfrwt>
<pdfrwt beam="2">  1       -3 0.54863767E-02 0.13717478E+03</pdfrwt>
<totfact> 0.81794463E+02</totfact>
</mgrwt>
</event>
<event>
 6    1  0.6008063E-006  0.2724227E+03  0.7546771E-02  0.1134021E+00
          2   -1    0    0  501    0  0.00000000000E+00  0.00000000000E+00  0.16404574986E+03  0.16404574986E+03  0.00000000000E+00 0. -1.
         -2   -1    0    0    0  501 -0.00000000000E+00 -0.00000000000E+00 -0.22948946163E+03  0.22948946163E+03  0.00000000000E+00 0.  1.
          5    1    1    2  502    0  0.14880052782E+01 -0.96072259500E+02  0.78940118549E+02  0.12444165509E+03  0.47000000000E+01 0. -1.
         -5    1    1    2    0  502 -0.57917344272E+02  0.55255194603E+02 -0.12997648872E+03  0.15272044040E+03  0.47000000000E+01 0.  1.
        -11    1    1    2    0    0  0.30669539846E+01  0.56863243208E+02  0.54773993939E+01  0.57208710342E+02  0.00000000000E+00 0. -1.
         11    1    1    2    0    0  0.53362385009E+02 -0.16046178310E+02 -0.19884740987E+02  0.59164405654E+02  0.00000000000E+00 0.  1.
<mgrwt>
<rscale>  0 0.21981489E+03</rscale>
<asrwt>0</asrwt>
<pdfrwt beam="1">  1        2 0.25237808E-01 0.27242268E+03</pdfrwt>
<pdfrwt beam="2">  1       -2 0.35306071E-01 0.27242268E+03</pdfrwt>
<totfact> 0.16057806E+03</totfact>
</mgrwt>
</event>
<event>
 7    1  0.6008063E-006  0.1566282E+03  0.7546771E-02  0.1200248E+00
          1   -1    0    0  501    0  0.00000000000E+00  0.00000000000E+00  0.26191588017E+03  0.26191588017E+03  0.00000000000E+00 0. -1.
         -1   -1    0    0    0  501 -0.00000000000E+00 -0.00000000000E+00 -0.95241046276E+02  0.95241046276E+02  0.00000000000E+00 0.  1.
         23    2    1    2    0    0 -0.27892043536E+02 -0.90157395965E+02  0.16102994683E+03  0.22463978071E+03  0.12500426058E+03 0.  0.
          5    1    3    3  502    0  0.73564323437E+01  0.13427570061E+02  0.95878681504E+02  0.97207141206E+02  0.47000000000E+01 0.  1.
         -5    1    3    3    0  502 -0.35248475880E+02 -0.10358496603E+03  0.65151265321E+02  0.12743263951E+03  0.47000000000E+01 0.  1.
        -11    1    1    2    0    0  0.41069018860E+02  0.16131783694E+02  0.30143783795E+02  0.53437313338E+02  0.00000000000E+00 0. -1.
         11    1    1    2    0    0 -0.13176975324E+02  0.74025612272E+02 -0.24498896727E+02  0.79079832396E+02  0.00000000000E+00 0.  1.
<mgrwt>
<rscale>  0 0.15018337E+03</rscale>
<asrwt>0</asrwt>
<pdfrwt beam="1">  1        1 0.40294750E-01 0.15662818E+03</pdfrwt>
<pdfrwt beam="2">  1       -1 0.14652469E-01 0.15662818E+03</pdfrwt>
<totfact> 0.33788235E+03</totfact>
</mgrwt>
</event>
<event>
 7    1  0.6008063E-006  0.1356190E+03  0.7546771E-02  0.1230023E+00
         -2   -1    0    0    0  501 -0.00000000000E+00  0.00000000000E+00  0.31773629490E+02  0.31773629490E+02  0.00000000000E+00 0.  1.
          2   -1    0    0  501    0  0.00000000000E+00 -0.00000000000E+00 -0.49265512559E+03  0.49265512559E+03  0.00000000000E+00 0. -1.
         23    2    1    2    0    0 -0.34095379273E+02 -0.40095494417E+02 -0.31163258399E+03  0.33986376773E+03  0.12498947815E+03 0.  0.
          5    1    3    3  502    0  0.66958284456E-01  0.21848827582E+02 -0.23268359479E+03  0.23375440324E+03  0.47000000000E+01 0. -1.
         -5    1    3    3    0  502 -0.34162337557E+02 -0.61944321999E+02 -0.78948989201E+02  0.10610936448E+03  0.47000000000E+01 0. -1.
        -11    1    1    2    0    0 -0.21849777106E+01  0.44440820909E+02 -0.17448699862E+02  0.47793491372E+02  0.00000000000E+00 0.  1.
         11    1    1    2    0    0  0.36280356983E+02 -0.43453264917E+01 -0.13180021224E+03  0.13677149598E+03  0.00000000000E+00 0. -1.
<mgrwt>
<rscale>  0 0.12828474E+03</rscale>
<asrwt>0</asrwt>
<pdfrwt beam="2">  1        2 0.75793092E-01 0.13561900E+03</pdfrwt>
<pdfrwt beam="1">  1       -2 0.48882510E-02 0.13561900E+03</pdfrwt>
<totfact> 0.12171793E+04</totfact>
</mgrwt>
</event>
<event>
 7    1  0.6008063E-006  0.1490608E+03  0.7546771E-02  0.1209438E+00
          1   -1    0    0  501    0  0.00000000000E+00  0.00000000000E+00  0.22144429204E+03  0.22144429204E+03  0.00000000000E+00 0. -1.
         -1   -1    0    0    0  501 -0.00000000000E+00 -0.00000000000E+00 -0.85797709682E+02  0.85797709682E+02  0.00000000000E+00 0.  1.
         23    2    1    2    0    0  0.46270032163E+02  0.66727225429E+02  0.63377802567E+02  0.16197493221E+03  0.12500277724E+03 0.  0.
          5    1    3    3  502    0  0.19621528871E+02  0.10112624076E+03  0.31478798018E+02  0.10781709368E+03  0.47000000000E+01 0. -1.
         -5    1    3    3    0  502  0.26648503293E+02 -0.34399015327E+02  0.31899004548E+02  0.54157838531E+02  0.47000000000E+01 0. -1.
        -11    1    1    2    0    0 -0.13862252780E+02 -0.68055587768E+02  0.38620505567E+01  0.69560337212E+02  0.00000000000E+00 0.  1.
         11    1    1    2    0    0 -0.32407779383E+02  0.13283623385E+01  0.68406729237E+02  0.75706732303E+02  0.00000000000E+00 0. -1.
<mgrwt>
<rscale>  0 0.14293155E+03</rscale>
<asrwt>0</asrwt>
<pdfrwt beam="1">  1        1 0.34068352E-01 0.14906084E+03</pdfrwt>
<pdfrwt beam="2">  1       -1 0.13199648E-01 0.14906084E+03</pdfrwt>
<totfact> 0.48871675E+03</totfact>
</mgrwt>
</event>
<event>
 7    1  0.6008063E-006  0.1330195E+03  0.7546771E-02  0.1235389E+00
          2   -1    0    0  501    0  0.00000000000E+00  0.00000000000E+00  0.12524886974E+03  0.12524886974E+03  0.00000000000E+00 0. -1.
         -2   -1    0    0    0  501 -0.00000000000E+00 -0.00000000000E+00 -0.11272425424E+03  0.11272425424E+03  0.00000000000E+00 0.  1.
         23    2    1    2    0    0  0.39744897712E+02 -0.22124859252E+02 -0.65141073881E+01  0.13317893279E+03  0.12500011301E+03 0.  0.
          5    1    3    3  502    0 -0.43714591914E+02 -0.13325929906E+02 -0.15871870767E+02  0.48606092578E+02  0.47000000000E+01 0. -1.
         -5    1    3    3    0  502  0.83459489626E+02 -0.87989293466E+01  0.93577633793E+01  0.84572840213E+02  0.47000000000E+01 0. -1.
        -11    1    1    2    0    0 -0.24796791114E+02  0.50872392243E+02 -0.14228541026E+02  0.58355227031E+02  0.00000000000E+00 0.  1.
         11    1    1    2    0    0 -0.14948106597E+02 -0.28747532991E+02  0.33267263918E+02  0.46438964163E+02  0.00000000000E+00 0. -1.
<mgrwt>
<rscale>  0 0.12479546E+03</rscale>
<asrwt>0</asrwt>
<pdfrwt beam="1">  1        2 0.19269057E-01 0.13301953E+03</pdfrwt>
<pdfrwt beam="2">  1       -2 0.17342193E-01 0.13301953E+03</pdfrwt>
<totfact> 0.73496215E+03</totfact>
</mgrwt>
</event>
<event>
 7    1  0.6008063E-006  0.2206960E+03  0.7546771E-02  0.1136768E+00
         -3   -1    0    0    0  501 -0.00000000000E+00  0.00000000000E+00  0.10283107806E+03  0.10283107806E+03  0.00000000000E+00 0.  1.
          3   -1    0    0  501    0  0.00000000000E+00 -0.00000000000E+00 -0.47197983403E+03  0.47197983403E+03  0.00000000000E+00 0. -1.
         23    2    1    2    0    0  0.11871246399E+03  0.13780409512E+03 -0.27009238814E+03  0.34879306553E+03  0.12499634671E+03 0.  0.
          5    1    3    3  502    0  0.57434150284E+02  0.68246405932E+02 -0.34811884668E+02  0.95865587442E+02  0.47000000000E+01 0. -1.
         -5    1    3    3    0  502  0.61278313708E+02  0.69557689185E+02 -0.23528050348E+03  0.25292747809E+03  0.47000000000E+01 0. -1.
        -11    1    1    2    0    0 -0.25211201338E+02 -0.80621697363E+02 -0.10519913497E+02  0.85124211237E+02  0.00000000000E+00 0.  1.
         11    1    1    2    0    0 -0.93501262653E+02 -0.57182397754E+02 -0.88536454329E+02  0.14089363533E+03  0.00000000000E+00 0. -1.
<mgrwt>
<rscale>  0 0.21617357E+03</rscale>
<asrwt>0</asrwt>
<pdfrwt beam="2">  1        3 0.72612281E-01 0.22069595E+03</pdfrwt>
<pdfrwt beam="1">  1       -3 0.15820166E-01 0.22069595E+03</pdfrwt>
<totfact> 0.15370534E+02</totfact>
</mgrwt>
</event>
<event>
 7    1  0.6008063E-006  0.1413162E+03  0.7546771E-02  0.1221564E+00
         -2   -1    0    0    0  501 -0.00000000000E+00  0.00000000000E+00  0.13630786079E+02  0.13630786079E+02  0.00000000000E+00 0.  1.
          2   -1    0    0  501    0  0.00000000000E+00 -0.00000000000E+00 -0.13802739471E+04  0.13802739471E+04  0.00000000000E+00 0. -1.
         23    2    1    2    0    0 -0.13831985771E+02 -0.64457974266E+02 -0.99674415747E+03  0.10067120699E+04  0.12499648775E+03 0.  0.
          5    1    3    3  502    0  0.46533435885E+02 -0.14162136486E+01 -0.51339792487E+03  0.51552583405E+03  0.47000000000E+01 0.  1.
         -5    1    3    3    0  502 -0.60365421656E+02 -0.63041760617E+02 -0.48334623260E+03  0.49118623584E+03  0.47000000000E+01 0.  1.
        -11    1    1    2    0    0 -0.13357082133E+02  0.46668678152E+01 -0.30035088780E+01  0.14464175189E+02  0.00000000000E+00 0.  1.
         11    1    1    2    0    0  0.27189067904E+02  0.59791106450E+02 -0.36689549464E+03  0.37272848806E+03  0.00000000000E+00 0. -1.
<mgrwt>
<rscale>  0 0.13405205E+03</rscale>
<asrwt>0</asrwt>
<pdfrwt beam="2">  1        2 0.21234988E+00 0.14131623E+03</pdfrwt>
<pdfrwt beam="1">  1       -2 0.20970436E-02 0.14131623E+03</pdfrwt>
<totfact> 0.11112714E+04</totfact>
</mgrwt>
</event>
<event>
 7    1  0.6008063E-006  0.1321921E+03  0.7546771E-02  0.1237830E+00
         -1   -1    0    0    0  501 -0.00000000000E+00  0.00000000000E+00  0.16469759942E+02  0.16469759942E+02  0.00000000000E+00 0.  1.
          1   -1    0    0  501    0  0.00000000000E+00 -0.00000000000E+00 -0.12131027379E+04  0.12131027379E+04  0.00000000000E+00 0. -1.
         23    2    1    2    0    0 -0.25965607389E+01  0.42857460045E+02 -0.10031692830E+04  0.10118415655E+04  0.12502495444E+03 0.  0.
          5    1    3    3  502    0  0.95524971243E+01  0.13284994462E+02 -0.94614205478E+03  0.94629520717E+03  0.47000000000E+01 0. -1.
         -5    1    3    3    0  502 -0.12149057863E+02  0.29572465583E+02 -0.57027228222E+02  0.65546358299E+02  0.47000000000E+01 0. -1.
        -11    1    1    2    0    0  0.12353128710E+02 -0.13117564946E+01  0.59697702959E+01  0.13782548800E+02  0.00000000000E+00 0.  1.
         11    1    1    2    0    0 -0.97565679711E+01 -0.41545703551E+02 -0.19943346525E+03  0.20394838358E+03  0.00000000000E+00 0. -1.
<mgrwt>
<rscale>  0 0.12325017E+03</rscale>
<asrwt>0</asrwt>
<pdfrwt beam="2">  1        1 0.18663117E+00 0.13219207E+03</pdfrwt>
<pdfrwt beam="1">  1       -1 0.25338095E-02 0.13219207E+03</pdfrwt>
<totfact> 0.53066320E+03</totfact>
</mgrwt>
</event>
<event>
 7    1  0.6008063E-006  0.3371675E+03  0.7546771E-02  0.1069333E+00
          2   -1    0    0  501    0  0.00000000000E+00  0.00000000000E+00  0.15965759290E+03  0.15965759290E+03  0.00000000000E+00 0.  1.
         -2   -1    0    0    0  501 -0.00000000000E+00 -0.00000000000E+00 -0.75034651468E+03  0.75034651468E+03  0.00000000000E+00 0. -1.
         23    2    1    2    0    0  0.28268387989E+03 -0.13465854160E+03 -0.16786308671E+03  0.37664295514E+03  0.12505519184E+03 0.  0.
          5    1    3    3  502    0 -0.96957111548E+01  0.31910193813E+00  0.41118280631E+01  0.11537147432E+02  0.47000000000E+01 0.  1.
         -5    1    3    3    0  502  0.29237959104E+03 -0.13497764354E+03 -0.17197491477E+03  0.36510580771E+03  0.47000000000E+01 0.  1.
        -11    1    1    2    0    0 -0.15952260174E+03  0.79359010174E+02 -0.30938616493E+03  0.35702256513E+03  0.00000000000E+00 0. -1.
         11    1    1    2    0    0 -0.12316127815E+03  0.55299531424E+02 -0.11343967015E+03  0.17633858731E+03  0.00000000000E+00 0.  1.
<mgrwt>
<rscale>  0 0.33411020E+03</rscale>
<asrwt>0</asrwt>
<pdfrwt beam="1">  1        2 0.24562707E-01 0.33716747E+03</pdfrwt>
<pdfrwt beam="2">  1       -2 0.11543792E+00 0.33716747E+03</pdfrwt>
<totfact> 0.13408591E+02</totfact>
</mgrwt>
</event>
<event>
 7    1  0.6008063E-006  0.1678416E+03  0.7546771E-02  0.1187150E+00
          1   -1    0    0  501    0  0.00000000000E+00  0.00000000000E+00  0.14790960594E+04  0.14790960594E+04  0.00000000000E+00 0. -1.
         -1   -1    0    0    0  501 -0.00000000000E+00 -0.00000000000E+00 -0.22007403396E+02  0.22007403396E+02  0.00000000000E+00 0.  1.
         23    2    1    2    0    0 -0.73937335988E+00 -0.11200651651E+03  0.11497809924E+04  0.11619669314E+04  0.12499925104E+03 0.  0.
          5    1    3    3  502    0  0.36648974603E+02 -0.63326474303E+02  0.26232104772E+03  0.27237439630E+03  0.47000000000E+01 0.  1.
         -5    1    3    3    0  502 -0.37388347962E+02 -0.48680042208E+02  0.88745994470E+03  0.88959253511E+03  0.47000000000E+01 0.  1.
        -11    1    1    2    0    0  0.37879558830E+02  0.95316419976E+02  0.21268893132E+03  0.23612848706E+03  0.00000000000E+00 0.  1.
         11    1    1    2    0    0 -0.37140185470E+02  0.16690096534E+02  0.94618732230E+02  0.10300804429E+03  0.00000000000E+00 0. -1.
<mgrwt>
<rscale>  0 0.16137782E+03</rscale>
<asrwt>0</asrwt>
<pdfrwt beam="1">  1        1 0.22755316E+00 0.16784165E+03</pdfrwt>
<pdfrwt beam="2">  1       -1 0.33857555E-02 0.16784165E+03</pdfrwt>
<totfact> 0.23246017E+03</totfact>
</mgrwt>
</event>
<event>
 7    1  0.6008063E-006  0.1390880E+03  0.7546771E-02  0.1225483E+00
         -1   -1    0    0    0  501 -0.00000000000E+00  0.00000000000E+00  0.61328661681E+02  0.61328661681E+02  0.00000000000E+00 0.  1.
          1   -1    0    0  501    0  0.00000000000E+00 -0.00000000000E+00 -0.26382656488E+03  0.26382656488E+03  0.00000000000E+00 0. -1.
         23    2    1    2    0    0 -0.57545334771E+02 -0.20214191389E+02 -0.14338166826E+03  0.19975930828E+03  0.12500159745E+03 0.  0.
          5    1    3    3  502    0  0.37201993632E+02  0.61163531353E+01 -0.58578981757E+02  0.69821094302E+02  0.47000000000E+01 0. -1.
         -5    1    3    3    0  502 -0.94747328404E+02 -0.26330544524E+02 -0.84802686505E+02  0.12993821398E+03  0.47000000000E+01 0. -1.
        -11    1    1    2    0    0  0.75370976269E+02  0.16498835961E+01 -0.64366507185E+02  0.99128973700E+02  0.00000000000E+00 0. -1.
         11    1    1    2    0    0 -0.17825641497E+02  0.18564307793E+02  0.52502722487E+01  0.26266944575E+02  0.00000000000E+00 0.  1.
<mgrwt>
<rscale>  0 0.13133878E+03</rscale>
<asrwt>0</asrwt>
<pdfrwt beam="2">  1        1 0.40588701E-01 0.13908802E+03</pdfrwt>
<pdfrwt beam="1">  1       -1 0.94351789E-02 0.13908802E+03</pdfrwt>
<totfact> 0.65662341E+03</totfact>
</mgrwt>
</event>
<event>
 7    1  0.6008063E-006  0.1593931E+03  0.7546771E-02  0.1198132E+00
         -2   -1    0    0    0  501 -0.00000000000E+00  0.00000000000E+00  0.26857193923E+02  0.26857193923E+02  0.00000000000E+00 0.  1.
          2   -1    0    0  501    0  0.00000000000E+00 -0.00000000000E+00 -0.90868860632E+03  0.90868860632E+03  0.00000000000E+00 0. -1.
         23    2    1    2    0    0 -0.87654669814E+02 -0.45782568019E+02 -0.64737673561E+03  0.66671044140E+03  0.12500716056E+03 0.  0.
          5    1    3    3  502    0  0.19697239621E+02  0.14349565633E+02 -0.40754706980E+02  0.47717160682E+02  0.47000000000E+01 0. -1.
         -5    1    3    3    0  502 -0.10735190943E+03 -0.60132133652E+02 -0.60662202863E+03  0.61899328072E+03  0.47000000000E+01 0. -1.
        -11    1    1    2    0    0  0.69566974642E+02  0.59986467289E+02 -0.11498208556E+03  0.14716935897E+03  0.00000000000E+00 0.  1.
         11    1    1    2    0    0  0.18087695172E+02 -0.14203899270E+02 -0.11947259123E+03  0.12166599987E+03  0.00000000000E+00 0. -1.
<mgrwt>
<rscale>  0 0.15192136E+03</rscale>
<asrwt>0</asrwt>
<pdfrwt beam="2">  1        2 0.13979824E+00 0.15939315E+03</pdfrwt>
<pdfrwt beam="1">  1       -2 0.41318763E-02 0.15939315E+03</pdfrwt>
<totfact> 0.76492062E+03</totfact>
</mgrwt>
</event>
<event>
 7    1  0.6008063E-006  0.1406947E+03  0.7546771E-02  0.1223619E+00
          1   -1    0    0  501    0  0.00000000000E+00  0.00000000000E+00  0.97747611846E+02  0.97747611846E+02  0.00000000000E+00 0. -1.
         -1   -1    0    0    0  501 -0.00000000000E+00 -0.00000000000E+00 -0.16828782158E+03  0.16828782158E+03  0.00000000000E+00 0.  1.
         23    2    1    2    0    0 -0.56175164792E+02  0.31852956463E+02 -0.64569080507E+02  0.15480365604E+03  0.12499898316E+03 0.  0.
          5    1    3    3  502    0 -0.59614308778E+02 -0.12847876127E+02 -0.85481897362E+02  0.10511031590E+03  0.47000000000E+01 0.  1.
         -5    1    3    3    0  502  0.34391439861E+01  0.44700832589E+02  0.20912816854E+02  0.49693340141E+02  0.47000000000E+01 0.  1.
        -11    1    1    2    0    0 -0.10139051321E+02 -0.29511542720E+02  0.23062743768E+02  0.38802340980E+02  0.00000000000E+00 0. -1.
         11    1    1    2    0    0  0.66314216113E+02 -0.23414137424E+01 -0.29033872999E+02  0.72429436408E+02  0.00000000000E+00 0.  1.
<mgrwt>
<rscale>  0 0.13261997E+03</rscale>
<asrwt>0</asrwt>
<pdfrwt beam="1">  1        1 0.15038094E-01 0.14069473E+03</pdfrwt>
<pdfrwt beam="2">  1       -1 0.25890434E-01 0.14069473E+03</pdfrwt>
<totfact> 0.46698518E+03</totfact>
</mgrwt>
</event>
<event>
 7    1  0.6008063E-006  0.1571221E+03  0.7546771E-02  0.1199882E+00
         -2   -1    0    0    0  501 -0.00000000000E+00  0.00000000000E+00  0.44681191510E+02  0.44681191510E+02  0.00000000000E+00 0.  1.
          2   -1    0    0  501    0  0.00000000000E+00 -0.00000000000E+00 -0.47223066986E+03  0.47223066986E+03  0.00000000000E+00 0. -1.
         23    2    1    2    0    0 -0.53415810561E+02  0.78763539723E+02 -0.25537402300E+03  0.29983871816E+03  0.12502168324E+03 0.  0.
          5    1    3    3  502    0  0.38154238014E+02  0.40898153659E+02 -0.71374267342E+02  0.90800775821E+02  0.47000000000E+01 0. -1.
         -5    1    3    3    0  502 -0.91570048575E+02  0.37865386064E+02 -0.18399975565E+03  0.20903794234E+03  0.47000000000E+01 0. -1.
        -11    1    1    2    0    0  0.66928009646E+02 -0.55279433262E+02 -0.70434508831E+02  0.11178637775E+03  0.00000000000E+00 0. -1.
         11    1    1    2    0    0 -0.13512199084E+02 -0.23484106461E+02 -0.10174094652E+03  0.10528676545E+03  0.00000000000E+00 0.  1.
<mgrwt>
<rscale>  0 0.15048195E+03</rscale>
<asrwt>0</asrwt>
<pdfrwt beam="2">  1        2 0.72650872E-01 0.15712213E+03</pdfrwt>
<pdfrwt beam="1">  1       -2 0.68740295E-02 0.15712213E+03</pdfrwt>
<totfact> 0.76780183E+03</totfact>
</mgrwt>
</event>
<event>
 7    1  0.6008063E-006  0.1669468E+03  0.7546771E-02  0.1188614E+00
         -2   -1    0    0    0  501 -0.00000000000E+00  0.00000000000E+00  0.29928294464E+03  0.29928294464E+03  0.00000000000E+00 0.  1.
          2   -1    0    0  501    0  0.00000000000E+00 -0.00000000000E+00 -0.13110385862E+03  0.13110385862E+03  0.00000000000E+00 0. -1.
         23    2    1    2    0    0  0.49010462636E+02 -0.99215900986E+02 -0.46667267948E+02  0.17334667549E+03  0.12500166219E+03 0.  0.
          5    1    3    3  502    0  0.58543807392E+02  0.49508878311E+01 -0.57558876751E+00  0.58943277621E+02  0.47000000000E+01 0. -1.
         -5    1    3    3    0  502 -0.95333447568E+01 -0.10416678882E+03 -0.46091679180E+02  0.11440339787E+03  0.47000000000E+01 0. -1.
        -11    1    1    2    0    0 -0.63995597493E+02  0.48801970212E+02  0.16934142054E+03  0.18749289454E+03  0.00000000000E+00 0. -1.
         11    1    1    2    0    0  0.14985134857E+02  0.50413930774E+02  0.45504933430E+02  0.69547233225E+02  0.00000000000E+00 0.  1.
<mgrwt>
<rscale>  0 0.16007346E+03</rscale>
<asrwt>0</asrwt>
<pdfrwt beam="2">  1        2 0.20169824E-01 0.16694681E+03</pdfrwt>
<pdfrwt beam="1">  1       -2 0.46043530E-01 0.16694681E+03</pdfrwt>
<totfact> 0.12277810E+03</totfact>
</mgrwt>
</event>
<event>
 7    1  0.6008063E-006  0.1220678E+03  0.7546771E-02  0.1246244E+00
          1   -1    0    0  501    0  0.00000000000E+00  0.00000000000E+00  0.18544114916E+03  0.18544114916E+03  0.00000000000E+00 0. -1.
         -1   -1    0    0    0  501 -0.00000000000E+00 -0.00000000000E+00 -0.71366924074E+02  0.71366924074E+02  0.00000000000E+00 0.  1.
         23    2    1    2    0    0 -0.38975600788E+02  0.31344008405E+02  0.72785895064E+02  0.14212087951E+03  0.11135085788E+03 0.  0.
          5    1    3    3  502    0 -0.46459866764E+02 -0.30899621200E+02  0.50549305131E+02  0.75436251626E+02  0.47000000000E+01 0. -1.
         -5    1    3    3    0  502  0.74842659764E+01  0.62243629605E+02  0.22236589933E+02  0.66684627880E+02  0.47000000000E+01 0.  1.
        -11    1    1    2    0    0  0.36814635432E+02 -0.60824498351E+02  0.46103976530E+02  0.84737911430E+02  0.00000000000E+00 0.  1.
         11    1    1    2    0    0  0.21609653559E+01  0.29480489946E+02 -0.48156465101E+01  0.29949282295E+02  0.00000000000E+00 0. -1.
<mgrwt>
<rscale>  0 0.11811204E+03</rscale>
<asrwt>0</asrwt>
<pdfrwt beam="1">  1        1 0.28529407E-01 0.12206784E+03</pdfrwt>
<pdfrwt beam="2">  1       -1 0.10979527E-01 0.12206784E+03</pdfrwt>
<totfact> 0.79879532E+03</totfact>
</mgrwt>
</event>
<event>
 7    1  0.6008063E-006  0.1302132E+03  0.7546771E-02  0.1239980E+00
          1   -1    0    0  501    0  0.00000000000E+00  0.00000000000E+00  0.10894557204E+03  0.10894557204E+03  0.00000000000E+00 0. -1.
         -1   -1    0    0    0  501 -0.00000000000E+00 -0.00000000000E+00 -0.12323910687E+03  0.12323910687E+03  0.00000000000E+00 0.  1.
         23    2    1    2    0    0 -0.31412981039E+02  0.18500138932E+02  0.49597529916E+01  0.13030767272E+03  0.12500583947E+03 0.  0.
          5    1    3    3  502    0 -0.59135500814E+02 -0.54159481847E+01 -0.40287434230E+02  0.71913192865E+02  0.47000000000E+01 0. -1.
         -5    1    3    3    0  502  0.27722519775E+02  0.23916087117E+02  0.45247187221E+02  0.58394479851E+02  0.47000000000E+01 0. -1.
        -11    1    1    2    0    0  0.14118663809E+02 -0.56520543588E+02 -0.10344072496E+02  0.59168474300E+02  0.00000000000E+00 0.  1.
         11    1    1    2    0    0  0.17294317230E+02  0.38020404656E+02 -0.89092153237E+01  0.42708531891E+02  0.00000000000E+00 0. -1.
<mgrwt>
<rscale>  0 0.12190909E+03</rscale>
<asrwt>0</asrwt>
<pdfrwt beam="1">  1        1 0.16760857E-01 0.13021325E+03</pdfrwt>
<pdfrwt beam="2">  1       -1 0.18959862E-01 0.13021325E+03</pdfrwt>
<totfact> 0.66961281E+03</totfact>
</mgrwt>
</event>
<event>
 7    1  0.6008063E-006  0.1455030E+03  0.7546771E-02  0.1216025E+00
          3   -1    0    0  501    0  0.00000000000E+00  0.00000000000E+00  0.50859096369E+03  0.50859096369E+03  0.00000000000E+00 0. -1.
         -3   -1    0    0    0  501 -0.00000000000E+00 -0.00000000000E+00 -0.39003293464E+02  0.39003293464E+02  0.00000000000E+00 0.  1.
         23    2    1    2    0    0  0.19481339787E+02  0.71864041110E+02  0.35324142784E+03  0.38203483857E+03  0.12500859383E+03 0.  0.
          5    1    3    3  502    0 -0.34288004990E+02  0.61378988879E+02  0.28904814056E+03  0.29751296631E+03  0.47000000000E+01 0. -1.
         -5    1    3    3    0  502  0.53769344777E+02  0.10485052231E+02  0.64193287283E+02  0.84521872260E+02  0.47000000000E+01 0. -1.
        -11    1    1    2    0    0 -0.51065688568E+02 -0.16494128180E+02  0.46611957869E+02  0.71080485576E+02  0.00000000000E+00 0.  1.
         11    1    1    2    0    0  0.31584348780E+02 -0.55369912929E+02  0.69734284518E+02  0.94478933011E+02  0.00000000000E+00 0. -1.
<mgrwt>
<rscale>  0 0.13801523E+03</rscale>
<asrwt>0</asrwt>
<pdfrwt beam="1">  1        3 0.78244759E-01 0.14550296E+03</pdfrwt>
<pdfrwt beam="2">  1       -3 0.60005071E-02 0.14550296E+03</pdfrwt>
<totfact> 0.62393588E+02</totfact>
</mgrwt>
</event>
<event>
 7    1  0.6008063E-006  0.1835675E+03  0.7546771E-02  0.1169743E+00
          2   -1    0    0  501    0  0.00000000000E+00  0.00000000000E+00  0.78343573555E+03  0.78343573555E+03  0.00000000000E+00 0. -1.
         -2   -1    0    0    0  501 -0.00000000000E+00 -0.00000000000E+00 -0.38605073207E+02  0.38605073207E+02  0.00000000000E+00 0.  1.
         23    2    1    2    0    0 -0.31247460690E+02 -0.13072368576E+03  0.35194011504E+03  0.39693687448E+03  0.12502780465E+03 0.  0.
          5    1    3    3  502    0 -0.69887337075E+02 -0.12331954174E+03  0.29779853802E+03  0.32984543123E+03  0.47000000000E+01 0. -1.
         -5    1    3    3    0  502  0.38639876385E+02 -0.74041440238E+01  0.54141577014E+02  0.67091443249E+02  0.47000000000E+01 0. -1.
        -11    1    1    2    0    0 -0.19650988640E+01  0.85903973387E+02  0.33015645157E+03  0.34115485746E+03  0.00000000000E+00 0. -1.
         11    1    1    2    0    0  0.33212559554E+02  0.44819712374E+02  0.62734095735E+02  0.83949076809E+02  0.00000000000E+00 0.  1.
<mgrwt>
<rscale>  0 0.17801035E+03</rscale>
<asrwt>0</asrwt>
<pdfrwt beam="1">  1        2 0.12052856E+00 0.18356753E+03</pdfrwt>
<pdfrwt beam="2">  1       -2 0.59392426E-02 0.18356753E+03</pdfrwt>
<totfact> 0.53832838E+03</totfact>
</mgrwt>
</event>
<event>
 6    1  0.6008063E-006  0.1780653E+03  0.7546771E-02  0.1181921E+00
          1   -1    0    0  501    0  0.00000000000E+00  0.00000000000E+00  0.52270365413E+03  0.52270365413E+03  0.00000000000E+00 0. -1.
         -1   -1    0    0    0  501 -0.00000000000E+00 -0.00000000000E+00 -0.46996202600E+02  0.46996202600E+02  0.00000000000E+00 0.  1.
          5    1    1    2  502    0 -0.95005234917E+02 -0.16507510142E+02  0.18163611647E+03  0.20569944424E+03  0.47000000000E+01 0. -1.
         -5    1    1    2    0  502  0.45794771453E+02 -0.64722875163E+02  0.10337083483E+03  0.13036038952E+03  0.47000000000E+01 0.  1.
        -11    1    1    2    0    0  0.76328855206E+02  0.69496434183E+02  0.12890447942E+03  0.16514300868E+03  0.00000000000E+00 0.  1.
         11    1    1    2    0    0 -0.27118391741E+02  0.11733951122E+02  0.61796020807E+02  0.68497014294E+02  0.00000000000E+00 0. -1.
<mgrwt>
<rscale>  0 0.16615214E+03</rscale>
<asrwt>0</asrwt>
<pdfrwt beam="1">  1        1 0.80415943E-01 0.17806530E+03</pdfrwt>
<pdfrwt beam="2">  1       -1 0.72301854E-02 0.17806530E+03</pdfrwt>
<totfact> 0.41911781E+03</totfact>
</mgrwt>
</event>
<event>
 7    1  0.6008063E-006  0.1542452E+03  0.7546771E-02  0.1203525E+00
          2   -1    0    0  501    0  0.00000000000E+00  0.00000000000E+00  0.57423584719E+03  0.57423584719E+03  0.00000000000E+00 0. -1.
         -2   -1    0    0    0  501 -0.00000000000E+00 -0.00000000000E+00 -0.40965641833E+02  0.40965641833E+02  0.00000000000E+00 0.  1.
         23    2    1    2    0    0  0.73056064262E+02 -0.53203444896E+02  0.16943022749E+03  0.22912484248E+03  0.12499518543E+03 0.  0.
          5    1    3    3  502    0  0.61143774737E+02 -0.58558906277E+02  0.18782663092E+03  0.20607920802E+03  0.47000000000E+01 0.  1.
         -5    1    3    3    0  502  0.11912289525E+02  0.53554613806E+01 -0.18396403435E+02  0.23045634460E+02  0.47000000000E+01 0.  1.
        -11    1    1    2    0    0 -0.51759216515E+02  0.91841462034E+01  0.30533222555E+03  0.30982435829E+03  0.00000000000E+00 0. -1.
         11    1    1    2    0    0 -0.21296847747E+02  0.44019298693E+02  0.58507752322E+02  0.76252288248E+02  0.00000000000E+00 0.  1.
<mgrwt>
<rscale>  0 0.14754318E+03</rscale>
<asrwt>0</asrwt>
<pdfrwt beam="1">  1        2 0.88343971E-01 0.15424523E+03</pdfrwt>
<pdfrwt beam="2">  1       -2 0.63024069E-02 0.15424523E+03</pdfrwt>
<totfact> 0.70473278E+03</totfact>
</mgrwt>
</event>
<event>
 7    1  0.6008063E-006  0.1327962E+03  0.7546771E-02  0.1235997E+00
         -2   -1    0    0    0  501 -0.00000000000E+00  0.00000000000E+00  0.67855506232E+03  0.67855506232E+03  0.00000000000E+00 0.  1.
          2   -1    0    0  501    0  0.00000000000E+00 -0.00000000000E+00 -0.20397885693E+02  0.20397885693E+02  0.00000000000E+00 0. -1.
         23    2    1    2    0    0 -0.19551449039E+02  0.40507555228E+02  0.35712834748E+03  0.38101899709E+03  0.12494678218E+03 0.  0.
          5    1    3    3  502    0  0.19211305488E+01 -0.42406819777E+02  0.16805947991E+03  0.17340157984E+03  0.47000000000E+01 0.  1.
         -5    1    3    3    0  502 -0.21472579588E+02  0.82914375005E+02  0.18906886758E+03  0.20761741725E+03  0.47000000000E+01 0.  1.
        -11    1    1    2    0    0  0.14152104417E+02 -0.50797069646E+02  0.30172000481E+03  0.30629330003E+03  0.00000000000E+00 0.  1.
         11    1    1    2    0    0  0.53993446219E+01  0.10289514418E+02 -0.69117566617E+00  0.11640650888E+02  0.00000000000E+00 0. -1.
<mgrwt>
<rscale>  0 0.12440834E+03</rscale>
<asrwt>0</asrwt>
<pdfrwt beam="2">  1        2 0.31381368E-02 0.13279616E+03</pdfrwt>
<pdfrwt beam="1">  1       -2 0.10439307E+00 0.13279616E+03</pdfrwt>
<totfact> 0.21836449E+03</totfact>
</mgrwt>
</event>
<event>
 7    1  0.6008063E-006  0.1262152E+03  0.7546771E-02  0.1247842E+00
         -4   -1    0    0    0  501 -0.00000000000E+00  0.00000000000E+00  0.58738740124E+02  0.58738740124E+02  0.00000000000E+00 0.  1.
          4   -1    0    0  501    0  0.00000000000E+00 -0.00000000000E+00 -0.20783917789E+03  0.20783917789E+03  0.00000000000E+00 0. -1.
         23    2    1    2    0    0 -0.15779408445E+02  0.74468034022E+01 -0.98160598510E+02  0.15989300485E+03  0.12500330111E+03 0.  0.
          5    1    3    3  502    0  0.34601231912E+02  0.36365214778E+02 -0.87002331953E+02  0.10055431299E+03  0.47000000000E+01 0. -1.
         -5    1    3    3    0  502 -0.50380640357E+02 -0.28918411376E+02 -0.11158266556E+02  0.59338691862E+02  0.47000000000E+01 0. -1.
        -11    1    1    2    0    0 -0.30495814599E+02  0.76159510274E+01  0.57691286893E+01  0.31957475869E+02  0.00000000000E+00 0.  1.
         11    1    1    2    0    0  0.46275223043E+02 -0.15062754430E+02 -0.56708967942E+02  0.74727437289E+02  0.00000000000E+00 0. -1.
<mgrwt>
<rscale>  0 0.11716895E+03</rscale>
<asrwt>0</asrwt>
<pdfrwt beam="2">  1        4 0.31975258E-01 0.12621517E+03</pdfrwt>
<pdfrwt beam="1">  1       -4 0.90367291E-02 0.12621517E+03</pdfrwt>
<totfact> 0.13740847E+03</totfact>
</mgrwt>
</event>
<event>
 7    1  0.6008063E-006  0.1563423E+03  0.7546771E-02  0.1200905E+00
          1   -1    0    0  501    0  0.00000000000E+00  0.00000000000E+00  0.92611450775E+02  0.92611450775E+02  0.00000000000E+00 0. -1.
         -1   -1    0    0    0  501 -0.00000000000E+00 -0.00000000000E+00 -0.23829171274E+03  0.23829171274E+03  0.00000000000E+00 0.  1.
         23    2    1    2    0    0  0.89951723485E+02  0.26971037121E+02 -0.37382900548E+02  0.16074944278E+03  0.12499661075E+03 0.  0.
          5    1    3    3  502    0 -0.23624366315E+02  0.27803835065E+02  0.91665791921E+01  0.37911477183E+02  0.47000000000E+01 0.  1.
         -5    1    3    3    0  502  0.11357608980E+03 -0.83279794463E+00 -0.46549479740E+02  0.12283796559E+03  0.47000000000E+01 0.  1.
        -11    1    1    2    0    0 -0.23293287848E+02  0.14104074016E+02 -0.83800082250E+02  0.88113313113E+02  0.00000000000E+00 0.  1.
         11    1    1    2    0    0 -0.66658435637E+02 -0.41075111137E+02 -0.24497279163E+02  0.82040407623E+02  0.00000000000E+00 0. -1.
<mgrwt>
<rscale>  0 0.14964904E+03</rscale>
<asrwt>0</asrwt>
<pdfrwt beam="1">  1        1 0.14247916E-01 0.15634226E+03</pdfrwt>
<pdfrwt beam="2">  1       -1 0.36660263E-01 0.15634226E+03</pdfrwt>
<totfact> 0.27983246E+03</totfact>
</mgrwt>
</event>
<event>
 6    1  0.6008063E-006  0.1982624E+03  0.7546771E-02  0.1170661E+00
         -1   -1    0    0    0  501 -0.00000000000E+00  0.00000000000E+00  0.20809731948E+03  0.20809731948E+03  0.00000000000E+00 0.  1.
          1   -1    0    0  501    0  0.00000000000E+00 -0.00000000000E+00 -0.12682906463E+03  0.12682906463E+03  0.00000000000E+00 0. -1.
          5    1    1    2  502    0 -0.39582381312E+02 -0.30498473099E+02 -0.40266833629E+02  0.64346170533E+02  0.47000000000E+01 0. -1.
         -5    1    1    2    0  502  0.11092744789E+03 -0.13287204875E+02  0.80955557134E+02  0.13804832755E+03  0.47000000000E+01 0.  1.
        -11    1    1    2    0    0 -0.64408000232E+02  0.61220921048E+02  0.58657447122E+02  0.10647576142E+03  0.00000000000E+00 0.  1.
         11    1    1    2    0    0 -0.69370663477E+01 -0.17435243074E+02 -0.18077915771E+02  0.26056124600E+02  0.00000000000E+00 0. -1.
<mgrwt>
<rscale>  0 0.17707867E+03</rscale>
<asrwt>0</asrwt>
<pdfrwt beam="2">  1        1 0.19512164E-01 0.19826235E+03</pdfrwt>
<pdfrwt beam="1">  1       -1 0.32014972E-01 0.19826235E+03</pdfrwt>
<totfact> 0.23746099E+03</totfact>
</mgrwt>
</event>
<event>
 7    1  0.6008063E-006  0.1329933E+03  0.7546771E-02  0.1235855E+00
          2   -1    0    0  501    0  0.00000000000E+00  0.00000000000E+00  0.14671090539E+03  0.14671090539E+03  0.00000000000E+00 0. -1.
         -2   -1    0    0    0  501 -0.00000000000E+00 -0.00000000000E+00 -0.99710662113E+02  0.99710662113E+02  0.00000000000E+00 0.  1.
         23    2    1    2    0    0  0.17142476148E+02  0.42039016851E+02  0.55124141448E+02  0.14396490117E+03  0.12500431341E+03 0.  0.
          5    1    3    3  502    0 -0.10497335075E+02 -0.22410980707E+02  0.67995868855E+02  0.72511890620E+02  0.47000000000E+01 0.  1.
         -5    1    3    3    0  502  0.27639811223E+02  0.64449997559E+02 -0.12871727407E+02  0.71453010547E+02  0.47000000000E+01 0.  1.
        -11    1    1    2    0    0  0.95406539247E+01 -0.29495967307E+02 -0.45372086862E+02  0.54951455221E+02  0.00000000000E+00 0.  1.
         11    1    1    2    0    0 -0.26683130073E+02 -0.12543049545E+02  0.37248188686E+02  0.47505211112E+02  0.00000000000E+00 0. -1.
<mgrwt>
<rscale>  0 0.12449876E+03</rscale>
<asrwt>0</asrwt>
<pdfrwt beam="1">  1        2 0.22570908E-01 0.13299331E+03</pdfrwt>
<pdfrwt beam="2">  1       -2 0.15340102E-01 0.13299331E+03</pdfrwt>
<totfact> 0.75309695E+03</totfact>
</mgrwt>
</event>
<event>
 7    1  0.6008063E-006  0.1368373E+03  0.7546771E-02  0.1225588E+00
          2   -1    0    0  501    0  0.00000000000E+00  0.00000000000E+00  0.25583117813E+03  0.25583117813E+03  0.00000000000E+00 0. -1.
         -2   -1    0    0    0  501 -0.00000000000E+00 -0.00000000000E+00 -0.71425432324E+02  0.71425432324E+02  0.00000000000E+00 0.  1.
         23    2    1    2    0    0 -0.49505614039E+02 -0.25486048154E+02  0.15684268653E+03  0.20814438547E+03  0.12499644960E+03 0.  0.
          5    1    3    3  502    0 -0.43633506916E+02  0.52499637440E+01 -0.38496810424E+01  0.44366148010E+02  0.47000000000E+01 0.  1.
         -5    1    3    3    0  502 -0.58721071234E+01 -0.30736011897E+02  0.16069236757E+03  0.16377823746E+03  0.47000000000E+01 0.  1.
        -11    1    1    2    0    0 -0.31274613692E+02  0.13761428783E+02  0.60705363075E+01  0.34703455085E+02  0.00000000000E+00 0.  1.
         11    1    1    2    0    0  0.80780227731E+02  0.11724619371E+02  0.21492522963E+02  0.84408769894E+02  0.00000000000E+00 0. -1.
<mgrwt>
<rscale>  0 0.13126679E+03</rscale>
<asrwt>0</asrwt>
<pdfrwt beam="1">  1        2 0.39358642E-01 0.13683734E+03</pdfrwt>
<pdfrwt beam="2">  1       -2 0.10988528E-01 0.13683734E+03</pdfrwt>
<totfact> 0.70580734E+03</totfact>
</mgrwt>
</event>
<event>
 7    1  0.6008063E-006  0.1305364E+03  0.7546771E-02  0.1240046E+00
         -2   -1    0    0    0  501 -0.00000000000E+00  0.00000000000E+00  0.19776574485E+03  0.19776574485E+03  0.00000000000E+00 0.  1.
          2   -1    0    0  501    0  0.00000000000E+00 -0.00000000000E+00 -0.73211770295E+02  0.73211770295E+02  0.00000000000E+00 0. -1.
         23    2    1    2    0    0 -0.19949698852E+02 -0.31882144104E+02  0.29961704548E+02  0.13393076738E+03  0.12500114046E+03 0.  0.
          5    1    3    3  502    0  0.33466893574E+01 -0.60243792705E+02  0.60782444107E+02  0.85773599673E+02  0.47000000000E+01 0.  1.
         -5    1    3    3    0  502 -0.23296388209E+02  0.28361648602E+02 -0.30820739559E+02  0.48157167711E+02  0.47000000000E+01 0.  1.
        -11    1    1    2    0    0  0.18404528683E+02 -0.10603183449E+01 -0.14261139059E+02  0.23307317270E+02  0.00000000000E+00 0. -1.
         11    1    1    2    0    0  0.15451701686E+01  0.32942462448E+02  0.10885340907E+03  0.11373943049E+03  0.00000000000E+00 0.  1.
<mgrwt>
<rscale>  0 0.12186825E+03</rscale>
<asrwt>0</asrwt>
<pdfrwt beam="2">  1        2 0.11263349E-01 0.13053638E+03</pdfrwt>
<pdfrwt beam="1">  1       -2 0.30425499E-01 0.13053638E+03</pdfrwt>
<totfact> 0.52197829E+03</totfact>
</mgrwt>
</event>
<event>
 7    1  0.6008063E-006  0.1437930E+03  0.7546771E-02  0.1219188E+00
          2   -1    0    0  501    0  0.00000000000E+00  0.00000000000E+00  0.16941700706E+03  0.16941700706E+03  0.00000000000E+00 0. -1.
         -2   -1    0    0    0  501 -0.00000000000E+00 -0.00000000000E+00 -0.11665472607E+03  0.11665472607E+03  0.00000000000E+00 0.  1.
         23    2    1    2    0    0  0.70770120050E+02  0.65205455425E+01  0.85515555692E+02  0.16730010548E+03  0.12500195048E+03 0.  0.
          5    1    3    3  502    0  0.65861760681E+02  0.25699931684E+02  0.11283424849E+03  0.13323631502E+03  0.47000000000E+01 0.  1.
         -5    1    3    3    0  502  0.49083593693E+01 -0.19179386142E+02 -0.27318692796E+02  0.34063790461E+02  0.47000000000E+01 0.  1.
        -11    1    1    2    0    0 -0.26072578631E+02 -0.33913111422E+02  0.17438029735E+02  0.46194841312E+02  0.00000000000E+00 0. -1.
         11    1    1    2    0    0 -0.44697541419E+02  0.27392565879E+02 -0.50191304433E+02  0.72576786337E+02  0.00000000000E+00 0.  1.
<mgrwt>
<rscale>  0 0.13573367E+03</rscale>
<asrwt>0</asrwt>
<pdfrwt beam="1">  1        2 0.26064155E-01 0.14379296E+03</pdfrwt>
<pdfrwt beam="2">  1       -2 0.17946881E-01 0.14379296E+03</pdfrwt>
<totfact> 0.49795314E+03</totfact>
</mgrwt>
</event>
<event>
 7    1  0.6008063E-006  0.1405767E+03  0.7546771E-02  0.1223639E+00
          2   -1    0    0  501    0  0.00000000000E+00  0.00000000000E+00  0.80960662723E+03  0.80960662723E+03  0.00000000000E+00 0. -1.
         -2   -1    0    0    0  501 -0.00000000000E+00 -0.00000000000E+00 -0.22564125911E+02  0.22564125911E+02  0.00000000000E+00 0.  1.
         23    2    1    2    0    0 -0.37206448482E+02  0.52452908024E+02  0.58337263285E+03  0.60007118759E+03  0.12500469610E+03 0.  0.
          5    1    3    3  502    0 -0.52029131536E+02  0.14659201106E+02  0.90585565754E+02  0.10559241179E+03  0.47000000000E+01 0. -1.
         -5    1    3    3    0  502  0.14822683054E+02  0.37793706918E+02  0.49278706710E+03  0.49447877580E+03  0.47000000000E+01 0. -1.
        -11    1    1    2    0    0  0.64244639989E+02 -0.23283536138E+02  0.10052115932E+03  0.12154834550E+03  0.00000000000E+00 0.  1.
         11    1    1    2    0    0 -0.27038191507E+02 -0.29169371886E+02  0.10314870914E+03  0.11055122005E+03  0.00000000000E+00 0. -1.
<mgrwt>
<rscale>  0 0.13260612E+03</rscale>
<asrwt>0</asrwt>
<pdfrwt beam="1">  1        2 0.12455484E+00 0.14057667E+03</pdfrwt>
<pdfrwt beam="2">  1       -2 0.34714046E-02 0.14057667E+03</pdfrwt>
<totfact> 0.11415017E+04</totfact>
</mgrwt>
</event>
<event>
 7    1  0.6008063E-006  0.1529087E+03  0.7546771E-02  0.1205404E+00
          1   -1    0    0  501    0  0.00000000000E+00  0.00000000000E+00  0.47847147028E+02  0.47847147028E+02  0.00000000000E+00 0. -1.
         -1   -1    0    0    0  501 -0.00000000000E+00 -0.00000000000E+00 -0.56385242500E+03  0.56385242500E+03  0.00000000000E+00 0.  1.
         23    2    1    2    0    0  0.30626017757E+02 -0.82445970773E+02 -0.11600004038E+03  0.19192989127E+03  0.12508310331E+03 0.  0.
          5    1    3    3  502    0  0.23719033589E+02 -0.74465188643E+02 -0.14273929098E+03  0.16280126555E+03  0.47000000000E+01 0. -1.
         -5    1    3    3    0  502  0.69069841687E+01 -0.79807821305E+01  0.26739250601E+02  0.29128625722E+02  0.47000000000E+01 0. -1.
        -11    1    1    2    0    0  0.24156096063E+02  0.65605703832E+02 -0.22646279867E+03  0.23700849042E+03  0.00000000000E+00 0.  1.
         11    1    1    2    0    0 -0.54782113821E+02  0.16840266942E+02 -0.17354243892E+03  0.18276119033E+03  0.00000000000E+00 0. -1.
<mgrwt>
<rscale>  0 0.14605673E+03</rscale>
<asrwt>0</asrwt>
<pdfrwt beam="1">  1        1 0.73610994E-02 0.15290871E+03</pdfrwt>
<pdfrwt beam="2">  1       -1 0.86746529E-01 0.15290871E+03</pdfrwt>
<totfact> 0.13177723E+03</totfact>
</mgrwt>
</event>
<event>
 7    1  0.6008063E-006  0.3442888E+03  0.7546771E-02  0.1066152E+00
         -2   -1    0    0    0  501 -0.00000000000E+00  0.00000000000E+00  0.42896456954E+02  0.42896456954E+02  0.00000000000E+00 0.  1.
          2   -1    0    0  501    0  0.00000000000E+00 -0.00000000000E+00 -0.27421168762E+04  0.27421168762E+04  0.00000000000E+00 0. -1.
         23    2    1    2    0    0  0.77084585062E+02 -0.31139999101E+03 -0.15870185222E+04  0.16239342941E+04  0.12499125519E+03 0.  0.
          5    1    3    3  502    0  0.64763814596E+02 -0.30848849905E+03 -0.15737071398E+04  0.16049721984E+04  0.47000000000E+01 0.  1.
         -5    1    3    3    0  502  0.12320770466E+02 -0.29114919562E+01 -0.13311382429E+02  0.18962095677E+02  0.47000000000E+01 0.  1.
        -11    1    1    2    0    0 -0.68698843217E+02  0.15504452654E+03 -0.45764869816E+03  0.48805805720E+03  0.00000000000E+00 0.  1.
         11    1    1    2    0    0 -0.83857418448E+01  0.15635546447E+03 -0.65455319885E+03  0.67302098189E+03  0.00000000000E+00 0. -1.
<mgrwt>
<rscale>  0 0.34151680E+03</rscale>
<asrwt>0</asrwt>
<pdfrwt beam="2">  1        2 0.42186416E+00 0.34428883E+03</pdfrwt>
<pdfrwt beam="1">  1       -2 0.65994546E-02 0.34428883E+03</pdfrwt>
<totfact> 0.36962747E+02</totfact>
</mgrwt>
</event>
<event>
 7    1  0.6008063E-006  0.1313206E+03  0.7546771E-02  0.1240487E+00
         -2   -1    0    0    0  501 -0.00000000000E+00  0.00000000000E+00  0.52190485379E+02  0.52190485379E+02  0.00000000000E+00 0.  1.
          2   -1    0    0  501    0  0.00000000000E+00 -0.00000000000E+00 -0.31373398337E+03  0.31373398337E+03  0.00000000000E+00 0. -1.
         23    2    1    2    0    0 -0.11152309358E+02 -0.38668572609E+02 -0.22912980952E+03  0.26409386801E+03  0.12500187599E+03 0.  0.
          5    1    3    3  502    0  0.77248396870E+01 -0.65552754984E+01 -0.22615458568E+03  0.22643019103E+03  0.47000000000E+01 0.  1.
         -5    1    3    3    0  502 -0.18877149045E+02 -0.32113297110E+02 -0.29752238394E+01  0.37663676988E+02  0.47000000000E+01 0.  1.
        -11    1    1    2    0    0  0.49369799371E+02  0.19830221411E+02 -0.11793016089E+02  0.54494862140E+02  0.00000000000E+00 0. -1.
         11    1    1    2    0    0 -0.38217490013E+02  0.18838351197E+02 -0.20620672384E+02  0.47335738595E+02  0.00000000000E+00 0.  1.
<mgrwt>
<rscale>  0 0.12159614E+03</rscale>
<asrwt>0</asrwt>
<pdfrwt beam="2">  1        2 0.48266767E-01 0.13132061E+03</pdfrwt>
<pdfrwt beam="1">  1       -2 0.80293054E-02 0.13132061E+03</pdfrwt>
<totfact> 0.92580545E+03</totfact>
</mgrwt>
</event>
<event>
 7    1  0.6758807E-006  0.2742318E+03  0.7546771E-02  0.1100857E+00
         -2   -1    0    0    0  501 -0.00000000000E+00  0.00000000000E+00  0.89043847961E+02  0.89043847961E+02  0.00000000000E+00 0.  1.
          2   -1    0    0  501    0  0.00000000000E+00 -0.00000000000E+00 -0.80328338114E+03  0.80328338114E+03  0.00000000000E+00 0. -1.
         23    2    1    2    0    0 -0.24340765003E+02 -0.24286864527E+03 -0.35635733325E+03  0.44965946733E+03  0.12500174359E+03 0.  0.
          5    1    3    3  502    0  0.82873332857E+01 -0.36950132488E+02 -0.16541947082E+01  0.38194483162E+02  0.47000000000E+01 0. -1.
         -5    1    3    3    0  502 -0.32628098288E+02 -0.20591851278E+03 -0.35470313854E+03  0.41146498416E+03  0.47000000000E+01 0. -1.
        -11    1    1    2    0    0  0.96806141077E+01  0.18256679819E+03 -0.18996340299E+03  0.26364833503E+03  0.00000000000E+00 0.  1.
         11    1    1    2    0    0  0.14660150895E+02  0.60301847081E+02 -0.16791879694E+03  0.17901942675E+03  0.00000000000E+00 0. -1.
<mgrwt>
<rscale>  0 0.27073984E+03</rscale>
<asrwt>0</asrwt>
<pdfrwt beam="2">  1        2 0.12358205E+00 0.27423181E+03</pdfrwt>
<pdfrwt beam="1">  1       -2 0.13699054E-01 0.27423181E+03</pdfrwt>
<totfact> 0.14047562E+03</totfact>
</mgrwt>
</event>
<event>
 7    1  0.6008063E-006  0.1365118E+03  0.7546771E-02  0.1228949E+00
         -2   -1    0    0    0  501 -0.00000000000E+00  0.00000000000E+00  0.34817481905E+03  0.34817481905E+03  0.00000000000E+00 0.  1.
          2   -1    0    0  501    0  0.00000000000E+00 -0.00000000000E+00 -0.47934829611E+02  0.47934829611E+02  0.00000000000E+00 0. -1.
         23    2    1    2    0    0 -0.46767121786E+02 -0.28677981671E+02  0.10367131017E+03  0.17141532003E+03  0.12500352425E+03 0.  0.
          5    1    3    3  502    0 -0.37500101538E+02 -0.69762467507E+02  0.26997267832E+02  0.83809319043E+02  0.47000000000E+01 0. -1.
         -5    1    3    3    0  502 -0.92670202478E+01  0.41084485836E+02  0.76674042334E+02  0.87606000984E+02  0.47000000000E+01 0. -1.
        -11    1    1    2    0    0  0.71738133349E+02  0.32732094246E+02  0.17298147933E+03  0.19010613342E+03  0.00000000000E+00 0.  1.
         11    1    1    2    0    0 -0.24971011563E+02 -0.40541125742E+01  0.23587199935E+02  0.34588195212E+02  0.00000000000E+00 0. -1.
<mgrwt>
<rscale>  0 0.12899849E+03</rscale>
<asrwt>0</asrwt>
<pdfrwt beam="2">  1        2 0.73745894E-02 0.13651180E+03</pdfrwt>
<pdfrwt beam="1">  1       -2 0.53565355E-01 0.13651180E+03</pdfrwt>
<totfact> 0.30230721E+03</totfact>
</mgrwt>
</event>
<event>
 7    1  0.6008063E-006  0.1628562E+03  0.7546771E-02  0.1192746E+00
         -2   -1    0    0    0  501 -0.00000000000E+00  0.00000000000E+00  0.25575066926E+02  0.25575066926E+02  0.00000000000E+00 0.  1.
          2   -1    0    0  501    0  0.00000000000E+00 -0.00000000000E+00 -0.88970373565E+03  0.88970373565E+03  0.00000000000E+00 0. -1.
         23    2    1    2    0    0  0.25174333143E+02  0.10131026396E+03 -0.45647615505E+03  0.48465723566E+03  0.12499855725E+03 0.  0.
          5    1    3    3  502    0  0.30845513370E+02 -0.14858522701E+02 -0.43316231678E+02  0.55413060904E+02  0.47000000000E+01 0.  1.
         -5    1    3    3    0  502 -0.56711802270E+01  0.11616878667E+03 -0.41315992337E+03  0.42924417476E+03  0.47000000000E+01 0.  1.
        -11    1    1    2    0    0  0.17045930375E+02 -0.67066129114E+02 -0.12581477689E+03  0.14358895326E+03  0.00000000000E+00 0.  1.
         11    1    1    2    0    0 -0.42220263518E+02 -0.34244134851E+02 -0.28183773679E+03  0.28703261366E+03  0.00000000000E+00 0. -1.
<mgrwt>
<rscale>  0 0.15646581E+03</rscale>
<asrwt>0</asrwt>
<pdfrwt beam="2">  1        2 0.13687749E+00 0.16285624E+03</pdfrwt>
<pdfrwt beam="1">  1       -2 0.39346260E-02 0.16285624E+03</pdfrwt>
<totfact> 0.84692151E+03</totfact>
</mgrwt>
</event>
<event>
 7    1  0.6008063E-006  0.1288954E+03  0.7546771E-02  0.1244095E+00
          1   -1    0    0  501    0  0.00000000000E+00  0.00000000000E+00  0.20077954880E+03  0.20077954880E+03  0.00000000000E+00 0. -1.
         -1   -1    0    0    0  501 -0.00000000000E+00 -0.00000000000E+00 -0.75586367588E+02  0.75586367588E+02  0.00000000000E+00 0.  1.
         23    2    1    2    0    0 -0.27931958060E+01 -0.31336419008E+02  0.12768710480E+03  0.18143327332E+03  0.12499705130E+03 0.  0.
          5    1    3    3  502    0 -0.10504686145E+02  0.20309530679E+02  0.12686758533E+03  0.12899728554E+03  0.47000000000E+01 0. -1.
         -5    1    3    3    0  502  0.77114903390E+01 -0.51645949687E+02  0.81951946931E+00  0.52435987780E+02  0.47000000000E+01 0. -1.
        -11    1    1    2    0    0 -0.46669853403E+01  0.62202300936E+02 -0.73506359787E+01  0.62808748143E+02  0.00000000000E+00 0.  1.
         11    1    1    2    0    0  0.74601811463E+01 -0.30865881929E+02  0.48567123826E+01  0.32123894925E+02  0.00000000000E+00 0. -1.
<mgrwt>
<rscale>  0 0.11939732E+03</rscale>
<asrwt>0</asrwt>
<pdfrwt beam="1">  1        1 0.30889161E-01 0.12889545E+03</pdfrwt>
<pdfrwt beam="2">  1       -1 0.11628672E-01 0.12889545E+03</pdfrwt>
<totfact> 0.66535614E+03</totfact>
</mgrwt>
</event>
<event>
 7    1  0.6008063E-006  0.1257883E+03  0.7546771E-02  0.1248127E+00
          1   -1    0    0  501    0  0.00000000000E+00  0.00000000000E+00  0.99617093940E+02  0.99617093940E+02  0.00000000000E+00 0. -1.
         -1   -1    0    0    0  501 -0.00000000000E+00 -0.00000000000E+00 -0.14911739887E+03  0.14911739887E+03  0.00000000000E+00 0.  1.
         23    2    1    2    0    0 -0.12571887820E+02 -0.62556036038E+01  0.25514547894E+02  0.12834983887E+03  0.12500201615E+03 0.  0.
          5    1    3    3  502    0 -0.57139047573E+02 -0.21330836704E+02 -0.18339278825E+02  0.63861525975E+02  0.47000000000E+01 0. -1.
         -5    1    3    3    0  502  0.44567159753E+02  0.15075233101E+02  0.43853826719E+02  0.64488312890E+02  0.47000000000E+01 0. -1.
        -11    1    1    2    0    0 -0.36734197829E+02  0.70459069785E+00 -0.56560779651E+02  0.67446419719E+02  0.00000000000E+00 0.  1.
         11    1    1    2    0    0  0.49306085649E+02  0.55510129059E+01 -0.18454073175E+02  0.52938234227E+02  0.00000000000E+00 0. -1.
<mgrwt>
<rscale>  0 0.11700149E+03</rscale>
<asrwt>0</asrwt>
<pdfrwt beam="1">  1        1 0.15325707E-01 0.12578827E+03</pdfrwt>
<pdfrwt beam="2">  1       -1 0.22941138E-01 0.12578827E+03</pdfrwt>
<totfact> 0.55146602E+03</totfact>
</mgrwt>
</event>
<event>
 7    1  0.6008063E-006  0.1485336E+03  0.7546771E-02  0.1211833E+00
          2   -1    0    0  501    0  0.00000000000E+00  0.00000000000E+00  0.10313583797E+04  0.10313583797E+04  0.00000000000E+00 0. -1.
         -2   -1    0    0    0  501 -0.00000000000E+00 -0.00000000000E+00 -0.20527005732E+02  0.20527005732E+02  0.00000000000E+00 0.  1.
         23    2    1    2    0    0 -0.78178309968E+02 -0.18042796874E+02  0.74698389123E+03  0.76160827977E+03  0.12499938955E+03 0.  0.
          5    1    3    3  502    0 -0.55457236855E+02  0.47069583995E+02  0.27100591722E+03  0.28063739599E+03  0.47000000000E+01 0. -1.
         -5    1    3    3    0  502 -0.22721073114E+02 -0.65112380869E+02  0.47597797400E+03  0.48097088378E+03  0.47000000000E+01 0. -1.
        -11    1    1    2    0    0  0.80124069857E+02  0.41826195148E+02  0.16039634358E+03  0.18410943540E+03  0.00000000000E+00 0.  1.
         11    1    1    2    0    0 -0.19457598883E+01 -0.23783398275E+02  0.10345113915E+03  0.10616767025E+03  0.00000000000E+00 0. -1.
<mgrwt>
<rscale>  0 0.14111750E+03</rscale>
<asrwt>0</asrwt>
<pdfrwt beam="1">  1        2 0.15867048E+00 0.14853363E+03</pdfrwt>
<pdfrwt beam="2">  1       -2 0.31580017E-02 0.14853363E+03</pdfrwt>
<totfact> 0.95620072E+03</totfact>
</mgrwt>
</event>
<event>
 7    1  0.6008063E-006  0.1805236E+03  0.7546771E-02  0.1173125E+00
         -1   -1    0    0    0  501 -0.00000000000E+00  0.00000000000E+00  0.79977043866E+02  0.79977043866E+02  0.00000000000E+00 0.  1.
          1   -1    0    0  501    0  0.00000000000E+00 -0.00000000000E+00 -0.35920800721E+03  0.35920800721E+03  0.00000000000E+00 0. -1.
         23    2    1    2    0    0  0.15059067747E+02  0.12935075267E+03 -0.13741615217E+03  0.22687434998E+03  0.12502151440E+03 0.  0.
          5    1    3    3  502    0 -0.23552993470E+02 -0.70963336626E+01 -0.60511901354E+02  0.65489553811E+02  0.47000000000E+01 0. -1.
         -5    1    3    3    0  502  0.38612061216E+02  0.13644708634E+03 -0.76904250817E+02  0.16138479617E+03  0.47000000000E+01 0. -1.
        -11    1    1    2    0    0  0.17023244623E+02 -0.27241706754E+02 -0.85571464212E+02  0.91402280780E+02  0.00000000000E+00 0. -1.
         11    1    1    2    0    0 -0.32082312370E+02 -0.10210904592E+03 -0.56243346962E+02  0.12090842032E+03  0.00000000000E+00 0.  1.
<mgrwt>
<rscale>  0 0.17460860E+03</rscale>
<asrwt>0</asrwt>
<pdfrwt beam="2">  1        1 0.55262770E-01 0.18052360E+03</pdfrwt>
<pdfrwt beam="1">  1       -1 0.12304161E-01 0.18052360E+03</pdfrwt>
<totfact> 0.30102404E+03</totfact>
</mgrwt>
</event>
<event>
 7    1  0.6008063E-006  0.1697421E+03  0.7546771E-02  0.1183345E+00
          1   -1    0    0  501    0  0.00000000000E+00  0.00000000000E+00  0.18229580971E+03  0.18229580971E+03  0.00000000000E+00 0. -1.
         -1   -1    0    0    0  501 -0.00000000000E+00 -0.00000000000E+00 -0.14380831812E+03  0.14380831812E+03  0.00000000000E+00 0.  1.
         23    2    1    2    0    0  0.72292911016E+02  0.89225244006E+02  0.42964582106E+02  0.17509525606E+03  0.12499993691E+03 0.  0.
          5    1    3    3  502    0 -0.23335221683E+02 -0.14740219952E+02  0.26528857038E+01  0.28123556991E+02  0.47000000000E+01 0. -1.
         -5    1    3    3    0  502  0.95628132699E+02  0.10396546396E+03  0.40311696402E+02  0.14697169907E+03  0.47000000000E+01 0. -1.
        -11    1    1    2    0    0  0.15934563202E+02 -0.90758480110E+01  0.22268942683E+02  0.28847653800E+02  0.00000000000E+00 0. -1.
         11    1    1    2    0    0 -0.88227474218E+02 -0.80149395995E+02 -0.26746033190E+02  0.12216121797E+03  0.00000000000E+00 0.  1.
<mgrwt>
<rscale>  0 0.16483337E+03</rscale>
<asrwt>0</asrwt>
<pdfrwt beam="1">  1        1 0.28045509E-01 0.16974214E+03</pdfrwt>
<pdfrwt beam="2">  1       -1 0.22124357E-01 0.16974214E+03</pdfrwt>
<totfact> 0.27571531E+03</totfact>
</mgrwt>
</event>
<event>
 7    1  0.6008063E-006  0.1260080E+03  0.7546771E-02  0.1243097E+00
          1   -1    0    0  501    0  0.00000000000E+00  0.00000000000E+00  0.10926351231E+03  0.10926351231E+03  0.00000000000E+00 0. -1.
         -1   -1    0    0    0  501 -0.00000000000E+00 -0.00000000000E+00 -0.15595790083E+03  0.15595790083E+03  0.00000000000E+00 0.  1.
         23    2    1    2    0    0  0.78284123406E+01  0.48422525190E+02  0.37741592061E+02  0.13153871783E+03  0.11606886547E+03 0.  0.
          5    1    3    3  502    0  0.35805311327E+02  0.64858572551E+02  0.56929282331E+02  0.93550456649E+02  0.47000000000E+01 0. -1.
         -5    1    3    3    0  502 -0.27976898987E+02 -0.16436047360E+02 -0.19187690270E+02  0.37988261182E+02  0.47000000000E+01 0.  1.
        -11    1    1    2    0    0 -0.38735964016E+02 -0.53614182522E+02 -0.76931016475E+02  0.10145608297E+03  0.00000000000E+00 0.  1.
         11    1    1    2    0    0  0.30907551675E+02  0.51916573318E+01 -0.75049641066E+01  0.32226612336E+02  0.00000000000E+00 0. -1.
<mgrwt>
<rscale>  0 0.12000028E+03</rscale>
<asrwt>0</asrwt>
<pdfrwt beam="1">  1        1 0.16809771E-01 0.12600796E+03</pdfrwt>
<pdfrwt beam="2">  1       -1 0.23993523E-01 0.12600796E+03</pdfrwt>
<totfact> 0.45522804E+03</totfact>
</mgrwt>
</event>
<event>
 7    1  0.6008063E-006  0.1279581E+03  0.7546771E-02  0.1244758E+00
         -3   -1    0    0    0  501 -0.00000000000E+00  0.00000000000E+00  0.13595814361E+03  0.13595814361E+03  0.00000000000E+00 0.  1.
          3   -1    0    0  501    0  0.00000000000E+00 -0.00000000000E+00 -0.13851137321E+03  0.13851137321E+03  0.00000000000E+00 0. -1.
         23    2    1    2    0    0 -0.22122928025E+02 -0.16082649571E+02 -0.80378923032E+02  0.15110938039E+03  0.12500079205E+03 0.  0.
          5    1    3    3  502    0  0.37683125768E+02  0.94850500359E+00 -0.80207212921E+02  0.88747983830E+02  0.47000000000E+01 0.  1.
         -5    1    3    3    0  502 -0.59806053793E+02 -0.17031154574E+02 -0.17171011175E+00  0.62361396559E+02  0.47000000000E+01 0.  1.
        -11    1    1    2    0    0 -0.26028525790E+01 -0.14106232960E+02 -0.16152506444E+02  0.21602409918E+02  0.00000000000E+00 0. -1.
         11    1    1    2    0    0  0.24725780604E+02  0.30188882530E+02  0.93978199870E+02  0.10175772652E+03  0.00000000000E+00 0.  1.
<mgrwt>
<rscale>  0 0.11899891E+03</rscale>
<asrwt>0</asrwt>
<pdfrwt beam="2">  1        3 0.21309442E-01 0.12795809E+03</pdfrwt>
<pdfrwt beam="1">  1       -3 0.20916638E-01 0.12795809E+03</pdfrwt>
<totfact> 0.94908653E+02</totfact>
</mgrwt>
</event>
<event>
 7    1  0.6008063E-006  0.1295661E+03  0.7546771E-02  0.1241790E+00
          1   -1    0    0  501    0  0.00000000000E+00  0.00000000000E+00  0.77286104570E+03  0.77286104570E+03  0.00000000000E+00 0. -1.
         -1   -1    0    0    0  501 -0.00000000000E+00 -0.00000000000E+00 -0.42154954505E+02  0.42154954505E+02  0.00000000000E+00 0.  1.
         23    2    1    2    0    0  0.30095770799E+02  0.16026142496E+02  0.70077796720E+03  0.71265498874E+03  0.12499912401E+03 0.  0.
          5    1    3    3  502    0 -0.26774067912E+02  0.33835882825E+02  0.10133549051E+03  0.11023923674E+03  0.47000000000E+01 0. -1.
         -5    1    3    3    0  502  0.56869838711E+02 -0.17809740329E+02  0.59944247669E+03  0.60241575201E+03  0.47000000000E+01 0. -1.
        -11    1    1    2    0    0  0.13715587008E+02 -0.41734630806E+02  0.10802283837E+01  0.43943869070E+02  0.00000000000E+00 0.  1.
         11    1    1    2    0    0 -0.43811357807E+02  0.25708488310E+02  0.28847895611E+02  0.58417142392E+02  0.00000000000E+00 0. -1.
<mgrwt>
<rscale>  0 0.12079558E+03</rscale>
<asrwt>0</asrwt>
<pdfrwt beam="1">  1        1 0.11890169E+00 0.12956610E+03</pdfrwt>
<pdfrwt beam="2">  1       -1 0.64853782E-02 0.12956610E+03</pdfrwt>
<totfact> 0.28265695E+03</totfact>
</mgrwt>
</event>
<event>
 7    1  0.6008063E-006  0.2041542E+03  0.7546771E-02  0.1150403E+00
          1   -1    0    0  501    0  0.00000000000E+00  0.00000000000E+00  0.15281095267E+03  0.15281095267E+03  0.00000000000E+00 0. -1.
         -1   -1    0    0    0  501 -0.00000000000E+00 -0.00000000000E+00 -0.25162952926E+03  0.25162952926E+03  0.00000000000E+00 0.  1.
         23    2    1    2    0    0  0.14726607434E+03 -0.66083083507E+02 -0.27173294709E+02  0.20595466267E+03  0.12499865820E+03 0.  0.
          5    1    3    3  502    0  0.15841320871E+03 -0.84073506668E+02 -0.12624763296E+02  0.17984597261E+03  0.47000000000E+01 0. -1.
         -5    1    3    3    0  502 -0.11147134367E+02  0.17990423160E+02 -0.14548531413E+02  0.26108690054E+02  0.47000000000E+01 0. -1.
        -11    1    1    2    0    0 -0.52742094861E+02  0.12585568887E+02  0.18546945617E+02  0.57307192448E+02  0.00000000000E+00 0. -1.
         11    1    1    2    0    0 -0.94523979482E+02  0.53497514621E+02 -0.90192227502E+02  0.14117862682E+03  0.00000000000E+00 0.  1.
<mgrwt>
<rscale>  0 0.19921536E+03</rscale>
<asrwt>0</asrwt>
<pdfrwt beam="1">  1        1 0.23509378E-01 0.20415419E+03</pdfrwt>
<pdfrwt beam="2">  1       -1 0.38712235E-01 0.20415419E+03</pdfrwt>
<totfact> 0.13466849E+03</totfact>
</mgrwt>
</event>
<event>
 6    1  0.6008063E-006  0.1618595E+03  0.7546771E-02  0.1212612E+00
         -2   -1    0    0    0  501 -0.00000000000E+00  0.00000000000E+00  0.37138141712E+02  0.37138141712E+02  0.00000000000E+00 0.  1.
          2   -1    0    0  501    0  0.00000000000E+00 -0.00000000000E+00 -0.53907641435E+03  0.53907641435E+03  0.00000000000E+00 0. -1.
          5    1    1    2  502    0  0.33627457878E+02 -0.22224181675E+02 -0.37318078737E+03  0.37538075369E+03  0.47000000000E+01 0. -1.
         -5    1    1    2    0  502 -0.47328782209E+02  0.39698205807E+02 -0.56775011460E+02  0.84032452636E+02  0.47000000000E+01 0.  1.
        -11    1    1    2    0    0 -0.76252796894E+01  0.34045738899E+02 -0.37600784752E+02  0.51294017599E+02  0.00000000000E+00 0. -1.
         11    1    1    2    0    0  0.21326604021E+02 -0.51519763031E+02 -0.34381689050E+02  0.65507332137E+02  0.00000000000E+00 0.  1.
<mgrwt>
<rscale>  0 0.14053416E+03</rscale>
<asrwt>0</asrwt>
<pdfrwt beam="2">  1        2 0.82934835E-01 0.16185952E+03</pdfrwt>
<pdfrwt beam="1">  1       -2 0.57135601E-02 0.16185952E+03</pdfrwt>
<totfact> 0.88097121E+03</totfact>
</mgrwt>
</event>
<event>
 7    1  0.6008063E-006  0.1857864E+03  0.7546771E-02  0.1167926E+00
          2   -1    0    0  501    0  0.00000000000E+00  0.00000000000E+00  0.94620602527E+03  0.94620602527E+03  0.00000000000E+00 0. -1.
         -2   -1    0    0    0  501 -0.00000000000E+00 -0.00000000000E+00 -0.37857772100E+02  0.37857772100E+02  0.00000000000E+00 0.  1.
         23    2    1    2    0    0  0.12320748749E+03  0.60972899919E+02  0.66923262175E+03  0.69454221420E+03  0.12497522076E+03 0.  0.
          5    1    3    3  502    0  0.26571174400E+02  0.14534202486E+02  0.20223236993E+02  0.36719744898E+02  0.47000000000E+01 0. -1.
         -5    1    3    3    0  502  0.96636313085E+02  0.46438697433E+02  0.64900938475E+03  0.65782246931E+03  0.47000000000E+01 0. -1.
        -11    1    1    2    0    0 -0.10045539265E+03 -0.80307468207E+02  0.16211251403E+03  0.20693245895E+03  0.00000000000E+00 0.  1.
         11    1    1    2    0    0 -0.22752094835E+02  0.19334568288E+02  0.77003117391E+02  0.82589124213E+02  0.00000000000E+00 0. -1.
<mgrwt>
<rscale>  0 0.17987275E+03</rscale>
<asrwt>0</asrwt>
<pdfrwt beam="1">  1        2 0.14557014E+00 0.18578640E+03</pdfrwt>
<pdfrwt beam="2">  1       -2 0.58242733E-02 0.18578640E+03</pdfrwt>
<totfact> 0.43414299E+03</totfact>
</mgrwt>
</event>
<event>
 6    1  0.6008063E-006  0.1727932E+03  0.7546771E-02  0.1185352E+00
          2   -1    0    0  501    0  0.00000000000E+00  0.00000000000E+00  0.13956258133E+04  0.13956258133E+04  0.00000000000E+00 0. -1.
         -2   -1    0    0    0  501 -0.00000000000E+00 -0.00000000000E+00 -0.24291819641E+02  0.24291819641E+02  0.00000000000E+00 0.  1.
          5    1    1    2  502    0 -0.92325395548E+02  0.59015369522E+01  0.10627905349E+04  0.10668198619E+04  0.47000000000E+01 0. -1.
         -5    1    1    2    0  502  0.16201658257E+01  0.34511123307E+02  0.61710503762E+02  0.70879608096E+02  0.47000000000E+01 0.  1.
        -11    1    1    2    0    0  0.41673922381E+02 -0.17126554370E+02  0.20559075917E+02  0.49524845015E+02  0.00000000000E+00 0.  1.
         11    1    1    2    0    0  0.49031307341E+02 -0.23286105889E+02  0.22627387909E+03  0.23269331788E+03  0.00000000000E+00 0. -1.
<mgrwt>
<rscale>  0 0.16299901E+03</rscale>
<asrwt>0</asrwt>
<pdfrwt beam="1">  1        2 0.21471160E+00 0.17279322E+03</pdfrwt>
<pdfrwt beam="2">  1       -2 0.37372041E-02 0.17279322E+03</pdfrwt>
<totfact> 0.46908527E+03</totfact>
</mgrwt>
</event>
<event>
 7    1  0.6008063E-006  0.1523004E+03  0.7546771E-02  0.1206089E+00
         -1   -1    0    0    0  501 -0.00000000000E+00  0.00000000000E+00  0.15566180661E+02  0.15566180661E+02  0.00000000000E+00 0.  1.
          1   -1    0    0  501    0  0.00000000000E+00 -0.00000000000E+00 -0.12533307931E+04  0.12533307931E+04  0.00000000000E+00 0. -1.
         23    2    1    2    0    0 -0.13483815851E+02 -0.85943377503E+02 -0.65680926102E+03  0.67423573403E+03  0.12500936872E+03 0.  0.
          5    1    3    3  502    0  0.23655185648E+02 -0.20306400147E+02 -0.32172690581E+02  0.45045418348E+02  0.47000000000E+01 0.  1.
         -5    1    3    3    0  502 -0.37139001499E+02 -0.65636977356E+02 -0.62463657044E+03  0.62919031569E+03  0.47000000000E+01 0.  1.
        -11    1    1    2    0    0 -0.27451807032E+02 -0.35202209512E+01 -0.10083453858E+03  0.10456384574E+03  0.00000000000E+00 0.  1.
         11    1    1    2    0    0  0.40935622883E+02  0.89463598454E+02 -0.48012081284E+03  0.49009739399E+03  0.00000000000E+00 0. -1.
<mgrwt>
<rscale>  0 0.14551992E+03</rscale>
<asrwt>0</asrwt>
<pdfrwt beam="2">  1        1 0.19282017E+00 0.15230043E+03</pdfrwt>
<pdfrwt beam="1">  1       -1 0.23947965E-02 0.15230043E+03</pdfrwt>
<totfact> 0.54354419E+03</totfact>
</mgrwt>
</event>
<event>
 7    1  0.6008063E-006  0.1396220E+03  0.7546771E-02  0.1225044E+00
          2   -1    0    0  501    0  0.00000000000E+00  0.00000000000E+00  0.94599501632E+03  0.94599501632E+03  0.00000000000E+00 0. -1.
         -2   -1    0    0    0  501 -0.00000000000E+00 -0.00000000000E+00 -0.16523092327E+02  0.16523092327E+02  0.00000000000E+00 0.  1.
         23    2    1    2    0    0 -0.16361617672E+02 -0.60019192397E+02  0.50576920506E+03  0.52468733998E+03  0.12499723980E+03 0.  0.
          5    1    3    3  502    0 -0.14175860370E+02 -0.96592766721E+02  0.29683117096E+03  0.31250912251E+03  0.47000000000E+01 0.  1.
         -5    1    3    3    0  502 -0.21857573017E+01  0.36573574324E+02  0.20893803410E+03  0.21217821747E+03  0.47000000000E+01 0.  1.
        -11    1    1    2    0    0  0.32601134389E+02 -0.12894770079E+02  0.11544141070E+03  0.12064753774E+03  0.00000000000E+00 0.  1.
         11    1    1    2    0    0 -0.16239516717E+02  0.72913962476E+02  0.30826130824E+03  0.31718323093E+03  0.00000000000E+00 0. -1.
<mgrwt>
<rscale>  0 0.13163907E+03</rscale>
<asrwt>0</asrwt>
<pdfrwt beam="1">  1        2 0.14553765E+00 0.13962205E+03</pdfrwt>
<pdfrwt beam="2">  1       -2 0.25420149E-02 0.13962205E+03</pdfrwt>
<totfact> 0.14751998E+04</totfact>
</mgrwt>
</event>
<event>
 7    1  0.6008063E-006  0.1280432E+03  0.7546771E-02  0.1245132E+00
         -2   -1    0    0    0  501 -0.00000000000E+00  0.00000000000E+00  0.80989332715E+02  0.80989332715E+02  0.00000000000E+00 0.  1.
          2   -1    0    0  501    0  0.00000000000E+00 -0.00000000000E+00 -0.17070405198E+03  0.17070405198E+03  0.00000000000E+00 0. -1.
         23    2    1    2    0    0  0.20386791926E+02 -0.18879497265E+02 -0.90651231730E+02  0.15688435620E+03  0.12499199456E+03 0.  0.
          5    1    3    3  502    0  0.33569772405E+02 -0.65604578901E+02 -0.75972920038E+02  0.10594746326E+03  0.47000000000E+01 0. -1.
         -5    1    3    3    0  502 -0.13182980480E+02  0.46725081636E+02 -0.14678311692E+02  0.50936892939E+02  0.47000000000E+01 0. -1.
        -11    1    1    2    0    0 -0.55652580096E+01  0.18299097489E+02 -0.43737594643E+02  0.47736843746E+02  0.00000000000E+00 0. -1.
         11    1    1    2    0    0 -0.14821533916E+02  0.58039977554E+00  0.44674107106E+02  0.47072184751E+02  0.00000000000E+00 0.  1.
<mgrwt>
<rscale>  0 0.11877484E+03</rscale>
<asrwt>0</asrwt>
<pdfrwt beam="2">  1        2 0.26262161E-01 0.12804318E+03</pdfrwt>
<pdfrwt beam="1">  1       -2 0.12459898E-01 0.12804318E+03</pdfrwt>
<totfact> 0.88932364E+03</totfact>
</mgrwt>
</event>
<event>
 7    1  0.6008063E-006  0.2224639E+03  0.7546771E-02  0.1135268E+00
          1   -1    0    0  501    0  0.00000000000E+00  0.00000000000E+00  0.42415655178E+03  0.42415655178E+03  0.00000000000E+00 0. -1.
         -1   -1    0    0    0  501 -0.00000000000E+00 -0.00000000000E+00 -0.10880262848E+03  0.10880262848E+03  0.00000000000E+00 0.  1.
         23    2    1    2    0    0  0.76697623717E+02 -0.16724197184E+03  0.18583240323E+03  0.28986872787E+03  0.12505116824E+03 0.  0.
          5    1    3    3  502    0  0.17731801149E+02 -0.10520192686E+03  0.28221929579E+02  0.11045555439E+03  0.47000000000E+01 0.  1.
         -5    1    3    3    0  502  0.58965822568E+02 -0.62040044979E+02  0.15761047365E+03  0.17941317348E+03  0.47000000000E+01 0.  1.
        -11    1    1    2    0    0 -0.30561590119E+02  0.18314506604E+01  0.51210403964E+01  0.31041747000E+02  0.00000000000E+00 0. -1.
         11    1    1    2    0    0 -0.46136033598E+02  0.16541052118E+03  0.12440047967E+03  0.21204870538E+03  0.00000000000E+00 0.  1.
<mgrwt>
<rscale>  0 0.21815202E+03</rscale>
<asrwt>0</asrwt>
<pdfrwt beam="1">  1        1 0.65254853E-01 0.22246392E+03</pdfrwt>
<pdfrwt beam="2">  1       -1 0.16738866E-01 0.22246392E+03</pdfrwt>
<totfact> 0.15071844E+03</totfact>
</mgrwt>
</event>
<event>
 7    1  0.6008063E-006  0.1529048E+03  0.7546771E-02  0.1205315E+00
         -2   -1    0    0    0  501 -0.00000000000E+00  0.00000000000E+00  0.34956109334E+02  0.34956109334E+02  0.00000000000E+00 0. -1.
          2   -1    0    0  501    0  0.00000000000E+00 -0.00000000000E+00 -0.86533153054E+03  0.86533153054E+03  0.00000000000E+00 0.  1.
         23    2    1    2    0    0 -0.16077359561E+02 -0.86584945594E+02 -0.70518570970E+03  0.72157242510E+03  0.12499778079E+03 0.  0.
          5    1    3    3  502    0  0.17876074217E+02 -0.74548350854E+02 -0.65570091564E+03  0.66018390727E+03  0.47000000000E+01 0.  1.
         -5    1    3    3    0  502 -0.33953433779E+02 -0.12036594740E+02 -0.49484794066E+02  0.61388517836E+02  0.47000000000E+01 0.  1.
        -11    1    1    2    0    0  0.40405067459E+02  0.17048590658E+02 -0.15360271787E+02  0.46466782428E+02  0.00000000000E+00 0.  1.
         11    1    1    2    0    0 -0.24327707898E+02  0.69536354936E+02 -0.10982943971E+03  0.13224843234E+03  0.00000000000E+00 0. -1.
<mgrwt>
<rscale>  0 0.14612622E+03</rscale>
<asrwt>0</asrwt>
<pdfrwt beam="2">  1        2 0.13312791E+00 0.15290481E+03</pdfrwt>
<pdfrwt beam="1">  1       -2 0.53778636E-02 0.15290481E+03</pdfrwt>
<totfact> 0.54770575E+03</totfact>
</mgrwt>
</event>
<event>
 7    1  0.6008063E-006  0.1764755E+03  0.7546771E-02  0.1177132E+00
          2   -1    0    0  501    0  0.00000000000E+00  0.00000000000E+00  0.60865901749E+03  0.60865901749E+03  0.00000000000E+00 0. -1.
         -2   -1    0    0    0  501 -0.00000000000E+00 -0.00000000000E+00 -0.50730394735E+02  0.50730394735E+02  0.00000000000E+00 0.  1.
         23    2    1    2    0    0  0.87148653901E+02  0.88969264044E+02  0.40623870652E+03  0.44291477396E+03  0.12503276569E+03 0.  0.
          5    1    3    3  502    0  0.16615051302E+02 -0.28724213346E+02  0.42473831644E+02  0.54104128647E+02  0.47000000000E+01 0.  1.
         -5    1    3    3    0  502  0.70533602599E+02  0.11769347739E+03  0.36376487488E+03  0.38881064532E+03  0.47000000000E+01 0.  1.
        -11    1    1    2    0    0 -0.48885123307E+02 -0.34764045022E+02  0.11085532020E+02  0.61001501024E+02  0.00000000000E+00 0. -1.
         11    1    1    2    0    0 -0.38263530594E+02 -0.54205219022E+02  0.14060438421E+03  0.15547313724E+03  0.00000000000E+00 0.  1.
<mgrwt>
<rscale>  0 0.17068788E+03</rscale>
<asrwt>0</asrwt>
<pdfrwt beam="1">  1        2 0.93639844E-01 0.17647552E+03</pdfrwt>
<pdfrwt beam="2">  1       -2 0.78046765E-02 0.17647552E+03</pdfrwt>
<totfact> 0.47767365E+03</totfact>
</mgrwt>
</event>
<event>
 7    1  0.6008063E-006  0.1380980E+03  0.7546771E-02  0.1229947E+00
          3   -1    0    0  501    0  0.00000000000E+00  0.00000000000E+00  0.20131679922E+04  0.20131679922E+04  0.00000000000E+00 0. -1.
         -3   -1    0    0    0  501 -0.00000000000E+00 -0.00000000000E+00 -0.96220272666E+01  0.96220272666E+01  0.00000000000E+00 0.  1.
         23    2    1    2    0    0  0.97171161362E+01 -0.57898515066E+02  0.16126713224E+04  0.16185734004E+04  0.12499759212E+03 0.  0.
          5    1    3    3  502    0 -0.39375214664E+02 -0.63774697064E+02  0.12815073839E+04  0.12837059182E+04  0.47000000000E+01 0. -1.
         -5    1    3    3    0  502  0.49092330800E+02  0.58761819982E+01  0.33116393852E+03  0.33486748220E+03  0.47000000000E+01 0. -1.
        -11    1    1    2    0    0  0.22298962799E+02  0.41812696998E+00  0.29939486116E+02  0.37333515786E+02  0.00000000000E+00 0.  1.
         11    1    1    2    0    0 -0.32016078935E+02  0.57480388096E+02  0.36093515643E+03  0.36688310328E+03  0.00000000000E+00 0. -1.
<mgrwt>
<rscale>  0 0.12833502E+03</rscale>
<asrwt>0</asrwt>
<pdfrwt beam="1">  1        3 0.30971782E+00 0.13809800E+03</pdfrwt>
<pdfrwt beam="2">  1       -3 0.14803135E-02 0.13809800E+03</pdfrwt>
<totfact> 0.14437185E+02</totfact>
</mgrwt>
</event>
<event>
 7    1  0.6008063E-006  0.1382819E+03  0.7546771E-02  0.1226434E+00
         -2   -1    0    0    0  501 -0.00000000000E+00  0.00000000000E+00  0.64811875136E+02  0.64811875136E+02  0.00000000000E+00 0.  1.
          2   -1    0    0  501    0  0.00000000000E+00 -0.00000000000E+00 -0.23946930798E+03  0.23946930798E+03  0.00000000000E+00 0. -1.
         23    2    1    2    0    0 -0.43679155787E+02  0.39855315869E+02 -0.10716242528E+03  0.17494478503E+03  0.12500231023E+03 0.  0.
          5    1    3    3  502    0 -0.41720694591E+02 -0.39778472731E+02 -0.53471155609E+02  0.78766729856E+02  0.47000000000E+01 0.  1.
         -5    1    3    3    0  502 -0.19584611963E+01  0.79633788600E+02 -0.53691269675E+02  0.96178055171E+02  0.47000000000E+01 0.  1.
        -11    1    1    2    0    0  0.47584197260E+02  0.16966750515E+02 -0.17241431096E+02  0.53379709611E+02  0.00000000000E+00 0.  1.
         11    1    1    2    0    0 -0.39050414724E+01 -0.56822066384E+02 -0.50253576460E+02  0.75956688475E+02  0.00000000000E+00 0. -1.
<mgrwt>
<rscale>  0 0.13069103E+03</rscale>
<asrwt>0</asrwt>
<pdfrwt beam="2">  1        2 0.36841432E-01 0.13828193E+03</pdfrwt>
<pdfrwt beam="1">  1       -2 0.99710577E-02 0.13828193E+03</pdfrwt>
<totfact> 0.88349358E+03</totfact>
</mgrwt>
</event>
<event>
 7    1  0.6008063E-006  0.1529635E+03  0.7546771E-02  0.1205213E+00
         -2   -1    0    0    0  501 -0.00000000000E+00  0.00000000000E+00  0.33514593035E+03  0.33514593035E+03  0.00000000000E+00 0.  1.
          2   -1    0    0  501    0  0.00000000000E+00 -0.00000000000E+00 -0.61181181258E+02  0.61181181258E+02  0.00000000000E+00 0. -1.
         23    2    1    2    0    0 -0.11408517551E+02 -0.87424430353E+02  0.10948063527E+03  0.18810592593E+03  0.12499857831E+03 0.  0.
          5    1    3    3  502    0  0.23445747434E+02 -0.41431401982E+01 -0.19129529547E+02  0.30901417187E+02  0.47000000000E+01 0. -1.
         -5    1    3    3    0  502 -0.34854264985E+02 -0.83281290155E+02  0.12861016481E+03  0.15720450875E+03  0.47000000000E+01 0. -1.
        -11    1    1    2    0    0  0.24731202381E+02  0.89132198732E+02  0.17013074068E+03  0.19365084598E+03  0.00000000000E+00 0.  1.
         11    1    1    2    0    0 -0.13322684830E+02 -0.17077683788E+01 -0.56466268590E+01  0.14570339694E+02  0.00000000000E+00 0. -1.
<mgrwt>
<rscale>  0 0.14620686E+03</rscale>
<asrwt>0</asrwt>
<pdfrwt beam="2">  1        2 0.94124896E-02 0.15296349E+03</pdfrwt>
<pdfrwt beam="1">  1       -2 0.51560911E-01 0.15296349E+03</pdfrwt>
<totfact> 0.24196899E+03</totfact>
</mgrwt>
</event>
<event>
 7    1  0.6008063E-006  0.1315621E+03  0.7546771E-02  0.1238574E+00
          3   -1    0    0  501    0  0.00000000000E+00  0.00000000000E+00  0.43788919158E+02  0.43788919158E+02  0.00000000000E+00 0. -1.
         -3   -1    0    0    0  501 -0.00000000000E+00 -0.00000000000E+00 -0.30830013883E+03  0.30830013883E+03  0.00000000000E+00 0.  1.
         23    2    1    2    0    0 -0.35643457811E+02 -0.20353717691E+02 -0.13402116658E+03  0.18780380028E+03  0.12499545752E+03 0.  0.
          5    1    3    3  502    0 -0.27479977824E+01 -0.37445925755E+02  0.98978603858E+01  0.39112740733E+02  0.47000000000E+01 0. -1.
         -5    1    3    3    0  502 -0.32895460029E+02  0.17092208064E+02 -0.14391902697E+03  0.14869105955E+03  0.47000000000E+01 0. -1.
        -11    1    1    2    0    0  0.63689647255E+02  0.13337025587E+02 -0.11328197280E+03  0.13064093073E+03  0.00000000000E+00 0.  1.
         11    1    1    2    0    0 -0.28046189444E+02  0.70166921042E+01 -0.17208080283E+02  0.33644326973E+02  0.00000000000E+00 0. -1.
<mgrwt>
<rscale>  0 0.12278391E+03</rscale>
<asrwt>0</asrwt>
<pdfrwt beam="1">  1        3 0.67367565E-02 0.13156213E+03</pdfrwt>
<pdfrwt beam="2">  1       -3 0.47430792E-01 0.13156213E+03</pdfrwt>
<totfact> 0.14342042E+03</totfact>
</mgrwt>
</event>
<event>
 7    1  0.6008063E-006  0.1350647E+03  0.7546771E-02  0.1232670E+00
          2   -1    0    0  501    0  0.00000000000E+00  0.00000000000E+00  0.41267556503E+02  0.41267556503E+02  0.00000000000E+00 0.  1.
         -2   -1    0    0    0  501 -0.00000000000E+00 -0.00000000000E+00 -0.41637663041E+03  0.41637663041E+03  0.00000000000E+00 0. -1.
         23    2    1    2    0    0  0.26035505993E+02  0.44048309686E+02 -0.11467312439E+03  0.17717897024E+03  0.12499744349E+03 0.  0.
          5    1    3    3  502    0  0.28167607710E+02  0.87066692427E+02 -0.81125558655E+02  0.12238247146E+03  0.47000000000E+01 0.  1.
         -5    1    3    3    0  502 -0.21321017167E+01 -0.43018382742E+02 -0.33547565735E+02  0.54796498777E+02  0.47000000000E+01 0.  1.
        -11    1    1    2    0    0  0.16312867515E+02 -0.53868013770E+02 -0.18530175847E+03  0.19366108088E+03  0.00000000000E+00 0. -1.
         11    1    1    2    0    0 -0.42348373508E+02  0.98197040844E+01 -0.75134191041E+02  0.86804135791E+02  0.00000000000E+00 0.  1.
<mgrwt>
<rscale>  0 0.12654767E+03</rscale>
<asrwt>0</asrwt>
<pdfrwt beam="1">  1        2 0.63488548E-02 0.13506466E+03</pdfrwt>
<pdfrwt beam="2">  1       -2 0.64057944E-01 0.13506466E+03</pdfrwt>
<totfact> 0.25363563E+03</totfact>
</mgrwt>
</event>
<event>
 7    1  0.6008063E-006  0.1394542E+03  0.7546771E-02  0.1226380E+00
          1   -1    0    0  501    0  0.00000000000E+00  0.00000000000E+00  0.16347598979E+04  0.16347598979E+04  0.00000000000E+00 0. -1.
         -1   -1    0    0    0  501 -0.00000000000E+00 -0.00000000000E+00 -0.98917500773E+01  0.98917500773E+01  0.00000000000E+00 0.  1.
         23    2    1    2    0    0  0.57262781639E+02  0.23559903116E+02  0.11035880302E+04  0.11123641562E+04  0.12495351341E+03 0.  0.
          5    1    3    3  502    0 -0.99436484167E+01  0.51661776272E+02  0.24240274416E+03  0.24809070044E+03  0.47000000000E+01 0. -1.
         -5    1    3    3    0  502  0.67206430055E+02 -0.28101873156E+02  0.86118528600E+03  0.86427345576E+03  0.47000000000E+01 0. -1.
        -11    1    1    2    0    0  0.11884574002E+02 -0.35572492925E+02  0.18039624048E+03  0.18425376233E+03  0.00000000000E+00 0. -1.
         11    1    1    2    0    0 -0.69147355640E+02  0.12012589809E+02  0.34088387722E+03  0.34803372948E+03  0.00000000000E+00 0.  1.
<mgrwt>
<rscale>  0 0.13072751E+03</rscale>
<asrwt>0</asrwt>
<pdfrwt beam="1">  1        1 0.25150131E+00 0.13945421E+03</pdfrwt>
<pdfrwt beam="2">  1       -1 0.15218090E-02 0.13945421E+03</pdfrwt>
<totfact> 0.58621276E+03</totfact>
</mgrwt>
</event>
<event>
 6    1  0.6008063E-006  0.2488503E+03  0.7546771E-02  0.1154767E+00
         -2   -1    0    0    0  501 -0.00000000000E+00  0.00000000000E+00  0.23939518238E+02  0.23939518238E+02  0.00000000000E+00 0.  1.
          2   -1    0    0  501    0  0.00000000000E+00 -0.00000000000E+00 -0.12147382748E+04  0.12147382748E+04  0.00000000000E+00 0. -1.
          5    1    1    2  502    0 -0.65082038801E+02  0.93087571556E+02 -0.45770147270E+03  0.47160756553E+03  0.47000000000E+01 0. -1.
         -5    1    1    2    0  502  0.75119317285E+02 -0.10984509192E+03 -0.41079999054E+03  0.43184207562E+03  0.47000000000E+01 0.  1.
        -11    1    1    2    0    0 -0.40215668525E+02  0.36788248967E+02 -0.22193598366E+03  0.22853064587E+03  0.00000000000E+00 0.  1.
         11    1    1    2    0    0  0.30178390041E+02 -0.20030728598E+02 -0.10036130963E+03  0.10669750599E+03  0.00000000000E+00 0. -1.
<mgrwt>
<rscale>  0 0.19415389E+03</rscale>
<asrwt>0</asrwt>
<pdfrwt beam="2">  1        2 0.18688282E+00 0.24885028E+03</pdfrwt>
<pdfrwt beam="1">  1       -2 0.36830027E-02 0.24885028E+03</pdfrwt>
<totfact> 0.60786824E+03</totfact>
</mgrwt>
</event>
<event>
 7    1  0.6008063E-006  0.1863764E+03  0.7546771E-02  0.1166801E+00
          1   -1    0    0  501    0  0.00000000000E+00  0.00000000000E+00  0.71961320432E+02  0.71961320432E+02  0.00000000000E+00 0. -1.
         -1   -1    0    0    0  501 -0.00000000000E+00 -0.00000000000E+00 -0.48570258936E+03  0.48570258936E+03  0.00000000000E+00 0.  1.
         23    2    1    2    0    0  0.12996004834E+03 -0.47137827242E+02 -0.12426171390E+03  0.22400255621E+03  0.12499833088E+03 0.  0.
          5    1    3    3  502    0  0.93385953438E+02  0.30605903102E+02 -0.50097897582E+02  0.11040628128E+03  0.47000000000E+01 0.  1.
         -5    1    3    3    0  502  0.36574094898E+02 -0.77743730344E+02 -0.74163816321E+02  0.11359627492E+03  0.47000000000E+01 0.  1.
        -11    1    1    2    0    0 -0.93119253319E+02  0.38106648213E+02 -0.10539745550E+03  0.14571182383E+03  0.00000000000E+00 0. -1.
         11    1    1    2    0    0 -0.36840795017E+02  0.90311790286E+01 -0.18408209952E+03  0.18794952976E+03  0.00000000000E+00 0.  1.
<mgrwt>
<rscale>  0 0.18103892E+03</rscale>
<asrwt>0</asrwt>
<pdfrwt beam="1">  1        1 0.11070973E-01 0.18637642E+03</pdfrwt>
<pdfrwt beam="2">  1       -1 0.74723473E-01 0.18637642E+03</pdfrwt>
<totfact> 0.10423672E+03</totfact>
</mgrwt>
</event>
<event>
 7    1  0.6008063E-006  0.1566709E+03  0.7546771E-02  0.1203174E+00
          2   -1    0    0  501    0  0.00000000000E+00  0.00000000000E+00  0.31090501756E+02  0.31090501756E+02  0.00000000000E+00 0.  1.
         -2   -1    0    0    0  501 -0.00000000000E+00 -0.00000000000E+00 -0.64118162642E+03  0.64118162642E+03  0.00000000000E+00 0. -1.
         23    2    1    2    0    0  0.87357601489E+02  0.35903565350E+02 -0.30510423927E+03  0.34297868936E+03  0.12500147197E+03 0.  0.
          5    1    3    3  502    0  0.11548405748E+03  0.47729266157E+02 -0.23039318342E+03  0.26214072432E+03  0.47000000000E+01 0. -1.
         -5    1    3    3    0  502 -0.28126455994E+02 -0.11825700807E+02 -0.74711055849E+02  0.80837965044E+02  0.47000000000E+01 0. -1.
        -11    1    1    2    0    0 -0.79721673317E+01 -0.33244644610E+02 -0.39803688353E+02  0.52469948101E+02  0.00000000000E+00 0.  1.
         11    1    1    2    0    0 -0.79385434157E+02 -0.26589207394E+01 -0.26518319704E+03  0.27682349071E+03  0.00000000000E+00 0. -1.
<mgrwt>
<rscale>  0 0.14782297E+03</rscale>
<asrwt>0</asrwt>
<pdfrwt beam="1">  1        2 0.47831542E-02 0.15667094E+03</pdfrwt>
<pdfrwt beam="2">  1       -2 0.98643325E-01 0.15667094E+03</pdfrwt>
<totfact> 0.14367959E+03</totfact>
</mgrwt>
</event>
<event>
 7    1  0.6008063E-006  0.1381738E+03  0.7546771E-02  0.1227011E+00
         -2   -1    0    0    0  501 -0.00000000000E+00  0.00000000000E+00  0.28037306873E+03  0.28037306873E+03  0.00000000000E+00 0. -1.
          2   -1    0    0  501    0  0.00000000000E+00 -0.00000000000E+00 -0.62619238077E+02  0.62619238077E+02  0.00000000000E+00 0.  1.
         23    2    1    2    0    0 -0.53072259774E+02  0.25489331657E+02  0.58943849373E+02  0.15022105731E+03  0.12500247156E+03 0.  0.
          5    1    3    3  502    0 -0.81599036114E+02  0.35431431652E+02  0.74306012034E+02  0.11600544154E+03  0.47000000000E+01 0. -1.
         -5    1    3    3    0  502  0.28526776340E+02 -0.99420999949E+01 -0.15362162661E+02  0.34215615766E+02  0.47000000000E+01 0. -1.
        -11    1    1    2    0    0 -0.23912256471E+02 -0.20836084756E+02  0.38772590735E+02  0.50092436852E+02  0.00000000000E+00 0. -1.
         11    1    1    2    0    0  0.76984516245E+02 -0.46532469015E+01  0.12003739054E+03  0.14267881264E+03  0.00000000000E+00 0.  1.
<mgrwt>
<rscale>  0 0.13030029E+03</rscale>
<asrwt>0</asrwt>
<pdfrwt beam="2">  1        2 0.96337291E-02 0.13817376E+03</pdfrwt>
<pdfrwt beam="1">  1       -2 0.43134318E-01 0.13817376E+03</pdfrwt>
<totfact> 0.33144786E+03</totfact>
</mgrwt>
</event>
<event>
 7    1  0.6008063E-006  0.1185234E+03  0.7546771E-02  0.1259014E+00
          1   -1    0    0  501    0  0.00000000000E+00  0.00000000000E+00  0.40498176628E+03  0.40498176628E+03  0.00000000000E+00 0. -1.
         -1   -1    0    0    0  501 -0.00000000000E+00 -0.00000000000E+00 -0.27049190319E+02  0.27049190319E+02  0.00000000000E+00 0.  1.
         23    2    1    2    0    0  0.17466267908E+02  0.40388519151E+01  0.22185890832E+03  0.25153363734E+03  0.11715977413E+03 0.  0.
          5    1    3    3  502    0  0.38202390826E+02 -0.43845333699E+02  0.71353050492E+02  0.92169321178E+02  0.47000000000E+01 0. -1.
         -5    1    3    3    0  502 -0.20736122918E+02  0.47884185614E+02  0.15050585783E+03  0.15936431617E+03  0.47000000000E+01 0.  1.
        -11    1    1    2    0    0 -0.12622109694E+01  0.39203865100E+02  0.10260865821E+03  0.10985022965E+03  0.00000000000E+00 0.  1.
         11    1    1    2    0    0 -0.16204056939E+02 -0.43242717015E+02  0.53465009433E+02  0.70647089605E+02  0.00000000000E+00 0. -1.
<mgrwt>
<rscale>  0 0.11084446E+03</rscale>
<asrwt>0</asrwt>
<pdfrwt beam="1">  1        1 0.62304883E-01 0.11852340E+03</pdfrwt>
<pdfrwt beam="2">  1       -1 0.41614142E-02 0.11852340E+03</pdfrwt>
<totfact> 0.12916496E+04</totfact>
</mgrwt>
</event>
<event>
 6    1  0.6008063E-006  0.3385440E+03  0.7546771E-02  0.1105535E+00
         -2   -1    0    0    0  501 -0.00000000000E+00  0.00000000000E+00  0.86451229138E+02  0.86451229138E+02  0.00000000000E+00 0.  1.
          2   -1    0    0  501    0  0.00000000000E+00 -0.00000000000E+00 -0.66287163697E+03  0.66287163697E+03  0.00000000000E+00 0. -1.
          5    1    1    2  502    0 -0.36216705648E+02 -0.16104288903E+03 -0.20565224363E+03  0.26374494722E+03  0.47000000000E+01 0. -1.
         -5    1    1    2    0  502  0.11169345159E+03  0.12823341487E+03 -0.29731008639E+03  0.34254140376E+03  0.47000000000E+01 0.  1.
        -11    1    1    2    0    0 -0.55005554820E+02  0.62449645955E+02 -0.34818962098E+02  0.90210473131E+02  0.00000000000E+00 0. -1.
         11    1    1    2    0    0 -0.20471191120E+02 -0.29640171801E+02 -0.38639115716E+02  0.52826042002E+02  0.00000000000E+00 0.  1.
<mgrwt>
<rscale>  0 0.26269484E+03</rscale>
<asrwt>0</asrwt>
<pdfrwt beam="2">  1        2 0.10198026E+00 0.33854399E+03</pdfrwt>
<pdfrwt beam="1">  1       -2 0.13300189E-01 0.33854399E+03</pdfrwt>
<totfact> 0.18750841E+03</totfact>
</mgrwt>
</event>
<event>
 7    1  0.6008063E-006  0.1638929E+03  0.7546771E-02  0.1191517E+00
          2   -1    0    0  501    0  0.00000000000E+00  0.00000000000E+00  0.62151080689E+03  0.62151080689E+03  0.00000000000E+00 0. -1.
         -2   -1    0    0    0  501 -0.00000000000E+00 -0.00000000000E+00 -0.38610901555E+02  0.38610901555E+02  0.00000000000E+00 0.  1.
         23    2    1    2    0    0 -0.94226285044E+02 -0.48541050954E+02  0.37832543849E+03  0.41229968165E+03  0.12500425455E+03 0.  0.
          5    1    3    3  502    0  0.23298371736E+02 -0.23805149104E+02  0.35004194431E+02  0.48547738126E+02  0.47000000000E+01 0. -1.
         -5    1    3    3    0  502 -0.11752465678E+03 -0.24735901850E+02  0.34332124406E+03  0.36375194352E+03  0.47000000000E+01 0. -1.
        -11    1    1    2    0    0 -0.15425077586E+02  0.22315144516E+02  0.38975915080E+02  0.47487057707E+02  0.00000000000E+00 0. -1.
         11    1    1    2    0    0  0.10965136263E+03  0.26225906438E+02  0.16559855176E+03  0.20033496909E+03  0.00000000000E+00 0.  1.
<mgrwt>
<rscale>  0 0.15752709E+03</rscale>
<asrwt>0</asrwt>
<pdfrwt beam="1">  1        2 0.95617040E-01 0.16389292E+03</pdfrwt>
<pdfrwt beam="2">  1       -2 0.59401391E-02 0.16389292E+03</pdfrwt>
<totfact> 0.70683517E+03</totfact>
</mgrwt>
</event>
<event>
 7    1  0.6008063E-006  0.1781329E+03  0.7546771E-02  0.1175269E+00
         -2   -1    0    0    0  501 -0.00000000000E+00  0.00000000000E+00  0.50146976776E+02  0.50146976776E+02  0.00000000000E+00 0.  1.
          2   -1    0    0  501    0  0.00000000000E+00 -0.00000000000E+00 -0.65236155799E+03  0.65236155799E+03  0.00000000000E+00 0. -1.
         23    2    1    2    0    0  0.37581634317E+02  0.12114195416E+03 -0.45051907552E+03  0.48445719880E+03  0.12507432897E+03 0.  0.
          5    1    3    3  502    0 -0.43096113482E+02  0.64442764910E+02 -0.23247940087E+03  0.24510998914E+03  0.47000000000E+01 0. -1.
         -5    1    3    3    0  502  0.80677747799E+02  0.56699189246E+02 -0.21803967465E+03  0.23934720966E+03  0.47000000000E+01 0. -1.
        -11    1    1    2    0    0  0.95867804379E+01 -0.65980835937E+02 -0.12319068214E+03  0.14007612657E+03  0.00000000000E+00 0. -1.
         11    1    1    2    0    0 -0.47168414755E+02 -0.55161118219E+02 -0.28504823553E+02  0.77975209390E+02  0.00000000000E+00 0.  1.
<mgrwt>
<rscale>  0 0.17249682E+03</rscale>
<asrwt>0</asrwt>
<pdfrwt beam="2">  1        2 0.10036331E+00 0.17813293E+03</pdfrwt>
<pdfrwt beam="1">  1       -2 0.77149199E-02 0.17813293E+03</pdfrwt>
<totfact> 0.44876986E+03</totfact>
</mgrwt>
</event>
<event>
 7    1  0.6008063E-006  0.1464686E+03  0.7546771E-02  0.1215441E+00
          2   -1    0    0  501    0  0.00000000000E+00  0.00000000000E+00  0.10700584304E+04  0.10700584304E+04  0.00000000000E+00 0.  1.
         -2   -1    0    0    0  501 -0.00000000000E+00 -0.00000000000E+00 -0.23284413520E+02  0.23284413520E+02  0.00000000000E+00 0. -1.
         23    2    1    2    0    0 -0.61486858274E+02  0.45245152834E+02  0.86435706762E+03  0.87667906626E+03  0.12500114907E+03 0.  0.
          5    1    3    3  502    0 -0.41548047585E+02 -0.23210861121E+02  0.12433374293E+03  0.13321394057E+03  0.47000000000E+01 0. -1.
         -5    1    3    3    0  502 -0.19938810690E+02  0.68456013955E+02  0.74002332469E+03  0.74346512568E+03  0.47000000000E+01 0. -1.
        -11    1    1    2    0    0  0.35014919114E+02 -0.32942919240E+02  0.20716038828E+02  0.52349161916E+02  0.00000000000E+00 0. -1.
         11    1    1    2    0    0  0.26471939160E+02 -0.12302233594E+02  0.16170091040E+03  0.16431461571E+03  0.00000000000E+00 0.  1.
<mgrwt>
<rscale>  0 0.13844220E+03</rscale>
<asrwt>0</asrwt>
<pdfrwt beam="1">  1        2 0.16462434E+00 0.14646858E+03</pdfrwt>
<pdfrwt beam="2">  1       -2 0.35822183E-02 0.14646858E+03</pdfrwt>
<totfact> 0.75270222E+03</totfact>
</mgrwt>
</event>
<event>
 7    1  0.7788679E-006  0.1502599E+03  0.7546771E-02  0.1209611E+00
         -1   -1    0    0    0  501 -0.00000000000E+00  0.00000000000E+00  0.66472695487E+02  0.66472695487E+02  0.00000000000E+00 0.  1.
          1   -1    0    0  501    0  0.00000000000E+00 -0.00000000000E+00 -0.28088911301E+03  0.28088911301E+03  0.00000000000E+00 0. -1.
         23    2    1    2    0    0 -0.13945703170E+02 -0.82212537263E+02 -0.12805539353E+03  0.19742396151E+03  0.12499861138E+03 0.  0.
          5    1    3    3  502    0  0.53523691890E+02 -0.19193951070E+02 -0.39371837536E+02  0.69321172395E+02  0.47000000000E+01 0. -1.
         -5    1    3    3    0  502 -0.67469395060E+02 -0.63018586192E+02 -0.88683555992E+02  0.12810278911E+03  0.47000000000E+01 0. -1.
        -11    1    1    2    0    0  0.26022138926E+02  0.51550715198E+02 -0.26110310696E+00  0.57746827849E+02  0.00000000000E+00 0.  1.
         11    1    1    2    0    0 -0.12076435757E+02  0.30661822064E+02 -0.86099920888E+02  0.92191019139E+02  0.00000000000E+00 0. -1.
<mgrwt>
<rscale>  0 0.14279973E+03</rscale>
<asrwt>0</asrwt>
<pdfrwt beam="2">  1        1 0.43213710E-01 0.15025990E+03</pdfrwt>
<pdfrwt beam="1">  1       -1 0.10226568E-01 0.15025990E+03</pdfrwt>
<totfact> 0.53982432E+03</totfact>
</mgrwt>
</event>
<event>
 7    1  0.6008063E-006  0.1321641E+03  0.7546771E-02  0.1238431E+00
          1   -1    0    0  501    0  0.00000000000E+00  0.00000000000E+00  0.25039361091E+03  0.25039361091E+03  0.00000000000E+00 0. -1.
         -1   -1    0    0    0  501 -0.00000000000E+00 -0.00000000000E+00 -0.60439372900E+02  0.60439372900E+02  0.00000000000E+00 0.  1.
         23    2    1    2    0    0  0.38508864829E+02 -0.18929780371E+02  0.16025553159E+03  0.20772381947E+03  0.12500432199E+03 0.  0.
          5    1    3    3  502    0  0.16272271221E+02 -0.61536909773E+02  0.33502979352E+02  0.72084101580E+02  0.47000000000E+01 0. -1.
         -5    1    3    3    0  502  0.22236593609E+02  0.42607129402E+02  0.12675255224E+03  0.13563971789E+03  0.47000000000E+01 0. -1.
        -11    1    1    2    0    0 -0.23719741133E+02  0.84745981739E+01 -0.30897873768E+02  0.39863812374E+02  0.00000000000E+00 0.  1.
         11    1    1    2    0    0 -0.14789123696E+02  0.10455182197E+02  0.60596580191E+02  0.63245351966E+02  0.00000000000E+00 0. -1.
<mgrwt>
<rscale>  0 0.12287339E+03</rscale>
<asrwt>0</asrwt>
<pdfrwt beam="1">  1        1 0.38522093E-01 0.13216410E+03</pdfrwt>
<pdfrwt beam="2">  1       -1 0.92983652E-02 0.13216410E+03</pdfrwt>
<totfact> 0.71376807E+03</totfact>
</mgrwt>
</event>
<event>
 7    1  0.6008063E-006  0.1838508E+03  0.7546771E-02  0.1169706E+00
         -2   -1    0    0    0  501 -0.00000000000E+00  0.00000000000E+00  0.19983189938E+03  0.19983189938E+03  0.00000000000E+00 0.  1.
          2   -1    0    0  501    0  0.00000000000E+00 -0.00000000000E+00 -0.20709590083E+03  0.20709590083E+03  0.00000000000E+00 0. -1.
         23    2    1    2    0    0 -0.86170081021E+00 -0.13480206315E+03 -0.11103770194E+03  0.21478007673E+03  0.12501508449E+03 0.  0.
          5    1    3    3  502    0  0.59222524566E+02 -0.45840929910E+02 -0.32975608478E+02  0.81964498567E+02  0.47000000000E+01 0.  1.
         -5    1    3    3    0  502 -0.60084225376E+02 -0.88961133245E+02 -0.78062093457E+02  0.13281557816E+03  0.47000000000E+01 0.  1.
        -11    1    1    2    0    0 -0.28714903008E+02  0.85316085974E+02  0.99740161257E+02  0.13435579611E+03  0.00000000000E+00 0.  1.
         11    1    1    2    0    0  0.29576603818E+02  0.49485977181E+02  0.40335392288E+01  0.57791927374E+02  0.00000000000E+00 0. -1.
<mgrwt>
<rscale>  0 0.17804785E+03</rscale>
<asrwt>0</asrwt>
<pdfrwt beam="2">  1        2 0.31860908E-01 0.18385078E+03</pdfrwt>
<pdfrwt beam="1">  1       -2 0.30743369E-01 0.18385078E+03</pdfrwt>
<totfact> 0.15850436E+03</totfact>
</mgrwt>
</event>
<event>
 7    1  0.6008063E-006  0.1251411E+03  0.7546771E-02  0.1249634E+00
          1   -1    0    0  501    0  0.00000000000E+00  0.00000000000E+00  0.14012009388E+03  0.14012009388E+03  0.00000000000E+00 0. -1.
         -1   -1    0    0    0  501 -0.00000000000E+00 -0.00000000000E+00 -0.94854666054E+02  0.94854666054E+02  0.00000000000E+00 0.  1.
         23    2    1    2    0    0  0.20402164413E+01  0.49181383570E+01  0.63635461204E+02  0.14039144832E+03  0.12502774201E+03 0.  0.
          5    1    3    3  502    0 -0.15318238408E+02 -0.57740118021E+02  0.28917009670E+02  0.66534600812E+02  0.47000000000E+01 0.  1.
         -5    1    3    3    0  502  0.17358454850E+02  0.62658256378E+02  0.34718451534E+02  0.73856847509E+02  0.47000000000E+01 0.  1.
        -11    1    1    2    0    0 -0.31441154146E+02 -0.33984768283E+02 -0.25149231974E+02  0.52687707467E+02  0.00000000000E+00 0.  1.
         11    1    1    2    0    0  0.29400937705E+02  0.29066629926E+02  0.67791985964E+01  0.41895604146E+02  0.00000000000E+00 0. -1.
<mgrwt>
<rscale>  0 0.11612243E+03</rscale>
<asrwt>0</asrwt>
<pdfrwt beam="1">  1        1 0.21556937E-01 0.12514107E+03</pdfrwt>
<pdfrwt beam="2">  1       -1 0.14593026E-01 0.12514107E+03</pdfrwt>
<totfact> 0.73243345E+03</totfact>
</mgrwt>
</event>
<event>
 7    1  0.6008063E-006  0.1152744E+03  0.7546771E-02  0.1260710E+00
         -3   -1    0    0    0  501 -0.00000000000E+00  0.00000000000E+00  0.89453763678E+02  0.89453763678E+02  0.00000000000E+00 0.  1.
          3   -1    0    0  501    0  0.00000000000E+00 -0.00000000000E+00 -0.12472294685E+03  0.12472294685E+03  0.00000000000E+00 0. -1.
         23    2    1    2    0    0 -0.29109327048E+01  0.27010894107E+02 -0.27712487472E+02  0.11855869385E+03  0.11202731808E+03 0.  0.
          5    1    3    3  502    0 -0.44702389121E+02  0.48770051350E+02 -0.25811947786E+02  0.71169994733E+02  0.47000000000E+01 0. -1.
         -5    1    3    3    0  502  0.41791456416E+02 -0.21759157243E+02 -0.19005396854E+01  0.47388699121E+02  0.47000000000E+01 0.  1.
        -11    1    1    2    0    0 -0.27228727515E+01 -0.60048819982E+02 -0.13429764876E+02  0.61592478453E+02  0.00000000000E+00 0. -1.
         11    1    1    2    0    0  0.56338054563E+01  0.33037925875E+02  0.58730691718E+01  0.34025538226E+02  0.00000000000E+00 0.  1.
<mgrwt>
<rscale>  0 0.10992447E+03</rscale>
<asrwt>0</asrwt>
<pdfrwt beam="2">  1        3 0.19188146E-01 0.11527438E+03</pdfrwt>
<pdfrwt beam="1">  1       -3 0.13762117E-01 0.11527438E+03</pdfrwt>
<totfact> 0.23094183E+03</totfact>
</mgrwt>
</event>
<event>
 7    1  0.6008063E-006  0.1316101E+03  0.7546771E-02  0.1236429E+00
          1   -1    0    0  501    0  0.00000000000E+00  0.00000000000E+00  0.36100389912E+03  0.36100389912E+03  0.00000000000E+00 0.  1.
         -1   -1    0    0    0  501 -0.00000000000E+00 -0.00000000000E+00 -0.44125281051E+02  0.44125281051E+02  0.00000000000E+00 0. -1.
         23    2    1    2    0    0 -0.15859403947E+02  0.38084495972E+02  0.24646117415E+03  0.27939992534E+03  0.12497703144E+03 0.  0.
          5    1    3    3  502    0 -0.46760817611E+02  0.45718684840E+02  0.23694127556E+03  0.24584554149E+03  0.47000000000E+01 0. -1.
         -5    1    3    3    0  502  0.30901413664E+02 -0.76341888689E+01  0.95198985884E+01  0.33554383846E+02  0.47000000000E+01 0. -1.
        -11    1    1    2    0    0  0.39273022795E+02 -0.23513780635E+02  0.83486737203E+02  0.95211887325E+02  0.00000000000E+00 0.  1.
         11    1    1    2    0    0 -0.23413618848E+02 -0.14570715336E+02 -0.13069293280E+02  0.30517367511E+02  0.00000000000E+00 0. -1.
<mgrwt>
<rscale>  0 0.12413426E+03</rscale>
<asrwt>0</asrwt>
<pdfrwt beam="1">  1        1 0.55539060E-01 0.13161006E+03</pdfrwt>
<pdfrwt beam="2">  1       -1 0.67885050E-02 0.13161006E+03</pdfrwt>
<totfact> 0.72873659E+03</totfact>
</mgrwt>
</event>
<event>
 7    1  0.6008063E-006  0.1672883E+03  0.7546771E-02  0.1187900E+00
          2   -1    0    0  501    0  0.00000000000E+00  0.00000000000E+00  0.11018186819E+04  0.11018186819E+04  0.00000000000E+00 0. -1.
         -2   -1    0    0    0  501 -0.00000000000E+00 -0.00000000000E+00 -0.25372612118E+02  0.25372612118E+02  0.00000000000E+00 0.  1.
         23    2    1    2    0    0  0.98990161298E+02  0.50604544877E+02  0.78692848658E+03  0.80451339544E+03  0.12500195379E+03 0.  0.
          5    1    3    3  502    0  0.82662605155E+02  0.73525091058E+02  0.74852772237E+03  0.75667356665E+03  0.47000000000E+01 0. -1.
         -5    1    3    3    0  502  0.16327556144E+02 -0.22920546180E+02  0.38400764210E+02  0.47839828791E+02  0.47000000000E+01 0. -1.
        -11    1    1    2    0    0  0.87862644420E+01 -0.23076811717E+02  0.99289842752E+02  0.10231427347E+03  0.00000000000E+00 0. -1.
         11    1    1    2    0    0 -0.10777642574E+03 -0.27527733161E+02  0.19022774050E+03  0.22036362516E+03  0.00000000000E+00 0.  1.
<mgrwt>
<rscale>  0 0.16070807E+03</rscale>
<asrwt>0</asrwt>
<pdfrwt beam="1">  1        2 0.16951053E+00 0.16728826E+03</pdfrwt>
<pdfrwt beam="2">  1       -2 0.39034796E-02 0.16728826E+03</pdfrwt>
<totfact> 0.63841669E+03</totfact>
</mgrwt>
</event>
<event>
 7    1  0.6008063E-006  0.1252824E+03  0.7546771E-02  0.1251478E+00
         -1   -1    0    0    0  501 -0.00000000000E+00  0.00000000000E+00  0.47359637715E+03  0.47359637715E+03  0.00000000000E+00 0.  1.
          1   -1    0    0  501    0  0.00000000000E+00 -0.00000000000E+00 -0.27885500209E+02  0.27885500209E+02  0.00000000000E+00 0. -1.
         23    2    1    2    0    0 -0.36277288627E+01 -0.76976286962E+01  0.16636466284E+03  0.20826154782E+03  0.12499302923E+03 0.  0.
          5    1    3    3  502    0 -0.47275306742E+02 -0.24069213695E+02  0.14910406183E+03  0.15833001272E+03  0.47000000000E+01 0.  1.
         -5    1    3    3    0  502  0.43647577879E+02  0.16371584999E+02  0.17260601013E+02  0.49931535100E+02  0.47000000000E+01 0.  1.
        -11    1    1    2    0    0  0.33387845780E+02 -0.16417011384E+02  0.60331066365E+02  0.70880914761E+02  0.00000000000E+00 0. -1.
         11    1    1    2    0    0 -0.29760116918E+02  0.24114640080E+02  0.21901514774E+03  0.22233941478E+03  0.00000000000E+00 0.  1.
<mgrwt>
<rscale>  0 0.11505921E+03</rscale>
<asrwt>0</asrwt>
<pdfrwt beam="2">  1        1 0.42900773E-02 0.12528237E+03</pdfrwt>
<pdfrwt beam="1">  1       -1 0.72860975E-01 0.12528237E+03</pdfrwt>
<totfact> 0.38884158E+03</totfact>
</mgrwt>
</event>
<event>
 7    1  0.6008063E-006  0.1299140E+03  0.7546771E-02  0.1241335E+00
          2   -1    0    0  501    0  0.00000000000E+00  0.00000000000E+00  0.11272230449E+04  0.11272230449E+04  0.00000000000E+00 0. -1.
         -2   -1    0    0    0  501 -0.00000000000E+00 -0.00000000000E+00 -0.15008530211E+02  0.15008530211E+02  0.00000000000E+00 0.  1.
         23    2    1    2    0    0 -0.65706604335E-01 -0.35408069988E+02  0.88910213264E+03  0.89854340423E+03  0.12499564504E+03 0.  0.
          5    1    3    3  502    0 -0.30653608120E+01  0.21508664925E+02  0.71385285773E+03  0.71419885998E+03  0.47000000000E+01 0.  1.
         -5    1    3    3    0  502  0.29996542077E+01 -0.56916734913E+02  0.17524927491E+03  0.18434454425E+03  0.47000000000E+01 0.  1.
        -11    1    1    2    0    0 -0.14555207134E+02 -0.75586924050E+01  0.40785239867E+00  0.16405920552E+02  0.00000000000E+00 0.  1.
         11    1    1    2    0    0  0.14620913738E+02  0.42966762393E+02  0.22270452966E+03  0.22728225034E+03  0.00000000000E+00 0. -1.
<mgrwt>
<rscale>  0 0.12107457E+03</rscale>
<asrwt>0</asrwt>
<pdfrwt beam="1">  1        2 0.17341886E+00 0.12991400E+03</pdfrwt>
<pdfrwt beam="2">  1       -2 0.23090055E-02 0.12991400E+03</pdfrwt>
<totfact> 0.13219954E+04</totfact>
</mgrwt>
</event>
<event>
 7    1  0.6008063E-006  0.2405444E+03  0.7546771E-02  0.1122099E+00
          4   -1    0    0  501    0  0.00000000000E+00  0.00000000000E+00  0.64879746352E+02  0.64879746352E+02  0.00000000000E+00 0. -1.
         -4   -1    0    0    0  501 -0.00000000000E+00 -0.00000000000E+00 -0.94167184995E+03  0.94167184995E+03  0.00000000000E+00 0.  1.
         23    2    1    2    0    0  0.17395653927E+03 -0.10943006653E+03 -0.28225296750E+03  0.37084811607E+03  0.12500308202E+03 0.  0.
          5    1    3    3  502    0  0.17386952035E+03 -0.72526671735E+02 -0.27431581990E+03  0.33280923555E+03  0.47000000000E+01 0.  1.
         -5    1    3    3    0  502  0.87018927761E-01 -0.36903394791E+02 -0.79371475994E+01  0.38038880522E+02  0.47000000000E+01 0.  1.
        -11    1    1    2    0    0 -0.92372926849E+02  0.75045267688E+02 -0.21268205787E+03  0.24371747487E+03  0.00000000000E+00 0.  1.
         11    1    1    2    0    0 -0.81583612425E+02  0.34384798838E+02 -0.38185707823E+03  0.39198600537E+03  0.00000000000E+00 0. -1.
<mgrwt>
<rscale>  0 0.23657038E+03</rscale>
<asrwt>0</asrwt>
<pdfrwt beam="1">  1        4 0.99814995E-02 0.24054436E+03</pdfrwt>
<pdfrwt beam="2">  1       -4 0.14487259E+00 0.24054436E+03</pdfrwt>
<totfact> 0.47896488E+01</totfact>
</mgrwt>
</event>
<event>
 7    1  0.6008063E-006  0.2070679E+03  0.7546771E-02  0.1148412E+00
         -2   -1    0    0    0  501 -0.00000000000E+00  0.00000000000E+00  0.26588381356E+02  0.26588381356E+02  0.00000000000E+00 0.  1.
          2   -1    0    0  501    0  0.00000000000E+00 -0.00000000000E+00 -0.19695850440E+04  0.19695850440E+04  0.00000000000E+00 0. -1.
         23    2    1    2    0    0  0.16143411947E+03  0.34512054767E+02 -0.15207839049E+04  0.15348162066E+04  0.12500018402E+03 0.  0.
          5    1    3    3  502    0  0.75131864026E+02 -0.17439993183E+02 -0.10747730662E+04  0.10775473002E+04  0.47000000000E+01 0.  1.
         -5    1    3    3    0  502  0.86302255448E+02  0.51952047950E+02 -0.44601083869E+03  0.45726890646E+03  0.47000000000E+01 0.  1.
        -11    1    1    2    0    0 -0.99953510371E+02 -0.28065005099E+02 -0.15138583159E+03  0.18356475357E+03  0.00000000000E+00 0. -1.
         11    1    1    2    0    0 -0.61480609103E+02 -0.64470496678E+01 -0.27082692618E+03  0.27779246514E+03  0.00000000000E+00 0.  1.
<mgrwt>
<rscale>  0 0.20158047E+03</rscale>
<asrwt>0</asrwt>
<pdfrwt beam="2">  1        2 0.30301306E+00 0.20706787E+03</pdfrwt>
<pdfrwt beam="1">  1       -2 0.40905205E-02 0.20706787E+03</pdfrwt>
<totfact> 0.20553258E+03</totfact>
</mgrwt>
</event>
<event>
 7    1  0.6008063E-006  0.1499255E+03  0.7546771E-02  0.1209668E+00
          2   -1    0    0  501    0  0.00000000000E+00  0.00000000000E+00  0.39991332561E+03  0.39991332561E+03  0.00000000000E+00 0. -1.
         -2   -1    0    0    0  501 -0.00000000000E+00 -0.00000000000E+00 -0.89227933017E+02  0.89227933017E+02  0.00000000000E+00 0.  1.
         23    2    1    2    0    0  0.20837465033E+02  0.80116845557E+02  0.33180516528E+03  0.36410482519E+03  0.12499898852E+03 0.  0.
          5    1    3    3  502    0  0.30239439145E+02  0.93790073112E+02  0.33251673232E+03  0.34684357968E+03  0.47000000000E+01 0.  1.
         -5    1    3    3    0  502 -0.94019741114E+01 -0.13673227555E+02 -0.71156703817E+00  0.17261245512E+02  0.47000000000E+01 0.  1.
        -11    1    1    2    0    0  0.21491229987E+02  0.23102136067E+01 -0.24042055573E+02  0.32330024581E+02  0.00000000000E+00 0.  1.
         11    1    1    2    0    0 -0.42328695021E+02 -0.82427059164E+02  0.29222828815E+01  0.92706408849E+02  0.00000000000E+00 0. -1.
<mgrwt>
<rscale>  0 0.14275602E+03</rscale>
<asrwt>0</asrwt>
<pdfrwt beam="1">  1        2 0.61525126E-01 0.14992550E+03</pdfrwt>
<pdfrwt beam="2">  1       -2 0.13727375E-01 0.14992550E+03</pdfrwt>
<totfact> 0.30870326E+03</totfact>
</mgrwt>
</event>
<event>
 7    1  0.6008063E-006  0.1300183E+03  0.7546771E-02  0.1241094E+00
         -1   -1    0    0    0  501 -0.00000000000E+00  0.00000000000E+00  0.89393117219E+02  0.89393117219E+02  0.00000000000E+00 0.  1.
          1   -1    0    0  501    0  0.00000000000E+00 -0.00000000000E+00 -0.15945664530E+03  0.15945664530E+03  0.00000000000E+00 0. -1.
         23    2    1    2    0    0  0.27322759904E+01 -0.35667650401E+02 -0.75684170626E+02  0.15044217243E+03  0.12500042777E+03 0.  0.
          5    1    3    3  502    0  0.10297583581E+02 -0.73446798688E+02 -0.82498159687E+02  0.11103381835E+03  0.47000000000E+01 0. -1.
         -5    1    3    3    0  502 -0.75653075906E+01  0.37779148287E+02  0.68139890615E+01  0.39408354078E+02  0.47000000000E+01 0. -1.
        -11    1    1    2    0    0  0.20755913071E+02  0.27602444103E+02  0.41990185430E+02  0.54367991689E+02  0.00000000000E+00 0.  1.
         11    1    1    2    0    0 -0.23488189061E+02  0.80652062984E+01 -0.36369542889E+02  0.44039598408E+02  0.00000000000E+00 0. -1.
<mgrwt>
<rscale>  0 0.12122246E+03</rscale>
<asrwt>0</asrwt>
<pdfrwt beam="2">  1        1 0.24531791E-01 0.13001828E+03</pdfrwt>
<pdfrwt beam="1">  1       -1 0.13752787E-01 0.13001828E+03</pdfrwt>
<totfact> 0.68464100E+03</totfact>
</mgrwt>
</event>
<event>
 7    1  0.6008063E-006  0.1589377E+03  0.7546771E-02  0.1197735E+00
         -2   -1    0    0    0  501 -0.00000000000E+00  0.00000000000E+00  0.66722849233E+02  0.66722849233E+02  0.00000000000E+00 0.  1.
          2   -1    0    0  501    0  0.00000000000E+00 -0.00000000000E+00 -0.10692865860E+04  0.10692865860E+04  0.00000000000E+00 0. -1.
         23    2    1    2    0    0  0.87465540348E+01 -0.97769177158E+02 -0.98878111773E+03  0.10014735527E+04  0.12500345515E+03 0.  0.
          5    1    3    3  502    0 -0.34224845748E+02  0.10749487273E+02 -0.13603340647E+03  0.14076245671E+03  0.47000000000E+01 0. -1.
         -5    1    3    3    0  502  0.42971399783E+02 -0.10851866443E+03 -0.85274771125E+03  0.86071109600E+03  0.47000000000E+01 0. -1.
        -11    1    1    2    0    0 -0.24839779227E+00  0.32896352073E+02  0.38604308987E+02  0.50720058690E+02  0.00000000000E+00 0.  1.
         11    1    1    2    0    0 -0.84981562425E+01  0.64872825085E+02 -0.52386927991E+02  0.83815823794E+02  0.00000000000E+00 0. -1.
<mgrwt>
<rscale>  0 0.15224985E+03</rscale>
<asrwt>0</asrwt>
<pdfrwt beam="2">  1        2 0.16450562E+00 0.15893765E+03</pdfrwt>
<pdfrwt beam="1">  1       -2 0.10265054E-01 0.15893765E+03</pdfrwt>
<totfact> 0.15162438E+03</totfact>
</mgrwt>
</event>
<event>
 7    1  0.6008063E-006  0.1359211E+03  0.7546771E-02  0.1230073E+00
          1   -1    0    0  501    0  0.00000000000E+00  0.00000000000E+00  0.16363988425E+03  0.16363988425E+03  0.00000000000E+00 0. -1.
         -1   -1    0    0    0  501 -0.00000000000E+00 -0.00000000000E+00 -0.11283998343E+03  0.11283998343E+03  0.00000000000E+00 0.  1.
         23    2    1    2    0    0  0.33034913681E+02  0.41926774503E+02  0.88656466804E+02  0.16227908401E+03  0.12500148822E+03 0.  0.
          5    1    3    3  502    0 -0.40261140514E+02  0.92496022509E+01 -0.13524684633E+01  0.41598482523E+02  0.47000000000E+01 0. -1.
         -5    1    3    3    0  502  0.73296054195E+02  0.32677172252E+02  0.90008935268E+02  0.12068060149E+03  0.47000000000E+01 0. -1.
        -11    1    1    2    0    0  0.27922698938E+01 -0.63632390876E+02 -0.33824514563E+02  0.72117790628E+02  0.00000000000E+00 0. -1.
         11    1    1    2    0    0 -0.35827183575E+02  0.21705616373E+02 -0.40320514262E+01  0.42082993046E+02  0.00000000000E+00 0.  1.
<mgrwt>
<rscale>  0 0.12825166E+03</rscale>
<asrwt>0</asrwt>
<pdfrwt beam="1">  1        1 0.25175367E-01 0.13592105E+03</pdfrwt>
<pdfrwt beam="2">  1       -1 0.17359997E-01 0.13592105E+03</pdfrwt>
<totfact> 0.46109186E+03</totfact>
</mgrwt>
</event>
<event>
 7    1  0.6008063E-006  0.1297665E+03  0.7546771E-02  0.1231742E+00
          2   -1    0    0  501    0  0.00000000000E+00  0.00000000000E+00  0.39789733350E+03  0.39789733350E+03  0.00000000000E+00 0. -1.
         -2   -1    0    0    0  501 -0.00000000000E+00 -0.00000000000E+00 -0.50224276255E+02  0.50224276255E+02  0.00000000000E+00 0.  1.
         23    2    1    2    0    0 -0.15572858253E+02  0.31148751851E+02  0.28482469313E+03  0.31299272024E+03  0.12500631363E+03 0.  0.
          5    1    3    3  502    0 -0.70355990712E+02  0.21449770599E+02  0.17121582925E+03  0.18640549422E+03  0.47000000000E+01 0. -1.
         -5    1    3    3    0  502  0.54783132459E+02  0.96989812527E+01  0.11360886388E+03  0.12658722602E+03  0.47000000000E+01 0. -1.
        -11    1    1    2    0    0 -0.37339523435E+02 -0.49083215294E+02  0.45461045960E+02  0.76616634837E+02  0.00000000000E+00 0. -1.
         11    1    1    2    0    0  0.52912381688E+02  0.17934463443E+02  0.17387318147E+02  0.58512254676E+02  0.00000000000E+00 0.  1.
<mgrwt>
<rscale>  0 0.12715295E+03</rscale>
<asrwt>0</asrwt>
<pdfrwt beam="1">  1        2 0.61214972E-01 0.12976647E+03</pdfrwt>
<pdfrwt beam="2">  1       -2 0.77268120E-02 0.12976647E+03</pdfrwt>
<totfact> 0.76259375E+03</totfact>
</mgrwt>
</event>
<event>
 7    1  0.6008063E-006  0.1496179E+03  0.7546771E-02  0.1215227E+00
         -2   -1    0    0    0  501 -0.00000000000E+00  0.00000000000E+00  0.10787272751E+02  0.10787272751E+02  0.00000000000E+00 0.  1.
          2   -1    0    0  501    0  0.00000000000E+00 -0.00000000000E+00 -0.17575146108E+04  0.17575146108E+04  0.00000000000E+00 0. -1.
         23    2    1    2    0    0 -0.48301872603E+02  0.66557142164E+02 -0.12815887135E+04  0.12902926589E+04  0.12499036371E+03 0.  0.
          5    1    3    3  502    0  0.20067969026E+02  0.48186172966E+01 -0.39761803984E+02  0.45044794478E+02  0.47000000000E+01 0.  1.
         -5    1    3    3    0  502 -0.68369841629E+02  0.61738524868E+02 -0.12418269095E+04  0.12452478644E+04  0.47000000000E+01 0.  1.
        -11    1    1    2    0    0  0.37273564936E+02  0.43589720706E+01 -0.13220607130E+03  0.13742912562E+03  0.00000000000E+00 0.  1.
         11    1    1    2    0    0  0.11028307667E+02 -0.70916114235E+02 -0.33293255323E+03  0.34058009899E+03  0.00000000000E+00 0. -1.
<mgrwt>
<rscale>  0 0.13859896E+03</rscale>
<asrwt>0</asrwt>
<pdfrwt beam="2">  1        2 0.27038697E+00 0.14961790E+03</pdfrwt>
<pdfrwt beam="1">  1       -2 0.16595797E-02 0.14961790E+03</pdfrwt>
<totfact> 0.99599190E+03</totfact>
</mgrwt>
</event>
<event>
 7    1  0.6008063E-006  0.1293021E+03  0.7546771E-02  0.1243030E+00
          2   -1    0    0  501    0  0.00000000000E+00  0.00000000000E+00  0.60487349800E+03  0.60487349800E+03  0.00000000000E+00 0. -1.
         -2   -1    0    0    0  501 -0.00000000000E+00 -0.00000000000E+00 -0.26005572807E+02  0.26005572807E+02  0.00000000000E+00 0.  1.
         23    2    1    2    0    0 -0.17240052431E+02  0.28240412785E+02  0.46122192541E+03  0.47900387132E+03  0.12499721573E+03 0.  0.
          5    1    3    3  502    0  0.37604437492E+02  0.52162008531E+02  0.17359761644E+03  0.18518420907E+03  0.47000000000E+01 0.  1.
         -5    1    3    3    0  502 -0.54844489924E+02 -0.23921595746E+02  0.28762430896E+03  0.29381966225E+03  0.47000000000E+01 0.  1.
        -11    1    1    2    0    0 -0.29823359708E+02 -0.33959032537E+02  0.37368117237E+02  0.58643199614E+02  0.00000000000E+00 0.  1.
         11    1    1    2    0    0  0.47063412140E+02  0.57186197521E+01  0.80277882553E+02  0.93231999878E+02  0.00000000000E+00 0. -1.
<mgrwt>
<rscale>  0 0.12004056E+03</rscale>
<asrwt>0</asrwt>
<pdfrwt beam="1">  1        2 0.93057450E-01 0.12930214E+03</pdfrwt>
<pdfrwt beam="2">  1       -2 0.40008578E-02 0.12930214E+03</pdfrwt>
<totfact> 0.13009411E+04</totfact>
</mgrwt>
</event>
<event>
 7    1  0.6008063E-006  0.1263981E+03  0.7546771E-02  0.1247583E+00
         -1   -1    0    0    0  501 -0.00000000000E+00  0.00000000000E+00  0.45630565773E+02  0.45630565773E+02  0.00000000000E+00 0.  1.
          1   -1    0    0  501    0  0.00000000000E+00 -0.00000000000E+00 -0.26872075209E+03  0.26872075209E+03  0.00000000000E+00 0. -1.
         23    2    1    2    0    0 -0.10095009467E+02 -0.15811361226E+02 -0.14436549163E+03  0.19187982174E+03  0.12499824982E+03 0.  0.
          5    1    3    3  502    0 -0.44423029075E+02  0.40303787067E+02 -0.75290308922E+02  0.96376975372E+02  0.47000000000E+01 0. -1.
         -5    1    3    3    0  502  0.34328019609E+02 -0.56115148294E+02 -0.69075182705E+02  0.95502846366E+02  0.47000000000E+01 0. -1.
        -11    1    1    2    0    0 -0.19128213815E+02 -0.15207048095E+02  0.81065867120E+01  0.25746060352E+02  0.00000000000E+00 0.  1.
         11    1    1    2    0    0  0.29223223282E+02  0.31018409322E+02 -0.86831281405E+02  0.96725435777E+02  0.00000000000E+00 0. -1.
<mgrwt>
<rscale>  0 0.11732109E+03</rscale>
<asrwt>0</asrwt>
<pdfrwt beam="2">  1        1 0.41341654E-01 0.12639806E+03</pdfrwt>
<pdfrwt beam="1">  1       -1 0.70200871E-02 0.12639806E+03</pdfrwt>
<totfact> 0.99602766E+03</totfact>
</mgrwt>
</event>
<event>
 7    1  0.6008063E-006  0.1513829E+03  0.7546771E-02  0.1207880E+00
          1   -1    0    0  501    0  0.00000000000E+00  0.00000000000E+00  0.67913058681E+03  0.67913058681E+03  0.00000000000E+00 0. -1.
         -1   -1    0    0    0  501 -0.00000000000E+00 -0.00000000000E+00 -0.46055649534E+02  0.46055649534E+02  0.00000000000E+00 0.  1.
         23    2    1    2    0    0  0.65546150111E+02 -0.54760216390E+02  0.56178071497E+03  0.58181986249E+03  0.12498720568E+03 0.  0.
          5    1    3    3  502    0  0.45345704607E+02  0.29118858926E+02  0.33106114669E+03  0.33545150726E+03  0.47000000000E+01 0.  1.
         -5    1    3    3    0  502  0.20200445504E+02 -0.83879075316E+02  0.23071956828E+03  0.24636835523E+03  0.47000000000E+01 0.  1.
        -11    1    1    2    0    0 -0.26963182485E+02  0.65952883038E+02  0.12780061949E+02  0.72388714411E+02  0.00000000000E+00 0.  1.
         11    1    1    2    0    0 -0.38582967626E+02 -0.11192666647E+02  0.58514160353E+02  0.70977659438E+02  0.00000000000E+00 0. -1.
<mgrwt>
<rscale>  0 0.14412774E+03</rscale>
<asrwt>0</asrwt>
<pdfrwt beam="1">  1        1 0.10448162E+00 0.15138289E+03</pdfrwt>
<pdfrwt beam="2">  1       -1 0.70854850E-02 0.15138289E+03</pdfrwt>
<totfact> 0.30004051E+03</totfact>
</mgrwt>
</event>
<event>
 7    1  0.6008063E-006  0.1655296E+03  0.7546771E-02  0.1189636E+00
          2   -1    0    0  501    0  0.00000000000E+00  0.00000000000E+00  0.23979518441E+03  0.23979518441E+03  0.00000000000E+00 0. -1.
         -2   -1    0    0    0  501 -0.00000000000E+00 -0.00000000000E+00 -0.10742800692E+03  0.10742800692E+03  0.00000000000E+00 0.  1.
         23    2    1    2    0    0  0.91613636319E+02 -0.58171141668E+02  0.12140300233E+03  0.20527721878E+03  0.12499242974E+03 0.  0.
          5    1    3    3  502    0  0.50985034516E+01 -0.75954141727E+02  0.46138638852E+02  0.89139723906E+02  0.47000000000E+01 0.  1.
         -5    1    3    3    0  502  0.86515132867E+02  0.17783000059E+02  0.75264363477E+02  0.11613749487E+03  0.47000000000E+01 0.  1.
        -11    1    1    2    0    0  0.13351409933E+02  0.72390795660E+01 -0.16147761438E+02  0.22167873593E+02  0.00000000000E+00 0.  1.
         11    1    1    2    0    0 -0.10496504625E+03  0.50932062102E+02  0.27111936602E+02  0.11977809896E+03  0.00000000000E+00 0. -1.
<mgrwt>
<rscale>  0 0.15917053E+03</rscale>
<asrwt>0</asrwt>
<pdfrwt beam="1">  1        2 0.36891567E-01 0.16552960E+03</pdfrwt>
<pdfrwt beam="2">  1       -2 0.16527386E-01 0.16552960E+03</pdfrwt>
<totfact> 0.39481856E+03</totfact>
</mgrwt>
</event>
<event>
 7    1  0.6008063E-006  0.1866805E+03  0.7546771E-02  0.1166611E+00
         -1   -1    0    0    0  501 -0.00000000000E+00  0.00000000000E+00  0.42621254810E+03  0.42621254810E+03  0.00000000000E+00 0.  1.
          1   -1    0    0  501    0  0.00000000000E+00 -0.00000000000E+00 -0.73145595460E+02  0.73145595460E+02  0.00000000000E+00 0. -1.
         23    2    1    2    0    0 -0.94955309243E+02  0.10103903550E+03  0.17230742111E+03  0.25404617559E+03  0.12499685802E+03 0.  0.
          5    1    3    3  502    0 -0.47283055635E+02 -0.16162341750E+02  0.15551994478E+02  0.52543916615E+02  0.47000000000E+01 0. -1.
         -5    1    3    3    0  502 -0.47672253609E+02  0.11720137724E+03  0.15675542664E+03  0.20150225898E+03  0.47000000000E+01 0. -1.
        -11    1    1    2    0    0  0.56510960966E+02 -0.18916819443E+02  0.24056668919E+02  0.64265527980E+02  0.00000000000E+00 0. -1.
         11    1    1    2    0    0  0.38444348278E+02 -0.82122216053E+02  0.15670286261E+03  0.18104643999E+03  0.00000000000E+00 0.  1.
<mgrwt>
<rscale>  0 0.18123773E+03</rscale>
<asrwt>0</asrwt>
<pdfrwt beam="2">  1        1 0.11253169E-01 0.18668051E+03</pdfrwt>
<pdfrwt beam="1">  1       -1 0.65571160E-01 0.18668051E+03</pdfrwt>
<totfact> 0.13226369E+03</totfact>
</mgrwt>
</event>
<event>
 7    1  0.6008063E-006  0.1644362E+03  0.7546771E-02  0.1192025E+00
          2   -1    0    0  501    0  0.00000000000E+00  0.00000000000E+00  0.41889247235E+03  0.41889247235E+03  0.00000000000E+00 0. -1.
         -2   -1    0    0    0  501 -0.00000000000E+00 -0.00000000000E+00 -0.55062456684E+02  0.55062456684E+02  0.00000000000E+00 0.  1.
         23    2    1    2    0    0  0.98513920787E+02  0.41348371599E+02  0.22758956789E+03  0.28077796731E+03  0.12499830035E+03 0.  0.
          5    1    3    3  502    0 -0.11428043636E+02  0.36745894892E+02  0.12272264502E+03  0.12870042181E+03  0.47000000000E+01 0.  1.
         -5    1    3    3    0  502  0.10994196442E+03  0.46024767068E+01  0.10486692287E+03  0.15207754550E+03  0.47000000000E+01 0.  1.
        -11    1    1    2    0    0 -0.60629417251E+02 -0.64991567206E+02  0.10985359929E+03  0.14130691180E+03  0.00000000000E+00 0. -1.
         11    1    1    2    0    0 -0.37884503536E+02  0.23643195607E+02  0.26386848484E+02  0.51870049928E+02  0.00000000000E+00 0.  1.
<mgrwt>
<rscale>  0 0.15708698E+03</rscale>
<asrwt>0</asrwt>
<pdfrwt beam="1">  1        2 0.64444994E-01 0.16443617E+03</pdfrwt>
<pdfrwt beam="2">  1       -2 0.84711475E-02 0.16443617E+03</pdfrwt>
<totfact> 0.63491420E+03</totfact>
</mgrwt>
</event>
<event>
 7    1  0.6008063E-006  0.1298968E+03  0.7546771E-02  0.1241204E+00
          1   -1    0    0  501    0  0.00000000000E+00  0.00000000000E+00  0.62526422888E+02  0.62526422888E+02  0.00000000000E+00 0. -1.
         -1   -1    0    0    0  501 -0.00000000000E+00 -0.00000000000E+00 -0.27467332998E+03  0.27467332998E+03  0.00000000000E+00 0.  1.
         23    2    1    2    0    0 -0.16077380092E+01  0.35295645132E+02 -0.34876939861E+02  0.13449752113E+03  0.12499925947E+03 0.  0.
          5    1    3    3  502    0  0.17780034387E+02  0.12831270461E+02 -0.78438102598E+02  0.81580616960E+02  0.47000000000E+01 0.  1.
         -5    1    3    3    0  502 -0.19387772396E+02  0.22464374671E+02  0.43561162737E+02  0.52916904169E+02  0.47000000000E+01 0.  1.
        -11    1    1    2    0    0  0.26361993819E+02  0.32701418071E+01 -0.86058207381E+01  0.27923264425E+02  0.00000000000E+00 0. -1.
         11    1    1    2    0    0 -0.24754255810E+02 -0.38565786939E+02 -0.16866414650E+03  0.17477896732E+03  0.00000000000E+00 0.  1.
<mgrwt>
<rscale>  0 0.12115490E+03</rscale>
<asrwt>0</asrwt>
<pdfrwt beam="1">  1        1 0.96194499E-02 0.12989681E+03</pdfrwt>
<pdfrwt beam="2">  1       -1 0.42257435E-01 0.12989681E+03</pdfrwt>
<totfact> 0.36234423E+03</totfact>
</mgrwt>
</event>
<event>
 7    1  0.6008063E-006  0.1360297E+03  0.7546771E-02  0.1231427E+00
          2   -1    0    0  501    0  0.00000000000E+00  0.00000000000E+00  0.29178484267E+03  0.29178484267E+03  0.00000000000E+00 0. -1.
         -2   -1    0    0    0  501 -0.00000000000E+00 -0.00000000000E+00 -0.50392175283E+02  0.50392175283E+02  0.00000000000E+00 0.  1.
         23    2    1    2    0    0  0.24492977144E+02 -0.47725636982E+02  0.11471353208E+03  0.17794178281E+03  0.12500576496E+03 0.  0.
          5    1    3    3  502    0  0.59831735602E+02  0.25386094623E+01  0.96525539765E+02  0.11369059306E+03  0.47000000000E+01 0.  1.
         -5    1    3    3    0  502 -0.35338758457E+02 -0.50264246444E+02  0.18187992316E+02  0.64251189751E+02  0.47000000000E+01 0.  1.
        -11    1    1    2    0    0 -0.64574185137E+01  0.11396196722E+02 -0.13198976532E+02  0.18595282603E+02  0.00000000000E+00 0.  1.
         11    1    1    2    0    0 -0.18035558631E+02  0.36329440260E+02  0.13987811183E+03  0.14563995254E+03  0.00000000000E+00 0. -1.
<mgrwt>
<rscale>  0 0.12735941E+03</rscale>
<asrwt>0</asrwt>
<pdfrwt beam="1">  1        2 0.44889975E-01 0.13602972E+03</pdfrwt>
<pdfrwt beam="2">  1       -2 0.77526425E-02 0.13602972E+03</pdfrwt>
<totfact> 0.10580060E+04</totfact>
</mgrwt>
</event>
<event>
 7    1  0.6008063E-006  0.1529746E+03  0.7546771E-02  0.1202498E+00
         -1   -1    0    0    0  501 -0.00000000000E+00  0.00000000000E+00  0.62246098431E+02  0.62246098431E+02  0.00000000000E+00 0.  1.
          1   -1    0    0  501    0  0.00000000000E+00 -0.00000000000E+00 -0.44949469978E+03  0.44949469978E+03  0.00000000000E+00 0. -1.
         23    2    1    2    0    0 -0.43949164839E+02  0.76448860864E+02 -0.33200324713E+03  0.36555079449E+03  0.12500107933E+03 0.  0.
          5    1    3    3  502    0 -0.52372686038E+02 -0.18481611051E+02 -0.15059053422E+03  0.16057417970E+03  0.47000000000E+01 0.  1.
         -5    1    3    3    0  502  0.84235211993E+01  0.94930471915E+02 -0.18141271291E+03  0.20497661479E+03  0.47000000000E+01 0.  1.
        -11    1    1    2    0    0  0.28584468153E+02 -0.82883831751E+02 -0.78434262349E+02  0.11763815238E+03  0.00000000000E+00 0. -1.
         11    1    1    2    0    0  0.15364696685E+02  0.64349708876E+01  0.23188908129E+02  0.28551851337E+02  0.00000000000E+00 0.  1.
<mgrwt>
<rscale>  0 0.14836402E+03</rscale>
<asrwt>0</asrwt>
<pdfrwt beam="2">  1        1 0.69153032E-01 0.15297460E+03</pdfrwt>
<pdfrwt beam="1">  1       -1 0.95763227E-02 0.15297460E+03</pdfrwt>
<totfact> 0.33099021E+03</totfact>
</mgrwt>
</event>
<event>
 7    1  0.6008063E-006  0.1346439E+03  0.7546771E-02  0.1232994E+00
          1   -1    0    0  501    0  0.00000000000E+00  0.00000000000E+00  0.20435188104E+03  0.20435188104E+03  0.00000000000E+00 0. -1.
         -1   -1    0    0    0  501 -0.00000000000E+00 -0.00000000000E+00 -0.12040493816E+03  0.12040493816E+03  0.00000000000E+00 0.  1.
         23    2    1    2    0    0  0.59641559433E+01 -0.49690121406E+02  0.14974714331E+03  0.20137822274E+03  0.12499720934E+03 0.  0.
          5    1    3    3  502    0 -0.60007216071E+01 -0.69101629180E+02  0.16111127233E+03  0.17547072658E+03  0.47000000000E+01 0. -1.
         -5    1    3    3    0  502  0.11964877550E+02  0.19411507774E+02 -0.11364129018E+02  0.25907496159E+02  0.47000000000E+01 0. -1.
        -11    1    1    2    0    0  0.83315822402E+01  0.18620489609E+02 -0.82736406253E+02  0.85214146804E+02  0.00000000000E+00 0.  1.
         11    1    1    2    0    0 -0.14295738183E+02  0.31069631797E+02  0.16936205818E+02  0.38164449658E+02  0.00000000000E+00 0. -1.
<mgrwt>
<rscale>  0 0.12633728E+03</rscale>
<asrwt>0</asrwt>
<pdfrwt beam="1">  1        1 0.31438751E-01 0.13464391E+03</pdfrwt>
<pdfrwt beam="2">  1       -1 0.18523837E-01 0.13464391E+03</pdfrwt>
<totfact> 0.31507151E+03</totfact>
</mgrwt>
</event>
<event>
 7    1  0.6008063E-006  0.1255985E+03  0.7546771E-02  0.1249032E+00
          1   -1    0    0  501    0  0.00000000000E+00  0.00000000000E+00  0.66950911056E+03  0.66950911056E+03  0.00000000000E+00 0. -1.
         -1   -1    0    0    0  501 -0.00000000000E+00 -0.00000000000E+00 -0.18077913254E+02  0.18077913254E+02  0.00000000000E+00 0.  1.
         23    2    1    2    0    0  0.12204091487E+02 -0.32534539388E+00  0.41405434919E+03  0.43268461453E+03  0.12500370342E+03 0.  0.
          5    1    3    3  502    0  0.59569779435E+02  0.30021212657E+02  0.26476159033E+03  0.27307621930E+03  0.47000000000E+01 0.  1.
         -5    1    3    3    0  502 -0.47365687949E+02 -0.30346558051E+02  0.14929275886E+03  0.15960839524E+03  0.47000000000E+01 0.  1.
        -11    1    1    2    0    0 -0.37426946044E+02 -0.32416023876E+02  0.10245027601E+03  0.11378767046E+03  0.00000000000E+00 0.  1.
         11    1    1    2    0    0  0.25222854557E+02  0.32741369269E+02  0.13492657210E+03  0.14111473882E+03  0.00000000000E+00 0. -1.
<mgrwt>
<rscale>  0 0.11647257E+03</rscale>
<asrwt>0</asrwt>
<pdfrwt beam="1">  1        1 0.10300138E+00 0.12559845E+03</pdfrwt>
<pdfrwt beam="2">  1       -1 0.27812179E-02 0.12559845E+03</pdfrwt>
<totfact> 0.12043189E+04</totfact>
</mgrwt>
</event>
<event>
 7    1  0.6008063E-006  0.2002210E+03  0.7546771E-02  0.1153565E+00
          1   -1    0    0  501    0  0.00000000000E+00  0.00000000000E+00  0.21265171559E+03  0.21265171559E+03  0.00000000000E+00 0. -1.
         -1   -1    0    0    0  501 -0.00000000000E+00 -0.00000000000E+00 -0.19898372262E+03  0.19898372262E+03  0.00000000000E+00 0.  1.
         23    2    1    2    0    0 -0.14635844840E+03  0.55150858920E+02  0.83039474844E+02  0.21675797174E+03  0.12500420502E+03 0.  0.
          5    1    3    3  502    0 -0.12496184691E+03  0.83076492766E+02  0.30253103281E+02  0.15314864378E+03  0.47000000000E+01 0.  1.
         -5    1    3    3    0  502 -0.21396601493E+02 -0.27925633845E+02  0.52786371563E+02  0.63609327963E+02  0.47000000000E+01 0.  1.
        -11    1    1    2    0    0  0.48051158054E+02 -0.51255579992E+02  0.66119483449E+01  0.70567458021E+02  0.00000000000E+00 0. -1.
         11    1    1    2    0    0  0.98307290345E+02 -0.38952789286E+01 -0.75983430214E+02  0.12431000845E+03  0.00000000000E+00 0.  1.
<mgrwt>
<rscale>  0 0.19553162E+03</rscale>
<asrwt>0</asrwt>
<pdfrwt beam="1">  1        1 0.32715649E-01 0.20022104E+03</pdfrwt>
<pdfrwt beam="2">  1       -1 0.30612880E-01 0.20022104E+03</pdfrwt>
<totfact> 0.13306978E+03</totfact>
</mgrwt>
</event>
<event>
 7    1  0.6008063E-006  0.1824543E+03  0.7546771E-02  0.1170846E+00
         -1   -1    0    0    0  501 -0.00000000000E+00  0.00000000000E+00  0.41838229630E+02  0.41838229630E+02  0.00000000000E+00 0.  1.
          1   -1    0    0  501    0  0.00000000000E+00 -0.00000000000E+00 -0.78120156162E+03  0.78120156162E+03  0.00000000000E+00 0. -1.
         23    2    1    2    0    0  0.10126347441E+03 -0.86084244689E+02 -0.51806054082E+03  0.54925066990E+03  0.12499914400E+03 0.  0.
          5    1    3    3  502    0 -0.22052561161E+02  0.89800166406E+01 -0.43969241332E+02  0.50222906486E+02  0.47000000000E+01 0.  1.
         -5    1    3    3    0  502  0.12331603557E+03 -0.95064261330E+02 -0.47409129949E+03  0.49902776342E+03  0.47000000000E+01 0.  1.
        -11    1    1    2    0    0  0.34214852987E+01  0.48338216908E+02 -0.84842868812E+02  0.97706715040E+02  0.00000000000E+00 0. -1.
         11    1    1    2    0    0 -0.10468495970E+03  0.37746027781E+02 -0.13645992235E+03  0.17608240631E+03  0.00000000000E+00 0.  1.
<mgrwt>
<rscale>  0 0.17689155E+03</rscale>
<asrwt>0</asrwt>
<pdfrwt beam="2">  1        1 0.12018485E+00 0.18245431E+03</pdfrwt>
<pdfrwt beam="1">  1       -1 0.64366512E-02 0.18245431E+03</pdfrwt>
<totfact> 0.28402115E+03</totfact>
</mgrwt>
</event>
<event>
 7    1  0.6008063E-006  0.2290067E+03  0.7546771E-02  0.1130474E+00
         -2   -1    0    0    0  501 -0.00000000000E+00  0.00000000000E+00  0.71827423550E+02  0.71827423550E+02  0.00000000000E+00 0.  1.
          2   -1    0    0  501    0  0.00000000000E+00 -0.00000000000E+00 -0.71814424312E+03  0.71814424312E+03  0.00000000000E+00 0. -1.
         23    2    1    2    0    0  0.11597849784E+03 -0.15286785618E+03 -0.42940618901E+03  0.48665566135E+03  0.12499785657E+03 0.  0.
          5    1    3    3  502    0  0.81835950961E+02 -0.19624189602E+02 -0.10781261372E+03  0.13684984970E+03  0.47000000000E+01 0.  1.
         -5    1    3    3    0  502  0.34142546883E+02 -0.13324366658E+03 -0.32159357529E+03  0.34980581165E+03  0.47000000000E+01 0.  1.
        -11    1    1    2    0    0 -0.48449654819E+02  0.13304479461E+03 -0.14193969932E+03  0.20048731797E+03  0.00000000000E+00 0.  1.
         11    1    1    2    0    0 -0.67528843025E+02  0.19823061567E+02 -0.74970931247E+02  0.10282868735E+03  0.00000000000E+00 0. -1.
<mgrwt>
<rscale>  0 0.22463518E+03</rscale>
<asrwt>0</asrwt>
<pdfrwt beam="2">  1        2 0.11048373E+00 0.22900668E+03</pdfrwt>
<pdfrwt beam="1">  1       -2 0.11050373E-01 0.22900668E+03</pdfrwt>
<totfact> 0.22863961E+03</totfact>
</mgrwt>
</event>
<event>
 7    1  0.6008063E-006  0.1463800E+03  0.7546771E-02  0.1214707E+00
         -2   -1    0    0    0  501 -0.00000000000E+00  0.00000000000E+00  0.80779469777E+02  0.80779469777E+02  0.00000000000E+00 0.  1.
          2   -1    0    0  501    0  0.00000000000E+00 -0.00000000000E+00 -0.23393108051E+03  0.23393108051E+03  0.00000000000E+00 0. -1.
         23    2    1    2    0    0  0.75624964712E+02  0.91088150482E+01 -0.12495907473E+03  0.19246268577E+03  0.12500003703E+03 0.  0.
          5    1    3    3  502    0 -0.22004082756E+02 -0.79569741718E+01 -0.80086308106E+02  0.83566738850E+02  0.47000000000E+01 0. -1.
         -5    1    3    3    0  502  0.97629047468E+02  0.17065789220E+02 -0.44872766628E+02  0.10889594692E+03  0.47000000000E+01 0. -1.
        -11    1    1    2    0    0 -0.78666495614E+02  0.54894027224E+01 -0.51782764147E+02  0.94339841728E+02  0.00000000000E+00 0. -1.
         11    1    1    2    0    0  0.30415309021E+01 -0.14598217771E+02  0.23590228144E+02  0.27908022793E+02  0.00000000000E+00 0.  1.
<mgrwt>
<rscale>  0 0.13898082E+03</rscale>
<asrwt>0</asrwt>
<pdfrwt beam="2">  1        2 0.35989396E-01 0.14638004E+03</pdfrwt>
<pdfrwt beam="1">  1       -2 0.12427611E-01 0.14638004E+03</pdfrwt>
<totfact> 0.64105382E+03</totfact>
</mgrwt>
</event>
<event>
 7    1  0.6008063E-006  0.2526414E+03  0.7546771E-02  0.1113900E+00
         -1   -1    0    0    0  501 -0.00000000000E+00  0.00000000000E+00  0.39523859675E+03  0.39523859675E+03  0.00000000000E+00 0.  1.
          1   -1    0    0  501    0  0.00000000000E+00 -0.00000000000E+00 -0.23095537486E+03  0.23095537486E+03  0.00000000000E+00 0. -1.
         23    2    1    2    0    0  0.54479328810E+02 -0.21268343393E+03 -0.98564991128E+02  0.27118765780E+03  0.12500179172E+03 0.  0.
          5    1    3    3  502    0  0.81758542590E+02 -0.83544111522E+02 -0.23673995522E+02  0.11935923056E+03  0.47000000000E+01 0.  1.
         -5    1    3    3    0  502 -0.27279213779E+02 -0.12913932241E+03 -0.74890995606E+02  0.15182842724E+03  0.47000000000E+01 0.  1.
        -11    1    1    2    0    0 -0.36894713222E+02  0.10963264182E+03  0.20537116066E+03  0.23570712685E+03  0.00000000000E+00 0.  1.
         11    1    1    2    0    0 -0.17584615588E+02  0.10305079211E+03  0.57477052359E+02  0.11929918695E+03  0.00000000000E+00 0. -1.
<mgrwt>
<rscale>  0 0.24906109E+03</rscale>
<asrwt>0</asrwt>
<pdfrwt beam="2">  1        1 0.35531596E-01 0.25264142E+03</pdfrwt>
<pdfrwt beam="1">  1       -1 0.60805938E-01 0.25264142E+03</pdfrwt>
<totfact> 0.34812468E+02</totfact>
</mgrwt>
</event>
<event>
 7    1  0.6008063E-006  0.1368729E+03  0.7546771E-02  0.1229794E+00
          1   -1    0    0  501    0  0.00000000000E+00  0.00000000000E+00  0.16784608458E+03  0.16784608458E+03  0.00000000000E+00 0. -1.
         -1   -1    0    0    0  501 -0.00000000000E+00 -0.00000000000E+00 -0.91381815368E+02  0.91381815368E+02  0.00000000000E+00 0.  1.
         23    2    1    2    0    0 -0.33062368362E+02 -0.44900849866E+02  0.67820607001E+02  0.15275415877E+03  0.12499996706E+03 0.  0.
          5    1    3    3  502    0  0.22759417875E+02 -0.10042097996E+02 -0.27144629707E+02  0.37118132444E+02  0.47000000000E+01 0.  1.
         -5    1    3    3    0  502 -0.55821786237E+02 -0.34858751871E+02  0.94965236708E+02  0.11563602632E+03  0.47000000000E+01 0.  1.
        -11    1    1    2    0    0  0.41575458559E+02  0.62570105135E+02 -0.14106393677E+02  0.76436425568E+02  0.00000000000E+00 0.  1.
         11    1    1    2    0    0 -0.85130901976E+01 -0.17669255269E+02  0.22750055891E+02  0.30037315618E+02  0.00000000000E+00 0. -1.
<mgrwt>
<rscale>  0 0.12843691E+03</rscale>
<asrwt>0</asrwt>
<pdfrwt beam="1">  1        1 0.25822474E-01 0.13687293E+03</pdfrwt>
<pdfrwt beam="2">  1       -1 0.14058741E-01 0.13687293E+03</pdfrwt>
<totfact> 0.62255139E+03</totfact>
</mgrwt>
</event>
<event>
 7    1  0.6008063E-006  0.1349583E+03  0.7546771E-02  0.1232694E+00
          1   -1    0    0  501    0  0.00000000000E+00  0.00000000000E+00  0.38844549667E+02  0.38844549667E+02  0.00000000000E+00 0. -1.
         -1   -1    0    0    0  501 -0.00000000000E+00 -0.00000000000E+00 -0.42728342205E+03  0.42728342205E+03  0.00000000000E+00 0.  1.
         23    2    1    2    0    0 -0.14677532976E+02  0.48707340946E+02 -0.12975837415E+03  0.18721907669E+03  0.12500364785E+03 0.  0.
          5    1    3    3  502    0 -0.46703043150E+02  0.73624030019E+02 -0.58554463387E+02  0.10513033443E+03  0.47000000000E+01 0. -1.
         -5    1    3    3    0  502  0.32025510174E+02 -0.24916689073E+02 -0.71203910766E+02  0.82088742253E+02  0.47000000000E+01 0. -1.
        -11    1    1    2    0    0 -0.31426243906E+02 -0.48916953986E+02 -0.14067231082E+03  0.15221424449E+03  0.00000000000E+00 0. -1.
         11    1    1    2    0    0  0.46103776882E+02  0.20961303965E+00 -0.11800818741E+03  0.12669465054E+03  0.00000000000E+00 0.  1.
<mgrwt>
<rscale>  0 0.12653226E+03</rscale>
<asrwt>0</asrwt>
<pdfrwt beam="1">  1        1 0.59760843E-02 0.13495832E+03</pdfrwt>
<pdfrwt beam="2">  1       -1 0.65735914E-01 0.13495832E+03</pdfrwt>
<totfact> 0.30421516E+03</totfact>
</mgrwt>
</event>
<event>
 7    1  0.6008063E-006  0.1678184E+03  0.7546771E-02  0.1187017E+00
          2   -1    0    0  501    0  0.00000000000E+00  0.00000000000E+00  0.24038152929E+03  0.24038152929E+03  0.00000000000E+00 0. -1.
         -2   -1    0    0    0  501 -0.00000000000E+00 -0.00000000000E+00 -0.10226126423E+03  0.10226126423E+03  0.00000000000E+00 0.  1.
         23    2    1    2    0    0  0.10850791619E+03  0.27712053540E+02  0.92699779621E+02  0.19171919634E+03  0.12498430028E+03 0.  0.
          5    1    3    3  502    0  0.71854739792E+02  0.26049636395E+02  0.12233270526E+03  0.14432279086E+03  0.47000000000E+01 0.  1.
         -5    1    3    3    0  502  0.36653176400E+02  0.16624171452E+01 -0.29632925635E+02  0.47396405483E+02  0.47000000000E+01 0.  1.
        -11    1    1    2    0    0 -0.97337336571E+02 -0.19533326880E+02 -0.42409417672E+01  0.99368473556E+02  0.00000000000E+00 0.  1.
         11    1    1    2    0    0 -0.11170579621E+02 -0.81787266598E+01  0.49661427208E+02  0.51555123617E+02  0.00000000000E+00 0. -1.
<mgrwt>
<rscale>  0 0.16149720E+03</rscale>
<asrwt>0</asrwt>
<pdfrwt beam="1">  1        2 0.36981774E-01 0.16781836E+03</pdfrwt>
<pdfrwt beam="2">  1       -2 0.15732502E-01 0.16781836E+03</pdfrwt>
<totfact> 0.42754361E+03</totfact>
</mgrwt>
</event>
<event>
 7    1  0.6008063E-006  0.1484378E+03  0.7546771E-02  0.1211588E+00
          1   -1    0    0  501    0  0.00000000000E+00  0.00000000000E+00  0.16649504324E+03  0.16649504324E+03  0.00000000000E+00 0. -1.
         -1   -1    0    0    0  501 -0.00000000000E+00 -0.00000000000E+00 -0.12759497953E+03  0.12759497953E+03  0.00000000000E+00 0.  1.
         23    2    1    2    0    0 -0.71250017832E+02  0.36489475285E+02  0.75893323675E+02  0.16671403217E+03  0.12500290036E+03 0.  0.
          5    1    3    3  502    0  0.15862348894E+02  0.55161074574E+02  0.42003052374E+02  0.71279061928E+02  0.47000000000E+01 0. -1.
         -5    1    3    3    0  502 -0.87112366727E+02 -0.18671599290E+02  0.33890271301E+02  0.95434970245E+02  0.47000000000E+01 0. -1.
        -11    1    1    2    0    0  0.57702788400E+02 -0.35915605127E+02 -0.66384604575E+02  0.95007674455E+02  0.00000000000E+00 0.  1.
         11    1    1    2    0    0  0.13547229433E+02 -0.57387015781E+00  0.29391344603E+02  0.32368316141E+02  0.00000000000E+00 0. -1.
<mgrwt>
<rscale>  0 0.14130144E+03</rscale>
<asrwt>0</asrwt>
<pdfrwt beam="1">  1        1 0.25614622E-01 0.14843777E+03</pdfrwt>
<pdfrwt beam="2">  1       -1 0.19629997E-01 0.14843777E+03</pdfrwt>
<totfact> 0.37264490E+03</totfact>
</mgrwt>
</event>
<event>
 6    1  0.6008063E-006  0.1476023E+03  0.7546771E-02  0.1225838E+00
          1   -1    0    0  501    0  0.00000000000E+00  0.00000000000E+00  0.50091929927E+03  0.50091929927E+03  0.00000000000E+00 0. -1.
         -1   -1    0    0    0  501 -0.00000000000E+00 -0.00000000000E+00 -0.16020518783E+03  0.16020518783E+03  0.00000000000E+00 0.  1.
          5    1    1    2  502    0 -0.31119359445E+02 -0.74082039044E+02  0.30329255331E+03  0.31379137326E+03  0.47000000000E+01 0. -1.
         -5    1    1    2    0  502  0.10621090981E+02  0.64028731488E+02  0.17228343395E+03  0.18416339930E+03  0.47000000000E+01 0.  1.
        -11    1    1    2    0    0 -0.14000567524E+02  0.38553795368E+02 -0.94050398352E+02  0.10260549916E+03  0.00000000000E+00 0.  1.
         11    1    1    2    0    0  0.34498835987E+02 -0.28500487811E+02 -0.40811477473E+02  0.60564215370E+02  0.00000000000E+00 0. -1.
<mgrwt>
<rscale>  0 0.13109645E+03</rscale>
<asrwt>0</asrwt>
<pdfrwt beam="1">  1        1 0.77064507E-01 0.14760229E+03</pdfrwt>
<pdfrwt beam="2">  1       -1 0.24646952E-01 0.14760229E+03</pdfrwt>
<totfact> 0.64679426E+02</totfact>
</mgrwt>
</event>
<event>
 7    1  0.6008063E-006  0.1961896E+03  0.7546771E-02  0.1157428E+00
         -3   -1    0    0    0  501 -0.00000000000E+00  0.00000000000E+00  0.40600745757E+03  0.40600745757E+03  0.00000000000E+00 0.  1.
          3   -1    0    0  501    0  0.00000000000E+00 -0.00000000000E+00 -0.11182987778E+03  0.11182987778E+03  0.00000000000E+00 0. -1.
         23    2    1    2    0    0 -0.56169581193E+02 -0.14038907431E+03  0.27831023267E+02  0.19815383317E+03  0.12500504673E+03 0.  0.
          5    1    3    3  502    0 -0.67938051157E+02 -0.11929163229E+03  0.66269515256E+02  0.15251167490E+03  0.47000000000E+01 0.  1.
         -5    1    3    3    0  502  0.11768469964E+02 -0.21097442019E+02 -0.38438491989E+02  0.45642158268E+02  0.47000000000E+01 0.  1.
        -11    1    1    2    0    0 -0.21145659996E+01  0.53828860718E+02  0.16748783287E+03  0.17593803397E+03  0.00000000000E+00 0.  1.
         11    1    1    2    0    0  0.58284147192E+02  0.86560213590E+02  0.98858723653E+02  0.14374546822E+03  0.00000000000E+00 0. -1.
<mgrwt>
<rscale>  0 0.19115055E+03</rscale>
<asrwt>0</asrwt>
<pdfrwt beam="2">  1        3 0.17204597E-01 0.19618964E+03</pdfrwt>
<pdfrwt beam="1">  1       -3 0.62462685E-01 0.19618964E+03</pdfrwt>
<totfact> 0.18049944E+02</totfact>
</mgrwt>
</event>
<event>
 7    1  0.6008063E-006  0.1898298E+03  0.7546771E-02  0.1161103E+00
         -2   -1    0    0    0  501 -0.00000000000E+00  0.00000000000E+00  0.10884268717E+03  0.10884268717E+03  0.00000000000E+00 0. -1.
          2   -1    0    0  501    0  0.00000000000E+00 -0.00000000000E+00 -0.31279363903E+03  0.31279363903E+03  0.00000000000E+00 0.  1.
         23    2    1    2    0    0 -0.14263838617E+03  0.80010980193E+01 -0.10142027690E+03  0.21522410945E+03  0.12500247175E+03 0.  0.
          5    1    3    3  502    0 -0.53290969853E+02 -0.56740822136E+02 -0.29217369215E+02  0.83277806337E+02  0.47000000000E+01 0.  1.
         -5    1    3    3    0  502 -0.89347416317E+02  0.64741920155E+02 -0.72202907683E+02  0.13194630311E+03  0.47000000000E+01 0.  1.
        -11    1    1    2    0    0  0.80968022776E+02  0.44896553323E+02 -0.79315386401E+02  0.12191165544E+03  0.00000000000E+00 0.  1.
         11    1    1    2    0    0  0.61670363394E+02 -0.52897651342E+02 -0.23215288557E+02  0.84500561309E+02  0.00000000000E+00 0. -1.
<mgrwt>
<rscale>  0 0.18710066E+03</rscale>
<asrwt>0</asrwt>
<pdfrwt beam="2">  1        2 0.48122097E-01 0.18982978E+03</pdfrwt>
<pdfrwt beam="1">  1       -2 0.16745029E-01 0.18982978E+03</pdfrwt>
<totfact> 0.29239643E+03</totfact>
</mgrwt>
</event>
<event>
 7    1  0.6008063E-006  0.2213849E+03  0.7546771E-02  0.1136219E+00
          2   -1    0    0  501    0  0.00000000000E+00  0.00000000000E+00  0.81821497662E+03  0.81821497662E+03  0.00000000000E+00 0. -1.
         -2   -1    0    0    0  501 -0.00000000000E+00 -0.00000000000E+00 -0.72699799332E+02  0.72699799332E+02  0.00000000000E+00 0.  1.
         23    2    1    2    0    0  0.10570545701E+03 -0.14904108675E+03  0.60227605125E+03  0.64167570761E+03  0.12499753057E+03 0.  0.
          5    1    3    3  502    0  0.10609335666E+03 -0.14970744950E+03  0.60749020151E+03  0.63461370588E+03  0.47000000000E+01 0.  1.
         -5    1    3    3    0  502 -0.38789964783E+00  0.66636275261E+00 -0.52141502620E+01  0.70620017282E+01  0.47000000000E+01 0.  1.
        -11    1    1    2    0    0 -0.97631506742E+02  0.75142515288E+02  0.11837280700E+03  0.17085207096E+03  0.00000000000E+00 0. -1.
         11    1    1    2    0    0 -0.80739502650E+01  0.73898571461E+02  0.24866319040E+02  0.78386997387E+02  0.00000000000E+00 0.  1.
<mgrwt>
<rscale>  0 0.21689580E+03</rscale>
<asrwt>0</asrwt>
<pdfrwt beam="1">  1        2 0.12587922E+00 0.22138490E+03</pdfrwt>
<pdfrwt beam="2">  1       -2 0.11184585E-01 0.22138490E+03</pdfrwt>
<totfact> 0.19041333E+03</totfact>
</mgrwt>
</event>
<event>
 6    1  0.6008063E-006  0.1592803E+03  0.7546771E-02  0.1212407E+00
         -2   -1    0    0    0  501 -0.00000000000E+00  0.00000000000E+00  0.67579208151E+02  0.67579208151E+02  0.00000000000E+00 0.  1.
          2   -1    0    0  501    0  0.00000000000E+00 -0.00000000000E+00 -0.24367799317E+03  0.24367799317E+03  0.00000000000E+00 0. -1.
          5    1    1    2  502    0 -0.40341626252E+02 -0.34918100560E+02 -0.93535467487E+02  0.10778540826E+03  0.47000000000E+01 0. -1.
         -5    1    1    2    0  502  0.74420395258E+02  0.29925788227E+02 -0.71889198587E+01  0.80670432006E+02  0.47000000000E+01 0.  1.
        -11    1    1    2    0    0  0.22294595690E+02  0.25198284514E+02 -0.12290888460E+02  0.35819945261E+02  0.00000000000E+00 0.  1.
         11    1    1    2    0    0 -0.56373364696E+02 -0.20205972181E+02 -0.63083509211E+02  0.86981415792E+02  0.00000000000E+00 0. -1.
<mgrwt>
<rscale>  0 0.14068764E+03</rscale>
<asrwt>0</asrwt>
<pdfrwt beam="2">  1        2 0.37488923E-01 0.15928026E+03</pdfrwt>
<pdfrwt beam="1">  1       -2 0.10396801E-01 0.15928026E+03</pdfrwt>
<totfact> 0.81996110E+03</totfact>
</mgrwt>
</event>
<event>
 7    1  0.6008063E-006  0.2124243E+03  0.7546771E-02  0.1143523E+00
          2   -1    0    0  501    0  0.00000000000E+00  0.00000000000E+00  0.12916089432E+04  0.12916089432E+04  0.00000000000E+00 0. -1.
         -2   -1    0    0    0  501 -0.00000000000E+00 -0.00000000000E+00 -0.33274680546E+02  0.33274680546E+02  0.00000000000E+00 0.  1.
         23    2    1    2    0    0 -0.15717176823E+03  0.69262593081E+02  0.79139802126E+03  0.81941130734E+03  0.12499516396E+03 0.  0.
          5    1    3    3  502    0 -0.99208593289E+02 -0.24288734493E+02  0.37473488130E+03  0.38843353212E+03  0.47000000000E+01 0.  1.
         -5    1    3    3    0  502 -0.57963174942E+02  0.93551327574E+02  0.41666313995E+03  0.43097777522E+03  0.47000000000E+01 0.  1.
        -11    1    1    2    0    0  0.54251603723E+02 -0.42970305820E+02  0.29787217056E+03  0.30580633362E+03  0.00000000000E+00 0. -1.
         11    1    1    2    0    0  0.10292016451E+03 -0.26292287261E+02  0.16906407080E+03  0.19966598275E+03  0.00000000000E+00 0.  1.
<mgrwt>
<rscale>  0 0.20754755E+03</rscale>
<asrwt>0</asrwt>
<pdfrwt beam="1">  1        2 0.19870903E+00 0.21242425E+03</pdfrwt>
<pdfrwt beam="2">  1       -2 0.51191826E-02 0.21242425E+03</pdfrwt>
<totfact> 0.33386138E+03</totfact>
</mgrwt>
</event>
<event>
 6    1  0.6008063E-006  0.4653215E+03  0.7546771E-02  0.1065101E+00
          2   -1    0    0  501    0  0.00000000000E+00  0.00000000000E+00  0.56851912855E+03  0.56851912855E+03  0.00000000000E+00 0. -1.
         -2   -1    0    0    0  501 -0.00000000000E+00 -0.00000000000E+00 -0.16072803272E+03  0.16072803272E+03  0.00000000000E+00 0.  1.
          5    1    1    2  502    0  0.15371353221E+03  0.20068301352E+03  0.22687747100E+03  0.33970133757E+03  0.47000000000E+01 0. -1.
         -5    1    1    2    0  502 -0.48975905384E+02 -0.19932882108E+03  0.95856303122E+02  0.22658583158E+03  0.47000000000E+01 0.  1.
        -11    1    1    2    0    0 -0.98522476710E+02 -0.13895966368E+02  0.10097771642E+03  0.14176133292E+03  0.00000000000E+00 0.  1.
         11    1    1    2    0    0 -0.62151501139E+01  0.12541773932E+02 -0.15920394714E+02  0.21198659206E+02  0.00000000000E+00 0. -1.
<mgrwt>
<rscale>  0 0.34400845E+03</rscale>
<asrwt>0</asrwt>
<pdfrwt beam="1">  1        2 0.87464481E-01 0.46532147E+03</pdfrwt>
<pdfrwt beam="2">  1       -2 0.24727390E-01 0.46532147E+03</pdfrwt>
<totfact> 0.77924537E+02</totfact>
</mgrwt>
</event>
<event>
 7    1  0.6008063E-006  0.1192750E+03  0.7546771E-02  0.1308266E+00
          2   -1    0    0  501    0  0.00000000000E+00  0.00000000000E+00  0.60598130900E+02  0.60598130900E+02  0.00000000000E+00 0. -1.
         -2   -1    0    0    0  501 -0.00000000000E+00 -0.00000000000E+00 -0.14649409447E+03  0.14649409447E+03  0.00000000000E+00 0.  1.
         23    2    1    2    0    0 -0.62722379971E+01  0.11753140141E+02 -0.55030961180E+01  0.11940185533E+03  0.11852865357E+03 0.  0.
          5    1    3    3  502    0 -0.51072729822E+02  0.83604072778E+01  0.31708016606E+02  0.60875351813E+02  0.47000000000E+01 0. -1.
         -5    1    3    3    0  502  0.44800491824E+02  0.33927328635E+01 -0.37211112724E+02  0.58526503519E+02  0.47000000000E+01 0.  1.
        -11    1    1    2    0    0 -0.93944655991E+01 -0.10419973753E+02 -0.15442406174E+02  0.20863838222E+02  0.00000000000E+00 0. -1.
         11    1    1    2    0    0  0.15666703596E+02 -0.13331663881E+01 -0.64950461275E+02  0.66826531812E+02  0.00000000000E+00 0.  1.
<mgrwt>
<rscale>  0 0.87800972E+02</rscale>
<asrwt>0</asrwt>
<pdfrwt beam="1">  1        2 0.93227894E-02 0.11927497E+03</pdfrwt>
<pdfrwt beam="2">  1       -2 0.22537553E-01 0.11927497E+03</pdfrwt>
<totfact> 0.11055086E+04</totfact>
</mgrwt>
</event>
<event>
 7    1  0.6008063E-006  0.1624343E+03  0.7546771E-02  0.1193383E+00
         -4   -1    0    0    0  501 -0.00000000000E+00  0.00000000000E+00  0.17261295038E+03  0.17261295038E+03  0.00000000000E+00 0. -1.
          4   -1    0    0  501    0  0.00000000000E+00 -0.00000000000E+00 -0.14035776904E+03  0.14035776904E+03  0.00000000000E+00 0.  1.
         23    2    1    2    0    0  0.10064271026E+03  0.24984292336E+02 -0.23696369349E+02  0.16415369373E+03  0.12502698609E+03 0.  0.
          5    1    3    3  502    0  0.21405412997E+02 -0.69061846239E+01  0.47560364843E+02  0.52820123018E+02  0.47000000000E+01 0. -1.
         -5    1    3    3    0  502  0.79237297268E+02  0.31890476960E+02 -0.71256734192E+02  0.11133357071E+03  0.47000000000E+01 0. -1.
        -11    1    1    2    0    0 -0.10342308228E+03 -0.44802910257E+02  0.31125675061E+02  0.11692921946E+03  0.00000000000E+00 0.  1.
         11    1    1    2    0    0  0.27803720196E+01  0.19818617921E+02  0.24825875635E+02  0.31887806226E+02  0.00000000000E+00 0. -1.
<mgrwt>
<rscale>  0 0.15591866E+03</rscale>
<asrwt>0</asrwt>
<pdfrwt beam="2">  1        4 0.21593503E-01 0.16243435E+03</pdfrwt>
<pdfrwt beam="1">  1       -4 0.26555838E-01 0.16243435E+03</pdfrwt>
<totfact> 0.45093546E+02</totfact>
</mgrwt>
</event>
<event>
 7    1  0.6008063E-006  0.1905922E+03  0.7546771E-02  0.1167576E+00
         -1   -1    0    0    0  501 -0.00000000000E+00  0.00000000000E+00  0.18795685376E+03  0.18795685376E+03  0.00000000000E+00 0.  1.
          1   -1    0    0  501    0  0.00000000000E+00 -0.00000000000E+00 -0.15649351608E+03  0.15649351608E+03  0.00000000000E+00 0. -1.
         23    2    1    2    0    0  0.10067164081E+03 -0.10269413343E+03  0.17140089494E+02  0.19136136243E+03  0.12507807186E+03 0.  0.
          5    1    3    3  502    0  0.23029132267E+02  0.21056894480E+02 -0.23850125122E+02  0.39555684881E+02  0.47000000000E+01 0.  1.
         -5    1    3    3    0  502  0.77642508544E+02 -0.12375102791E+03  0.40990214615E+02  0.15180567755E+03  0.47000000000E+01 0.  1.
        -11    1    1    2    0    0 -0.95929454374E+02  0.71378605836E+02  0.19004275206E+02  0.12107240835E+03  0.00000000000E+00 0.  1.
         11    1    1    2    0    0 -0.47421864367E+01  0.31315527598E+02 -0.46810270163E+01  0.32016599052E+02  0.00000000000E+00 0. -1.
<mgrwt>
<rscale>  0 0.18023434E+03</rscale>
<asrwt>0</asrwt>
<pdfrwt beam="2">  1        1 0.24075926E-01 0.19059220E+03</pdfrwt>
<pdfrwt beam="1">  1       -1 0.28916439E-01 0.19059220E+03</pdfrwt>
<totfact> 0.21547692E+03</totfact>
</mgrwt>
</event>
<event>
 6    1  0.6008063E-006  0.1533852E+03  0.7546771E-02  0.1209205E+00
          1   -1    0    0  501    0  0.00000000000E+00  0.00000000000E+00  0.30739088132E+03  0.30739088132E+03  0.00000000000E+00 0. -1.
         -1   -1    0    0    0  501 -0.00000000000E+00 -0.00000000000E+00 -0.60270530151E+02  0.60270530151E+02  0.00000000000E+00 0.  1.
          5    1    1    2  502    0  0.36621953834E+02 -0.20223918781E+02  0.93794785109E+02  0.10280917326E+03  0.47000000000E+01 0. -1.
         -5    1    1    2    0  502 -0.34476261011E+02  0.93455080210E+02  0.71614923020E+02  0.12277317211E+03  0.47000000000E+01 0.  1.
        -11    1    1    2    0    0 -0.38116450932E+02 -0.50779626667E+02  0.18810549340E+02  0.66221379347E+02  0.00000000000E+00 0.  1.
         11    1    1    2    0    0  0.35970758109E+02 -0.22451534761E+02  0.62900093703E+02  0.75857686756E+02  0.00000000000E+00 0. -1.
<mgrwt>
<rscale>  0 0.14310963E+03</rscale>
<asrwt>0</asrwt>
<pdfrwt beam="1">  1        1 0.47290904E-01 0.15338521E+03</pdfrwt>
<pdfrwt beam="2">  1       -1 0.92723894E-02 0.15338521E+03</pdfrwt>
<totfact> 0.56126714E+03</totfact>
</mgrwt>
</event>
<event>
 7    1  0.6008063E-006  0.1335053E+03  0.7546771E-02  0.1236630E+00
         -1   -1    0    0    0  501 -0.00000000000E+00  0.00000000000E+00  0.62266881774E+02  0.62266881774E+02  0.00000000000E+00 0.  1.
          1   -1    0    0  501    0  0.00000000000E+00 -0.00000000000E+00 -0.22632150319E+03  0.22632150319E+03  0.00000000000E+00 0. -1.
         23    2    1    2    0    0 -0.26862907372E+02 -0.38394205326E+02 -0.12138840968E+03  0.18044062944E+03  0.12501177526E+03 0.  0.
          5    1    3    3  502    0 -0.47431357085E+02  0.13163945715E+02 -0.11397762968E+03  0.12424175292E+03  0.47000000000E+01 0.  1.
         -5    1    3    3    0  502  0.20568449713E+02 -0.51558151041E+02 -0.74107800009E+01  0.56198876524E+02  0.47000000000E+01 0.  1.
        -11    1    1    2    0    0  0.17109789563E+02  0.14818094508E+02  0.26249623002E+02  0.34660691446E+02  0.00000000000E+00 0.  1.
         11    1    1    2    0    0  0.97531178083E+01  0.23576110818E+02 -0.68915834737E+02  0.73487064071E+02  0.00000000000E+00 0. -1.
<mgrwt>
<rscale>  0 0.12400638E+03</rscale>
<asrwt>0</asrwt>
<pdfrwt beam="2">  1        1 0.34818693E-01 0.13350534E+03</pdfrwt>
<pdfrwt beam="1">  1       -1 0.95795202E-02 0.13350534E+03</pdfrwt>
<totfact> 0.77352950E+03</totfact>
</mgrwt>
</event>
<event>
 7    1  0.6008063E-006  0.1942650E+03  0.7546771E-02  0.1159120E+00
          2   -1    0    0  501    0  0.00000000000E+00  0.00000000000E+00  0.15411422303E+04  0.15411422303E+04  0.00000000000E+00 0. -1.
         -2   -1    0    0    0  501 -0.00000000000E+00 -0.00000000000E+00 -0.22256574624E+02  0.22256574624E+02  0.00000000000E+00 0.  1.
         23    2    1    2    0    0  0.26466493022E+02  0.14633280666E+03  0.85876704590E+03  0.88046564119E+03  0.12500056248E+03 0.  0.
          5    1    3    3  502    0  0.15233934681E+02  0.16622357431E+03  0.68095199886E+03  0.70112770889E+03  0.47000000000E+01 0. -1.
         -5    1    3    3    0  502  0.11232558341E+02 -0.19890767651E+02  0.17781504705E+03  0.17933793230E+03  0.47000000000E+01 0. -1.
        -11    1    1    2    0    0 -0.55105787077E+02 -0.10309565027E+03  0.36409808587E+03  0.38240394481E+03  0.00000000000E+00 0.  1.
         11    1    1    2    0    0  0.28639294055E+02 -0.43237156388E+02  0.29602052393E+03  0.30052921895E+03  0.00000000000E+00 0. -1.
<mgrwt>
<rscale>  0 0.18927100E+03</rscale>
<asrwt>0</asrwt>
<pdfrwt beam="1">  1        2 0.23709872E+00 0.19426504E+03</pdfrwt>
<pdfrwt beam="2">  1       -2 0.34240896E-02 0.19426504E+03</pdfrwt>
<totfact> 0.44840831E+03</totfact>
</mgrwt>
</event>
<event>
 7    1  0.6008063E-006  0.1270504E+03  0.7546771E-02  0.1251907E+00
         -1   -1    0    0    0  501 -0.00000000000E+00  0.00000000000E+00  0.13468001614E+02  0.13468001614E+02  0.00000000000E+00 0.  1.
          1   -1    0    0  501    0  0.00000000000E+00 -0.00000000000E+00 -0.83338894741E+03  0.83338894741E+03  0.00000000000E+00 0. -1.
         23    2    1    2    0    0  0.20987797773E+02 -0.87263525301E+01 -0.50495300343E+03  0.52069121452E+03  0.12500067332E+03 0.  0.
          5    1    3    3  502    0 -0.18745790409E+02  0.47534462136E+02 -0.13649817808E+03  0.14582445737E+03  0.47000000000E+01 0.  1.
         -5    1    3    3    0  502  0.39733588182E+02 -0.56260814666E+02 -0.36845482535E+03  0.37486675715E+03  0.47000000000E+01 0.  1.
        -11    1    1    2    0    0 -0.51575524279E+02  0.14129801748E+02 -0.20966664137E+03  0.21637880327E+03  0.00000000000E+00 0.  1.
         11    1    1    2    0    0  0.30587726506E+02 -0.54034492177E+01 -0.10530130100E+03  0.10978693123E+03  0.00000000000E+00 0. -1.
<mgrwt>
<rscale>  0 0.11481329E+03</rscale>
<asrwt>0</asrwt>
<pdfrwt beam="2">  1        1 0.12821366E+00 0.12705040E+03</pdfrwt>
<pdfrwt beam="1">  1       -1 0.20720007E-02 0.12705040E+03</pdfrwt>
<totfact> 0.13391843E+04</totfact>
</mgrwt>
</event>
<event>
 6    1  0.6008063E-006  0.5807788E+03  0.7546771E-02  0.1023717E+00
         -1   -1    0    0    0  501 -0.00000000000E+00  0.00000000000E+00  0.99955602614E+03  0.99955602614E+03  0.00000000000E+00 0.  1.
          1   -1    0    0  501    0  0.00000000000E+00 -0.00000000000E+00 -0.23326140068E+03  0.23326140068E+03  0.00000000000E+00 0. -1.
          5    1    1    2  502    0 -0.49467409924E+02  0.24007692940E+02 -0.15964527069E+03  0.16891446480E+03  0.47000000000E+01 0. -1.
         -5    1    1    2    0  502  0.19673982709E+03 -0.18394496376E+03  0.35125435576E+03  0.44265564686E+03  0.47000000000E+01 0.  1.
        -11    1    1    2    0    0  0.16511190962E+01  0.34145452243E+02  0.42884081918E+02  0.54842342994E+02  0.00000000000E+00 0.  1.
         11    1    1    2    0    0 -0.14892353626E+03  0.12579181858E+03  0.53180145847E+03  0.56640497217E+03  0.00000000000E+00 0. -1.
<mgrwt>
<rscale>  0 0.46368717E+03</rscale>
<asrwt>0</asrwt>
<pdfrwt beam="2">  1        1 0.35886370E-01 0.58077875E+03</pdfrwt>
<pdfrwt beam="1">  1       -1 0.15377785E+00 0.58077875E+03</pdfrwt>
<totfact> 0.41158118E+01</totfact>
</mgrwt>
</event>
<event>
 6    1  0.6008063E-006  0.3143899E+03  0.7546771E-02  0.1089880E+00
          2   -1    0    0  501    0  0.00000000000E+00  0.00000000000E+00  0.10201767973E+04  0.10201767973E+04  0.00000000000E+00 0. -1.
         -2   -1    0    0    0  501 -0.00000000000E+00 -0.00000000000E+00 -0.88482737231E+02  0.88482737231E+02  0.00000000000E+00 0.  1.
          5    1    1    2  502    0 -0.13168115542E+03 -0.74597625399E+02  0.68427691550E+03  0.70082930838E+03  0.47000000000E+01 0. -1.
         -5    1    1    2    0  502  0.28174762109E+01 -0.93597454912E+02  0.72069771516E+02  0.11825634742E+03  0.47000000000E+01 0.  1.
        -11    1    1    2    0    0  0.38524954494E+01  0.67790459429E+02  0.71159054827E+02  0.98356490353E+02  0.00000000000E+00 0. -1.
         11    1    1    2    0    0  0.12501118376E+03  0.10040462088E+03  0.10418831822E+03  0.19121738836E+03  0.00000000000E+00 0.  1.
<mgrwt>
<rscale>  0 0.29090066E+03</rscale>
<asrwt>0</asrwt>
<pdfrwt beam="1">  1        2 0.15695027E+00 0.31438989E+03</pdfrwt>
<pdfrwt beam="2">  1       -2 0.13612730E-01 0.31438989E+03</pdfrwt>
<totfact> 0.10261619E+03</totfact>
</mgrwt>
</event>
<event>
 7    1  0.6008063E-006  0.1271904E+03  0.7546771E-02  0.1245385E+00
         -1   -1    0    0    0  501 -0.00000000000E+00  0.00000000000E+00  0.10428692568E+03  0.10428692568E+03  0.00000000000E+00 0.  1.
          1   -1    0    0  501    0  0.00000000000E+00 -0.00000000000E+00 -0.13327092240E+03  0.13327092240E+03  0.00000000000E+00 0. -1.
         23    2    1    2    0    0 -0.11727644663E+02 -0.20353983089E+02 -0.53920320718E+02  0.13814777381E+03  0.12500233655E+03 0.  0.
          5    1    3    3  502    0  0.53520916797E+02  0.10063171237E+02 -0.28591043066E+02  0.61687062612E+02  0.47000000000E+01 0. -1.
         -5    1    3    3    0  502 -0.65248561459E+02 -0.30417154326E+02 -0.25329277652E+02  0.76460711193E+02  0.47000000000E+01 0. -1.
        -11    1    1    2    0    0  0.11495570236E+02  0.56616391559E+02  0.25484254460E+02  0.63142783860E+02  0.00000000000E+00 0.  1.
         11    1    1    2    0    0  0.23207442684E+00 -0.36262408471E+02 -0.54793046483E+00  0.36267290421E+02  0.00000000000E+00 0. -1.
<mgrwt>
<rscale>  0 0.11862341E+03</rscale>
<asrwt>0</asrwt>
<pdfrwt beam="2">  1        1 0.20503219E-01 0.12719043E+03</pdfrwt>
<pdfrwt beam="1">  1       -1 0.16044142E-01 0.12719043E+03</pdfrwt>
<totfact> 0.67346990E+03</totfact>
</mgrwt>
</event>
<event>
 7    1  0.6008063E-006  0.1357107E+03  0.7546771E-02  0.1231584E+00
         -1   -1    0    0    0  501 -0.00000000000E+00  0.00000000000E+00  0.27799573629E+02  0.27799573629E+02  0.00000000000E+00 0.  1.
          1   -1    0    0  501    0  0.00000000000E+00 -0.00000000000E+00 -0.87393604010E+03  0.87393604010E+03  0.00000000000E+00 0. -1.
         23    2    1    2    0    0  0.22432186544E+02 -0.47770320704E+02 -0.74054272157E+03  0.75287510805E+03  0.12502879400E+03 0.  0.
          5    1    3    3  502    0  0.48426795027E+02  0.27530373955E+02 -0.30110737297E+03  0.30625286289E+03  0.47000000000E+01 0.  1.
         -5    1    3    3    0  502 -0.25994608483E+02 -0.75300694659E+02 -0.43943534859E+03  0.44662224517E+03  0.47000000000E+01 0.  1.
        -11    1    1    2    0    0 -0.58524318549E+01  0.49150408707E+02 -0.11809596768E+03  0.12804948738E+03  0.00000000000E+00 0. -1.
         11    1    1    2    0    0 -0.16579754689E+02 -0.13800880032E+01  0.12502222774E+02  0.20811018301E+02  0.00000000000E+00 0.  1.
<mgrwt>
<rscale>  0 0.12725685E+03</rscale>
<asrwt>0</asrwt>
<pdfrwt beam="2">  1        1 0.13445170E+00 0.13571074E+03</pdfrwt>
<pdfrwt beam="1">  1       -1 0.42768573E-02 0.13571074E+03</pdfrwt>
<totfact> 0.43498133E+03</totfact>
</mgrwt>
</event>
<event>
 7    1  0.6008063E-006  0.1276362E+03  0.7546771E-02  0.1244269E+00
          4   -1    0    0  501    0  0.00000000000E+00  0.00000000000E+00  0.14094490459E+03  0.14094490459E+03  0.00000000000E+00 0. -1.
         -4   -1    0    0    0  501 -0.00000000000E+00 -0.00000000000E+00 -0.90453807212E+02  0.90453807212E+02  0.00000000000E+00 0.  1.
         23    2    1    2    0    0 -0.14730256618E+02  0.21210840697E+02  0.38218940866E+02  0.13323549455E+03  0.12499651733E+03 0.  0.
          5    1    3    3  502    0 -0.15957274086E+02 -0.51786068264E+02  0.13888904235E+02  0.56137537561E+02  0.47000000000E+01 0. -1.
         -5    1    3    3    0  502  0.12270174680E+01  0.72996908961E+02  0.24330036630E+02  0.77097956991E+02  0.47000000000E+01 0. -1.
        -11    1    1    2    0    0  0.87296977453E+01  0.26541903683E+02  0.35126879543E+02  0.44884049954E+02  0.00000000000E+00 0.  1.
         11    1    1    2    0    0  0.60005588728E+01 -0.47752744380E+02 -0.22854723033E+02  0.53279167294E+02  0.00000000000E+00 0. -1.
<mgrwt>
<rscale>  0 0.11929233E+03</rscale>
<asrwt>0</asrwt>
<pdfrwt beam="1">  1        4 0.21683831E-01 0.12763624E+03</pdfrwt>
<pdfrwt beam="2">  1       -4 0.13915970E-01 0.12763624E+03</pdfrwt>
<totfact> 0.13604575E+03</totfact>
</mgrwt>
</event>
<event>
 7    1  0.6008063E-006  0.1282112E+03  0.7546771E-02  0.1242930E+00
         -1   -1    0    0    0  501 -0.00000000000E+00  0.00000000000E+00  0.15326210165E+03  0.15326210165E+03  0.00000000000E+00 0.  1.
          1   -1    0    0  501    0  0.00000000000E+00 -0.00000000000E+00 -0.86478381846E+02  0.86478381846E+02  0.00000000000E+00 0. -1.
         23    2    1    2    0    0 -0.28500489172E+02  0.19894954069E+01  0.57718849169E+02  0.14060434491E+03  0.12498752051E+03 0.  0.
          5    1    3    3  502    0  0.30834856757E+02 -0.40516065874E+02  0.70210346408E+01  0.51611286678E+02  0.47000000000E+01 0.  1.
         -5    1    3    3    0  502 -0.59335345929E+02  0.42505561281E+02  0.50697814528E+02  0.88993058236E+02  0.47000000000E+01 0.  1.
        -11    1    1    2    0    0 -0.63862399595E+01  0.41084329074E+02 -0.51968361597E+01  0.41901232230E+02  0.00000000000E+00 0. -1.
         11    1    1    2    0    0  0.34886729131E+02 -0.43073824481E+02  0.14261706800E+02  0.57234906358E+02  0.00000000000E+00 0.  1.
<mgrwt>
<rscale>  0 0.12010103E+03</rscale>
<asrwt>0</asrwt>
<pdfrwt beam="2">  1        1 0.13304366E-01 0.12821122E+03</pdfrwt>
<pdfrwt beam="1">  1       -1 0.23578785E-01 0.12821122E+03</pdfrwt>
<totfact> 0.63434898E+03</totfact>
</mgrwt>
</event>
<event>
 7    1  0.6008063E-006  0.1687813E+03  0.7546771E-02  0.1185543E+00
          3   -1    0    0  501    0  0.00000000000E+00  0.00000000000E+00  0.47379622626E+03  0.47379622626E+03  0.00000000000E+00 0. -1.
         -3   -1    0    0    0  501 -0.00000000000E+00 -0.00000000000E+00 -0.73799175926E+02  0.73799175926E+02  0.00000000000E+00 0.  1.
         23    2    1    2    0    0 -0.10475600974E+03  0.43455974471E+02  0.35752367719E+03  0.39536099724E+03  0.12499958036E+03 0.  0.
          5    1    3    3  502    0 -0.74166240574E+02  0.79440409945E+02  0.16922782474E+03  0.20117543746E+03  0.47000000000E+01 0. -1.
         -5    1    3    3    0  502 -0.30589769170E+02 -0.35984435474E+02  0.18829585245E+03  0.19418555978E+03  0.47000000000E+01 0. -1.
        -11    1    1    2    0    0 -0.69251716290E+01 -0.27221328227E+02 -0.70992822518E+01  0.28971684815E+02  0.00000000000E+00 0. -1.
         11    1    1    2    0    0  0.11168118137E+03 -0.16234646244E+02  0.49572655395E+02  0.12326272013E+03  0.00000000000E+00 0.  1.
<mgrwt>
<rscale>  0 0.16282543E+03</rscale>
<asrwt>0</asrwt>
<pdfrwt beam="1">  1        3 0.72891725E-01 0.16878133E+03</pdfrwt>
<pdfrwt beam="2">  1       -3 0.11353720E-01 0.16878133E+03</pdfrwt>
<totfact> 0.26099593E+02</totfact>
</mgrwt>
</event>
<event>
 7    1  0.6008063E-006  0.1277639E+03  0.7546771E-02  0.1243071E+00
          1   -1    0    0  501    0  0.00000000000E+00  0.00000000000E+00  0.11165576678E+03  0.11165576678E+03  0.00000000000E+00 0. -1.
         -1   -1    0    0    0  501 -0.00000000000E+00 -0.00000000000E+00 -0.14234561408E+03  0.14234561408E+03  0.00000000000E+00 0.  1.
         23    2    1    2    0    0 -0.34510789843E+01 -0.26221917275E+02  0.37785676794E+02  0.13323426401E+03  0.12499645133E+03 0.  0.
          5    1    3    3  502    0 -0.13668689446E+02 -0.61759722489E+02 -0.18188113579E+02  0.65984800285E+02  0.47000000000E+01 0.  1.
         -5    1    3    3    0  502  0.10217610462E+02  0.35537805214E+02  0.55973790373E+02  0.67249463728E+02  0.47000000000E+01 0.  1.
        -11    1    1    2    0    0 -0.72514668205E+01 -0.14700453700E+02  0.18094985722E+02  0.24415479072E+02  0.00000000000E+00 0. -1.
         11    1    1    2    0    0  0.10702545805E+02  0.40922370975E+02 -0.86570509810E+02  0.96351637774E+02  0.00000000000E+00 0.  1.
<mgrwt>
<rscale>  0 0.12001553E+03</rscale>
<asrwt>0</asrwt>
<pdfrwt beam="1">  1        1 0.17177810E-01 0.12776389E+03</pdfrwt>
<pdfrwt beam="2">  1       -1 0.21899325E-01 0.12776389E+03</pdfrwt>
<totfact> 0.51404491E+03</totfact>
</mgrwt>
</event>
<event>
 7    1  0.6008063E-006  0.1349193E+03  0.7546771E-02  0.1232847E+00
          2   -1    0    0  501    0  0.00000000000E+00  0.00000000000E+00  0.99274237341E+02  0.99274237341E+02  0.00000000000E+00 0. -1.
         -2   -1    0    0    0  501 -0.00000000000E+00 -0.00000000000E+00 -0.14589333535E+03  0.14589333535E+03  0.00000000000E+00 0.  1.
         23    2    1    2    0    0  0.77690351923E+01  0.50177644046E+02 -0.11718887752E+02  0.13542724905E+03  0.12500021434E+03 0.  0.
          5    1    3    3  502    0  0.19441590034E+02 -0.80784247406E+01 -0.56761015431E+02  0.60721818501E+02  0.47000000000E+01 0.  1.
         -5    1    3    3    0  502 -0.11672554842E+02  0.58256068786E+02  0.45042127679E+02  0.74705430544E+02  0.47000000000E+01 0.  1.
        -11    1    1    2    0    0  0.37974985122E+02 -0.42491777314E+02 -0.13034771058E+02  0.58459865641E+02  0.00000000000E+00 0. -1.
         11    1    1    2    0    0 -0.45744020314E+02 -0.76858667320E+01 -0.21865439202E+02  0.51280458007E+02  0.00000000000E+00 0.  1.
<mgrwt>
<rscale>  0 0.12643244E+03</rscale>
<asrwt>0</asrwt>
<pdfrwt beam="1">  1        2 0.15272960E-01 0.13491926E+03</pdfrwt>
<pdfrwt beam="2">  1       -2 0.22445129E-01 0.13491926E+03</pdfrwt>
<totfact> 0.62193253E+03</totfact>
</mgrwt>
</event>
<event>
 7    1  0.7749353E-006  0.1374515E+03  0.7546771E-02  0.1228972E+00
          1   -1    0    0  501    0  0.00000000000E+00  0.00000000000E+00  0.25065049489E+03  0.25065049489E+03  0.00000000000E+00 0. -1.
         -1   -1    0    0    0  501 -0.00000000000E+00 -0.00000000000E+00 -0.61541429762E+02  0.61541429762E+02  0.00000000000E+00 0.  1.
         23    2    1    2    0    0 -0.34977587977E+01  0.57059227852E+02  0.13500399060E+03  0.19266293133E+03  0.12499975132E+03 0.  0.
          5    1    3    3  502    0  0.48037898031E+02 -0.11417760645E+02  0.34096153928E+02  0.60188392718E+02  0.47000000000E+01 0.  1.
         -5    1    3    3    0  502 -0.51535656828E+02  0.68476988497E+02  0.10090783667E+03  0.13247453861E+03  0.47000000000E+01 0.  1.
        -11    1    1    2    0    0 -0.38534837965E+02 -0.13082870873E+02  0.43252658762E+01  0.40924359154E+02  0.00000000000E+00 0.  1.
         11    1    1    2    0    0  0.42032596763E+02 -0.43976356979E+02  0.49779808660E+02  0.78604634176E+02  0.00000000000E+00 0. -1.
<mgrwt>
<rscale>  0 0.12898335E+03</rscale>
<asrwt>0</asrwt>
<pdfrwt beam="1">  1        1 0.38561614E-01 0.13745155E+03</pdfrwt>
<pdfrwt beam="2">  1       -1 0.94679124E-02 0.13745155E+03</pdfrwt>
<totfact> 0.69535588E+03</totfact>
</mgrwt>
</event>
<event>
 7    1  0.6008063E-006  0.1401180E+03  0.7546771E-02  0.1224518E+00
          2   -1    0    0  501    0  0.00000000000E+00  0.00000000000E+00  0.98161651570E+03  0.98161651570E+03  0.00000000000E+00 0. -1.
         -2   -1    0    0    0  501 -0.00000000000E+00 -0.00000000000E+00 -0.16528843134E+02  0.16528843134E+02  0.00000000000E+00 0.  1.
         23    2    1    2    0    0 -0.61591244508E+02  0.14675771061E+02  0.62838932848E+03  0.64382155256E+03  0.12499673487E+03 0.  0.
          5    1    3    3  502    0 -0.43407112224E+02 -0.28659380871E+02  0.54875554967E+03  0.55123523182E+03  0.47000000000E+01 0. -1.
         -5    1    3    3    0  502 -0.18184132284E+02  0.43335151932E+02  0.79633778811E+02  0.92586320737E+02  0.47000000000E+01 0. -1.
        -11    1    1    2    0    0  0.61890014228E+02  0.19516465677E+02  0.13547189774E+03  0.15021285355E+03  0.00000000000E+00 0.  1.
         11    1    1    2    0    0 -0.29876972026E+00 -0.34192236738E+02  0.20122644635E+03  0.20411095273E+03  0.00000000000E+00 0. -1.
<mgrwt>
<rscale>  0 0.13200015E+03</rscale>
<asrwt>0</asrwt>
<pdfrwt beam="1">  1        2 0.15101788E+00 0.14011796E+03</pdfrwt>
<pdfrwt beam="2">  1       -2 0.25428997E-02 0.14011796E+03</pdfrwt>
<totfact> 0.14029148E+04</totfact>
</mgrwt>
</event>
<event>
 6    1  0.6008063E-006  0.2603161E+03  0.7546771E-02  0.1136558E+00
         -1   -1    0    0    0  501 -0.00000000000E+00  0.00000000000E+00  0.90943239862E+02  0.90943239862E+02  0.00000000000E+00 0.  1.
          1   -1    0    0  501    0  0.00000000000E+00 -0.00000000000E+00 -0.42117700204E+03  0.42117700204E+03  0.00000000000E+00 0. -1.
          5    1    1    2  502    0  0.33887506723E+02  0.11474998283E+03 -0.13009820025E+03  0.17681502588E+03  0.47000000000E+01 0. -1.
         -5    1    1    2    0  502 -0.11335648599E+03 -0.82613097596E+02 -0.13553201073E+03  0.19510415870E+03  0.47000000000E+01 0.  1.
        -11    1    1    2    0    0 -0.20580382104E+01  0.19066122470E+02 -0.34256286236E+02  0.39258702144E+02  0.00000000000E+00 0.  1.
         11    1    1    2    0    0  0.81527017480E+02 -0.51203007702E+02 -0.30347264970E+02  0.10094235517E+03  0.00000000000E+00 0. -1.
<mgrwt>
<rscale>  0 0.21644954E+03</rscale>
<asrwt>0</asrwt>
<pdfrwt beam="2">  1        1 0.64796460E-01 0.26031610E+03</pdfrwt>
<pdfrwt beam="1">  1       -1 0.13991268E-01 0.26031610E+03</pdfrwt>
<totfact> 0.20290383E+03</totfact>
</mgrwt>
</event>
<event>
 7    1  0.6008063E-006  0.1962165E+03  0.7546771E-02  0.1157089E+00
         -2   -1    0    0    0  501 -0.00000000000E+00  0.00000000000E+00  0.28611270466E+02  0.28611270466E+02  0.00000000000E+00 0. -1.
          2   -1    0    0  501    0  0.00000000000E+00 -0.00000000000E+00 -0.13196935042E+04  0.13196935042E+04  0.00000000000E+00 0.  1.
         23    2    1    2    0    0  0.13028635304E+03  0.76823415225E+02 -0.85537131083E+03  0.87758817088E+03  0.12499818943E+03 0.  0.
          5    1    3    3  502    0  0.78998689652E+02  0.68820037974E+02 -0.77320463697E+03  0.78028487825E+03  0.47000000000E+01 0. -1.
         -5    1    3    3    0  502  0.51287663391E+02  0.80033772512E+01 -0.82166673864E+02  0.97303292634E+02  0.47000000000E+01 0. -1.
        -11    1    1    2    0    0 -0.76776798063E+02  0.88001566302E+00 -0.26224047244E+03  0.27324991589E+03  0.00000000000E+00 0.  1.
         11    1    1    2    0    0 -0.53509554980E+02 -0.77703430888E+02 -0.17347045050E+03  0.19746668793E+03  0.00000000000E+00 0. -1.
<mgrwt>
<rscale>  0 0.19152947E+03</rscale>
<asrwt>0</asrwt>
<pdfrwt beam="2">  1        2 0.20302979E+00 0.19621651E+03</pdfrwt>
<pdfrwt beam="1">  1       -2 0.44017335E-02 0.19621651E+03</pdfrwt>
<totfact> 0.40443747E+03</totfact>
</mgrwt>
</event>
<event>
 7    1  0.6008063E-006  0.1366722E+03  0.7546771E-02  0.1229627E+00
         -2   -1    0    0    0  501 -0.00000000000E+00  0.00000000000E+00  0.19337835680E+02  0.19337835680E+02  0.00000000000E+00 0.  1.
          2   -1    0    0  501    0  0.00000000000E+00 -0.00000000000E+00 -0.10548961567E+04  0.10548961567E+04  0.00000000000E+00 0. -1.
         23    2    1    2    0    0  0.17492953665E+02  0.52722225050E+02 -0.84261461463E+03  0.85362677287E+03  0.12487450550E+03 0.  0.
          5    1    3    3  502    0  0.42117944000E+02  0.17516640794E+02 -0.75025540778E+03  0.75165552005E+03  0.47000000000E+01 0. -1.
         -5    1    3    3    0  502 -0.24624990334E+02  0.35205584256E+02 -0.92359206848E+02  0.10197125282E+03  0.47000000000E+01 0.  1.
        -11    1    1    2    0    0 -0.51817662331E+02 -0.42525194632E+02 -0.94557909051E+02  0.11590798278E+03  0.00000000000E+00 0.  1.
         11    1    1    2    0    0  0.34324708666E+02 -0.10197030418E+02 -0.98385797317E+02  0.10469923671E+03  0.00000000000E+00 0. -1.
<mgrwt>
<rscale>  0 0.12854778E+03</rscale>
<asrwt>0</asrwt>
<pdfrwt beam="2">  1        2 0.16229177E+00 0.13667216E+03</pdfrwt>
<pdfrwt beam="1">  1       -2 0.29750507E-02 0.13667216E+03</pdfrwt>
<totfact> 0.10069673E+04</totfact>
</mgrwt>
</event>
<event>
 6    1  0.6008063E-006  0.1524006E+03  0.7546771E-02  0.1217377E+00
         -2   -1    0    0    0  501 -0.00000000000E+00  0.00000000000E+00  0.14853726734E+02  0.14853726734E+02  0.00000000000E+00 0.  1.
          2   -1    0    0  501    0  0.00000000000E+00 -0.00000000000E+00 -0.10815683263E+04  0.10815683263E+04  0.00000000000E+00 0. -1.
          5    1    1    2  502    0 -0.23258670308E+01 -0.41690491924E+02 -0.64861154747E+03  0.64997118112E+03  0.47000000000E+01 0. -1.
         -5    1    1    2    0  502  0.25395509369E+02  0.33857163199E+02 -0.52930510832E+02  0.67933558519E+02  0.47000000000E+01 0.  1.
        -11    1    1    2    0    0  0.24984471504E+02 -0.28947695557E+02 -0.11782020228E+03  0.12387006482E+03  0.00000000000E+00 0. -1.
         11    1    1    2    0    0 -0.48054113843E+02  0.36781024281E+02 -0.24735233898E+03  0.25464724856E+03  0.00000000000E+00 0.  1.
<mgrwt>
<rscale>  0 0.13703389E+03</rscale>
<asrwt>0</asrwt>
<pdfrwt beam="2">  1        2 0.16639519E+00 0.15240064E+03</pdfrwt>
<pdfrwt beam="1">  1       -2 0.22851878E-02 0.15240064E+03</pdfrwt>
<totfact> 0.14390175E+04</totfact>
</mgrwt>
</event>
<event>
 7    1  0.6008063E-006  0.1333361E+03  0.7546771E-02  0.1235342E+00
         -2   -1    0    0    0  501 -0.00000000000E+00  0.00000000000E+00  0.48471526937E+02  0.48471526937E+02  0.00000000000E+00 0. -1.
          2   -1    0    0  501    0  0.00000000000E+00 -0.00000000000E+00 -0.28713639746E+03  0.28713639746E+03  0.00000000000E+00 0.  1.
         23    2    1    2    0    0  0.43378493158E+01 -0.46207322419E+02 -0.14173863866E+03  0.19459792831E+03  0.12499831371E+03 0.  0.
          5    1    3    3  502    0 -0.43719089941E+02 -0.10788737990E+02 -0.12420610042E+03  0.13220060921E+03  0.47000000000E+01 0. -1.
         -5    1    3    3    0  502  0.48056939257E+02 -0.35418584430E+02 -0.17532538238E+02  0.62397319100E+02  0.47000000000E+01 0. -1.
        -11    1    1    2    0    0  0.55898338959E+01  0.65653293165E+02 -0.33473333032E+02  0.73905785773E+02  0.00000000000E+00 0. -1.
         11    1    1    2    0    0 -0.99276832116E+01 -0.19445970746E+02 -0.63452898831E+02  0.67104210317E+02  0.00000000000E+00 0.  1.
<mgrwt>
<rscale>  0 0.12482546E+03</rscale>
<asrwt>0</asrwt>
<pdfrwt beam="2">  1        2 0.44174831E-01 0.13333609E+03</pdfrwt>
<pdfrwt beam="1">  1       -2 0.74571579E-02 0.13333609E+03</pdfrwt>
<totfact> 0.11407295E+04</totfact>
</mgrwt>
</event>
<event>
 7    1  0.6008063E-006  0.2531194E+03  0.7546771E-02  0.1113655E+00
         -1   -1    0    0    0  501 -0.00000000000E+00  0.00000000000E+00  0.13749459980E+03  0.13749459980E+03  0.00000000000E+00 0.  1.
          1   -1    0    0  501    0  0.00000000000E+00 -0.00000000000E+00 -0.43989219404E+03  0.43989219404E+03  0.00000000000E+00 0. -1.
         23    2    1    2    0    0  0.11665424838E+03 -0.18664329709E+03 -0.15568418452E+03  0.29716489160E+03  0.12500189390E+03 0.  0.
          5    1    3    3  502    0  0.13542179634E+03 -0.12085199972E+03 -0.13250944339E+03  0.22477791562E+03  0.47000000000E+01 0.  1.
         -5    1    3    3    0  502 -0.18767547967E+02 -0.65791297362E+02 -0.23174741122E+02  0.72386975979E+02  0.47000000000E+01 0.  1.
        -11    1    1    2    0    0 -0.11771607339E+03  0.10728991497E+03 -0.93870264109E+02  0.18487786853E+03  0.00000000000E+00 0.  1.
         11    1    1    2    0    0  0.10618250145E+01  0.79353382116E+02 -0.52843145618E+02  0.95344033712E+02  0.00000000000E+00 0. -1.
<mgrwt>
<rscale>  0 0.24944677E+03</rscale>
<asrwt>0</asrwt>
<pdfrwt beam="2">  1        1 0.67675722E-01 0.25311935E+03</pdfrwt>
<pdfrwt beam="1">  1       -1 0.21153015E-01 0.25311935E+03</pdfrwt>
<totfact> 0.98557271E+02</totfact>
</mgrwt>
</event>
<event>
 7    1  0.6008063E-006  0.1755800E+03  0.7546771E-02  0.1178064E+00
          2   -1    0    0  501    0  0.00000000000E+00  0.00000000000E+00  0.10582460279E+04  0.10582460279E+04  0.00000000000E+00 0. -1.
         -2   -1    0    0    0  501 -0.00000000000E+00 -0.00000000000E+00 -0.30797072218E+02  0.30797072218E+02  0.00000000000E+00 0.  1.
         23    2    1    2    0    0  0.27264679841E+02 -0.12024632629E+03  0.76574712557E+03  0.78561886840E+03  0.12500321725E+03 0.  0.
          5    1    3    3  502    0 -0.38464810865E+02 -0.16146059685E+02  0.33429137358E+03  0.33691697697E+03  0.47000000000E+01 0.  1.
         -5    1    3    3    0  502  0.65729490706E+02 -0.10410026660E+03  0.43145575199E+03  0.44870189144E+03  0.47000000000E+01 0.  1.
        -11    1    1    2    0    0  0.37449845529E+01  0.64323647028E+02  0.47961065882E+02  0.80323224019E+02  0.00000000000E+00 0.  1.
         11    1    1    2    0    0 -0.31009664394E+02  0.55922679257E+02  0.21374076428E+03  0.22310100774E+03  0.00000000000E+00 0. -1.
<mgrwt>
<rscale>  0 0.16979334E+03</rscale>
<asrwt>0</asrwt>
<pdfrwt beam="1">  1        2 0.16280705E+00 0.17558003E+03</pdfrwt>
<pdfrwt beam="2">  1       -2 0.47380119E-02 0.17558003E+03</pdfrwt>
<totfact> 0.50703401E+03</totfact>
</mgrwt>
</event>
<event>
 7    1  0.6008063E-006  0.1393852E+03  0.7546771E-02  0.1226149E+00
          4   -1    0    0  501    0  0.00000000000E+00  0.00000000000E+00  0.16643579678E+04  0.16643579678E+04  0.00000000000E+00 0. -1.
         -4   -1    0    0    0  501 -0.00000000000E+00 -0.00000000000E+00 -0.36278532034E+02  0.36278532034E+02  0.00000000000E+00 0.  1.
         23    2    1    2    0    0 -0.31312172409E+02 -0.53131179797E+02  0.15728357136E+04  0.15789998167E+04  0.12499945934E+03 0.  0.
          5    1    3    3  502    0  0.85571209660E+01  0.36160347834E+02  0.62504435735E+03  0.62616558013E+03  0.47000000000E+01 0. -1.
         -5    1    3    3    0  502 -0.39869293375E+02 -0.89291527632E+02  0.94779135622E+03  0.95283423657E+03  0.47000000000E+01 0. -1.
        -11    1    1    2    0    0  0.19098973891E+02  0.66365784796E+02  0.61364435014E+01  0.69331407991E+02  0.00000000000E+00 0.  1.
         11    1    1    2    0    0  0.12213198519E+02 -0.13234604998E+02  0.49107278698E+02  0.52305275151E+02  0.00000000000E+00 0. -1.
<mgrwt>
<rscale>  0 0.13088436E+03</rscale>
<asrwt>0</asrwt>
<pdfrwt beam="1">  1        4 0.25605501E+00 0.13938522E+03</pdfrwt>
<pdfrwt beam="2">  1       -4 0.55813139E-02 0.13938522E+03</pdfrwt>
<totfact> 0.23019357E+01</totfact>
</mgrwt>
</event>
<event>
 7    1  0.6008063E-006  0.1581198E+03  0.7546771E-02  0.1198855E+00
          1   -1    0    0  501    0  0.00000000000E+00  0.00000000000E+00  0.52205588327E+03  0.52205588327E+03  0.00000000000E+00 0. -1.
         -1   -1    0    0    0  501 -0.00000000000E+00 -0.00000000000E+00 -0.41922549707E+02  0.41922549707E+02  0.00000000000E+00 0.  1.
         23    2    1    2    0    0  0.19244326232E+02  0.94903295056E+02  0.31239902632E+03  0.35013574281E+03  0.12499962896E+03 0.  0.
          5    1    3    3  502    0  0.29138949760E+02 -0.12005188494E+02  0.16308190297E+03  0.16616558013E+03  0.47000000000E+01 0.  1.
         -5    1    3    3    0  502 -0.98946235284E+01  0.10690848355E+03  0.14931712335E+03  0.18397016268E+03  0.47000000000E+01 0.  1.
        -11    1    1    2    0    0 -0.32662040354E+02 -0.41933867150E+02  0.20801770150E+02  0.57078645181E+02  0.00000000000E+00 0.  1.
         11    1    1    2    0    0  0.13417714123E+02 -0.52969427906E+02  0.14693253709E+03  0.15676404499E+03  0.00000000000E+00 0. -1.
<mgrwt>
<rscale>  0 0.15132478E+03</rscale>
<asrwt>0</asrwt>
<pdfrwt beam="1">  1        1 0.80316285E-01 0.15811985E+03</pdfrwt>
<pdfrwt beam="2">  1       -1 0.64496234E-02 0.15811985E+03</pdfrwt>
<totfact> 0.49599022E+03</totfact>
</mgrwt>
</event>
<event>
 7    1  0.6008063E-006  0.1850265E+03  0.7546771E-02  0.1168134E+00
         -1   -1    0    0    0  501 -0.00000000000E+00  0.00000000000E+00  0.41347122552E+03  0.41347122552E+03  0.00000000000E+00 0.  1.
          1   -1    0    0  501    0  0.00000000000E+00 -0.00000000000E+00 -0.76625160351E+02  0.76625160351E+02  0.00000000000E+00 0. -1.
         23    2    1    2    0    0  0.10698579138E+03  0.84650451802E+02  0.13145570245E+03  0.22697007650E+03  0.12499262126E+03 0.  0.
          5    1    3    3  502    0  0.38617885323E+02  0.10621846020E+03  0.77455923437E+02  0.13709563242E+03  0.47000000000E+01 0.  1.
         -5    1    3    3    0  502  0.68367906057E+02 -0.21568008393E+02  0.53999779012E+02  0.89874444076E+02  0.47000000000E+01 0.  1.
        -11    1    1    2    0    0 -0.89149296534E+02 -0.20342512533E+02  0.81894728102E+02  0.12275243940E+03  0.00000000000E+00 0. -1.
         11    1    1    2    0    0 -0.17836494846E+02 -0.64307939269E+02  0.12349563462E+03  0.14037386997E+03  0.00000000000E+00 0.  1.
<mgrwt>
<rscale>  0 0.17965814E+03</rscale>
<asrwt>0</asrwt>
<pdfrwt beam="2">  1        1 0.11788486E-01 0.18502652E+03</pdfrwt>
<pdfrwt beam="1">  1       -1 0.63610957E-01 0.18502652E+03</pdfrwt>
<totfact> 0.13189593E+03</totfact>
</mgrwt>
</event>
<event>
 7    1  0.6008063E-006  0.1433539E+03  0.7546771E-02  0.1219851E+00
         -1   -1    0    0    0  501 -0.00000000000E+00  0.00000000000E+00  0.40622706028E+02  0.40622706028E+02  0.00000000000E+00 0.  1.
          1   -1    0    0  501    0  0.00000000000E+00 -0.00000000000E+00 -0.43251256461E+03  0.43251256461E+03  0.00000000000E+00 0. -1.
         23    2    1    2    0    0  0.40824836724E+02 -0.57088209911E+02 -0.27499662553E+03  0.31011851672E+03  0.12499847743E+03 0.  0.
          5    1    3    3  502    0  0.51893290969E+02 -0.12572164601E+02 -0.25374652380E+03  0.25934602621E+03  0.47000000000E+01 0. -1.
         -5    1    3    3    0  502 -0.11068454245E+02 -0.44516045310E+02 -0.21250101723E+02  0.50772490511E+02  0.47000000000E+01 0. -1.
        -11    1    1    2    0    0 -0.28517118394E+02  0.75734698218E+02 -0.11496530911E+03  0.14059158174E+03  0.00000000000E+00 0. -1.
         11    1    1    2    0    0 -0.12307718330E+02 -0.18646488307E+02 -0.19279239478E+01  0.22425172183E+02  0.00000000000E+00 0.  1.
<mgrwt>
<rscale>  0 0.13526169E+03</rscale>
<asrwt>0</asrwt>
<pdfrwt beam="2">  1        1 0.66540395E-01 0.14335393E+03</pdfrwt>
<pdfrwt beam="1">  1       -1 0.62496470E-02 0.14335393E+03</pdfrwt>
<totfact> 0.66017638E+03</totfact>
</mgrwt>
</event>
<event>
 7    1  0.6008063E-006  0.1703068E+03  0.7546771E-02  0.1183974E+00
         -2   -1    0    0    0  501 -0.00000000000E+00  0.00000000000E+00  0.39046987220E+03  0.39046987220E+03  0.00000000000E+00 0.  1.
          2   -1    0    0  501    0  0.00000000000E+00 -0.00000000000E+00 -0.74593944320E+02  0.74593944320E+02  0.00000000000E+00 0. -1.
         23    2    1    2    0    0 -0.11270102258E+02 -0.11511900636E+03  0.82943769804E+02  0.18943091776E+03  0.12500001129E+03 0.  0.
          5    1    3    3  502    0 -0.38307267683E+02  0.10791147642E+02  0.98073213092E+01  0.41257352993E+02  0.47000000000E+01 0. -1.
         -5    1    3    3    0  502  0.27037165425E+02 -0.12591015401E+03  0.73136448495E+02  0.14817356476E+03  0.47000000000E+01 0. -1.
        -11    1    1    2    0    0  0.40191253163E+02  0.41040071993E+02  0.15051981768E+03  0.16110816198E+03  0.00000000000E+00 0.  1.
         11    1    1    2    0    0 -0.28921150905E+02  0.74078934370E+02  0.82412340393E+02  0.11452473679E+03  0.00000000000E+00 0. -1.
<mgrwt>
<rscale>  0 0.16425618E+03</rscale>
<asrwt>0</asrwt>
<pdfrwt beam="2">  1        2 0.11475992E-01 0.17030679E+03</pdfrwt>
<pdfrwt beam="1">  1       -2 0.60072287E-01 0.17030679E+03</pdfrwt>
<totfact> 0.13984237E+03</totfact>
</mgrwt>
</event>
<event>
 7    1  0.6008063E-006  0.1251257E+03  0.7546771E-02  0.1249452E+00
          2   -1    0    0  501    0  0.00000000000E+00  0.00000000000E+00  0.91416688390E+03  0.91416688390E+03  0.00000000000E+00 0.  1.
         -2   -1    0    0    0  501 -0.00000000000E+00 -0.00000000000E+00 -0.20916730204E+02  0.20916730204E+02  0.00000000000E+00 0. -1.
         23    2    1    2    0    0 -0.83766236502E+00  0.55542901999E+01  0.77254149436E+03  0.78260897227E+03  0.12499956457E+03 0.  0.
          5    1    3    3  502    0 -0.18506051194E+02  0.62222765053E+02  0.43803343181E+03  0.44284254967E+03  0.47000000000E+01 0. -1.
         -5    1    3    3    0  502  0.17668388829E+02 -0.56668474853E+02  0.33450806256E+03  0.33976642259E+03  0.47000000000E+01 0. -1.
        -11    1    1    2    0    0 -0.79488736773E+01  0.33669227484E+02  0.10280938796E+03  0.10847382968E+03  0.00000000000E+00 0.  1.
         11    1    1    2    0    0  0.87865360423E+01 -0.39223517684E+02  0.17899271375E+02  0.44000812162E+02  0.00000000000E+00 0. -1.
<mgrwt>
<rscale>  0 0.11622832E+03</rscale>
<asrwt>0</asrwt>
<pdfrwt beam="1">  1        2 0.14064103E+00 0.12512571E+03</pdfrwt>
<pdfrwt beam="2">  1       -2 0.32179592E-02 0.12512571E+03</pdfrwt>
<totfact> 0.10848094E+04</totfact>
</mgrwt>
</event>
<event>
 7    1  0.6008063E-006  0.1280634E+03  0.7546771E-02  0.1239698E+00
         -2   -1    0    0    0  501 -0.00000000000E+00  0.00000000000E+00  0.30640098344E+02  0.30640098344E+02  0.00000000000E+00 0.  1.
          2   -1    0    0  501    0  0.00000000000E+00 -0.00000000000E+00 -0.48452342622E+03  0.48452342622E+03  0.00000000000E+00 0. -1.
         23    2    1    2    0    0 -0.25093497634E+02  0.12075243751E+02 -0.31906289455E+03  0.34380424445E+03  0.12499893075E+03 0.  0.
          5    1    3    3  502    0 -0.51911518678E+02 -0.35536126441E+02 -0.23585742794E+03  0.24414839416E+03  0.47000000000E+01 0. -1.
         -5    1    3    3    0  502  0.26818021044E+02  0.47611370192E+02 -0.83205466609E+02  0.99655850295E+02  0.47000000000E+01 0. -1.
        -11    1    1    2    0    0 -0.58456282590E+01 -0.50815589074E+02 -0.42230777921E+02  0.66331245024E+02  0.00000000000E+00 0.  1.
         11    1    1    2    0    0  0.30939125893E+02  0.38740345323E+02 -0.92589655399E+02  0.10502803508E+03  0.00000000000E+00 0. -1.
<mgrwt>
<rscale>  0 0.12208438E+03</rscale>
<asrwt>0</asrwt>
<pdfrwt beam="2">  1        2 0.74542060E-01 0.12806337E+03</pdfrwt>
<pdfrwt beam="1">  1       -2 0.47138616E-02 0.12806337E+03</pdfrwt>
<totfact> 0.13031218E+04</totfact>
</mgrwt>
</event>
<event>
 7    1  0.6008063E-006  0.1706550E+03  0.7546771E-02  0.1184779E+00
         -1   -1    0    0    0  501 -0.00000000000E+00  0.00000000000E+00  0.49837270843E+02  0.49837270843E+02  0.00000000000E+00 0.  1.
          1   -1    0    0  501    0  0.00000000000E+00 -0.00000000000E+00 -0.65344100563E+03  0.65344100563E+03  0.00000000000E+00 0. -1.
         23    2    1    2    0    0 -0.72683505741E+02  0.90712792839E+02 -0.49334616128E+03  0.52202832010E+03  0.12494570562E+03 0.  0.
          5    1    3    3  502    0 -0.40527713187E+02  0.77480468012E+02 -0.47387917413E+03  0.48190173286E+03  0.47000000000E+01 0. -1.
         -5    1    3    3    0  502 -0.32155792554E+02  0.13232324827E+02 -0.19466987143E+02  0.40126587240E+02  0.47000000000E+01 0. -1.
        -11    1    1    2    0    0  0.20747241956E+02  0.10939597401E+02 -0.42392528818E+02  0.48448419372E+02  0.00000000000E+00 0. -1.
         11    1    1    2    0    0  0.51936263785E+02 -0.10165239024E+03 -0.67865044692E+02  0.13280153700E+03  0.00000000000E+00 0.  1.
<mgrwt>
<rscale>  0 0.16352041E+03</rscale>
<asrwt>0</asrwt>
<pdfrwt beam="2">  1        1 0.10052938E+00 0.17065501E+03</pdfrwt>
<pdfrwt beam="1">  1       -1 0.76672729E-02 0.17065501E+03</pdfrwt>
<totfact> 0.28231680E+03</totfact>
</mgrwt>
</event>
<event>
 7    1  0.6008063E-006  0.1273177E+03  0.7546771E-02  0.1247913E+00
         -4   -1    0    0    0  501 -0.00000000000E+00  0.00000000000E+00  0.43417478875E+02  0.43417478875E+02  0.00000000000E+00 0.  1.
          4   -1    0    0  501    0  0.00000000000E+00 -0.00000000000E+00 -0.28254015779E+03  0.28254015779E+03  0.00000000000E+00 0. -1.
         23    2    1    2    0    0  0.11956396335E+02 -0.21034695670E+02 -0.16518767843E+03  0.20855877657E+03  0.12499752135E+03 0.  0.
          5    1    3    3  502    0  0.92503021632E+01 -0.73664574547E+02 -0.94829310647E+02  0.12052686751E+03  0.47000000000E+01 0. -1.
         -5    1    3    3    0  502  0.27060941720E+01  0.52629878877E+02 -0.70358367780E+02  0.88031909061E+02  0.47000000000E+01 0. -1.
        -11    1    1    2    0    0  0.59568787949E+01  0.53476513178E+02 -0.38853558024E+02  0.66368824291E+02  0.00000000000E+00 0.  1.
         11    1    1    2    0    0 -0.17913275130E+02 -0.32441817508E+02 -0.35081442465E+02  0.51030035808E+02  0.00000000000E+00 0. -1.
<mgrwt>
<rscale>  0 0.11712688E+03</rscale>
<asrwt>0</asrwt>
<pdfrwt beam="2">  1        4 0.43467717E-01 0.12731769E+03</pdfrwt>
<pdfrwt beam="1">  1       -4 0.66796120E-02 0.12731769E+03</pdfrwt>
<totfact> 0.12478772E+03</totfact>
</mgrwt>
</event>
<event>
 6    1  0.6008063E-006  0.1868689E+03  0.7546771E-02  0.1173551E+00
         -2   -1    0    0    0  501 -0.00000000000E+00  0.00000000000E+00  0.54147288108E+02  0.54147288108E+02  0.00000000000E+00 0.  1.
          2   -1    0    0  501    0  0.00000000000E+00 -0.00000000000E+00 -0.14531070034E+04  0.14531070034E+04  0.00000000000E+00 0. -1.
          5    1    1    2  502    0  0.56074601278E+02  0.85711590001E+02 -0.11807707020E+04  0.11852140643E+04  0.47000000000E+01 0. -1.
         -5    1    1    2    0  502 -0.47551168575E+02  0.23135575128E+02 -0.16150181716E+03  0.17000381000E+03  0.47000000000E+01 0.  1.
        -11    1    1    2    0    0  0.25412980963E+02 -0.92559204750E+02 -0.61635237793E+02  0.11406984055E+03  0.00000000000E+00 0.  1.
         11    1    1    2    0    0 -0.33936413665E+02 -0.16287960380E+02  0.49480416494E+01  0.37966576642E+02  0.00000000000E+00 0. -1.
<mgrwt>
<rscale>  0 0.17418622E+03</rscale>
<asrwt>0</asrwt>
<pdfrwt beam="2">  1        2 0.22355494E+00 0.18686886E+03</pdfrwt>
<pdfrwt beam="1">  1       -2 0.83303516E-02 0.18686886E+03</pdfrwt>
<totfact> 0.12908048E+03</totfact>
</mgrwt>
</event>
<event>
 7    1  0.6008063E-006  0.1501153E+03  0.7546771E-02  0.1209465E+00
          2   -1    0    0  501    0  0.00000000000E+00  0.00000000000E+00  0.70406353295E+03  0.70406353295E+03  0.00000000000E+00 0. -1.
         -2   -1    0    0    0  501 -0.00000000000E+00 -0.00000000000E+00 -0.57458846507E+02  0.57458846507E+02  0.00000000000E+00 0.  1.
         23    2    1    2    0    0 -0.62644255423E+02  0.54630139363E+02  0.61660987412E+03  0.63461984822E+03  0.12500344007E+03 0.  0.
          5    1    3    3  502    0  0.22110071753E+02  0.60028077332E+02  0.23094960219E+03  0.23969153947E+03  0.47000000000E+01 0.  1.
         -5    1    3    3    0  502 -0.84754327177E+02 -0.53979379695E+01  0.38566027192E+03  0.39492830875E+03  0.47000000000E+01 0.  1.
        -11    1    1    2    0    0  0.58199026512E+02  0.91989871457E+01  0.92716788394E+01  0.59646559666E+02  0.00000000000E+00 0. -1.
         11    1    1    2    0    0  0.44452289113E+01 -0.63829126508E+02  0.20723133488E+02  0.67255971575E+02  0.00000000000E+00 0.  1.
<mgrwt>
<rscale>  0 0.14291096E+03</rscale>
<asrwt>0</asrwt>
<pdfrwt beam="1">  1        2 0.10831746E+00 0.15011534E+03</pdfrwt>
<pdfrwt beam="2">  1       -2 0.88398230E-02 0.15011534E+03</pdfrwt>
<totfact> 0.32974860E+03</totfact>
</mgrwt>
</event>
<event>
 7    1  0.6008063E-006  0.1416098E+03  0.7546771E-02  0.1228125E+00
         -1   -1    0    0    0  501 -0.00000000000E+00  0.00000000000E+00  0.25480427896E+03  0.25480427896E+03  0.00000000000E+00 0.  1.
          1   -1    0    0  501    0  0.00000000000E+00 -0.00000000000E+00 -0.56993287658E+02  0.56993287658E+02  0.00000000000E+00 0. -1.
         23    2    1    2    0    0  0.65116946696E+02  0.13680581711E+02  0.10982478067E+03  0.17920609928E+03  0.12500387396E+03 0.  0.
          5    1    3    3  502    0  0.82402522070E+02  0.12050076389E+02  0.17605731613E+02  0.85249233252E+02  0.47000000000E+01 0. -1.
         -5    1    3    3    0  502 -0.17285575374E+02  0.16305053223E+01  0.92219049059E+02  0.93956866024E+02  0.47000000000E+01 0. -1.
        -11    1    1    2    0    0 -0.37404797986E+02 -0.21169721321E+02  0.93912031164E+02  0.10327993808E+03  0.00000000000E+00 0.  1.
         11    1    1    2    0    0 -0.27712148711E+02  0.74891396096E+01 -0.59258205379E+01  0.29311529256E+02  0.00000000000E+00 0. -1.
<mgrwt>
<rscale>  0 0.12955032E+03</rscale>
<asrwt>0</asrwt>
<pdfrwt beam="2">  1        1 0.87681983E-02 0.14160983E+03</pdfrwt>
<pdfrwt beam="1">  1       -1 0.39200658E-01 0.14160983E+03</pdfrwt>
<totfact> 0.47024436E+03</totfact>
</mgrwt>
</event>
<event>
 7    1  0.6008063E-006  0.1388570E+03  0.7546771E-02  0.1225939E+00
          2   -1    0    0  501    0  0.00000000000E+00  0.00000000000E+00  0.36299164737E+03  0.36299164737E+03  0.00000000000E+00 0.  1.
         -2   -1    0    0    0  501 -0.00000000000E+00 -0.00000000000E+00 -0.44748122453E+02  0.44748122453E+02  0.00000000000E+00 0. -1.
         23    2    1    2    0    0 -0.28709302320E+02 -0.53243396011E+02  0.22017417944E+03  0.26030352359E+03  0.12498868685E+03 0.  0.
          5    1    3    3  502    0 -0.17753414663E+02 -0.76249465034E+02  0.22087104961E+03  0.23438275365E+03  0.47000000000E+01 0.  1.
         -5    1    3    3    0  502 -0.10955887658E+02  0.23006069023E+02 -0.69687017062E+00  0.25920769940E+02  0.47000000000E+01 0.  1.
        -11    1    1    2    0    0  0.10151595745E+02  0.73727426600E+02  0.43338988698E+02  0.86122333169E+02  0.00000000000E+00 0. -1.
         11    1    1    2    0    0  0.18557706576E+02 -0.20484030589E+02  0.54730356782E+02  0.61313913071E+02  0.00000000000E+00 0.  1.
<mgrwt>
<rscale>  0 0.13102763E+03</rscale>
<asrwt>0</asrwt>
<pdfrwt beam="1">  1        2 0.55844867E-01 0.13885696E+03</pdfrwt>
<pdfrwt beam="2">  1       -2 0.68843268E-02 0.13885696E+03</pdfrwt>
<totfact> 0.10085818E+04</totfact>
</mgrwt>
</event>
<event>
 7    1  0.6008063E-006  0.2718669E+03  0.7546771E-02  0.1102165E+00
         -2   -1    0    0    0  501 -0.00000000000E+00  0.00000000000E+00  0.61431766057E+02  0.61431766057E+02  0.00000000000E+00 0.  1.
          2   -1    0    0  501    0  0.00000000000E+00 -0.00000000000E+00 -0.12533305206E+04  0.12533305206E+04  0.00000000000E+00 0. -1.
         23    2    1    2    0    0 -0.18820556474E+03  0.15121618156E+03 -0.80319059393E+03  0.84795444542E+03  0.12499577261E+03 0.  0.
          5    1    3    3  502    0 -0.27059212127E+02  0.98338249727E+02 -0.29068102205E+03  0.30809115356E+03  0.47000000000E+01 0. -1.
         -5    1    3    3    0  502 -0.16114635261E+03  0.52877931836E+02 -0.51250957187E+03  0.53986329186E+03  0.47000000000E+01 0. -1.
        -11    1    1    2    0    0  0.11076531810E+03 -0.12462785706E+03 -0.19537168646E+03  0.25684850460E+03  0.00000000000E+00 0.  1.
         11    1    1    2    0    0  0.77440246640E+02 -0.26588324505E+02 -0.19333647420E+03  0.20995933667E+03  0.00000000000E+00 0. -1.
<mgrwt>
<rscale>  0 0.26845836E+03</rscale>
<asrwt>0</asrwt>
<pdfrwt beam="2">  1        2 0.19282006E+00 0.27186690E+03</pdfrwt>
<pdfrwt beam="1">  1       -2 0.94510420E-02 0.27186690E+03</pdfrwt>
<totfact> 0.13544934E+03</totfact>
</mgrwt>
</event>
<event>
 7    1  0.6008063E-006  0.1386850E+03  0.7546771E-02  0.1226544E+00
          3   -1    0    0  501    0  0.00000000000E+00  0.00000000000E+00  0.76013605359E+02  0.76013605359E+02  0.00000000000E+00 0. -1.
         -3   -1    0    0    0  501 -0.00000000000E+00 -0.00000000000E+00 -0.22123493822E+03  0.22123493822E+03  0.00000000000E+00 0.  1.
         23    2    1    2    0    0  0.20371097820E+02 -0.56484162006E+02 -0.36936913266E+02  0.14351959142E+03  0.12501238090E+03 0.  0.
          5    1    3    3  502    0  0.42796137110E+02  0.25202801708E+02 -0.30418701872E+02  0.58430112006E+02  0.47000000000E+01 0.  1.
         -5    1    3    3    0  502 -0.22425039290E+02 -0.81686963714E+02 -0.65182113947E+01  0.85089479419E+02  0.47000000000E+01 0.  1.
        -11    1    1    2    0    0 -0.32015634231E+02  0.73561563605E+01 -0.96423060755E+02  0.10186520759E+03  0.00000000000E+00 0.  1.
         11    1    1    2    0    0  0.11644536412E+02  0.49128005646E+02 -0.11861358842E+02  0.51863744567E+02  0.00000000000E+00 0. -1.
<mgrwt>
<rscale>  0 0.13061643E+03</rscale>
<asrwt>0</asrwt>
<pdfrwt beam="1">  1        3 0.11694401E-01 0.13868503E+03</pdfrwt>
<pdfrwt beam="2">  1       -3 0.34036144E-01 0.13868503E+03</pdfrwt>
<totfact> 0.11108214E+03</totfact>
</mgrwt>
</event>
<event>
 7    1  0.6008063E-006  0.1863882E+03  0.7546771E-02  0.1166855E+00
         -1   -1    0    0    0  501 -0.00000000000E+00  0.00000000000E+00  0.16177540565E+03  0.16177540565E+03  0.00000000000E+00 0.  1.
          1   -1    0    0  501    0  0.00000000000E+00 -0.00000000000E+00 -0.37060513664E+03  0.37060513664E+03  0.00000000000E+00 0. -1.
         23    2    1    2    0    0 -0.33145705105E+02 -0.13421465988E+03 -0.29244154089E+03  0.34678902351E+03  0.12501343646E+03 0.  0.
          5    1    3    3  502    0  0.32778289122E+02 -0.87223396803E+01 -0.20042522939E+02  0.39677300476E+02  0.47000000000E+01 0. -1.
         -5    1    3    3    0  502 -0.65923994228E+02 -0.12549232019E+03 -0.27239901795E+03  0.30711172303E+03  0.47000000000E+01 0. -1.
        -11    1    1    2    0    0  0.52445494293E+02  0.39889791966E+02  0.15599811599E+02  0.67713215081E+02  0.00000000000E+00 0.  1.
         11    1    1    2    0    0 -0.19299789188E+02  0.94324867909E+02  0.68011998308E+02  0.11787830370E+03  0.00000000000E+00 0. -1.
<mgrwt>
<rscale>  0 0.18098315E+03</rscale>
<asrwt>0</asrwt>
<pdfrwt beam="2">  1        1 0.57016175E-01 0.18638823E+03</pdfrwt>
<pdfrwt beam="1">  1       -1 0.24888524E-01 0.18638823E+03</pdfrwt>
<totfact> 0.93763233E+02</totfact>
</mgrwt>
</event>
<event>
 7    1  0.6008063E-006  0.1547502E+03  0.7546771E-02  0.1203182E+00
          2   -1    0    0  501    0  0.00000000000E+00  0.00000000000E+00  0.52246450686E+03  0.52246450686E+03  0.00000000000E+00 0. -1.
         -2   -1    0    0    0  501 -0.00000000000E+00 -0.00000000000E+00 -0.39836003988E+02  0.39836003988E+02  0.00000000000E+00 0.  1.
         23    2    1    2    0    0  0.89928396942E+02 -0.14741735031E+02  0.31431805153E+03  0.35034762952E+03  0.12507273350E+03 0.  0.
          5    1    3    3  502    0  0.78932230969E+02  0.40711881803E+01  0.31803966127E+03  0.32774714003E+03  0.47000000000E+01 0. -1.
         -5    1    3    3    0  502  0.10996165973E+02 -0.18812923212E+02 -0.37216097450E+01  0.22600489485E+02  0.47000000000E+01 0. -1.
        -11    1    1    2    0    0 -0.31980390730E+02  0.50765296949E+02  0.68668136625E+02  0.91187574554E+02  0.00000000000E+00 0. -1.
         11    1    1    2    0    0 -0.57948006212E+02 -0.36023561918E+02  0.99642314722E+02  0.12076530677E+03  0.00000000000E+00 0.  1.
<mgrwt>
<rscale>  0 0.14781639E+03</rscale>
<asrwt>0</asrwt>
<pdfrwt beam="1">  1        2 0.80379150E-01 0.15475020E+03</pdfrwt>
<pdfrwt beam="2">  1       -2 0.61286164E-02 0.15475020E+03</pdfrwt>
<totfact> 0.81777580E+03</totfact>
</mgrwt>
</event>
<event>
 7    1  0.6008063E-006  0.1828039E+03  0.7546771E-02  0.1172697E+00
          2   -1    0    0  501    0  0.00000000000E+00  0.00000000000E+00  0.59000749653E+02  0.59000749653E+02  0.00000000000E+00 0. -1.
         -2   -1    0    0    0  501 -0.00000000000E+00 -0.00000000000E+00 -0.52283688439E+03  0.52283688439E+03  0.00000000000E+00 0.  1.
         23    2    1    2    0    0  0.65715839006E+02 -0.11606336389E+03 -0.16704612790E+03  0.24763213226E+03  0.12501195202E+03 0.  0.
          5    1    3    3  502    0 -0.36664713774E+02 -0.23774607148E+02 -0.30071799163E+02  0.53253509613E+02  0.47000000000E+01 0. -1.
         -5    1    3    3    0  502  0.10238055278E+03 -0.92288756740E+02 -0.13697432874E+03  0.19437862265E+03  0.47000000000E+01 0. -1.
        -11    1    1    2    0    0 -0.35198200311E+01  0.77350218646E+02 -0.11970522508E+03  0.14256502506E+03  0.00000000000E+00 0. -1.
         11    1    1    2    0    0 -0.62196018975E+02  0.38713145243E+02 -0.17708478175E+03  0.19164047672E+03  0.00000000000E+00 0.  1.
<mgrwt>
<rscale>  0 0.17503456E+03</rscale>
<asrwt>0</asrwt>
<pdfrwt beam="1">  1        2 0.90770381E-02 0.18280390E+03</pdfrwt>
<pdfrwt beam="2">  1       -2 0.80436447E-01 0.18280390E+03</pdfrwt>
<totfact> 0.10050321E+03</totfact>
</mgrwt>
</event>
<event>
 7    1  0.6008063E-006  0.1399717E+03  0.7546771E-02  0.1223793E+00
          1   -1    0    0  501    0  0.00000000000E+00  0.00000000000E+00  0.31541004433E+03  0.31541004433E+03  0.00000000000E+00 0. -1.
         -1   -1    0    0    0  501 -0.00000000000E+00 -0.00000000000E+00 -0.58626126058E+02  0.58626126058E+02  0.00000000000E+00 0.  1.
         23    2    1    2    0    0 -0.36940968515E+02  0.51021587304E+02  0.20982382731E+03  0.25222631244E+03  0.12499694659E+03 0.  0.
          5    1    3    3  502    0  0.10636992599E+02  0.11033056963E+02  0.18410264550E+03  0.18479921005E+03  0.47000000000E+01 0.  1.
         -5    1    3    3    0  502 -0.47577961114E+02  0.39988530341E+02  0.25721181810E+02  0.67427102387E+02  0.47000000000E+01 0.  1.
        -11    1    1    2    0    0 -0.19988993739E+02 -0.23854963012E+02  0.49733876073E+02  0.58669221575E+02  0.00000000000E+00 0. -1.
         11    1    1    2    0    0  0.56929962254E+02 -0.27166624292E+02 -0.27737851067E+01  0.63140636373E+02  0.00000000000E+00 0.  1.
<mgrwt>
<rscale>  0 0.13249999E+03</rscale>
<asrwt>0</asrwt>
<pdfrwt beam="1">  1        1 0.48524621E-01 0.13997169E+03</pdfrwt>
<pdfrwt beam="2">  1       -1 0.90194042E-02 0.13997169E+03</pdfrwt>
<totfact> 0.56393929E+03</totfact>
</mgrwt>
</event>
<event>
 7    1  0.6008063E-006  0.1460982E+03  0.7546771E-02  0.1214791E+00
          2   -1    0    0  501    0  0.00000000000E+00  0.00000000000E+00  0.53415076088E+03  0.53415076088E+03  0.00000000000E+00 0. -1.
         -2   -1    0    0    0  501 -0.00000000000E+00 -0.00000000000E+00 -0.33767123931E+02  0.33767123931E+02  0.00000000000E+00 0.  1.
         23    2    1    2    0    0 -0.70706244255E+02  0.26864410072E+02  0.31737929977E+03  0.34939131654E+03  0.12499441047E+03 0.  0.
          5    1    3    3  502    0 -0.54269947309E+02  0.15475057690E+02  0.32313425159E+03  0.32805874343E+03  0.47000000000E+01 0.  1.
         -5    1    3    3    0  502 -0.16436296946E+02  0.11389352382E+02 -0.57549518217E+01  0.21332573109E+02  0.47000000000E+01 0.  1.
        -11    1    1    2    0    0  0.40556669692E+02  0.33009004131E+02  0.75754464002E+02  0.92049859459E+02  0.00000000000E+00 0.  1.
         11    1    1    2    0    0  0.30149574563E+02 -0.59873414203E+02  0.10724987318E+03  0.12647670881E+03  0.00000000000E+00 0. -1.
<mgrwt>
<rscale>  0 0.13891878E+03</rscale>
<asrwt>0</asrwt>
<pdfrwt beam="1">  1        2 0.82177034E-01 0.14609816E+03</pdfrwt>
<pdfrwt beam="2">  1       -2 0.51949425E-02 0.14609816E+03</pdfrwt>
<totfact> 0.10211462E+04</totfact>
</mgrwt>
</event>
<event>
 7    1  0.6008063E-006  0.1272035E+03  0.7546771E-02  0.1246590E+00
         -2   -1    0    0    0  501 -0.00000000000E+00  0.00000000000E+00  0.20152704936E+02  0.20152704936E+02  0.00000000000E+00 0.  1.
          2   -1    0    0  501    0  0.00000000000E+00 -0.00000000000E+00 -0.61616026522E+03  0.61616026522E+03  0.00000000000E+00 0. -1.
         23    2    1    2    0    0  0.22207297532E+02 -0.80221182185E+01 -0.38168107273E+03  0.40231974041E+03  0.12499285500E+03 0.  0.
          5    1    3    3  502    0  0.25825090772E+02 -0.98319596308E+01 -0.87885981375E+01  0.29375707665E+02  0.47000000000E+01 0. -1.
         -5    1    3    3    0  502 -0.36177932404E+01  0.18098414122E+01 -0.37289247459E+03  0.37294403275E+03  0.47000000000E+01 0. -1.
        -11    1    1    2    0    0 -0.27523909022E+02  0.45075136875E+02 -0.15591087664E+03  0.16461328922E+03  0.00000000000E+00 0. -1.
         11    1    1    2    0    0  0.53166114903E+01 -0.37053018657E+02 -0.58415610914E+02  0.69379940529E+02  0.00000000000E+00 0.  1.
<mgrwt>
<rscale>  0 0.11790693E+03</rscale>
<asrwt>0</asrwt>
<pdfrwt beam="2">  1        2 0.94793899E-01 0.12720351E+03</pdfrwt>
<pdfrwt beam="1">  1       -2 0.31004158E-02 0.12720351E+03</pdfrwt>
<totfact> 0.18536114E+04</totfact>
</mgrwt>
</event>
<event>
 7    1  0.6008063E-006  0.2597257E+03  0.7546771E-02  0.1109539E+00
          1   -1    0    0  501    0  0.00000000000E+00  0.00000000000E+00  0.83220735182E+03  0.83220735182E+03  0.00000000000E+00 0. -1.
         -1   -1    0    0    0  501 -0.00000000000E+00 -0.00000000000E+00 -0.79382921964E+02  0.79382921964E+02  0.00000000000E+00 0.  1.
         23    2    1    2    0    0 -0.22564244023E+03  0.30320011826E+02  0.47160537549E+03  0.53839492427E+03  0.12499460123E+03 0.  0.
          5    1    3    3  502    0 -0.10247414384E+03  0.75807873825E+02  0.21137534032E+03  0.24687933972E+03  0.47000000000E+01 0.  1.
         -5    1    3    3    0  502 -0.12316829639E+03 -0.45487861998E+02  0.26023003517E+03  0.29151558454E+03  0.47000000000E+01 0.  1.
        -11    1    1    2    0    0  0.18021673992E+03 -0.27829878593E+01  0.16064596599E+03  0.24143931900E+03  0.00000000000E+00 0.  1.
         11    1    1    2    0    0  0.45425700302E+02 -0.27537023967E+02  0.12057308837E+03  0.13175603051E+03  0.00000000000E+00 0. -1.
<mgrwt>
<rscale>  0 0.25605151E+03</rscale>
<asrwt>0</asrwt>
<pdfrwt beam="1">  1        1 0.12803189E+00 0.25972575E+03</pdfrwt>
<pdfrwt beam="2">  1       -1 0.12212758E-01 0.25972575E+03</pdfrwt>
<totfact> 0.96722102E+02</totfact>
</mgrwt>
</event>
<event>
 7    1  0.6008063E-006  0.1521541E+03  0.7546771E-02  0.1206584E+00
          2   -1    0    0  501    0  0.00000000000E+00  0.00000000000E+00  0.98185417059E+03  0.98185417059E+03  0.00000000000E+00 0.  1.
         -2   -1    0    0    0  501 -0.00000000000E+00 -0.00000000000E+00 -0.25112024179E+02  0.25112024179E+02  0.00000000000E+00 0. -1.
         23    2    1    2    0    0  0.46716968906E+02 -0.73089078699E+02  0.74676828042E+03  0.76211137595E+03  0.12500558434E+03 0.  0.
          5    1    3    3  502    0  0.38217438625E+02 -0.63071298129E+02  0.74427849210E+03  0.74793791525E+03  0.47000000000E+01 0.  1.
         -5    1    3    3    0  502  0.84995302817E+01 -0.10017780569E+02  0.24897883156E+01  0.14173460707E+02  0.47000000000E+01 0.  1.
        -11    1    1    2    0    0 -0.63189556625E+02  0.15085655666E+02  0.96037759229E+02  0.11594717880E+03  0.00000000000E+00 0.  1.
         11    1    1    2    0    0  0.16472587719E+02  0.58003423032E+02  0.11393610677E+03  0.12890764002E+03  0.00000000000E+00 0. -1.
<mgrwt>
<rscale>  0 0.14513340E+03</rscale>
<asrwt>0</asrwt>
<pdfrwt beam="1">  1        2 0.15105446E+00 0.15215415E+03</pdfrwt>
<pdfrwt beam="2">  1       -2 0.38633891E-02 0.15215415E+03</pdfrwt>
<totfact> 0.76021223E+03</totfact>
</mgrwt>
</event>
<event>
 6    1  0.6008063E-006  0.1968752E+03  0.7546771E-02  0.1174757E+00
          1   -1    0    0  501    0  0.00000000000E+00  0.00000000000E+00  0.58564559430E+03  0.58564559430E+03  0.00000000000E+00 0. -1.
         -1   -1    0    0    0  501 -0.00000000000E+00 -0.00000000000E+00 -0.49779472031E+02  0.49779472031E+02  0.00000000000E+00 0.  1.
          5    1    1    2  502    0 -0.50930863919E+02 -0.59886259850E+02  0.45252492930E+03  0.45932691915E+03  0.47000000000E+01 0. -1.
         -5    1    1    2    0  502  0.25365523186E+02 -0.10116103886E+02 -0.62841326196E+01  0.28413476505E+02  0.47000000000E+01 0.  1.
        -11    1    1    2    0    0  0.48996984435E+02  0.78371885608E+02  0.68486016214E+02  0.11503560907E+03  0.00000000000E+00 0.  1.
         11    1    1    2    0    0 -0.23431643702E+02 -0.83695218714E+01  0.21139309376E+02  0.32649061607E+02  0.00000000000E+00 0. -1.
<mgrwt>
<rscale>  0 0.17299828E+03</rscale>
<asrwt>0</asrwt>
<pdfrwt beam="1">  1        1 0.90099317E-01 0.19687520E+03</pdfrwt>
<pdfrwt beam="2">  1       -1 0.76583807E-02 0.19687520E+03</pdfrwt>
<totfact> 0.33073425E+03</totfact>
</mgrwt>
</event>
<event>
 7    1  0.6008063E-006  0.1854661E+03  0.7546771E-02  0.1167838E+00
          2   -1    0    0  501    0  0.00000000000E+00  0.00000000000E+00  0.11183566275E+03  0.11183566275E+03  0.00000000000E+00 0. -1.
         -2   -1    0    0    0  501 -0.00000000000E+00 -0.00000000000E+00 -0.28365497659E+03  0.28365497659E+03  0.00000000000E+00 0.  1.
         23    2    1    2    0    0  0.42972672236E+02  0.13010749384E+03 -0.53833562123E+02  0.19312097748E+03  0.12499219583E+03 0.  0.
          5    1    3    3  502    0  0.28678730285E+02  0.54536636166E+02 -0.89057315600E+02  0.10839746176E+03  0.47000000000E+01 0.  1.
         -5    1    3    3    0  502  0.14293941951E+02  0.75570857673E+02  0.35223753477E+02  0.84723515714E+02  0.47000000000E+01 0.  1.
        -11    1    1    2    0    0  0.73616268394E+01 -0.12333998968E+02 -0.60144387530E+02  0.61835818354E+02  0.00000000000E+00 0.  1.
         11    1    1    2    0    0 -0.50334299076E+02 -0.11777349487E+03 -0.57841364187E+02  0.14053384350E+03  0.00000000000E+00 0. -1.
<mgrwt>
<rscale>  0 0.17996365E+03</rscale>
<asrwt>0</asrwt>
<pdfrwt beam="1">  1        2 0.17205486E-01 0.18546606E+03</pdfrwt>
<pdfrwt beam="2">  1       -2 0.43639228E-01 0.18546606E+03</pdfrwt>
<totfact> 0.16415325E+03</totfact>
</mgrwt>
</event>
<event>
 7    1  0.6008063E-006  0.1804600E+03  0.7546771E-02  0.1172861E+00
         -1   -1    0    0    0  501 -0.00000000000E+00  0.00000000000E+00  0.67591902482E+03  0.67591902482E+03  0.00000000000E+00 0.  1.
          1   -1    0    0  501    0  0.00000000000E+00 -0.00000000000E+00 -0.43507538894E+02  0.43507538894E+02  0.00000000000E+00 0. -1.
         23    2    1    2    0    0 -0.12734345144E+03 -0.27062096059E+02  0.28531842005E+03  0.33759798373E+03  0.12496834052E+03 0.  0.
          5    1    3    3  502    0 -0.11343863554E+03 -0.67094835186E+02  0.24822272118E+03  0.28108121647E+03  0.47000000000E+01 0.  1.
         -5    1    3    3    0  502 -0.13904815903E+02  0.40032739127E+02  0.37095698877E+02  0.56516767269E+02  0.47000000000E+01 0.  1.
        -11    1    1    2    0    0  0.78414593987E+02 -0.65609397352E+01  0.28605493787E+03  0.29668050485E+03  0.00000000000E+00 0. -1.
         11    1    1    2    0    0  0.48928857455E+02  0.33623035794E+02  0.61038128003E+02  0.85148075127E+02  0.00000000000E+00 0.  1.
<mgrwt>
<rscale>  0 0.17487087E+03</rscale>
<asrwt>0</asrwt>
<pdfrwt beam="2">  1        1 0.66934680E-02 0.18045996E+03</pdfrwt>
<pdfrwt beam="1">  1       -1 0.10398753E+00 0.18045996E+03</pdfrwt>
<totfact> 0.10159824E+03</totfact>
</mgrwt>
</event>
<event>
 7    1  0.6008063E-006  0.1261867E+03  0.7546771E-02  0.1245907E+00
         -1   -1    0    0    0  501 -0.00000000000E+00  0.00000000000E+00  0.25955818176E+02  0.25955818176E+02  0.00000000000E+00 0.  1.
          1   -1    0    0  501    0  0.00000000000E+00 -0.00000000000E+00 -0.86845751645E+03  0.86845751645E+03  0.00000000000E+00 0. -1.
         23    2    1    2    0    0  0.28625144783E+02  0.18409221889E+02 -0.74817106660E+03  0.75873778403E+03  0.12151041789E+03 0.  0.
          5    1    3    3  502    0 -0.45243244858E+02 -0.84855212088E+01 -0.32833206677E+03  0.33157652412E+03  0.47000000000E+01 0. -1.
         -5    1    3    3    0  502  0.73868389641E+02  0.26894743097E+02 -0.41983899983E+03  0.42716125991E+03  0.47000000000E+01 0.  1.
        -11    1    1    2    0    0 -0.41177123538E+02  0.18828415265E+02 -0.15965928819E+02  0.48010161500E+02  0.00000000000E+00 0.  1.
         11    1    1    2    0    0  0.12551978755E+02 -0.37237637154E+02 -0.78364702856E+02  0.87665389095E+02  0.00000000000E+00 0. -1.
<mgrwt>
<rscale>  0 0.11831243E+03</rscale>
<asrwt>0</asrwt>
<pdfrwt beam="2">  1        1 0.13360883E+00 0.12618669E+03</pdfrwt>
<pdfrwt beam="1">  1       -1 0.39932034E-02 0.12618669E+03</pdfrwt>
<totfact> 0.48439270E+03</totfact>
</mgrwt>
</event>
<event>
 7    1  0.6008063E-006  0.2164870E+03  0.7546771E-02  0.1140147E+00
          2   -1    0    0  501    0  0.00000000000E+00  0.00000000000E+00  0.34147527131E+03  0.34147527131E+03  0.00000000000E+00 0. -1.
         -2   -1    0    0    0  501 -0.00000000000E+00 -0.00000000000E+00 -0.13092459195E+03  0.13092459195E+03  0.00000000000E+00 0.  1.
         23    2    1    2    0    0  0.16097173622E+03  0.73011072834E+02  0.15553070488E+03  0.26656407473E+03  0.12499635658E+03 0.  0.
          5    1    3    3  502    0  0.62244245837E+02  0.96467111741E+02  0.82976072019E+02  0.14172991327E+03  0.47000000000E+01 0.  1.
         -5    1    3    3    0  502  0.98727490386E+02 -0.23456038907E+02  0.72554632856E+02  0.12483416146E+03  0.47000000000E+01 0.  1.
        -11    1    1    2    0    0 -0.93505315242E+02 -0.32714206503E+02 -0.15476341349E+02  0.10026455220E+03  0.00000000000E+00 0.  1.
         11    1    1    2    0    0 -0.67466420981E+02 -0.40296866331E+02  0.70496315831E+02  0.10557123634E+03  0.00000000000E+00 0. -1.
<mgrwt>
<rscale>  0 0.21180184E+03</rscale>
<asrwt>0</asrwt>
<pdfrwt beam="1">  1        2 0.52534657E-01 0.21648696E+03</pdfrwt>
<pdfrwt beam="2">  1       -2 0.20142245E-01 0.21648696E+03</pdfrwt>
<totfact> 0.19561203E+03</totfact>
</mgrwt>
</event>
<event>
 7    1  0.6008063E-006  0.1445963E+03  0.7546771E-02  0.1224774E+00
         -1   -1    0    0    0  501 -0.00000000000E+00  0.00000000000E+00  0.31997403194E+03  0.31997403194E+03  0.00000000000E+00 0.  1.
          1   -1    0    0  501    0  0.00000000000E+00 -0.00000000000E+00 -0.50088521864E+02  0.50088521864E+02  0.00000000000E+00 0. -1.
         23    2    1    2    0    0 -0.63777078009E+02  0.34855555293E+02  0.11058454184E+03  0.18203578017E+03  0.12500263578E+03 0.  0.
          5    1    3    3  502    0 -0.79833032782E+02  0.16991478112E+02  0.14688049433E+02  0.83065349260E+02  0.47000000000E+01 0.  1.
         -5    1    3    3    0  502  0.16055954773E+02  0.17864077181E+02  0.95896492409E+02  0.98970430905E+02  0.47000000000E+01 0.  1.
        -11    1    1    2    0    0  0.35749817390E+02  0.64163762338E+01  0.11735556801E+03  0.12284766449E+03  0.00000000000E+00 0.  1.
         11    1    1    2    0    0  0.28027260619E+02 -0.41271931527E+02  0.41945400226E+02  0.65179109152E+02  0.00000000000E+00 0. -1.
<mgrwt>
<rscale>  0 0.13182394E+03</rscale>
<asrwt>0</asrwt>
<pdfrwt beam="2">  1        1 0.77059266E-02 0.14459628E+03</pdfrwt>
<pdfrwt beam="1">  1       -1 0.49226773E-01 0.14459628E+03</pdfrwt>
<totfact> 0.37289741E+03</totfact>
</mgrwt>
</event>
<event>
 7    1  0.6008063E-006  0.1492050E+03  0.7546771E-02  0.1210795E+00
          2   -1    0    0  501    0  0.00000000000E+00  0.00000000000E+00  0.19368051312E+04  0.19368051312E+04  0.00000000000E+00 0. -1.
         -2   -1    0    0    0  501 -0.00000000000E+00 -0.00000000000E+00 -0.11725632271E+02  0.11725632271E+02  0.00000000000E+00 0.  1.
         23    2    1    2    0    0  0.41274011554E+02 -0.70238276290E+02  0.14634495964E+04  0.14710359807E+04  0.12500070384E+03 0.  0.
          5    1    3    3  502    0  0.84999373107E+02 -0.47504230226E+02  0.84404775080E+03  0.84965889682E+03  0.47000000000E+01 0. -1.
         -5    1    3    3    0  502 -0.43725361552E+02 -0.22734046064E+02  0.61940184560E+03  0.62137708392E+03  0.47000000000E+01 0. -1.
        -11    1    1    2    0    0 -0.44048697458E+02  0.80305166528E+02  0.45697200335E+03  0.46606074643E+03  0.00000000000E+00 0. -1.
         11    1    1    2    0    0  0.27746859035E+01 -0.10066890239E+02  0.46578991595E+01  0.11434036274E+02  0.00000000000E+00 0.  1.
<mgrwt>
<rscale>  0 0.14190006E+03</rscale>
<asrwt>0</asrwt>
<pdfrwt beam="1">  1        2 0.29796977E+00 0.14920501E+03</pdfrwt>
<pdfrwt beam="2">  1       -2 0.18039450E-02 0.14920501E+03</pdfrwt>
<totfact> 0.71407548E+03</totfact>
</mgrwt>
</event>
<event>
 7    1  0.6008063E-006  0.1733980E+03  0.7546771E-02  0.1180619E+00
          2   -1    0    0  501    0  0.00000000000E+00  0.00000000000E+00  0.51714317012E+03  0.51714317012E+03  0.00000000000E+00 0.  1.
         -2   -1    0    0    0  501 -0.00000000000E+00 -0.00000000000E+00 -0.74071869295E+02  0.74071869295E+02  0.00000000000E+00 0. -1.
         23    2    1    2    0    0 -0.74549357784E+02  0.94257746232E+02  0.39794609355E+03  0.43408288648E+03  0.12499891798E+03 0.  0.
          5    1    3    3  502    0 -0.50020734211E+02 -0.20794341483E+02  0.10219500169E+03  0.11576003999E+03  0.47000000000E+01 0. -1.
         -5    1    3    3    0  502 -0.24528623573E+02  0.11505208772E+03  0.29575109186E+03  0.31832284649E+03  0.47000000000E+01 0. -1.
        -11    1    1    2    0    0  0.48749970117E+02  0.17359063913E+01  0.21175518100E+01  0.48826805989E+02  0.00000000000E+00 0. -1.
         11    1    1    2    0    0  0.25799387667E+02 -0.95993652623E+02  0.43007655469E+02  0.10830534695E+03  0.00000000000E+00 0.  1.
<mgrwt>
<rscale>  0 0.16736964E+03</rscale>
<asrwt>0</asrwt>
<pdfrwt beam="1">  1        2 0.79560485E-01 0.17339798E+03</pdfrwt>
<pdfrwt beam="2">  1       -2 0.11395673E-01 0.17339798E+03</pdfrwt>
<totfact> 0.31643164E+03</totfact>
</mgrwt>
</event>
<event>
 7    1  0.6008063E-006  0.1562870E+03  0.7546771E-02  0.1201269E+00
          1   -1    0    0  501    0  0.00000000000E+00  0.00000000000E+00  0.66444801525E+03  0.66444801525E+03  0.00000000000E+00 0. -1.
         -1   -1    0    0    0  501 -0.00000000000E+00 -0.00000000000E+00 -0.41056227391E+02  0.41056227391E+02  0.00000000000E+00 0.  1.
         23    2    1    2    0    0 -0.93766479619E+02  0.31046692502E+01  0.50773526447E+03  0.53124451088E+03  0.12499535942E+03 0.  0.
          5    1    3    3  502    0 -0.70227083569E+01  0.39253550414E+02  0.30625895912E+03  0.30887991145E+03  0.47000000000E+01 0.  1.
         -5    1    3    3    0  502 -0.86743771263E+02 -0.36148881164E+02  0.20147630535E+03  0.22236459943E+03  0.47000000000E+01 0.  1.
        -11    1    1    2    0    0  0.24703078373E+02 -0.27451927665E+02 -0.51503774361E+00  0.36933936664E+02  0.00000000000E+00 0.  1.
         11    1    1    2    0    0  0.69063401247E+02  0.24347258415E+02  0.11617156113E+03  0.13732579510E+03  0.00000000000E+00 0. -1.
<mgrwt>
<rscale>  0 0.14935385E+03</rscale>
<asrwt>0</asrwt>
<pdfrwt beam="1">  1        1 0.10222276E+00 0.15628702E+03</pdfrwt>
<pdfrwt beam="2">  1       -1 0.63163432E-02 0.15628702E+03</pdfrwt>
<totfact> 0.36814884E+03</totfact>
</mgrwt>
</event>
<event>
 7    1  0.6008063E-006  0.1437413E+03  0.7546771E-02  0.1218769E+00
         -1   -1    0    0    0  501 -0.00000000000E+00  0.00000000000E+00  0.30637960288E+02  0.30637960288E+02  0.00000000000E+00 0.  1.
          1   -1    0    0  501    0  0.00000000000E+00 -0.00000000000E+00 -0.61066428411E+03  0.61066428411E+03  0.00000000000E+00 0. -1.
         23    2    1    2    0    0 -0.68391058225E+02  0.18954795908E+02 -0.42109043158E+03  0.44494798138E+03  0.12499973375E+03 0.  0.
          5    1    3    3  502    0  0.25991587005E+02  0.34424477783E+02 -0.84331448428E+02  0.94839287532E+02  0.47000000000E+01 0. -1.
         -5    1    3    3    0  502 -0.94382645230E+02 -0.15469681875E+02 -0.33675898315E+03  0.35010869385E+03  0.47000000000E+01 0. -1.
        -11    1    1    2    0    0 -0.13452877270E+02  0.16553824804E+02 -0.57166481174E+02  0.61016519012E+02  0.00000000000E+00 0. -1.
         11    1    1    2    0    0  0.81843935495E+02 -0.35508620712E+02 -0.10176941107E+03  0.13533774400E+03  0.00000000000E+00 0.  1.
<mgrwt>
<rscale>  0 0.13603311E+03</rscale>
<asrwt>0</asrwt>
<pdfrwt beam="2">  1        1 0.93948344E-01 0.14374128E+03</pdfrwt>
<pdfrwt beam="1">  1       -1 0.47135327E-02 0.14374128E+03</pdfrwt>
<totfact> 0.63750749E+03</totfact>
</mgrwt>
</event>
<event>
 7    1  0.6008063E-006  0.1369698E+03  0.7546771E-02  0.1229252E+00
         -2   -1    0    0    0  501 -0.00000000000E+00  0.00000000000E+00  0.26649254581E+02  0.26649254581E+02  0.00000000000E+00 0. -1.
          2   -1    0    0  501    0  0.00000000000E+00 -0.00000000000E+00 -0.56672971578E+03  0.56672971578E+03  0.00000000000E+00 0.  1.
         23    2    1    2    0    0  0.54612048355E+02  0.12384250798E+02 -0.33751375073E+03  0.36424750690E+03  0.12499947544E+03 0.  0.
          5    1    3    3  502    0  0.43558058348E+02 -0.50963712909E+02 -0.12188953107E+03  0.13918962700E+03  0.47000000000E+01 0.  1.
         -5    1    3    3    0  502  0.11053990007E+02  0.63347963708E+02 -0.21562421966E+03  0.22505787990E+03  0.47000000000E+01 0.  1.
        -11    1    1    2    0    0 -0.26644597752E+02  0.39575860857E+02 -0.10010124266E+03  0.11088932380E+03  0.00000000000E+00 0.  1.
         11    1    1    2    0    0 -0.27967450603E+02 -0.51960111655E+02 -0.10246546781E+03  0.11824213966E+03  0.00000000000E+00 0. -1.
<mgrwt>
<rscale>  0 0.12879656E+03</rscale>
<asrwt>0</asrwt>
<pdfrwt beam="2">  1        2 0.87189187E-01 0.13696976E+03</pdfrwt>
<pdfrwt beam="1">  1       -2 0.40998853E-02 0.13696976E+03</pdfrwt>
<totfact> 0.13561655E+04</totfact>
</mgrwt>
</event>
<event>
 7    1  0.6008063E-006  0.2285592E+03  0.7546771E-02  0.1131133E+00
          2   -1    0    0  501    0  0.00000000000E+00  0.00000000000E+00  0.16901030528E+04  0.16901030528E+04  0.00000000000E+00 0. -1.
         -2   -1    0    0    0  501 -0.00000000000E+00 -0.00000000000E+00 -0.32404657036E+02  0.32404657036E+02  0.00000000000E+00 0.  1.
         23    2    1    2    0    0 -0.10690624557E+03  0.15869769346E+03  0.11613087443E+04  0.11835866313E+04  0.12500164342E+03 0.  0.
          5    1    3    3  502    0 -0.21842225536E+02 -0.15472970847E+02  0.27380569181E+03  0.27515112667E+03  0.47000000000E+01 0. -1.
         -5    1    3    3    0  502 -0.85064020032E+02  0.17417066431E+03  0.88750305249E+03  0.90843550459E+03  0.47000000000E+01 0. -1.
        -11    1    1    2    0    0  0.23010686371E+02 -0.10807835192E+03  0.23236765131E+03  0.25730360902E+03  0.00000000000E+00 0.  1.
         11    1    1    2    0    0  0.83895559197E+02 -0.50619341544E+02  0.26402200015E+03  0.28161746954E+03  0.00000000000E+00 0. -1.
<mgrwt>
<rscale>  0 0.22372867E+03</rscale>
<asrwt>0</asrwt>
<pdfrwt beam="1">  1        2 0.26001579E+00 0.22855921E+03</pdfrwt>
<pdfrwt beam="2">  1       -2 0.49853332E-02 0.22855921E+03</pdfrwt>
<totfact> 0.21295175E+03</totfact>
</mgrwt>
</event>
<event>
 7    1  0.6008063E-006  0.1820559E+03  0.7546771E-02  0.1171346E+00
         -2   -1    0    0    0  501 -0.00000000000E+00  0.00000000000E+00  0.25455841981E+02  0.25455841981E+02  0.00000000000E+00 0.  1.
          2   -1    0    0  501    0  0.00000000000E+00 -0.00000000000E+00 -0.11549031825E+04  0.11549031825E+04  0.00000000000E+00 0. -1.
         23    2    1    2    0    0 -0.10010245603E+03  0.86592621862E+02 -0.57020218072E+03  0.59856066183E+03  0.12500222052E+03 0.  0.
          5    1    3    3  502    0 -0.33860154472E+01  0.81728802385E+02 -0.31740209359E+03  0.32780671326E+03  0.47000000000E+01 0.  1.
         -5    1    3    3    0  502 -0.96716440579E+02  0.48638194765E+01 -0.25280008713E+03  0.27075394857E+03  0.47000000000E+01 0.  1.
        -11    1    1    2    0    0  0.97733202094E+02 -0.31621943420E+02 -0.41189441430E+03  0.42450999356E+03  0.00000000000E+00 0.  1.
         11    1    1    2    0    0  0.23692539321E+01 -0.54970678442E+02 -0.14735074552E+03  0.15728836911E+03  0.00000000000E+00 0. -1.
<mgrwt>
<rscale>  0 0.17638730E+03</rscale>
<asrwt>0</asrwt>
<pdfrwt beam="2">  1        2 0.17767738E+00 0.18205587E+03</pdfrwt>
<pdfrwt beam="1">  1       -2 0.39162842E-02 0.18205587E+03</pdfrwt>
<totfact> 0.59406941E+03</totfact>
</mgrwt>
</event>
<event>
 7    1  0.6926588E-006  0.1409897E+03  0.7546771E-02  0.1223228E+00
          1   -1    0    0  501    0  0.00000000000E+00  0.00000000000E+00  0.43478955429E+03  0.43478955429E+03  0.00000000000E+00 0. -1.
         -1   -1    0    0    0  501 -0.00000000000E+00 -0.00000000000E+00 -0.39399845963E+02  0.39399845963E+02  0.00000000000E+00 0.  1.
         23    2    1    2    0    0  0.18277740310E+02 -0.62601368344E+02  0.28219194540E+03  0.31545268192E+03  0.12500037351E+03 0.  0.
          5    1    3    3  502    0 -0.66251603176E+01 -0.18743535362E+02  0.25889338250E+03  0.25969806771E+03  0.47000000000E+01 0. -1.
         -5    1    3    3    0  502  0.24902900628E+02 -0.43857832982E+02  0.23298562893E+02  0.55754614217E+02  0.47000000000E+01 0. -1.
        -11    1    1    2    0    0  0.59395257703E+01  0.21913225372E+02 -0.11428925250E+02  0.25418256135E+02  0.00000000000E+00 0.  1.
         11    1    1    2    0    0 -0.24217266081E+02  0.40688142972E+02  0.12462668818E+03  0.13331846220E+03  0.00000000000E+00 0. -1.
<mgrwt>
<rscale>  0 0.13289128E+03</rscale>
<asrwt>0</asrwt>
<pdfrwt beam="1">  1        1 0.66890697E-01 0.14098972E+03</pdfrwt>
<pdfrwt beam="2">  1       -1 0.60615151E-02 0.14098972E+03</pdfrwt>
<totfact> 0.68570205E+03</totfact>
</mgrwt>
</event>
<event>
 7    1  0.6008063E-006  0.1429654E+03  0.7546771E-02  0.1219529E+00
         -2   -1    0    0    0  501 -0.00000000000E+00  0.00000000000E+00  0.23122624031E+03  0.23122624031E+03  0.00000000000E+00 0.  1.
          2   -1    0    0  501    0  0.00000000000E+00 -0.00000000000E+00 -0.72255056093E+02  0.72255056093E+02  0.00000000000E+00 0. -1.
         23    2    1    2    0    0  0.23243634123E+02 -0.65372110879E+02  0.94171940464E+02  0.17119425002E+03  0.12500134984E+03 0.  0.
          5    1    3    3  502    0  0.56509829771E+02 -0.54739158848E+02  0.10769095587E+03  0.13345099606E+03  0.47000000000E+01 0. -1.
         -5    1    3    3    0  502 -0.33266195648E+02 -0.10632952031E+02 -0.13519015410E+02  0.37743253959E+02  0.47000000000E+01 0. -1.
        -11    1    1    2    0    0  0.20097460548E+02  0.38316445570E+02  0.68543695677E+02  0.81057363260E+02  0.00000000000E+00 0.  1.
         11    1    1    2    0    0 -0.43341094670E+02  0.27055665309E+02 -0.37444519260E+01  0.51229683122E+02  0.00000000000E+00 0. -1.
<mgrwt>
<rscale>  0 0.13549040E+03</rscale>
<asrwt>0</asrwt>
<pdfrwt beam="2">  1        2 0.11116163E-01 0.14296544E+03</pdfrwt>
<pdfrwt beam="1">  1       -2 0.35573267E-01 0.14296544E+03</pdfrwt>
<totfact> 0.40103467E+03</totfact>
</mgrwt>
</event>
<event>
 7    1  0.6008063E-006  0.1468331E+03  0.7546771E-02  0.1214362E+00
         -3   -1    0    0    0  501 -0.00000000000E+00  0.00000000000E+00  0.22644212858E+03  0.22644212858E+03  0.00000000000E+00 0.  1.
          3   -1    0    0  501    0  0.00000000000E+00 -0.00000000000E+00 -0.79116399188E+02  0.79116399188E+02  0.00000000000E+00 0. -1.
         23    2    1    2    0    0 -0.34774010716E+02 -0.68739899899E+02  0.62150876983E+02  0.15944497555E+03  0.12500225222E+03 0.  0.
          5    1    3    3  502    0 -0.31613907218E+02 -0.58027925075E+02  0.99860212321E+02  0.11983668563E+03  0.47000000000E+01 0. -1.
         -5    1    3    3    0  502 -0.31601034982E+01 -0.10711974824E+02 -0.37709335339E+02  0.39608289921E+02  0.47000000000E+01 0. -1.
        -11    1    1    2    0    0  0.46984360685E+02  0.50167799632E+02  0.98565942519E+02  0.12016481720E+03  0.00000000000E+00 0.  1.
         11    1    1    2    0    0 -0.12210349969E+02  0.18572100267E+02 -0.13391090107E+02  0.25948735017E+02  0.00000000000E+00 0. -1.
<mgrwt>
<rscale>  0 0.13923516E+03</rscale>
<asrwt>0</asrwt>
<pdfrwt beam="2">  1        3 0.12171754E-01 0.14683313E+03</pdfrwt>
<pdfrwt beam="1">  1       -3 0.34837250E-01 0.14683313E+03</pdfrwt>
<totfact> 0.10029570E+03</totfact>
</mgrwt>
</event>
<event>
 7    1  0.6008063E-006  0.2020314E+03  0.7546771E-02  0.1151271E+00
          2   -1    0    0  501    0  0.00000000000E+00  0.00000000000E+00  0.23346888184E+03  0.23346888184E+03  0.00000000000E+00 0. -1.
         -2   -1    0    0    0  501 -0.00000000000E+00 -0.00000000000E+00 -0.49616793253E+03  0.49616793253E+03  0.00000000000E+00 0.  1.
         23    2    1    2    0    0  0.15669417528E+03 -0.25261178584E+02  0.16625771367E+03  0.26164538558E+03  0.12500195490E+03 0.  0.
          5    1    3    3  502    0  0.84612976043E+02 -0.53952958818E+02  0.15264688526E+03  0.18273871801E+03  0.47000000000E+01 0. -1.
         -5    1    3    3    0  502  0.72081199240E+02  0.28691780234E+02  0.13610828406E+02  0.78906667569E+02  0.47000000000E+01 0. -1.
        -11    1    1    2    0    0 -0.55330380934E+02  0.33599956475E+02 -0.71970297634E+02  0.96799441481E+02  0.00000000000E+00 0. -1.
         11    1    1    2    0    0 -0.10136379435E+03 -0.83387778918E+01 -0.35698646673E+03  0.37119198731E+03  0.00000000000E+00 0.  1.
<mgrwt>
<rscale>  0 0.19819439E+03</rscale>
<asrwt>0</asrwt>
<pdfrwt beam="1">  1        2 0.35918290E-01 0.20203138E+03</pdfrwt>
<pdfrwt beam="2">  1       -2 0.76333528E-01 0.20203138E+03</pdfrwt>
<totfact> 0.22916641E+02</totfact>
</mgrwt>
</event>
<event>
 6    1  0.6008063E-006  0.2612055E+03  0.7546771E-02  0.1109715E+00
         -2   -1    0    0    0  501 -0.00000000000E+00  0.00000000000E+00  0.35527965250E+02  0.35527965250E+02  0.00000000000E+00 0.  1.
          2   -1    0    0  501    0  0.00000000000E+00 -0.00000000000E+00 -0.18396954028E+04  0.18396954028E+04  0.00000000000E+00 0. -1.
          5    1    1    2  502    0 -0.16767552205E+03 -0.11725655412E+03 -0.10459008487E+04  0.10657367665E+04  0.47000000000E+01 0. -1.
         -5    1    1    2    0  502  0.10771601848E+02 -0.39077465958E+02 -0.77002888574E+02  0.87147063065E+02  0.47000000000E+01 0.  1.
        -11    1    1    2    0    0  0.64534386863E+02  0.27826855440E+02 -0.32491332108E+03  0.33242696519E+03  0.00000000000E+00 0. -1.
         11    1    1    2    0    0  0.92369533338E+02  0.12850716463E+03 -0.35635037919E+03  0.38991257328E+03  0.00000000000E+00 0.  1.
<mgrwt>
<rscale>  0 0.25576470E+03</rscale>
<asrwt>0</asrwt>
<pdfrwt beam="2">  1        2 0.28303011E+00 0.26120552E+03</pdfrwt>
<pdfrwt beam="1">  1       -2 0.54658398E-02 0.26120552E+03</pdfrwt>
<totfact> 0.15420908E+03</totfact>
</mgrwt>
</event>
<event>
 7    1  0.6008063E-006  0.1738701E+03  0.7546771E-02  0.1180067E+00
          3   -1    0    0  501    0  0.00000000000E+00  0.00000000000E+00  0.22976611108E+03  0.22976611108E+03  0.00000000000E+00 0. -1.
         -3   -1    0    0    0  501 -0.00000000000E+00 -0.00000000000E+00 -0.11499669916E+03  0.11499669916E+03  0.00000000000E+00 0.  1.
         23    2    1    2    0    0  0.11809223914E+03 -0.25724664949E+02  0.57663844948E+02  0.18318280734E+03  0.12499314604E+03 0.  0.
          5    1    3    3  502    0  0.11189063829E+02 -0.44899371063E+02 -0.18912925479E+02  0.50208937665E+02  0.47000000000E+01 0.  1.
         -5    1    3    3    0  502  0.10690317531E+03  0.19174706115E+02  0.76576770428E+02  0.13297386967E+03  0.47000000000E+01 0.  1.
        -11    1    1    2    0    0 -0.29767114076E+02  0.43089648787E+02 -0.44026514807E+01  0.52556467281E+02  0.00000000000E+00 0.  1.
         11    1    1    2    0    0 -0.88325125067E+02 -0.17364983838E+02  0.61508218451E+02  0.10902353562E+03  0.00000000000E+00 0. -1.
<mgrwt>
<rscale>  0 0.16788910E+03</rscale>
<asrwt>0</asrwt>
<pdfrwt beam="1">  1        3 0.35348632E-01 0.17387013E+03</pdfrwt>
<pdfrwt beam="2">  1       -3 0.17691800E-01 0.17387013E+03</pdfrwt>
<totfact> 0.52661114E+02</totfact>
</mgrwt>
</event>
<event>
 7    1  0.6008063E-006  0.1771893E+03  0.7546771E-02  0.1177130E+00
          1   -1    0    0  501    0  0.00000000000E+00  0.00000000000E+00  0.14686363412E+03  0.14686363412E+03  0.00000000000E+00 0. -1.
         -1   -1    0    0    0  501 -0.00000000000E+00 -0.00000000000E+00 -0.18517609767E+03  0.18517609767E+03  0.00000000000E+00 0.  1.
         23    2    1    2    0    0 -0.10417297241E+03  0.70136580067E+02 -0.23306099783E+02  0.17871548565E+03  0.12499960992E+03 0.  0.
          5    1    3    3  502    0 -0.17063344163E+02  0.68728486690E+02 -0.50754723316E+02  0.87251902762E+02  0.47000000000E+01 0. -1.
         -5    1    3    3    0  502 -0.87109628252E+02  0.14080933767E+01  0.27448623533E+02  0.91463582889E+02  0.47000000000E+01 0. -1.
        -11    1    1    2    0    0  0.71848345633E+02 -0.20788325730E+02 -0.44850851517E+02  0.87212029782E+02  0.00000000000E+00 0.  1.
         11    1    1    2    0    0  0.32324626782E+02 -0.49348254337E+02  0.29844487749E+02  0.66112216357E+02  0.00000000000E+00 0. -1.
<mgrwt>
<rscale>  0 0.17069009E+03</rscale>
<asrwt>0</asrwt>
<pdfrwt beam="1">  1        1 0.22594405E-01 0.17718931E+03</pdfrwt>
<pdfrwt beam="2">  1       -1 0.28488630E-01 0.17718931E+03</pdfrwt>
<totfact> 0.23888379E+03</totfact>
</mgrwt>
</event>
<event>
 7    1  0.6008063E-006  0.1283010E+03  0.7546771E-02  0.1244369E+00
          2   -1    0    0  501    0  0.00000000000E+00  0.00000000000E+00  0.55749314114E+03  0.55749314114E+03  0.00000000000E+00 0. -1.
         -2   -1    0    0    0  501 -0.00000000000E+00 -0.00000000000E+00 -0.23696634551E+02  0.23696634551E+02  0.00000000000E+00 0.  1.
         23    2    1    2    0    0  0.26935811680E+02  0.10529207924E+02  0.36843795909E+03  0.39013802732E+03  0.12499899395E+03 0.  0.
          5    1    3    3  502    0 -0.22222940638E+01  0.42536668440E+02  0.32774169025E+03  0.33053140892E+03  0.47000000000E+01 0.  1.
         -5    1    3    3    0  502  0.29158105744E+02 -0.32007460516E+02  0.40696268842E+02  0.59606618398E+02  0.47000000000E+01 0.  1.
        -11    1    1    2    0    0  0.25840434679E+02 -0.29761355070E+02  0.63737658517E+02  0.74939678630E+02  0.00000000000E+00 0. -1.
         11    1    1    2    0    0 -0.52776246359E+02  0.19232147146E+02  0.10162088898E+03  0.11611206974E+03  0.00000000000E+00 0.  1.
<mgrwt>
<rscale>  0 0.11923222E+03</rscale>
<asrwt>0</asrwt>
<pdfrwt beam="1">  1        2 0.85768166E-01 0.12830102E+03</pdfrwt>
<pdfrwt beam="2">  1       -2 0.36456365E-02 0.12830102E+03</pdfrwt>
<totfact> 0.16357795E+04</totfact>
</mgrwt>
</event>
<event>
 7    1  0.7445545E-006  0.1447183E+03  0.7546771E-02  0.1217826E+00
          1   -1    0    0  501    0  0.00000000000E+00  0.00000000000E+00  0.14383683753E+04  0.14383683753E+04  0.00000000000E+00 0. -1.
         -1   -1    0    0    0  501 -0.00000000000E+00 -0.00000000000E+00 -0.12348580582E+02  0.12348580582E+02  0.00000000000E+00 0.  1.
         23    2    1    2    0    0 -0.63808727570E+02 -0.35303840032E+02  0.94911360212E+03  0.96008334500E+03  0.12500193911E+03 0.  0.
          5    1    3    3  502    0 -0.21609049908E+02 -0.66913481848E+02  0.77249126828E+03  0.77569917794E+03  0.47000000000E+01 0. -1.
         -5    1    3    3    0  502 -0.42199677662E+02  0.31609641817E+02  0.17662233384E+03  0.18438416706E+03  0.47000000000E+01 0. -1.
        -11    1    1    2    0    0  0.19424924718E+02  0.54686573073E+02  0.35040371860E+03  0.35517701922E+03  0.00000000000E+00 0. -1.
         11    1    1    2    0    0  0.44383802852E+02 -0.19382733041E+02  0.12650247396E+03  0.13545659162E+03  0.00000000000E+00 0.  1.
<mgrwt>
<rscale>  0 0.13670988E+03</rscale>
<asrwt>0</asrwt>
<pdfrwt beam="1">  1        1 0.22128731E+00 0.14471835E+03</pdfrwt>
<pdfrwt beam="2">  1       -1 0.18997828E-02 0.14471835E+03</pdfrwt>
<totfact> 0.57145170E+03</totfact>
</mgrwt>
</event>
<event>
 6    1  0.6008063E-006  0.1909850E+03  0.7546771E-02  0.1186370E+00
          2   -1    0    0  501    0  0.00000000000E+00  0.00000000000E+00  0.17468045054E+04  0.17468045054E+04  0.00000000000E+00 0. -1.
         -2   -1    0    0    0  501 -0.00000000000E+00 -0.00000000000E+00 -0.41343564885E+02  0.41343564885E+02  0.00000000000E+00 0.  1.
          5    1    1    2  502    0 -0.53871111323E+02 -0.58770705724E+02  0.12796177767E+04  0.12821075762E+04  0.47000000000E+01 0. -1.
         -5    1    1    2    0  502  0.35354283877E+02  0.73408245665E+02  0.39343686529E+03  0.40181258429E+03  0.47000000000E+01 0.  1.
        -11    1    1    2    0    0 -0.24256703433E+02 -0.41056646725E+02  0.23528367861E+02  0.53175370200E+02  0.00000000000E+00 0.  1.
         11    1    1    2    0    0  0.42773530879E+02  0.26419106784E+02  0.88779306601E+01  0.51052539603E+02  0.00000000000E+00 0. -1.
<mgrwt>
<rscale>  0 0.16207882E+03</rscale>
<asrwt>0</asrwt>
<pdfrwt beam="1">  1        2 0.26873910E+00 0.19098500E+03</pdfrwt>
<pdfrwt beam="2">  1       -2 0.63605498E-02 0.19098500E+03</pdfrwt>
<totfact> 0.13744955E+03</totfact>
</mgrwt>
</event>
<event>
 7    1  0.6008063E-006  0.1492252E+03  0.7546771E-02  0.1211582E+00
         -2   -1    0    0    0  501 -0.00000000000E+00  0.00000000000E+00  0.11808191527E+03  0.11808191527E+03  0.00000000000E+00 0.  1.
          2   -1    0    0  501    0  0.00000000000E+00 -0.00000000000E+00 -0.15527903317E+03  0.15527903317E+03  0.00000000000E+00 0. -1.
         23    2    1    2    0    0 -0.70859423490E+02  0.40272618334E+02 -0.35389969474E+02  0.15336426694E+03  0.12500082699E+03 0.  0.
          5    1    3    3  502    0 -0.51230968608E+02  0.50971302624E+02 -0.77118375918E+02  0.10579234254E+03  0.47000000000E+01 0. -1.
         -5    1    3    3    0  502 -0.19628454883E+02 -0.10698684290E+02  0.41728406444E+02  0.47571924399E+02  0.47000000000E+01 0. -1.
        -11    1    1    2    0    0  0.52618359357E+02 -0.48345903231E+02 -0.36302314115E+02  0.80149086774E+02  0.00000000000E+00 0.  1.
         11    1    1    2    0    0  0.18241064134E+02  0.80732848973E+01  0.34495165686E+02  0.39847594726E+02  0.00000000000E+00 0. -1.
<mgrwt>
<rscale>  0 0.14130630E+03</rscale>
<asrwt>0</asrwt>
<pdfrwt beam="2">  1        2 0.23889082E-01 0.14922516E+03</pdfrwt>
<pdfrwt beam="1">  1       -2 0.18166449E-01 0.14922516E+03</pdfrwt>
<totfact> 0.53852007E+03</totfact>
</mgrwt>
</event>
<event>
 7    1  0.6008063E-006  0.1470911E+03  0.7546771E-02  0.1213581E+00
          1   -1    0    0  501    0  0.00000000000E+00  0.00000000000E+00  0.10631959995E+03  0.10631959995E+03  0.00000000000E+00 0. -1.
         -1   -1    0    0    0  501 -0.00000000000E+00 -0.00000000000E+00 -0.17872185393E+03  0.17872185393E+03  0.00000000000E+00 0.  1.
         23    2    1    2    0    0  0.20993553242E+02  0.74634125176E+02 -0.46224872774E+01  0.14716372010E+03  0.12499924482E+03 0.  0.
          5    1    3    3  502    0  0.46055719145E+02  0.31144013158E+02  0.48499066179E+02  0.73927858360E+02  0.47000000000E+01 0.  1.
         -5    1    3    3    0  502 -0.25062165903E+02  0.43490112017E+02 -0.53121553456E+02  0.73235861739E+02  0.47000000000E+01 0.  1.
        -11    1    1    2    0    0 -0.16020189730E+02 -0.89343919619E+02 -0.77673247929E+02  0.11946596124E+03  0.00000000000E+00 0.  1.
         11    1    1    2    0    0 -0.49733635121E+01  0.14709794443E+02  0.98934812224E+01  0.18411772535E+02  0.00000000000E+00 0. -1.
<mgrwt>
<rscale>  0 0.13981252E+03</rscale>
<asrwt>0</asrwt>
<pdfrwt beam="1">  1        1 0.16356862E-01 0.14709110E+03</pdfrwt>
<pdfrwt beam="2">  1       -1 0.27495670E-01 0.14709110E+03</pdfrwt>
<totfact> 0.38011276E+03</totfact>
</mgrwt>
</event>
<event>
 7    1  0.6008063E-006  0.1620248E+03  0.7546771E-02  0.1193250E+00
          2   -1    0    0  501    0  0.00000000000E+00  0.00000000000E+00  0.50834904910E+03  0.50834904910E+03  0.00000000000E+00 0. -1.
         -2   -1    0    0    0  501 -0.00000000000E+00 -0.00000000000E+00 -0.45215109490E+02  0.45215109490E+02  0.00000000000E+00 0.  1.
         23    2    1    2    0    0  0.66416821480E+01 -0.10287242108E+03  0.27911359222E+03  0.32273273907E+03  0.12500070617E+03 0.  0.
          5    1    3    3  502    0 -0.79640461999E+01 -0.12103864129E+02  0.20220360393E+03  0.20277651985E+03  0.47000000000E+01 0.  1.
         -5    1    3    3    0  502  0.14605728348E+02 -0.90768556947E+02  0.76909988296E+02  0.11995621922E+03  0.47000000000E+01 0.  1.
        -11    1    1    2    0    0 -0.23464891920E+02  0.58409968881E+01  0.24893721188E+01  0.24308750915E+02  0.00000000000E+00 0.  1.
         11    1    1    2    0    0  0.16823209772E+02  0.97031424187E+02  0.18153097526E+03  0.20652266860E+03  0.00000000000E+00 0. -1.
<mgrwt>
<rscale>  0 0.15603292E+03</rscale>
<asrwt>0</asrwt>
<pdfrwt beam="1">  1        2 0.78207542E-01 0.16202476E+03</pdfrwt>
<pdfrwt beam="2">  1       -2 0.69561711E-02 0.16202476E+03</pdfrwt>
<totfact> 0.69638315E+03</totfact>
</mgrwt>
</event>
<event>
 7    1  0.6008063E-006  0.1472154E+03  0.7546771E-02  0.1213573E+00
          2   -1    0    0  501    0  0.00000000000E+00  0.00000000000E+00  0.93750889149E+02  0.93750889149E+02  0.00000000000E+00 0. -1.
         -2   -1    0    0    0  501 -0.00000000000E+00 -0.00000000000E+00 -0.19172974171E+03  0.19172974171E+03  0.00000000000E+00 0.  1.
         23    2    1    2    0    0 -0.77207980841E+02  0.93230542826E+01 -0.40897236069E+02  0.15279054070E+03  0.12499749503E+03 0.  0.
          5    1    3    3  502    0 -0.22908597059E+02  0.64850416252E+02 -0.25316039453E+02  0.73439581704E+02  0.47000000000E+01 0. -1.
         -5    1    3    3    0  502 -0.54299383782E+02 -0.55527361969E+02 -0.15581196616E+02  0.79350959001E+02  0.47000000000E+01 0. -1.
        -11    1    1    2    0    0 -0.13446371931E+02 -0.55681157329E+01  0.11830127254E+02  0.18755285702E+02  0.00000000000E+00 0. -1.
         11    1    1    2    0    0  0.90654352772E+02 -0.37549385497E+01 -0.68911743747E+02  0.11393480446E+03  0.00000000000E+00 0.  1.
<mgrwt>
<rscale>  0 0.13981865E+03</rscale>
<asrwt>0</asrwt>
<pdfrwt beam="1">  1        2 0.14423214E-01 0.14721537E+03</pdfrwt>
<pdfrwt beam="2">  1       -2 0.29496883E-01 0.14721537E+03</pdfrwt>
<totfact> 0.41401777E+03</totfact>
</mgrwt>
</event>
<event>
 7    1  0.6008063E-006  0.1623135E+03  0.7546771E-02  0.1193382E+00
         -1   -1    0    0    0  501 -0.00000000000E+00  0.00000000000E+00  0.58239573618E+02  0.58239573618E+02  0.00000000000E+00 0.  1.
          1   -1    0    0  501    0  0.00000000000E+00 -0.00000000000E+00 -0.47549249236E+03  0.47549249236E+03  0.00000000000E+00 0. -1.
         23    2    1    2    0    0  0.81457465364E+01  0.10321903533E+03 -0.33664979945E+03  0.37373623621E+03  0.12500065736E+03 0.  0.
          5    1    3    3  502    0 -0.34047588112E+02  0.14959400676E+02 -0.20417178514E+02  0.42684576879E+02  0.47000000000E+01 0.  1.
         -5    1    3    3    0  502  0.42193334649E+02  0.88259634649E+02 -0.31623262094E+03  0.33105165933E+03  0.47000000000E+01 0.  1.
        -11    1    1    2    0    0 -0.40504369212E+02 -0.63440062667E+02 -0.78382688463E+02  0.10866964308E+03  0.00000000000E+00 0. -1.
         11    1    1    2    0    0  0.32358622676E+02 -0.39778972658E+02 -0.22204308250E+01  0.51326186692E+02  0.00000000000E+00 0.  1.
<mgrwt>
<rscale>  0 0.15591948E+03</rscale>
<asrwt>0</asrwt>
<pdfrwt beam="2">  1        1 0.73152690E-01 0.16231354E+03</pdfrwt>
<pdfrwt beam="1">  1       -1 0.89599346E-02 0.16231354E+03</pdfrwt>
<totfact> 0.34148384E+03</totfact>
</mgrwt>
</event>
<event>
 7    1  0.6008063E-006  0.1341397E+03  0.7546771E-02  0.1233651E+00
         -2   -1    0    0    0  501 -0.00000000000E+00  0.00000000000E+00  0.26995295321E+02  0.26995295321E+02  0.00000000000E+00 0.  1.
          2   -1    0    0  501    0  0.00000000000E+00 -0.00000000000E+00 -0.75935519173E+03  0.75935519173E+03  0.00000000000E+00 0. -1.
         23    2    1    2    0    0  0.31416704394E+02 -0.37165082015E+02 -0.61496933132E+03  0.62942889228E+03  0.12500079734E+03 0.  0.
          5    1    3    3  502    0 -0.44062720276E+02 -0.25189829565E+02 -0.15598874178E+03  0.16410554041E+03  0.47000000000E+01 0. -1.
         -5    1    3    3    0  502  0.75479424670E+02 -0.11975252450E+02 -0.45898058954E+03  0.46532335187E+03  0.47000000000E+01 0. -1.
        -11    1    1    2    0    0 -0.39108132691E+02  0.58679023748E+01 -0.48320256215E+01  0.39840014965E+02  0.00000000000E+00 0.  1.
         11    1    1    2    0    0  0.76914282969E+01  0.31297179640E+02 -0.11255853947E+03  0.11708157980E+03  0.00000000000E+00 0. -1.
<mgrwt>
<rscale>  0 0.12591163E+03</rscale>
<asrwt>0</asrwt>
<pdfrwt beam="2">  1        2 0.11682386E+00 0.13413967E+03</pdfrwt>
<pdfrwt beam="1">  1       -2 0.41531230E-02 0.13413967E+03</pdfrwt>
<totfact> 0.94429187E+03</totfact>
</mgrwt>
</event>
<event>
 7    1  0.6008063E-006  0.1434703E+03  0.7546771E-02  0.1212176E+00
         -1   -1    0    0    0  501 -0.00000000000E+00  0.00000000000E+00  0.31445651366E+03  0.31445651366E+03  0.00000000000E+00 0.  1.
          1   -1    0    0  501    0  0.00000000000E+00 -0.00000000000E+00 -0.61240512678E+02  0.61240512678E+02  0.00000000000E+00 0. -1.
         23    2    1    2    0    0  0.47593753141E+02  0.75244221143E+02  0.11734845688E+03  0.18534934567E+03  0.11250271755E+03 0.  0.
          5    1    3    3  502    0  0.14642675014E+02  0.93770132440E+02  0.11200658774E+03  0.14688366610E+03  0.47000000000E+01 0. -1.
         -5    1    3    3    0  502  0.32951078127E+02 -0.18525911297E+02  0.53418691342E+01  0.38465679572E+02  0.47000000000E+01 0.  1.
        -11    1    1    2    0    0 -0.71050853329E+02 -0.77293575787E+02  0.87955789893E+02  0.13696255544E+03  0.00000000000E+00 0.  1.
         11    1    1    2    0    0  0.23457100189E+02  0.20493546442E+01  0.47911754218E+02  0.53385125231E+02  0.00000000000E+00 0. -1.
<mgrwt>
<rscale>  0 0.14086051E+03</rscale>
<asrwt>0</asrwt>
<pdfrwt beam="2">  1        1 0.94216175E-02 0.14347027E+03</pdfrwt>
<pdfrwt beam="1">  1       -1 0.48377924E-01 0.14347027E+03</pdfrwt>
<totfact> 0.29393103E+03</totfact>
</mgrwt>
</event>
<event>
 7    1  0.6008063E-006  0.1259897E+03  0.7546771E-02  0.1243678E+00
         -2   -1    0    0    0  501 -0.00000000000E+00  0.00000000000E+00  0.46542464901E+02  0.46542464901E+02  0.00000000000E+00 0.  1.
          2   -1    0    0  501    0  0.00000000000E+00 -0.00000000000E+00 -0.32160590288E+03  0.32160590288E+03  0.00000000000E+00 0. -1.
         23    2    1    2    0    0 -0.15820987238E+02  0.87653503575E+00 -0.21547815354E+03  0.24960818521E+03  0.12498935763E+03 0.  0.
          5    1    3    3  502    0 -0.24282352821E+02 -0.35562183419E+02 -0.20630823932E+03  0.21080673888E+03  0.47000000000E+01 0. -1.
         -5    1    3    3    0  502  0.84613655830E+01  0.36438718455E+02 -0.91699142202E+01  0.38801446326E+02  0.47000000000E+01 0. -1.
        -11    1    1    2    0    0  0.24447039965E+02 -0.43630367213E+02 -0.74463696365E+01  0.50563970641E+02  0.00000000000E+00 0.  1.
         11    1    1    2    0    0 -0.86260527271E+01  0.42753832177E+02 -0.52138914804E+02  0.67976211931E+02  0.00000000000E+00 0. -1.
<mgrwt>
<rscale>  0 0.11964845E+03</rscale>
<asrwt>0</asrwt>
<pdfrwt beam="2">  1        2 0.49477831E-01 0.12598973E+03</pdfrwt>
<pdfrwt beam="1">  1       -2 0.71603793E-02 0.12598973E+03</pdfrwt>
<totfact> 0.10719809E+04</totfact>
</mgrwt>
</event>
<event>
 7    1  0.6008063E-006  0.1382582E+03  0.7546771E-02  0.1223691E+00
         -1   -1    0    0    0  501 -0.00000000000E+00  0.00000000000E+00  0.47876747736E+03  0.47876747736E+03  0.00000000000E+00 0.  1.
          1   -1    0    0  501    0  0.00000000000E+00 -0.00000000000E+00 -0.34052454445E+02  0.34052454445E+02  0.00000000000E+00 0. -1.
         23    2    1    2    0    0  0.45523686890E+02  0.37650130228E+02  0.25200132898E+03  0.28743693880E+03  0.12500154241E+03 0.  0.
          5    1    3    3  502    0  0.64935966345E+02 -0.17127349507E+02  0.19335427953E+03  0.20473884155E+03  0.47000000000E+01 0. -1.
         -5    1    3    3    0  502 -0.19412279455E+02  0.54777479735E+02  0.58647049454E+02  0.82698097254E+02  0.47000000000E+01 0. -1.
        -11    1    1    2    0    0 -0.46422191584E+02 -0.60481171066E+02  0.80532207183E+02  0.11089827915E+03  0.00000000000E+00 0. -1.
         11    1    1    2    0    0  0.89850469326E+00  0.22831040838E+02  0.11218148675E+03  0.11448471385E+03  0.00000000000E+00 0.  1.
<mgrwt>
<rscale>  0 0.13256998E+03</rscale>
<asrwt>0</asrwt>
<pdfrwt beam="2">  1        1 0.52388395E-02 0.13825818E+03</pdfrwt>
<pdfrwt beam="1">  1       -1 0.73656530E-01 0.13825818E+03</pdfrwt>
<totfact> 0.29124255E+03</totfact>
</mgrwt>
</event>
<event>
 7    1  0.6008063E-006  0.1451483E+03  0.7546771E-02  0.1220159E+00
         -1   -1    0    0    0  501 -0.00000000000E+00  0.00000000000E+00  0.11731046786E+02  0.11731046786E+02  0.00000000000E+00 0.  1.
          1   -1    0    0  501    0  0.00000000000E+00 -0.00000000000E+00 -0.16871488552E+04  0.16871488552E+04  0.00000000000E+00 0. -1.
         23    2    1    2    0    0  0.50983409930E+02 -0.53322564754E+02 -0.12984555638E+04  0.13065431052E+04  0.12500172231E+03 0.  0.
          5    1    3    3  502    0 -0.25127573534E+02  0.13692215899E+02 -0.60515481288E+03  0.60584924633E+03  0.47000000000E+01 0. -1.
         -5    1    3    3    0  502  0.76110983464E+02 -0.67014780653E+02 -0.69330075093E+03  0.70069385888E+03  0.47000000000E+01 0. -1.
        -11    1    1    2    0    0 -0.62098070518E+02  0.66372007537E+02 -0.33202684606E+03  0.34424299594E+03  0.00000000000E+00 0. -1.
         11    1    1    2    0    0  0.11114660588E+02 -0.13049442783E+02 -0.44935398530E+02  0.48093800827E+02  0.00000000000E+00 0.  1.
<mgrwt>
<rscale>  0 0.13504273E+03</rscale>
<asrwt>0</asrwt>
<pdfrwt beam="2">  1        1 0.25956107E+00 0.14514832E+03</pdfrwt>
<pdfrwt beam="1">  1       -1 0.18047785E-02 0.14514832E+03</pdfrwt>
<totfact> 0.42498681E+03</totfact>
</mgrwt>
</event>
<event>
 7    1  0.6008063E-006  0.1385610E+03  0.7546771E-02  0.1225865E+00
         -2   -1    0    0    0  501 -0.00000000000E+00  0.00000000000E+00  0.96096261738E+02  0.96096261738E+02  0.00000000000E+00 0.  1.
          2   -1    0    0  501    0  0.00000000000E+00 -0.00000000000E+00 -0.16378165284E+03  0.16378165284E+03  0.00000000000E+00 0. -1.
         23    2    1    2    0    0 -0.58858068768E+02  0.19083842375E+01 -0.24015640335E+02  0.14062685631E+03  0.12542427016E+03 0.  0.
          5    1    3    3  502    0  0.10646300164E+02 -0.34751593162E+02  0.28131988561E+02  0.46200819418E+02  0.47000000000E+01 0. -1.
         -5    1    3    3    0  502 -0.69504368932E+02  0.36659977399E+02 -0.52147628897E+02  0.94426036892E+02  0.47000000000E+01 0. -1.
        -11    1    1    2    0    0  0.45790362268E+02 -0.34542838112E+02  0.67843607662E+01  0.57758051322E+02  0.00000000000E+00 0.  1.
         11    1    1    2    0    0  0.13067706500E+02  0.32634453875E+02 -0.50454111532E+02  0.61493006947E+02  0.00000000000E+00 0. -1.
<mgrwt>
<rscale>  0 0.13107797E+03</rscale>
<asrwt>0</asrwt>
<pdfrwt beam="2">  1        2 0.25197177E-01 0.13856104E+03</pdfrwt>
<pdfrwt beam="1">  1       -2 0.14784040E-01 0.13856104E+03</pdfrwt>
<totfact> 0.71009923E+03</totfact>
</mgrwt>
</event>
<event>
 7    1  0.6008063E-006  0.1687310E+03  0.7546771E-02  0.1185893E+00
          2   -1    0    0  501    0  0.00000000000E+00  0.00000000000E+00  0.57610241819E+03  0.57610241819E+03  0.00000000000E+00 0. -1.
         -2   -1    0    0    0  501 -0.00000000000E+00 -0.00000000000E+00 -0.46222603104E+02  0.46222603104E+02  0.00000000000E+00 0.  1.
         23    2    1    2    0    0 -0.10839999951E+03  0.33074003065E+02  0.36823545876E+03  0.40505248961E+03  0.12500286669E+03 0.  0.
          5    1    3    3  502    0  0.23681421972E+02  0.53659265868E+01  0.20866838841E+02  0.32359200824E+02  0.47000000000E+01 0.  1.
         -5    1    3    3    0  502 -0.13208142148E+03  0.27708076478E+02  0.34736861992E+03  0.37269328879E+03  0.47000000000E+01 0.  1.
        -11    1    1    2    0    0  0.48057301701E+02 -0.53520108430E+01  0.68522003361E+01  0.48837494984E+02  0.00000000000E+00 0.  1.
         11    1    1    2    0    0  0.60342697809E+02 -0.27721992222E+02  0.15479215598E+03  0.16843503669E+03  0.00000000000E+00 0. -1.
<mgrwt>
<rscale>  0 0.16250851E+03</rscale>
<asrwt>0</asrwt>
<pdfrwt beam="1">  1        2 0.88631136E-01 0.16873105E+03</pdfrwt>
<pdfrwt beam="2">  1       -2 0.71111701E-02 0.16873105E+03</pdfrwt>
<totfact> 0.58622575E+03</totfact>
</mgrwt>
</event>
<event>
 7    1  0.6008063E-006  0.2208975E+03  0.7546771E-02  0.1136627E+00
          2   -1    0    0  501    0  0.00000000000E+00  0.00000000000E+00  0.15740071679E+04  0.15740071679E+04  0.00000000000E+00 0. -1.
         -2   -1    0    0    0  501 -0.00000000000E+00 -0.00000000000E+00 -0.45069783360E+02  0.45069783360E+02  0.00000000000E+00 0.  1.
         23    2    1    2    0    0 -0.17617434837E+03  0.46196643939E+02  0.12739867865E+04  0.12929957563E+04  0.12499665107E+03 0.  0.
          5    1    3    3  502    0 -0.58367346691E+02  0.31567213941E+02  0.85231357802E+03  0.85490570325E+03  0.47000000000E+01 0.  1.
         -5    1    3    3    0  502 -0.11780700168E+03  0.14629429999E+02  0.42167320847E+03  0.43809005308E+03  0.47000000000E+01 0.  1.
        -11    1    1    2    0    0  0.81986193138E+02  0.89064693106E+01  0.16577655127E+03  0.18515649060E+03  0.00000000000E+00 0.  1.
         11    1    1    2    0    0  0.94188155231E+02 -0.55103113250E+02  0.89174046802E+02  0.14092470436E+03  0.00000000000E+00 0. -1.
<mgrwt>
<rscale>  0 0.21635907E+03</rscale>
<asrwt>0</asrwt>
<pdfrwt beam="1">  1        2 0.24215491E+00 0.22089747E+03</pdfrwt>
<pdfrwt beam="2">  1       -2 0.69338140E-02 0.22089747E+03</pdfrwt>
<totfact> 0.14784067E+03</totfact>
</mgrwt>
</event>
<event>
 7    1  0.6008063E-006  0.1308278E+03  0.7546771E-02  0.1239529E+00
         -3   -1    0    0    0  501 -0.00000000000E+00  0.00000000000E+00  0.83506512901E+02  0.83506512901E+02  0.00000000000E+00 0.  1.
          3   -1    0    0  501    0  0.00000000000E+00 -0.00000000000E+00 -0.27264617374E+03  0.27264617374E+03  0.00000000000E+00 0. -1.
         23    2    1    2    0    0 -0.38228115291E+02  0.52694416595E+01 -0.21645951992E+03  0.25292419808E+03  0.12500708139E+03 0.  0.
          5    1    3    3  502    0  0.10147639905E+02  0.43251856583E+02 -0.16980481038E+03  0.17558320341E+03  0.47000000000E+01 0.  1.
         -5    1    3    3    0  502 -0.48375755196E+02 -0.37982414923E+02 -0.46654709545E+02  0.77340994672E+02  0.47000000000E+01 0.  1.
        -11    1    1    2    0    0  0.10382812431E+02  0.42358575309E-01 -0.34066131942E+02  0.35613283108E+02  0.00000000000E+00 0. -1.
         11    1    1    2    0    0  0.27845302860E+02 -0.53118002348E+01  0.61385991027E+02  0.67615205446E+02  0.00000000000E+00 0.  1.
<mgrwt>
<rscale>  0 0.12218924E+03</rscale>
<asrwt>0</asrwt>
<pdfrwt beam="2">  1        3 0.41945565E-01 0.13082785E+03</pdfrwt>
<pdfrwt beam="1">  1       -3 0.12847156E-01 0.13082785E+03</pdfrwt>
<totfact> 0.63102472E+02</totfact>
</mgrwt>
</event>
<event>
 7    1  0.6008063E-006  0.1291785E+03  0.7546771E-02  0.1243607E+00
         -1   -1    0    0    0  501 -0.00000000000E+00  0.00000000000E+00  0.38743319662E+02  0.38743319662E+02  0.00000000000E+00 0.  1.
          1   -1    0    0  501    0  0.00000000000E+00 -0.00000000000E+00 -0.36509589716E+03  0.36509589716E+03  0.00000000000E+00 0. -1.
         23    2    1    2    0    0 -0.26397475611E+02  0.19076109571E+02 -0.25147736525E+03  0.28271532086E+03  0.12500545086E+03 0.  0.
          5    1    3    3  502    0 -0.37307182356E+02  0.45802480519E+02 -0.24590124247E+03  0.25294110802E+03  0.47000000000E+01 0. -1.
         -5    1    3    3    0  502  0.10909706745E+02 -0.26726370949E+02 -0.55761227765E+01  0.29774212845E+02  0.47000000000E+01 0. -1.
        -11    1    1    2    0    0  0.10153774056E+02  0.10584730986E+02  0.17452657949E+02  0.22797607925E+02  0.00000000000E+00 0.  1.
         11    1    1    2    0    0  0.16243701556E+02 -0.29660840557E+02 -0.92327870201E+02  0.98326288034E+02  0.00000000000E+00 0. -1.
<mgrwt>
<rscale>  0 0.11969111E+03</rscale>
<asrwt>0</asrwt>
<pdfrwt beam="2">  1        1 0.56168601E-01 0.12917851E+03</pdfrwt>
<pdfrwt beam="1">  1       -1 0.59605105E-02 0.12917851E+03</pdfrwt>
<totfact> 0.87126736E+03</totfact>
</mgrwt>
</event>
<event>
 6    1  0.6008063E-006  0.2248204E+03  0.7546771E-02  0.1152149E+00
          2   -1    0    0  501    0  0.00000000000E+00  0.00000000000E+00  0.23762813042E+04  0.23762813042E+04  0.00000000000E+00 0. -1.
         -2   -1    0    0    0  501 -0.00000000000E+00 -0.00000000000E+00 -0.19460124204E+02  0.19460124204E+02  0.00000000000E+00 0.  1.
          5    1    1    2  502    0 -0.61242192756E+02 -0.91503904014E+02  0.18346594495E+04  0.18379665276E+04  0.47000000000E+01 0. -1.
         -5    1    1    2    0  502  0.60795602845E+02 -0.55467929902E+01  0.20231896935E+03  0.21138100103E+03  0.47000000000E+01 0.  1.
        -11    1    1    2    0    0 -0.39492336162E+02  0.22438110686E+02  0.79158039007E+02  0.91263949981E+02  0.00000000000E+00 0. -1.
         11    1    1    2    0    0  0.39938926073E+02  0.74612586318E+02  0.24068472210E+03  0.25512994984E+03  0.00000000000E+00 0.  1.
<mgrwt>
<rscale>  0 0.19716996E+03</rscale>
<asrwt>0</asrwt>
<pdfrwt beam="1">  1        2 0.36558151E+00 0.22482040E+03</pdfrwt>
<pdfrwt beam="2">  1       -2 0.29938671E-02 0.22482040E+03</pdfrwt>
<totfact> 0.19972410E+03</totfact>
</mgrwt>
</event>
<event>
 7    1  0.6008063E-006  0.1648486E+03  0.7546771E-02  0.1190468E+00
          2   -1    0    0  501    0  0.00000000000E+00  0.00000000000E+00  0.24721758745E+02  0.24721758745E+02  0.00000000000E+00 0. -1.
         -2   -1    0    0    0  501 -0.00000000000E+00 -0.00000000000E+00 -0.96250130076E+03  0.96250130076E+03  0.00000000000E+00 0.  1.
         23    2    1    2    0    0  0.10733004653E+03 -0.13378828987E+01 -0.43694589539E+03  0.46700834108E+03  0.12511413317E+03 0.  0.
          5    1    3    3  502    0  0.29136762431E+02 -0.58179074848E+02 -0.13511393581E+03  0.15003873275E+03  0.47000000000E+01 0. -1.
         -5    1    3    3    0  502  0.78193284099E+02  0.56841191949E+02 -0.30183195958E+03  0.31696960832E+03  0.47000000000E+01 0. -1.
        -11    1    1    2    0    0 -0.80002513292E+02  0.29231769168E+02 -0.43822957673E+03  0.44643035333E+03  0.00000000000E+00 0.  1.
         11    1    1    2    0    0 -0.27327533239E+02 -0.27893886269E+02 -0.62604069900E+02  0.73784365093E+02  0.00000000000E+00 0. -1.
<mgrwt>
<rscale>  0 0.15844081E+03</rscale>
<asrwt>0</asrwt>
<pdfrwt beam="1">  1        2 0.38033472E-02 0.16484864E+03</pdfrwt>
<pdfrwt beam="2">  1       -2 0.14807713E+00 0.16484864E+03</pdfrwt>
<totfact> 0.73026607E+02</totfact>
</mgrwt>
</event>
<event>
 7    1  0.6008063E-006  0.2370550E+03  0.7546771E-02  0.1124489E+00
          2   -1    0    0  501    0  0.00000000000E+00  0.00000000000E+00  0.14335483994E+04  0.14335483994E+04  0.00000000000E+00 0.  1.
         -2   -1    0    0    0  501 -0.00000000000E+00 -0.00000000000E+00 -0.37969963426E+02  0.37969963426E+02  0.00000000000E+00 0. -1.
         23    2    1    2    0    0 -0.45793253712E+02 -0.19613286292E+03  0.85614037387E+03  0.88835319698E+03  0.12501976164E+03 0.  0.
          5    1    3    3  502    0 -0.68941526458E+01 -0.14435691183E+02  0.53731229213E+01  0.17517961370E+02  0.47000000000E+01 0.  1.
         -5    1    3    3    0  502 -0.38899101066E+02 -0.18169717174E+03  0.85076725095E+03  0.87083523561E+03  0.47000000000E+01 0.  1.
        -11    1    1    2    0    0  0.45881717805E+02  0.12929013039E+03  0.45636232603E+03  0.47653713651E+03  0.00000000000E+00 0.  1.
         11    1    1    2    0    0 -0.88464093950E-01  0.66842732533E+02  0.83075736058E+02  0.10662802934E+03  0.00000000000E+00 0. -1.
<mgrwt>
<rscale>  0 0.23308211E+03</rscale>
<asrwt>0</asrwt>
<pdfrwt beam="1">  1        2 0.22054587E+00 0.23705498E+03</pdfrwt>
<pdfrwt beam="2">  1       -2 0.58415339E-02 0.23705498E+03</pdfrwt>
<totfact> 0.22861099E+03</totfact>
</mgrwt>
</event>
<event>
 7    1  0.6008063E-006  0.1265452E+03  0.7546771E-02  0.1245598E+00
         -2   -1    0    0    0  501 -0.00000000000E+00  0.00000000000E+00  0.11755689730E+02  0.11755689730E+02  0.00000000000E+00 0.  1.
          2   -1    0    0  501    0  0.00000000000E+00 -0.00000000000E+00 -0.10659336635E+04  0.10659336635E+04  0.00000000000E+00 0. -1.
         23    2    1    2    0    0  0.58936753233E+01 -0.18819984701E+02 -0.58541024074E+03  0.59893140405E+03  0.12499899823E+03 0.  0.
          5    1    3    3  502    0 -0.43003128173E+02  0.20290536412E+02 -0.11775856943E+03  0.12708322302E+03  0.47000000000E+01 0. -1.
         -5    1    3    3    0  502  0.48896803496E+02 -0.39110521113E+02 -0.46765167132E+03  0.47184818103E+03  0.47000000000E+01 0. -1.
        -11    1    1    2    0    0 -0.17363794562E+01 -0.39139338046E+02 -0.18591927403E+03  0.19000231381E+03  0.00000000000E+00 0. -1.
         11    1    1    2    0    0 -0.41572958671E+01  0.57959322747E+02 -0.28284845898E+03  0.28875563536E+03  0.00000000000E+00 0.  1.
<mgrwt>
<rscale>  0 0.11849632E+03</rscale>
<asrwt>0</asrwt>
<pdfrwt beam="2">  1        2 0.16398984E+00 0.12654516E+03</pdfrwt>
<pdfrwt beam="1">  1       -2 0.18085672E-02 0.12654516E+03</pdfrwt>
<totfact> 0.20389011E+04</totfact>
</mgrwt>
</event>
<event>
 7    1  0.6008063E-006  0.1283547E+03  0.7546771E-02  0.1244494E+00
          1   -1    0    0  501    0  0.00000000000E+00  0.00000000000E+00  0.68762418635E+03  0.68762418635E+03  0.00000000000E+00 0. -1.
         -1   -1    0    0    0  501 -0.00000000000E+00 -0.00000000000E+00 -0.23667507540E+02  0.23667507540E+02  0.00000000000E+00 0.  1.
         23    2    1    2    0    0  0.97089496286E+01  0.27527646270E+02  0.53927285239E+03  0.55433756340E+03  0.12499155917E+03 0.  0.
          5    1    3    3  502    0  0.60289164342E+02 -0.62676906822E+00  0.38049447367E+03  0.38527043836E+03  0.47000000000E+01 0. -1.
         -5    1    3    3    0  502 -0.50580214714E+02  0.28154415338E+02  0.15877837871E+03  0.16906712504E+03  0.47000000000E+01 0. -1.
        -11    1    1    2    0    0 -0.24799391913E+02  0.21628968052E+01 -0.29303711977E+01  0.25065415161E+02  0.00000000000E+00 0.  1.
         11    1    1    2    0    0  0.15090442284E+02 -0.29690543075E+02  0.12761419763E+03  0.13188871533E+03  0.00000000000E+00 0. -1.
<mgrwt>
<rscale>  0 0.11915728E+03</rscale>
<asrwt>0</asrwt>
<pdfrwt beam="1">  1        1 0.10578832E+00 0.12835468E+03</pdfrwt>
<pdfrwt beam="2">  1       -1 0.36411555E-02 0.12835468E+03</pdfrwt>
<totfact> 0.78462231E+03</totfact>
</mgrwt>
</event>
<event>
 7    1  0.6008063E-006  0.1307427E+03  0.7546771E-02  0.1240165E+00
         -3   -1    0    0    0  501 -0.00000000000E+00  0.00000000000E+00  0.25826183800E+03  0.25826183800E+03  0.00000000000E+00 0.  1.
          3   -1    0    0  501    0  0.00000000000E+00 -0.00000000000E+00 -0.50898467409E+02  0.50898467409E+02  0.00000000000E+00 0. -1.
         23    2    1    2    0    0 -0.22025317707E+02  0.31354441765E+02  0.11375697654E+03  0.17330407419E+03  0.12500174712E+03 0.  0.
          5    1    3    3  502    0 -0.13736453618E+01  0.60468471245E+02  0.12210563175E+03  0.13634587717E+03  0.47000000000E+01 0. -1.
         -5    1    3    3    0  502 -0.20651672345E+02 -0.29114029479E+02 -0.83486552133E+01  0.36958197021E+02  0.47000000000E+01 0. -1.
        -11    1    1    2    0    0  0.49344378578E+02 -0.28260544734E+02  0.92201636569E+02  0.10832667202E+03  0.00000000000E+00 0.  1.
         11    1    1    2    0    0 -0.27319060872E+02 -0.30938970309E+01  0.14047574853E+01  0.27529559193E+02  0.00000000000E+00 0. -1.
<mgrwt>
<rscale>  0 0.12179521E+03</rscale>
<asrwt>0</asrwt>
<pdfrwt beam="2">  1        3 0.78305336E-02 0.13074270E+03</pdfrwt>
<pdfrwt beam="1">  1       -3 0.39732590E-01 0.13074270E+03</pdfrwt>
<totfact> 0.15869592E+03</totfact>
</mgrwt>
</event>
<event>
 7    1  0.6008063E-006  0.1497072E+03  0.7546771E-02  0.1205925E+00
         -2   -1    0    0    0  501 -0.00000000000E+00  0.00000000000E+00  0.28414360007E+03  0.28414360007E+03  0.00000000000E+00 0.  1.
          2   -1    0    0  501    0  0.00000000000E+00 -0.00000000000E+00 -0.14910911983E+03  0.14910911983E+03  0.00000000000E+00 0. -1.
         23    2    1    2    0    0  0.86726376375E+02 -0.45565532152E+02 -0.87517716189E+02  0.17341164597E+03  0.11320144094E+03 0.  0.
          5    1    3    3  502    0  0.52817340644E+02 -0.41563215605E+02 -0.11230032230E+03  0.13096039384E+03  0.47000000000E+01 0. -1.
         -5    1    3    3    0  502  0.33909035731E+02 -0.40023165477E+01  0.24782606115E+02  0.42451252135E+02  0.47000000000E+01 0.  1.
        -11    1    1    2    0    0 -0.71035965162E+02  0.16244590827E+02  0.61386265824E+02  0.95279949147E+02  0.00000000000E+00 0. -1.
         11    1    1    2    0    0 -0.15690411213E+02  0.29320941325E+02  0.16116593060E+03  0.16456112479E+03  0.00000000000E+00 0.  1.
<mgrwt>
<rscale>  0 0.14564803E+03</rscale>
<asrwt>0</asrwt>
<pdfrwt beam="2">  1        2 0.22939864E-01 0.14970721E+03</pdfrwt>
<pdfrwt beam="1">  1       -2 0.43714400E-01 0.14970721E+03</pdfrwt>
<totfact> 0.11707838E+03</totfact>
</mgrwt>
</event>
<event>
 7    1  0.6008063E-006  0.3321430E+03  0.7546771E-02  0.1071446E+00
          1   -1    0    0  501    0  0.00000000000E+00  0.00000000000E+00  0.40397917084E+03  0.40397917084E+03  0.00000000000E+00 0. -1.
         -1   -1    0    0    0  501 -0.00000000000E+00 -0.00000000000E+00 -0.26620529715E+03  0.26620529715E+03  0.00000000000E+00 0.  1.
         23    2    1    2    0    0 -0.75457093099E+02 -0.29848895438E+03  0.10098722052E+03  0.34715614798E+03  0.12461758938E+03 0.  0.
          5    1    3    3  502    0 -0.49291276965E+02 -0.28077239718E+02 -0.10021173015E+01  0.56930269752E+02  0.47000000000E+01 0.  1.
         -5    1    3    3    0  502 -0.26165816134E+02 -0.27041171466E+03  0.10198933782E+03  0.29022587822E+03  0.47000000000E+01 0.  1.
        -11    1    1    2    0    0  0.84839736853E+02  0.15534150244E+03  0.29029881645E+02  0.17936414736E+03  0.00000000000E+00 0.  1.
         11    1    1    2    0    0 -0.93826437540E+01  0.14314745195E+03  0.77567715256E+01  0.14366417266E+03  0.00000000000E+00 0. -1.
<mgrwt>
<rscale>  0 0.32930274E+03</rscale>
<asrwt>0</asrwt>
<pdfrwt beam="1">  1        1 0.62150642E-01 0.33214300E+03</pdfrwt>
<pdfrwt beam="2">  1       -1 0.40954661E-01 0.33214300E+03</pdfrwt>
<totfact> 0.35505138E+02</totfact>
</mgrwt>
</event>
<event>
 7    1  0.6008063E-006  0.1453034E+03  0.7546771E-02  0.1215835E+00
         -1   -1    0    0    0  501 -0.00000000000E+00  0.00000000000E+00  0.13261233015E+02  0.13261233015E+02  0.00000000000E+00 0.  1.
          1   -1    0    0  501    0  0.00000000000E+00 -0.00000000000E+00 -0.16378986805E+04  0.16378986805E+04  0.00000000000E+00 0. -1.
         23    2    1    2    0    0  0.21791833424E+02 -0.70813873337E+02 -0.12432943340E+04  0.12517563152E+04  0.12499433206E+03 0.  0.
          5    1    3    3  502    0  0.24510557203E+02 -0.79220279634E+00 -0.94407575049E+03  0.94440590196E+03  0.47000000000E+01 0.  1.
         -5    1    3    3    0  502 -0.27187237789E+01 -0.70021670541E+02 -0.29921858348E+03  0.30735041322E+03  0.47000000000E+01 0.  1.
        -11    1    1    2    0    0 -0.54368361206E+02  0.30038226077E+02 -0.25992394117E+03  0.26724271537E+03  0.00000000000E+00 0. -1.
         11    1    1    2    0    0  0.32576527782E+02  0.40775647261E+02 -0.12141917230E+03  0.13216088292E+03  0.00000000000E+00 0.  1.
<mgrwt>
<rscale>  0 0.13815345E+03</rscale>
<asrwt>0</asrwt>
<pdfrwt beam="2">  1        1 0.25198437E+00 0.14530338E+03</pdfrwt>
<pdfrwt beam="1">  1       -1 0.20401900E-02 0.14530338E+03</pdfrwt>
<totfact> 0.38289816E+03</totfact>
</mgrwt>
</event>
<event>
 7    1  0.1308911E-005  0.1636128E+03  0.7546771E-02  0.1193210E+00
          1   -1    0    0  501    0  0.00000000000E+00  0.00000000000E+00  0.11507821571E+04  0.11507821571E+04  0.00000000000E+00 0. -1.
         -1   -1    0    0    0  501 -0.00000000000E+00 -0.00000000000E+00 -0.20522664063E+02  0.20522664063E+02  0.00000000000E+00 0.  1.
         23    2    1    2    0    0 -0.10117201465E+03 -0.30136289820E+02  0.75004500965E+03  0.76768265774E+03  0.12500069594E+03 0.  0.
          5    1    3    3  502    0  0.15394725233E+02  0.28658852584E+02  0.14012854226E+03  0.14393201782E+03  0.47000000000E+01 0.  1.
         -5    1    3    3    0  502 -0.11656673989E+03 -0.58795142404E+02  0.60991646738E+03  0.62375063992E+03  0.47000000000E+01 0.  1.
        -11    1    1    2    0    0  0.21219973664E+02 -0.26349991084E+02  0.61238351307E+02  0.69962454097E+02  0.00000000000E+00 0.  1.
         11    1    1    2    0    0  0.79952040988E+02  0.56486280905E+02  0.31897613209E+03  0.33365970933E+03  0.00000000000E+00 0. -1.
<mgrwt>
<rscale>  0 0.15606695E+03</rscale>
<asrwt>0</asrwt>
<pdfrwt beam="1">  1        1 0.17704336E+00 0.16361279E+03</pdfrwt>
<pdfrwt beam="2">  1       -1 0.31573338E-02 0.16361279E+03</pdfrwt>
<totfact> 0.42819398E+03</totfact>
</mgrwt>
</event>
<event>
 7    1  0.6008063E-006  0.1494775E+03  0.7546771E-02  0.1209840E+00
          2   -1    0    0  501    0  0.00000000000E+00  0.00000000000E+00  0.80718698115E+02  0.80718698115E+02  0.00000000000E+00 0. -1.
         -2   -1    0    0    0  501 -0.00000000000E+00 -0.00000000000E+00 -0.23317265121E+03  0.23317265121E+03  0.00000000000E+00 0.  1.
         23    2    1    2    0    0  0.32767550752E+00  0.81965657494E+02 -0.96705837107E+02  0.17803241149E+03  0.12500017693E+03 0.  0.
          5    1    3    3  502    0 -0.51976263508E+02  0.70791805708E+02 -0.31165009543E+02  0.93307875035E+02  0.47000000000E+01 0.  1.
         -5    1    3    3    0  502  0.52303939016E+02  0.11173851786E+02 -0.65540827564E+02  0.84724536458E+02  0.47000000000E+01 0.  1.
        -11    1    1    2    0    0  0.25089257319E+02 -0.20463141837E+02  0.17575594619E+02  0.36839008304E+02  0.00000000000E+00 0. -1.
         11    1    1    2    0    0 -0.25416932826E+02 -0.61502515658E+02 -0.73323710609E+02  0.99019929530E+02  0.00000000000E+00 0.  1.
<mgrwt>
<rscale>  0 0.14262468E+03</rscale>
<asrwt>0</asrwt>
<pdfrwt beam="1">  1        2 0.12418261E-01 0.14947749E+03</pdfrwt>
<pdfrwt beam="2">  1       -2 0.35872716E-01 0.14947749E+03</pdfrwt>
<totfact> 0.34634481E+03</totfact>
</mgrwt>
</event>
<event>
 7    1  0.6008063E-006  0.2820420E+03  0.7546771E-02  0.1097783E+00
         -2   -1    0    0    0  501 -0.00000000000E+00  0.00000000000E+00  0.88280284187E+02  0.88280284187E+02  0.00000000000E+00 0.  1.
          2   -1    0    0  501    0  0.00000000000E+00 -0.00000000000E+00 -0.84773646328E+03  0.84773646328E+03  0.00000000000E+00 0. -1.
         23    2    1    2    0    0  0.25147791108E+03  0.26160227040E+02 -0.46263927842E+03  0.54183278812E+03  0.12498868392E+03 0.  0.
          5    1    3    3  502    0  0.22838900802E+03 -0.89544531797E+01 -0.32150021972E+03  0.39449487006E+03  0.47000000000E+01 0.  1.
         -5    1    3    3    0  502  0.23088903060E+02  0.35114680220E+02 -0.14113905869E+03  0.14733791807E+03  0.47000000000E+01 0.  1.
        -11    1    1    2    0    0 -0.13586789740E+03  0.12369065390E+01 -0.19526120424E+03  0.23788348695E+03  0.00000000000E+00 0. -1.
         11    1    1    2    0    0 -0.11561001368E+03 -0.27397133579E+02 -0.10155569643E+03  0.15630047239E+03  0.00000000000E+00 0.  1.
<mgrwt>
<rscale>  0 0.27619870E+03</rscale>
<asrwt>0</asrwt>
<pdfrwt beam="2">  1        2 0.13042099E+00 0.28204196E+03</pdfrwt>
<pdfrwt beam="1">  1       -2 0.13581583E-01 0.28204196E+03</pdfrwt>
<totfact> 0.13287650E+03</totfact>
</mgrwt>
</event>
<event>
 7    1  0.6008063E-006  0.1523720E+03  0.7546771E-02  0.1205364E+00
         -1   -1    0    0    0  501 -0.00000000000E+00  0.00000000000E+00  0.16874729638E+03  0.16874729638E+03  0.00000000000E+00 0.  1.
          1   -1    0    0  501    0  0.00000000000E+00 -0.00000000000E+00 -0.13311649948E+03  0.13311649948E+03  0.00000000000E+00 0. -1.
         23    2    1    2    0    0 -0.38448447000E+02  0.78193394953E+02 -0.33087280212E+02  0.15592304936E+03  0.12499895648E+03 0.  0.
          5    1    3    3  502    0 -0.79573089973E+02  0.26314842994E+02 -0.57321240713E+01  0.84138545602E+02  0.47000000000E+01 0. -1.
         -5    1    3    3    0  502  0.41124642973E+02  0.51878551959E+02 -0.27355156141E+02  0.71784503763E+02  0.47000000000E+01 0. -1.
        -11    1    1    2    0    0 -0.14548433816E+02 -0.43615740170E+02  0.68694295863E+02  0.82661333169E+02  0.00000000000E+00 0.  1.
         11    1    1    2    0    0  0.52996880816E+02 -0.34577654783E+02  0.23781250594E-01  0.63279413335E+02  0.00000000000E+00 0. -1.
<mgrwt>
<rscale>  0 0.14608835E+03</rscale>
<asrwt>0</asrwt>
<pdfrwt beam="2">  1        1 0.20479461E-01 0.15237201E+03</pdfrwt>
<pdfrwt beam="1">  1       -1 0.25961123E-01 0.15237201E+03</pdfrwt>
<totfact> 0.31401955E+03</totfact>
</mgrwt>
</event>
<event>
 7    1  0.6008063E-006  0.1639751E+03  0.7546771E-02  0.1190347E+00
          2   -1    0    0  501    0  0.00000000000E+00  0.00000000000E+00  0.40987400197E+03  0.40987400197E+03  0.00000000000E+00 0. -1.
         -2   -1    0    0    0  501 -0.00000000000E+00 -0.00000000000E+00 -0.84594227434E+02  0.84594227434E+02  0.00000000000E+00 0.  1.
         23    2    1    2    0    0  0.98706189345E+02  0.38981410433E+02  0.30953865111E+03  0.35028846994E+03  0.12500149387E+03 0.  0.
          5    1    3    3  502    0  0.19963805537E+01 -0.26573028872E+02  0.15037842621E+03  0.15279356160E+03  0.47000000000E+01 0. -1.
         -5    1    3    3    0  502  0.96709808791E+02  0.65554439305E+02  0.15916022491E+03  0.19749490834E+03  0.47000000000E+01 0. -1.
        -11    1    1    2    0    0 -0.52241396683E+02 -0.62727688525E+02  0.34644587081E+02  0.88680177318E+02  0.00000000000E+00 0.  1.
         11    1    1    2    0    0 -0.46464792662E+02  0.23746278092E+02 -0.18903463652E+02  0.55499582146E+02  0.00000000000E+00 0. -1.
<mgrwt>
<rscale>  0 0.15854719E+03</rscale>
<asrwt>0</asrwt>
<pdfrwt beam="1">  1        2 0.63057537E-01 0.16397511E+03</pdfrwt>
<pdfrwt beam="2">  1       -2 0.13014497E-01 0.16397511E+03</pdfrwt>
<totfact> 0.32896977E+03</totfact>
</mgrwt>
</event>
<event>
 7    1  0.6008063E-006  0.1279565E+03  0.7546771E-02  0.1251382E+00
          3   -1    0    0  501    0  0.00000000000E+00  0.00000000000E+00  0.70017944934E+02  0.70017944934E+02  0.00000000000E+00 0. -1.
         -3   -1    0    0    0  501 -0.00000000000E+00 -0.00000000000E+00 -0.24958153655E+03  0.24958153655E+03  0.00000000000E+00 0.  1.
         23    2    1    2    0    0 -0.23244375285E+02 -0.14364278917E+02 -0.74627997284E+01  0.12817397586E+03  0.12500496476E+03 0.  0.
          5    1    3    3  502    0 -0.42942319570E+02 -0.58170864063E+02 -0.25263642367E+02  0.76734828217E+02  0.47000000000E+01 0. -1.
         -5    1    3    3    0  502  0.19697944284E+02  0.43806585146E+02  0.17800842638E+02  0.51439147639E+02  0.47000000000E+01 0. -1.
        -11    1    1    2    0    0  0.36475292041E+02 -0.15935815071E+02 -0.44924661258E+02  0.60021848694E+02  0.00000000000E+00 0.  1.
         11    1    1    2    0    0 -0.13230916755E+02  0.30300093989E+02 -0.12717613063E+03  0.13140365693E+03  0.00000000000E+00 0. -1.
<mgrwt>
<rscale>  0 0.11511395E+03</rscale>
<asrwt>0</asrwt>
<pdfrwt beam="1">  1        3 0.10771991E-01 0.12795653E+03</pdfrwt>
<pdfrwt beam="2">  1       -3 0.38397160E-01 0.12795653E+03</pdfrwt>
<totfact> 0.10004596E+03</totfact>
</mgrwt>
</event>
<event>
 7    1  0.6008063E-006  0.1318663E+03  0.7546771E-02  0.1237684E+00
          2   -1    0    0  501    0  0.00000000000E+00  0.00000000000E+00  0.45247104363E+03  0.45247104363E+03  0.00000000000E+00 0. -1.
         -2   -1    0    0    0  501 -0.00000000000E+00 -0.00000000000E+00 -0.36140128658E+02  0.36140128658E+02  0.00000000000E+00 0.  1.
         23    2    1    2    0    0 -0.40855681895E+02  0.98566034684E+01  0.33149574656E+03  0.35676061791E+03  0.12498947608E+03 0.  0.
          5    1    3    3  502    0  0.15046343926E+02 -0.21595677723E+02  0.25681529008E+03  0.25820330939E+03  0.47000000000E+01 0. -1.
         -5    1    3    3    0  502 -0.55902025821E+02  0.31452281191E+02  0.74680456477E+02  0.98557308520E+02  0.47000000000E+01 0. -1.
        -11    1    1    2    0    0  0.56952248939E+02 -0.34984099389E+02  0.74929027450E+02  0.10040819202E+03  0.00000000000E+00 0. -1.
         11    1    1    2    0    0 -0.16096567044E+02  0.25127495920E+02  0.99061409602E+01  0.31442362357E+02  0.00000000000E+00 0.  1.
<mgrwt>
<rscale>  0 0.12334145E+03</rscale>
<asrwt>0</asrwt>
<pdfrwt beam="1">  1        2 0.69610926E-01 0.13186625E+03</pdfrwt>
<pdfrwt beam="2">  1       -2 0.55600201E-02 0.13186625E+03</pdfrwt>
<totfact> 0.10978989E+04</totfact>
</mgrwt>
</event>
<event>
 7    1  0.6008063E-006  0.2721575E+03  0.7546771E-02  0.1102104E+00
         -1   -1    0    0    0  501 -0.00000000000E+00  0.00000000000E+00  0.53018365118E+03  0.53018365118E+03  0.00000000000E+00 0.  1.
          1   -1    0    0  501    0  0.00000000000E+00 -0.00000000000E+00 -0.15120728734E+03  0.15120728734E+03  0.00000000000E+00 0. -1.
         23    2    1    2    0    0 -0.23916195621E+03  0.35294496544E+02  0.74321490023E+02  0.28212296558E+03  0.12500216416E+03 0.  0.
          5    1    3    3  502    0 -0.83571730478E+02  0.19968121688E+02 -0.33288849570E+02  0.92266990438E+02  0.47000000000E+01 0.  1.
         -5    1    3    3    0  502 -0.15559022573E+03  0.15326374856E+02  0.10761033959E+03  0.18985597514E+03  0.47000000000E+01 0.  1.
        -11    1    1    2    0    0  0.17669157108E+03 -0.21522474214E+02  0.15316289123E+03  0.23482333665E+03  0.00000000000E+00 0.  1.
         11    1    1    2    0    0  0.62470385129E+02 -0.13772022330E+02  0.15149198258E+03  0.16444463629E+03  0.00000000000E+00 0. -1.
<mgrwt>
<rscale>  0 0.26856519E+03</rscale>
<asrwt>0</asrwt>
<pdfrwt beam="2">  1        1 0.23262660E-01 0.27215746E+03</pdfrwt>
<pdfrwt beam="1">  1       -1 0.81566714E-01 0.27215746E+03</pdfrwt>
<totfact> 0.33022322E+02</totfact>
</mgrwt>
</event>
<event>
 7    1  0.6008063E-006  0.2758178E+03  0.7546771E-02  0.1100006E+00
         -1   -1    0    0    0  501 -0.00000000000E+00  0.00000000000E+00  0.72699600156E+03  0.72699600156E+03  0.00000000000E+00 0.  1.
          1   -1    0    0  501    0  0.00000000000E+00 -0.00000000000E+00 -0.10022596673E+03  0.10022596673E+03  0.00000000000E+00 0. -1.
         23    2    1    2    0    0 -0.16081690059E+03  0.18597643098E+03  0.35946501805E+03  0.45309000018E+03  0.12500456257E+03 0.  0.
          5    1    3    3  502    0 -0.10951682945E+03  0.15273120437E+03  0.34043371041E+03  0.38889324744E+03  0.47000000000E+01 0.  1.
         -5    1    3    3    0  502 -0.51300071141E+02  0.33245226606E+02  0.19031307636E+02  0.64196752733E+02  0.47000000000E+01 0.  1.
        -11    1    1    2    0    0  0.15074378473E+03 -0.19218441310E+03  0.23190296207E+03  0.33680487094E+03  0.00000000000E+00 0.  1.
         11    1    1    2    0    0  0.10073115866E+02  0.62079821194E+01  0.35402054720E+02  0.37327097176E+02  0.00000000000E+00 0. -1.
<mgrwt>
<rscale>  0 0.27223631E+03</rscale>
<asrwt>0</asrwt>
<pdfrwt beam="2">  1        1 0.15419380E-01 0.27581778E+03</pdfrwt>
<pdfrwt beam="1">  1       -1 0.11184554E+00 0.27581778E+03</pdfrwt>
<totfact> 0.28119629E+02</totfact>
</mgrwt>
</event>
<event>
 7    1  0.6008063E-006  0.1255234E+03  0.7546771E-02  0.1250014E+00
         -2   -1    0    0    0  501 -0.00000000000E+00  0.00000000000E+00  0.28019984365E+02  0.28019984365E+02  0.00000000000E+00 0.  1.
          2   -1    0    0  501    0  0.00000000000E+00 -0.00000000000E+00 -0.76415606168E+03  0.76415606168E+03  0.00000000000E+00 0. -1.
         23    2    1    2    0    0  0.11381856214E+02 -0.17111019117E+01 -0.66428152059E+03  0.67603701985E+03  0.12499455627E+03 0.  0.
          5    1    3    3  502    0 -0.47385995719E+02 -0.33947352687E+01 -0.48409723581E+03  0.48644545485E+03  0.47000000000E+01 0.  1.
         -5    1    3    3    0  502  0.58767851933E+02  0.16836333570E+01 -0.18018428477E+03  0.18959156501E+03  0.47000000000E+01 0.  1.
        -11    1    1    2    0    0 -0.49675692844E+01 -0.26743532282E+02  0.10202870692E+02  0.29051537547E+02  0.00000000000E+00 0.  1.
         11    1    1    2    0    0 -0.64142869296E+01  0.28454634193E+02 -0.82057427420E+02  0.87087488646E+02  0.00000000000E+00 0. -1.
<mgrwt>
<rscale>  0 0.11590248E+03</rscale>
<asrwt>0</asrwt>
<pdfrwt beam="2">  1        2 0.11756247E+00 0.12552336E+03</pdfrwt>
<pdfrwt beam="1">  1       -2 0.43107667E-02 0.12552336E+03</pdfrwt>
<totfact> 0.88296138E+03</totfact>
</mgrwt>
</event>
<event>
 7    1  0.6008063E-006  0.1426772E+03  0.7546771E-02  0.1221728E+00
         -2   -1    0    0    0  501 -0.00000000000E+00  0.00000000000E+00  0.60266901250E+02  0.60266901250E+02  0.00000000000E+00 0. -1.
          2   -1    0    0  501    0  0.00000000000E+00 -0.00000000000E+00 -0.29236094346E+03  0.29236094346E+03  0.00000000000E+00 0.  1.
         23    2    1    2    0    0 -0.48282294544E+02  0.48990288480E+02 -0.18138221303E+03  0.23077324218E+03  0.12500221506E+03 0.  0.
          5    1    3    3  502    0 -0.99369368452E+01  0.81118389760E+02 -0.66793236884E+02  0.10565208169E+03  0.47000000000E+01 0. -1.
         -5    1    3    3    0  502 -0.38345357699E+02 -0.32128101280E+02 -0.11458897615E+03  0.12512116049E+03  0.47000000000E+01 0. -1.
        -11    1    1    2    0    0 -0.21527885191E+02 -0.28840721839E+02 -0.28402440404E+02  0.45846872280E+02  0.00000000000E+00 0.  1.
         11    1    1    2    0    0  0.69810179736E+02 -0.20149566641E+02 -0.22309388779E+02  0.76007730253E+02  0.00000000000E+00 0. -1.
<mgrwt>
<rscale>  0 0.13393738E+03</rscale>
<asrwt>0</asrwt>
<pdfrwt beam="2">  1        2 0.44978607E-01 0.14267720E+03</pdfrwt>
<pdfrwt beam="1">  1       -2 0.92718309E-02 0.14267720E+03</pdfrwt>
<totfact> 0.80250420E+03</totfact>
</mgrwt>
</event>
<event>
 7    1  0.6008063E-006  0.1258413E+03  0.7546771E-02  0.1249817E+00
          2   -1    0    0  501    0  0.00000000000E+00  0.00000000000E+00  0.94086053139E+03  0.94086053139E+03  0.00000000000E+00 0. -1.
         -2   -1    0    0    0  501 -0.00000000000E+00 -0.00000000000E+00 -0.27335748389E+02  0.27335748389E+02  0.00000000000E+00 0.  1.
         23    2    1    2    0    0  0.13757043199E+02 -0.46317587550E+01  0.84508917473E+03  0.85440725353E+03  0.12500132880E+03 0.  0.
          5    1    3    3  502    0  0.69181449521E+02 -0.21368638756E+01  0.42078257888E+03  0.42646302047E+03  0.47000000000E+01 0.  1.
         -5    1    3    3    0  502 -0.55424406322E+02 -0.24948948794E+01  0.42430659585E+03  0.42794423305E+03  0.47000000000E+01 0.  1.
        -11    1    1    2    0    0 -0.27751901399E+02  0.40792655684E+02  0.51981028137E+02  0.71667538504E+02  0.00000000000E+00 0. -1.
         11    1    1    2    0    0  0.13994858200E+02 -0.36160896929E+02  0.16454580129E+02  0.42121487746E+02  0.00000000000E+00 0.  1.
<mgrwt>
<rscale>  0 0.11601646E+03</rscale>
<asrwt>0</asrwt>
<pdfrwt beam="1">  1        2 0.14474775E+00 0.12584134E+03</pdfrwt>
<pdfrwt beam="2">  1       -2 0.42055005E-02 0.12584134E+03</pdfrwt>
<totfact> 0.70337401E+03</totfact>
</mgrwt>
</event>
<event>
 7    1  0.6008063E-006  0.1337608E+03  0.7546771E-02  0.1234800E+00
          2   -1    0    0  501    0  0.00000000000E+00  0.00000000000E+00  0.13940264766E+03  0.13940264766E+03  0.00000000000E+00 0. -1.
         -2   -1    0    0    0  501 -0.00000000000E+00 -0.00000000000E+00 -0.10072848088E+03  0.10072848088E+03  0.00000000000E+00 0.  1.
         23    2    1    2    0    0 -0.42739735359E+02 -0.20985721835E+02  0.30747538141E+02  0.13724926095E+03  0.12499945212E+03 0.  0.
          5    1    3    3  502    0  0.34127586934E+02 -0.28114054372E+02 -0.15555514638E+02  0.47107921615E+02  0.47000000000E+01 0.  1.
         -5    1    3    3    0  502 -0.76867322293E+02  0.71283325370E+01  0.46303052779E+02  0.90141339339E+02  0.47000000000E+01 0.  1.
        -11    1    1    2    0    0  0.46576945740E+02  0.80671548828E+01  0.43872674059E+02  0.64492653779E+02  0.00000000000E+00 0. -1.
         11    1    1    2    0    0 -0.38372103818E+01  0.12918566952E+02 -0.35946045417E+02  0.38389213807E+02  0.00000000000E+00 0.  1.
<mgrwt>
<rscale>  0 0.12517227E+03</rscale>
<asrwt>0</asrwt>
<pdfrwt beam="1">  1        2 0.21446561E-01 0.13376079E+03</pdfrwt>
<pdfrwt beam="2">  1       -2 0.15496689E-01 0.13376079E+03</pdfrwt>
<totfact> 0.78453133E+03</totfact>
</mgrwt>
</event>
<event>
 7    1  0.6008063E-006  0.1504188E+03  0.7546771E-02  0.1209214E+00
         -2   -1    0    0    0  501 -0.00000000000E+00  0.00000000000E+00  0.23748324950E+02  0.23748324950E+02  0.00000000000E+00 0.  1.
          2   -1    0    0  501    0  0.00000000000E+00 -0.00000000000E+00 -0.81938469606E+03  0.81938469606E+03  0.00000000000E+00 0. -1.
         23    2    1    2    0    0 -0.18798207458E+02 -0.81193425961E+02 -0.51762992787E+03  0.53904226364E+03  0.12522010520E+03 0.  0.
          5    1    3    3  502    0  0.46804645812E+02 -0.68689263666E+02 -0.27243204670E+03  0.28486874150E+03  0.47000000000E+01 0.  1.
         -5    1    3    3    0  502 -0.65602853270E+02 -0.12504162295E+02 -0.24519788116E+03  0.25417352214E+03  0.47000000000E+01 0.  1.
        -11    1    1    2    0    0  0.46973879656E+02  0.29025118316E+02 -0.78605484508E+02  0.96061569100E+02  0.00000000000E+00 0.  1.
         11    1    1    2    0    0 -0.28175672198E+02  0.52168307645E+02 -0.19940095874E+03  0.20802918827E+03  0.00000000000E+00 0. -1.
<mgrwt>
<rscale>  0 0.14310292E+03</rscale>
<asrwt>0</asrwt>
<pdfrwt beam="2">  1        2 0.12605917E+00 0.15041881E+03</pdfrwt>
<pdfrwt beam="1">  1       -2 0.36535888E-02 0.15041881E+03</pdfrwt>
<totfact> 0.10466396E+04</totfact>
</mgrwt>
</event>
<event>
 7    1  0.6008063E-006  0.1635452E+03  0.7546771E-02  0.1193022E+00
          1   -1    0    0  501    0  0.00000000000E+00  0.00000000000E+00  0.35454174940E+03  0.35454174940E+03  0.00000000000E+00 0. -1.
         -1   -1    0    0    0  501 -0.00000000000E+00 -0.00000000000E+00 -0.66712410864E+02  0.66712410864E+02  0.00000000000E+00 0.  1.
         23    2    1    2    0    0 -0.65320434563E+02  0.82782772684E+02  0.20351002890E+03  0.26108111709E+03  0.12500908453E+03 0.  0.
          5    1    3    3  502    0 -0.98718764482E+02  0.51267055161E+02  0.10854754433E+03  0.15549393810E+03  0.47000000000E+01 0.  1.
         -5    1    3    3    0  502  0.33398329919E+02  0.31515717523E+02  0.94962484564E+02  0.10558717899E+03  0.47000000000E+01 0.  1.
        -11    1    1    2    0    0  0.34876565846E+01 -0.70884702537E+02  0.30140023809E+02  0.77105290593E+02  0.00000000000E+00 0.  1.
         11    1    1    2    0    0  0.61832777978E+02 -0.11898070147E+02  0.54179285830E+02  0.83067752580E+02  0.00000000000E+00 0. -1.
<mgrwt>
<rscale>  0 0.15622788E+03</rscale>
<asrwt>0</asrwt>
<pdfrwt beam="1">  1        1 0.54544883E-01 0.16354516E+03</pdfrwt>
<pdfrwt beam="2">  1       -1 0.10263448E-01 0.16354516E+03</pdfrwt>
<totfact> 0.40337642E+03</totfact>
</mgrwt>
</event>
<event>
 7    1  0.6008063E-006  0.1267257E+03  0.7546771E-02  0.1271717E+00
          1   -1    0    0  501    0  0.00000000000E+00  0.00000000000E+00  0.13435924870E+04  0.13435924870E+04  0.00000000000E+00 0. -1.
         -1   -1    0    0    0  501 -0.00000000000E+00 -0.00000000000E+00 -0.72927053429E+01  0.72927053429E+01  0.00000000000E+00 0.  1.
         23    2    1    2    0    0 -0.12763530763E+02  0.16429876352E+02  0.11132665545E+04  0.11204560769E+04  0.12500620185E+03 0.  0.
          5    1    3    3  502    0  0.23921535418E+01 -0.25670921851E+02  0.51947272340E+02  0.58183569251E+02  0.47000000000E+01 0. -1.
         -5    1    3    3    0  502 -0.15155684305E+02  0.42100798202E+02  0.10613192821E+04  0.10622725077E+04  0.47000000000E+01 0. -1.
        -11    1    1    2    0    0  0.10562274139E+02 -0.32551615830E+02  0.19529406039E+03  0.19826986496E+03  0.00000000000E+00 0.  1.
         11    1    1    2    0    0  0.22012566248E+01  0.16121739479E+02  0.27739166836E+02  0.32159250478E+02  0.00000000000E+00 0. -1.
<mgrwt>
<rscale>  0 0.10419333E+03</rscale>
<asrwt>0</asrwt>
<pdfrwt beam="1">  1        1 0.20670634E+00 0.12672568E+03</pdfrwt>
<pdfrwt beam="2">  1       -1 0.11219557E-02 0.12672568E+03</pdfrwt>
<totfact> 0.13951542E+04</totfact>
</mgrwt>
</event>
<event>
 7    1  0.6008063E-006  0.2057401E+03  0.7546771E-02  0.1149799E+00
         -1   -1    0    0    0  501 -0.00000000000E+00  0.00000000000E+00  0.76050745752E+02  0.76050745752E+02  0.00000000000E+00 0.  1.
          1   -1    0    0  501    0  0.00000000000E+00 -0.00000000000E+00 -0.56102712425E+03  0.56102712425E+03  0.00000000000E+00 0. -1.
         23    2    1    2    0    0 -0.11645578147E+03  0.11462594165E+03 -0.36146598455E+03  0.41591662602E+03  0.12501170455E+03 0.  0.
          5    1    3    3  502    0 -0.73171880146E+02  0.10342955025E+03 -0.34580201256E+03  0.36831089829E+03  0.47000000000E+01 0. -1.
         -5    1    3    3    0  502 -0.43283901320E+02  0.11196391392E+02 -0.15663971992E+02  0.47605727725E+02  0.47000000000E+01 0. -1.
        -11    1    1    2    0    0 -0.44796376112E+01 -0.30570908670E+02 -0.33383474455E+01  0.31077197006E+02  0.00000000000E+00 0.  1.
         11    1    1    2    0    0  0.12093541908E+03 -0.84055032975E+02 -0.12017204650E+03  0.19008404698E+03  0.00000000000E+00 0. -1.
<mgrwt>
<rscale>  0 0.19992835E+03</rscale>
<asrwt>0</asrwt>
<pdfrwt beam="2">  1        1 0.86311869E-01 0.20574008E+03</pdfrwt>
<pdfrwt beam="1">  1       -1 0.11700114E-01 0.20574008E+03</pdfrwt>
<totfact> 0.18302616E+03</totfact>
</mgrwt>
</event>
<event>
 7    1  0.6008063E-006  0.1379615E+03  0.7546771E-02  0.1229702E+00
         -4   -1    0    0    0  501 -0.00000000000E+00  0.00000000000E+00  0.16228085561E+03  0.16228085561E+03  0.00000000000E+00 0.  1.
          4   -1    0    0  501    0  0.00000000000E+00 -0.00000000000E+00 -0.95222005569E+02  0.95222005569E+02  0.00000000000E+00 0. -1.
         23    2    1    2    0    0 -0.40919949345E+02 -0.41628389658E+02  0.83179286387E+01  0.13821206524E+03  0.12500408778E+03 0.  0.
          5    1    3    3  502    0  0.34357684138E+02 -0.50987170285E+02  0.82326554880E+01  0.62209393257E+02  0.47000000000E+01 0. -1.
         -5    1    3    3    0  502 -0.75277633483E+02  0.93587806271E+01  0.85273150668E-01  0.76002671987E+02  0.47000000000E+01 0. -1.
        -11    1    1    2    0    0  0.24566068290E+02 -0.24792412180E+02  0.25579698954E+02  0.43272120488E+02  0.00000000000E+00 0.  1.
         11    1    1    2    0    0  0.16353881055E+02  0.66420801838E+02  0.33161222449E+02  0.76018675446E+02  0.00000000000E+00 0. -1.
<mgrwt>
<rscale>  0 0.12849755E+03</rscale>
<asrwt>0</asrwt>
<pdfrwt beam="2">  1        4 0.14649539E-01 0.13796154E+03</pdfrwt>
<pdfrwt beam="1">  1       -4 0.24966285E-01 0.13796154E+03</pdfrwt>
<totfact> 0.97761626E+02</totfact>
</mgrwt>
</event>
<event>
 7    1  0.6008063E-006  0.1524796E+03  0.7546771E-02  0.1206315E+00
         -2   -1    0    0    0  501 -0.00000000000E+00  0.00000000000E+00  0.36832842164E+02  0.36832842164E+02  0.00000000000E+00 0.  1.
          2   -1    0    0  501    0  0.00000000000E+00 -0.00000000000E+00 -0.76604448996E+03  0.76604448996E+03  0.00000000000E+00 0. -1.
         23    2    1    2    0    0 -0.68394710548E+02  0.54292336436E+02 -0.61258409446E+03  0.63127592903E+03  0.12499812622E+03 0.  0.
          5    1    3    3  502    0 -0.57786964998E+02 -0.24667130251E+02 -0.38459894765E+03  0.38972585387E+03  0.47000000000E+01 0.  1.
         -5    1    3    3    0  502 -0.10607745551E+02  0.78959466687E+02 -0.22798514681E+03  0.24155007516E+03  0.47000000000E+01 0.  1.
        -11    1    1    2    0    0  0.76790609713E+02 -0.65838468011E+02 -0.11998813476E+03  0.15693519074E+03  0.00000000000E+00 0. -1.
         11    1    1    2    0    0 -0.83958991647E+01  0.11546131576E+02  0.33605814263E+01  0.14666212349E+02  0.00000000000E+00 0.  1.
<mgrwt>
<rscale>  0 0.14534347E+03</rscale>
<asrwt>0</asrwt>
<pdfrwt beam="2">  1        2 0.11785298E+00 0.15247959E+03</pdfrwt>
<pdfrwt beam="1">  1       -2 0.56665919E-02 0.15247959E+03</pdfrwt>
<totfact> 0.58987614E+03</totfact>
</mgrwt>
</event>
<event>
 7    1  0.6008063E-006  0.1627684E+03  0.7546771E-02  0.1192691E+00
          1   -1    0    0  501    0  0.00000000000E+00  0.00000000000E+00  0.36082275919E+03  0.36082275919E+03  0.00000000000E+00 0. -1.
         -1   -1    0    0    0  501 -0.00000000000E+00 -0.00000000000E+00 -0.69962261140E+02  0.69962261140E+02  0.00000000000E+00 0.  1.
         23    2    1    2    0    0 -0.41372981015E+02 -0.95690400573E+02  0.88716362093E+02  0.18537565044E+03  0.12500065021E+03 0.  0.
          5    1    3    3  502    0  0.39513123709E+02 -0.22044417093E+02  0.53794690349E+02  0.70449996309E+02  0.47000000000E+01 0. -1.
         -5    1    3    3    0  502 -0.80886104724E+02 -0.73645983480E+02  0.34921671744E+02  0.11492565413E+03  0.47000000000E+01 0. -1.
        -11    1    1    2    0    0 -0.24756401871E+02  0.53938592105E+02  0.10589997982E+03  0.12139628033E+03  0.00000000000E+00 0. -1.
         11    1    1    2    0    0  0.66129382886E+02  0.41751808468E+02  0.96244156134E+02  0.12401308956E+03  0.00000000000E+00 0.  1.
<mgrwt>
<rscale>  0 0.15651303E+03</rscale>
<asrwt>0</asrwt>
<pdfrwt beam="1">  1        1 0.55511192E-01 0.16276836E+03</pdfrwt>
<pdfrwt beam="2">  1       -1 0.10763425E-01 0.16276836E+03</pdfrwt>
<totfact> 0.36666494E+03</totfact>
</mgrwt>
</event>
<event>
 7    1  0.6008063E-006  0.1865984E+03  0.7546771E-02  0.1166732E+00
         -2   -1    0    0    0  501 -0.00000000000E+00  0.00000000000E+00  0.22539319633E+02  0.22539319633E+02  0.00000000000E+00 0.  1.
          2   -1    0    0  501    0  0.00000000000E+00 -0.00000000000E+00 -0.13763710471E+04  0.13763710471E+04  0.00000000000E+00 0. -1.
         23    2    1    2    0    0 -0.38211865226E+02 -0.13318091157E+03 -0.70350448594E+03  0.72783069618E+03  0.12498663414E+03 0.  0.
          5    1    3    3  502    0 -0.33264688889E+01 -0.10054843659E+03 -0.64180596585E+03  0.64965994281E+03  0.47000000000E+01 0. -1.
         -5    1    3    3    0  502 -0.34885396337E+02 -0.32632474976E+02 -0.61698520094E+02  0.78170753371E+02  0.47000000000E+01 0. -1.
        -11    1    1    2    0    0  0.37399617262E+01  0.12754776358E+03 -0.45051023844E+03  0.46823273513E+03  0.00000000000E+00 0.  1.
         11    1    1    2    0    0  0.34471903500E+02  0.56331479866E+01 -0.19981700312E+03  0.20284693545E+03  0.00000000000E+00 0. -1.
<mgrwt>
<rscale>  0 0.18111070E+03</rscale>
<asrwt>0</asrwt>
<pdfrwt beam="2">  1        2 0.21174942E+00 0.18659839E+03</pdfrwt>
<pdfrwt beam="1">  1       -2 0.34675871E-02 0.18659839E+03</pdfrwt>
<totfact> 0.53801359E+03</totfact>
</mgrwt>
</event>
<event>
 7    1  0.6008063E-006  0.1501563E+03  0.7546771E-02  0.1209648E+00
          1   -1    0    0  501    0  0.00000000000E+00  0.00000000000E+00  0.42079108709E+03  0.42079108709E+03  0.00000000000E+00 0. -1.
         -1   -1    0    0    0  501 -0.00000000000E+00 -0.00000000000E+00 -0.44708373741E+02  0.44708373741E+02  0.00000000000E+00 0.  1.
         23    2    1    2    0    0 -0.29665419338E+02  0.77730417657E+02  0.23044521966E+03  0.27504893818E+03  0.12499945678E+03 0.  0.
          5    1    3    3  502    0 -0.44726809882E+02  0.82462166007E+02  0.79066331217E+02  0.12277650865E+03  0.47000000000E+01 0.  1.
         -5    1    3    3    0  502  0.15061390544E+02 -0.47317483498E+01  0.15137888844E+03  0.15227242952E+03  0.47000000000E+01 0.  1.
        -11    1    1    2    0    0  0.35149869688E+02  0.85880289941E+01  0.45394571149E+02  0.58051138412E+02  0.00000000000E+00 0.  1.
         11    1    1    2    0    0 -0.54844503501E+01 -0.86318446652E+02  0.10024292254E+03  0.13239938424E+03  0.00000000000E+00 0. -1.
<mgrwt>
<rscale>  0 0.14277096E+03</rscale>
<asrwt>0</asrwt>
<pdfrwt beam="1">  1        1 0.64737088E-01 0.15015632E+03</pdfrwt>
<pdfrwt beam="2">  1       -1 0.68782116E-02 0.15015632E+03</pdfrwt>
<totfact> 0.59385480E+03</totfact>
</mgrwt>
</event>
<event>
 7    1  0.6008063E-006  0.1338096E+03  0.7546771E-02  0.1234395E+00
         -2   -1    0    0    0  501 -0.00000000000E+00  0.00000000000E+00  0.54599535672E+02  0.54599535672E+02  0.00000000000E+00 0.  1.
          2   -1    0    0  501    0  0.00000000000E+00 -0.00000000000E+00 -0.27069263969E+03  0.27069263969E+03  0.00000000000E+00 0. -1.
         23    2    1    2    0    0  0.47205422691E+02 -0.71521858142E+01 -0.15693408180E+03  0.20623603756E+03  0.12500196584E+03 0.  0.
          5    1    3    3  502    0  0.68610251184E+02 -0.36067967489E+02 -0.47702923184E+02  0.91136840666E+02  0.47000000000E+01 0. -1.
         -5    1    3    3    0  502 -0.21404828493E+02  0.28915781675E+02 -0.10923115861E+03  0.11509919689E+03  0.47000000000E+01 0. -1.
        -11    1    1    2    0    0 -0.24756228753E+02 -0.17702192599E+02 -0.75782755379E+02  0.81665564945E+02  0.00000000000E+00 0. -1.
         11    1    1    2    0    0 -0.22449193938E+02  0.24854378413E+02  0.16623733159E+02  0.37390572862E+02  0.00000000000E+00 0.  1.
<mgrwt>
<rscale>  0 0.12543224E+03</rscale>
<asrwt>0</asrwt>
<pdfrwt beam="2">  1        2 0.41645021E-01 0.13380956E+03</pdfrwt>
<pdfrwt beam="1">  1       -2 0.83999287E-02 0.13380956E+03</pdfrwt>
<totfact> 0.10108478E+04</totfact>
</mgrwt>
</event>
<event>
 7    1  0.6008063E-006  0.1326770E+03  0.7546771E-02  0.1236742E+00
         -3   -1    0    0    0  501 -0.00000000000E+00  0.00000000000E+00  0.26441865606E+02  0.26441865606E+02  0.00000000000E+00 0.  1.
          3   -1    0    0  501    0  0.00000000000E+00 -0.00000000000E+00 -0.74170901877E+03  0.74170901877E+03  0.00000000000E+00 0. -1.
         23    2    1    2    0    0 -0.91003575869E+01  0.43529247270E+02 -0.60171172289E+03  0.61616571380E+03  0.12500231008E+03 0.  0.
          5    1    3    3  502    0 -0.10170779685E+02 -0.31446711019E+02 -0.55166921152E+02  0.64481156803E+02  0.47000000000E+01 0. -1.
         -5    1    3    3    0  502  0.10704220976E+01  0.74975958289E+02 -0.54654480174E+03  0.55168455700E+03  0.47000000000E+01 0. -1.
        -11    1    1    2    0    0 -0.89256580331E+01 -0.67668023279E+02 -0.61673077593E+02  0.91990201900E+02  0.00000000000E+00 0.  1.
         11    1    1    2    0    0  0.18026015620E+02  0.24138776009E+02 -0.51882352684E+02  0.59994968676E+02  0.00000000000E+00 0. -1.
<mgrwt>
<rscale>  0 0.12393574E+03</rscale>
<asrwt>0</asrwt>
<pdfrwt beam="2">  1        3 0.11410909E+00 0.13267701E+03</pdfrwt>
<pdfrwt beam="1">  1       -3 0.40679789E-02 0.13267701E+03</pdfrwt>
<totfact> 0.48870434E+02</totfact>
</mgrwt>
</event>
<event>
 6    1  0.6008063E-006  0.1566108E+03  0.7546771E-02  0.1215263E+00
          1   -1    0    0  501    0  0.00000000000E+00  0.00000000000E+00  0.49837523599E+02  0.49837523599E+02  0.00000000000E+00 0. -1.
         -1   -1    0    0    0  501 -0.00000000000E+00 -0.00000000000E+00 -0.34938314268E+03  0.34938314268E+03  0.00000000000E+00 0.  1.
          5    1    1    2  502    0  0.26256149624E+02 -0.68435070469E+02 -0.10002791040E+03  0.12409841708E+03  0.47000000000E+01 0. -1.
         -5    1    1    2    0  502  0.40633620558E+02  0.59886260229E+02 -0.26412099468E+02  0.77182538713E+02  0.47000000000E+01 0.  1.
        -11    1    1    2    0    0 -0.11440099751E+01 -0.12052017322E+02 -0.52833704102E+00  0.12117715147E+02  0.00000000000E+00 0. -1.
         11    1    1    2    0    0 -0.65745760207E+02  0.20600827561E+02 -0.17257727217E+03  0.18582199534E+03  0.00000000000E+00 0.  1.
<mgrwt>
<rscale>  0 0.13857208E+03</rscale>
<asrwt>0</asrwt>
<pdfrwt beam="1">  1        1 0.76673116E-02 0.15661081E+03</pdfrwt>
<pdfrwt beam="2">  1       -1 0.53751251E-01 0.15661081E+03</pdfrwt>
<totfact> 0.32076018E+03</totfact>
</mgrwt>
</event>
<event>
 7    1  0.6008063E-006  0.1241849E+03  0.7546771E-02  0.1246469E+00
         -1   -1    0    0    0  501 -0.00000000000E+00  0.00000000000E+00  0.27833142051E+03  0.27833142051E+03  0.00000000000E+00 0.  1.
          1   -1    0    0  501    0  0.00000000000E+00 -0.00000000000E+00 -0.85330006485E+03  0.85330006485E+03  0.00000000000E+00 0. -1.
         23    2    1    2    0    0 -0.16009710148E+02 -0.38574554288E+02 -0.83938666282E+03  0.84852334211E+03  0.11695120912E+03 0.  0.
          5    1    3    3  502    0  0.25408789026E+02 -0.32802562130E+02 -0.73193338680E+03  0.73312358260E+03  0.47000000000E+01 0. -1.
         -5    1    3    3    0  502 -0.41418499173E+02 -0.57719921587E+01 -0.10745327602E+03  0.11539975951E+03  0.47000000000E+01 0.  1.
        -11    1    1    2    0    0  0.42091400518E+02  0.53462011384E+02  0.21252315172E+03  0.22315009002E+03  0.00000000000E+00 0.  1.
         11    1    1    2    0    0 -0.26081690370E+02 -0.14887457096E+02  0.51894866760E+02  0.59958053232E+02  0.00000000000E+00 0. -1.
<mgrwt>
<rscale>  0 0.11797874E+03</rscale>
<asrwt>0</asrwt>
<pdfrwt beam="2">  1        1 0.13127693E+00 0.12418491E+03</pdfrwt>
<pdfrwt beam="1">  1       -1 0.42820218E-01 0.12418491E+03</pdfrwt>
<totfact> 0.12005599E+02</totfact>
</mgrwt>
</event>
<event>
 7    1  0.6008063E-006  0.1498064E+03  0.7546771E-02  0.1205570E+00
         -1   -1    0    0    0  501 -0.00000000000E+00  0.00000000000E+00  0.18368709011E+02  0.18368709011E+02  0.00000000000E+00 0.  1.
          1   -1    0    0  501    0  0.00000000000E+00 -0.00000000000E+00 -0.11741951303E+04  0.11741951303E+04  0.00000000000E+00 0. -1.
         23    2    1    2    0    0 -0.74179275572E+02  0.66329613445E+02 -0.75297728361E+03  0.76773481580E+03  0.11198113777E+03 0.  0.
          5    1    3    3  502    0 -0.75842508560E+02  0.19737058622E+01 -0.53589129774E+03  0.54125553541E+03  0.47000000000E+01 0. -1.
         -5    1    3    3    0  502  0.16632329874E+01  0.64355907583E+02 -0.21708598587E+03  0.22647928039E+03  0.47000000000E+01 0.  1.
        -11    1    1    2    0    0  0.38166769961E+01 -0.57226095675E+02 -0.24729556028E+03  0.25385918771E+03  0.00000000000E+00 0. -1.
         11    1    1    2    0    0  0.70362598576E+02 -0.91035177705E+01 -0.15555357744E+03  0.17096983585E+03  0.00000000000E+00 0.  1.
<mgrwt>
<rscale>  0 0.14592632E+03</rscale>
<asrwt>0</asrwt>
<pdfrwt beam="2">  1        1 0.18064540E+00 0.14980640E+03</pdfrwt>
<pdfrwt beam="1">  1       -1 0.28259553E-02 0.14980640E+03</pdfrwt>
<totfact> 0.48367581E+03</totfact>
</mgrwt>
</event>
<event>
 7    1  0.6008063E-006  0.1543945E+03  0.7546771E-02  0.1202855E+00
          2   -1    0    0  501    0  0.00000000000E+00  0.00000000000E+00  0.17184127702E+04  0.17184127702E+04  0.00000000000E+00 0. -1.
         -2   -1    0    0    0  501 -0.00000000000E+00 -0.00000000000E+00 -0.16979377921E+02  0.16979377921E+02  0.00000000000E+00 0.  1.
         23    2    1    2    0    0  0.63316004382E+02  0.64862493127E+02  0.13772459517E+04  0.13858730358E+04  0.12498640171E+03 0.  0.
          5    1    3    3  502    0  0.31360576711E+02  0.98119117252E+02  0.77234083045E+03  0.77919400364E+03  0.47000000000E+01 0.  1.
         -5    1    3    3    0  502  0.31955427672E+02 -0.33256624125E+02  0.60490512120E+03  0.60667903216E+03  0.47000000000E+01 0.  1.
        -11    1    1    2    0    0 -0.69340116263E+02 -0.17201176969E+02  0.25816898884E+03  0.26787153453E+03  0.00000000000E+00 0. -1.
         11    1    1    2    0    0  0.60241118803E+01 -0.47661316158E+02  0.66018451795E+02  0.81647577792E+02  0.00000000000E+00 0.  1.
<mgrwt>
<rscale>  0 0.14807805E+03</rscale>
<asrwt>0</asrwt>
<pdfrwt beam="1">  1        2 0.26437106E+00 0.15439449E+03</pdfrwt>
<pdfrwt beam="2">  1       -2 0.26122134E-02 0.15439449E+03</pdfrwt>
<totfact> 0.53892532E+03</totfact>
</mgrwt>
</event>
<event>
 7    1  0.6008063E-006  0.1374423E+03  0.7546771E-02  0.1228571E+00
         -3   -1    0    0    0  501 -0.00000000000E+00  0.00000000000E+00  0.34052581975E+03  0.34052581975E+03  0.00000000000E+00 0.  1.
          3   -1    0    0  501    0  0.00000000000E+00 -0.00000000000E+00 -0.64796010001E+02  0.64796010001E+02  0.00000000000E+00 0. -1.
         23    2    1    2    0    0  0.32703411908E+02  0.46837263015E+02  0.35219494814E+02  0.14188308489E+03  0.12500861813E+03 0.  0.
          5    1    3    3  502    0  0.73777710136E+02  0.55999486858E+02  0.11792453153E+02  0.93489277420E+02  0.47000000000E+01 0. -1.
         -5    1    3    3    0  502 -0.41074298228E+02 -0.91622238432E+01  0.23427041660E+02  0.48393807472E+02  0.47000000000E+01 0. -1.
        -11    1    1    2    0    0 -0.37684669414E+02 -0.71031336036E+02  0.15760797279E+03  0.17693461531E+03  0.00000000000E+00 0. -1.
         11    1    1    2    0    0  0.49812575067E+01  0.24194073021E+02  0.82902342147E+02  0.86504129550E+02  0.00000000000E+00 0.  1.
<mgrwt>
<rscale>  0 0.12925148E+03</rscale>
<asrwt>0</asrwt>
<pdfrwt beam="2">  1        3 0.99686171E-02 0.13744234E+03</pdfrwt>
<pdfrwt beam="1">  1       -3 0.52388587E-01 0.13744234E+03</pdfrwt>
<totfact> 0.62543953E+02</totfact>
</mgrwt>
</event>
<event>
 7    1  0.6008063E-006  0.1365847E+03  0.7546771E-02  0.1229485E+00
          2   -1    0    0  501    0  0.00000000000E+00  0.00000000000E+00  0.70665598285E+03  0.70665598285E+03  0.00000000000E+00 0. -1.
         -2   -1    0    0    0  501 -0.00000000000E+00 -0.00000000000E+00 -0.22004496733E+02  0.22004496733E+02  0.00000000000E+00 0.  1.
         23    2    1    2    0    0  0.33223819552E+02 -0.43891915324E+02  0.45584712473E+03  0.47586970480E+03  0.12500020965E+03 0.  0.
          5    1    3    3  502    0  0.76466684085E+02 -0.27461753391E+02  0.20162718010E+03  0.21743254455E+03  0.47000000000E+01 0. -1.
         -5    1    3    3    0  502 -0.43242864534E+02 -0.16430161933E+02  0.25421994462E+03  0.25843716025E+03  0.47000000000E+01 0. -1.
        -11    1    1    2    0    0  0.27515789145E+02  0.35946457469E+02  0.11414354389E+03  0.12279256928E+03  0.00000000000E+00 0. -1.
         11    1    1    2    0    0 -0.60739608697E+02  0.79454578551E+01  0.11466081749E+03  0.12999820550E+03  0.00000000000E+00 0.  1.
<mgrwt>
<rscale>  0 0.12864189E+03</rscale>
<asrwt>0</asrwt>
<pdfrwt beam="1">  1        2 0.10871629E+00 0.13658468E+03</pdfrwt>
<pdfrwt beam="2">  1       -2 0.33853077E-02 0.13658468E+03</pdfrwt>
<totfact> 0.13957703E+04</totfact>
</mgrwt>
</event>
<event>
 7    1  0.6008063E-006  0.1286302E+03  0.7546771E-02  0.1243979E+00
          1   -1    0    0  501    0  0.00000000000E+00  0.00000000000E+00  0.11723802924E+04  0.11723802924E+04  0.00000000000E+00 0. -1.
         -1   -1    0    0    0  501 -0.00000000000E+00 -0.00000000000E+00 -0.11467257013E+02  0.11467257013E+02  0.00000000000E+00 0.  1.
         23    2    1    2    0    0  0.27422692191E+02  0.13008335301E+02  0.80851867946E+03  0.81868686480E+03  0.12499802685E+03 0.  0.
          5    1    3    3  502    0 -0.22092831882E+02  0.57087523091E+02  0.43333138566E+03  0.43765883781E+03  0.47000000000E+01 0. -1.
         -5    1    3    3    0  502  0.49515524073E+02 -0.44079187790E+02  0.37518729380E+03  0.38102802699E+03  0.47000000000E+01 0. -1.
        -11    1    1    2    0    0  0.16930956630E+02  0.26282017350E+02  0.18419956702E+03  0.18683383585E+03  0.00000000000E+00 0. -1.
         11    1    1    2    0    0 -0.44353648822E+02 -0.39290352651E+02  0.16819478888E+03  0.17832684874E+03  0.00000000000E+00 0.  1.
<mgrwt>
<rscale>  0 0.11946683E+03</rscale>
<asrwt>0</asrwt>
<pdfrwt beam="1">  1        1 0.18036610E+00 0.12863020E+03</pdfrwt>
<pdfrwt beam="2">  1       -1 0.17641943E-02 0.12863020E+03</pdfrwt>
<totfact> 0.95275031E+03</totfact>
</mgrwt>
</event>
<event>
 7    1  0.6008063E-006  0.1513519E+03  0.7546771E-02  0.1209493E+00
          1   -1    0    0  501    0  0.00000000000E+00  0.00000000000E+00  0.44751408104E+03  0.44751408104E+03  0.00000000000E+00 0. -1.
         -1   -1    0    0    0  501 -0.00000000000E+00 -0.00000000000E+00 -0.41367810025E+02  0.41367810025E+02  0.00000000000E+00 0.  1.
         23    2    1    2    0    0  0.64229747732E+02 -0.56139319782E+02  0.24146472388E+03  0.28497827494E+03  0.12502128055E+03 0.  0.
          5    1    3    3  502    0 -0.33269977402E+01 -0.72799985244E+02  0.17050267598E+03  0.18548358224E+03  0.47000000000E+01 0. -1.
         -5    1    3    3    0  502  0.67556745472E+02  0.16660665463E+02  0.70962047905E+02  0.99494692699E+02  0.47000000000E+01 0. -1.
        -11    1    1    2    0    0 -0.36441314525E+02 -0.16115132395E+02  0.35834027491E+02  0.53588659459E+02  0.00000000000E+00 0.  1.
         11    1    1    2    0    0 -0.27788433208E+02  0.72254452177E+02  0.12884751964E+03  0.15031495666E+03  0.00000000000E+00 0. -1.
<mgrwt>
<rscale>  0 0.14288923E+03</rscale>
<asrwt>0</asrwt>
<pdfrwt beam="1">  1        1 0.68848317E-01 0.15135192E+03</pdfrwt>
<pdfrwt beam="2">  1       -1 0.63642788E-02 0.15135192E+03</pdfrwt>
<totfact> 0.61698467E+03</totfact>
</mgrwt>
</event>
<event>
 7    1  0.6008063E-006  0.1349371E+03  0.7546771E-02  0.1232686E+00
         -1   -1    0    0    0  501 -0.00000000000E+00  0.00000000000E+00  0.28898144441E+02  0.28898144441E+02  0.00000000000E+00 0.  1.
          1   -1    0    0  501    0  0.00000000000E+00 -0.00000000000E+00 -0.62184980777E+03  0.62184980777E+03  0.00000000000E+00 0. -1.
         23    2    1    2    0    0 -0.21663509323E+02  0.45977025375E+02 -0.47247052120E+03  0.49136180567E+03  0.12499934470E+03 0.  0.
          5    1    3    3  502    0 -0.63204477777E+02  0.48910844849E+02 -0.39741659574E+03  0.40539994737E+03  0.47000000000E+01 0.  1.
         -5    1    3    3    0  502  0.41540968454E+02 -0.29338194743E+01 -0.75053925454E+02  0.85961858303E+02  0.47000000000E+01 0.  1.
        -11    1    1    2    0    0  0.24810218863E+02  0.22374667090E+02 -0.56890953964E+02  0.65975399433E+02  0.00000000000E+00 0. -1.
         11    1    1    2    0    0 -0.31467095395E+01 -0.68351692465E+02 -0.63590188167E+02  0.93410747106E+02  0.00000000000E+00 0.  1.
<mgrwt>
<rscale>  0 0.12653723E+03</rscale>
<asrwt>0</asrwt>
<pdfrwt beam="2">  1        1 0.95669196E-01 0.13493714E+03</pdfrwt>
<pdfrwt beam="1">  1       -1 0.44458686E-02 0.13493714E+03</pdfrwt>
<totfact> 0.67550494E+03</totfact>
</mgrwt>
</event>
<event>
 7    1  0.6008063E-006  0.1602138E+03  0.7546771E-02  0.1195985E+00
         -2   -1    0    0    0  501 -0.00000000000E+00  0.00000000000E+00  0.12053578592E+04  0.12053578592E+04  0.00000000000E+00 0.  1.
          2   -1    0    0  501    0  0.00000000000E+00 -0.00000000000E+00 -0.20277809435E+02  0.20277809435E+02  0.00000000000E+00 0. -1.
         23    2    1    2    0    0  0.97942898094E+02  0.21243133438E+02  0.43932524564E+03  0.46762714059E+03  0.12499755659E+03 0.  0.
          5    1    3    3  502    0  0.46916725185E+02  0.44411276764E+01  0.32962836654E+02  0.57702177753E+02  0.47000000000E+01 0. -1.
         -5    1    3    3    0  502  0.51026172909E+02  0.16802005762E+02  0.40636240899E+03  0.40992496284E+03  0.47000000000E+01 0. -1.
        -11    1    1    2    0    0 -0.57485961145E+02 -0.56918182840E+02  0.48933499060E+03  0.49597686265E+03  0.00000000000E+00 0. -1.
         11    1    1    2    0    0 -0.40456936949E+02  0.35675049402E+02  0.25641981348E+03  0.26203166535E+03  0.00000000000E+00 0.  1.
<mgrwt>
<rscale>  0 0.15371135E+03</rscale>
<asrwt>0</asrwt>
<pdfrwt beam="2">  1        2 0.31196639E-02 0.16021383E+03</pdfrwt>
<pdfrwt beam="1">  1       -2 0.18543961E+00 0.16021383E+03</pdfrwt>
<totfact> 0.52328770E+02</totfact>
</mgrwt>
</event>
<event>
 7    1  0.6008063E-006  0.1267833E+03  0.7546771E-02  0.1244145E+00
         -1   -1    0    0    0  501 -0.00000000000E+00  0.00000000000E+00  0.73428411234E+02  0.73428411234E+02  0.00000000000E+00 0.  1.
          1   -1    0    0  501    0  0.00000000000E+00 -0.00000000000E+00 -0.26612285314E+03  0.26612285314E+03  0.00000000000E+00 0. -1.
         23    2    1    2    0    0  0.37090281892E+02 -0.96664706533E+01 -0.20306298639E+03  0.23939213066E+03  0.12085067691E+03 0.  0.
          5    1    3    3  502    0  0.45757940004E+02 -0.59896636103E+02 -0.12499683952E+03  0.14604004923E+03  0.47000000000E+01 0. -1.
         -5    1    3    3    0  502 -0.86676581120E+01  0.50230165449E+02 -0.78066146878E+02  0.93352081426E+02  0.47000000000E+01 0.  1.
        -11    1    1    2    0    0 -0.45927068088E+02  0.43728511320E+02  0.13480648599E+02  0.64832138420E+02  0.00000000000E+00 0.  1.
         11    1    1    2    0    0  0.88367861961E+01 -0.34062040666E+02 -0.31121041077E+01  0.35326995296E+02  0.00000000000E+00 0. -1.
<mgrwt>
<rscale>  0 0.11936703E+03</rscale>
<asrwt>0</asrwt>
<pdfrwt beam="2">  1        1 0.40941977E-01 0.12678334E+03</pdfrwt>
<pdfrwt beam="1">  1       -1 0.11296679E-01 0.12678334E+03</pdfrwt>
<totfact> 0.49053132E+03</totfact>
</mgrwt>
</event>
<event>
 7    1  0.6008063E-006  0.1957643E+03  0.7546771E-02  0.1158053E+00
          1   -1    0    0  501    0  0.00000000000E+00  0.00000000000E+00  0.26581337681E+03  0.26581337681E+03  0.00000000000E+00 0. -1.
         -1   -1    0    0    0  501 -0.00000000000E+00 -0.00000000000E+00 -0.13697279124E+03  0.13697279124E+03  0.00000000000E+00 0.  1.
         23    2    1    2    0    0  0.12802163899E+03 -0.79363910674E+02  0.11459477690E+03  0.22683834981E+03  0.12504200769E+03 0.  0.
          5    1    3    3  502    0  0.34869747950E+02  0.33138356546E+02  0.40135892082E+02  0.62825391601E+02  0.47000000000E+01 0.  1.
         -5    1    3    3    0  502  0.93151891036E+02 -0.11250226722E+03  0.74458884817E+02  0.16401295821E+03  0.47000000000E+01 0.  1.
        -11    1    1    2    0    0 -0.71566791977E+02  0.81977107940E+02  0.37121274129E+02  0.11497843682E+03  0.00000000000E+00 0. -1.
         11    1    1    2    0    0 -0.56454847010E+02 -0.26131972659E+01 -0.22875465459E+02  0.60969381421E+02  0.00000000000E+00 0.  1.
<mgrwt>
<rscale>  0 0.19045356E+03</rscale>
<asrwt>0</asrwt>
<pdfrwt beam="1">  1        1 0.40894366E-01 0.19576433E+03</pdfrwt>
<pdfrwt beam="2">  1       -1 0.21072737E-01 0.19576433E+03</pdfrwt>
<totfact> 0.18712936E+03</totfact>
</mgrwt>
</event>
<event>
 7    1  0.6008063E-006  0.1858890E+03  0.7546771E-02  0.1167338E+00
         -1   -1    0    0    0  501 -0.00000000000E+00  0.00000000000E+00  0.17553407425E+03  0.17553407425E+03  0.00000000000E+00 0.  1.
          1   -1    0    0  501    0  0.00000000000E+00 -0.00000000000E+00 -0.25230690929E+03  0.25230690929E+03  0.00000000000E+00 0. -1.
         23    2    1    2    0    0  0.68474001498E+02  0.11933985856E+03 -0.15781715955E+03  0.24384620391E+03  0.12499609830E+03 0.  0.
          5    1    3    3  502    0  0.45880075150E+02  0.64587429197E+02 -0.45834045826E+01  0.79496005583E+02  0.47000000000E+01 0. -1.
         -5    1    3    3    0  502  0.22593926348E+02  0.54752429365E+02 -0.15323375497E+03  0.16435019833E+03  0.47000000000E+01 0. -1.
        -11    1    1    2    0    0 -0.57867403468E+02 -0.14339832071E+02  0.31009907033E+02  0.67200308795E+02  0.00000000000E+00 0. -1.
         11    1    1    2    0    0 -0.10606598030E+02 -0.10500002649E+03  0.50034417472E+02  0.11679447083E+03  0.00000000000E+00 0.  1.
<mgrwt>
<rscale>  0 0.18048143E+03</rscale>
<asrwt>0</asrwt>
<pdfrwt beam="2">  1        1 0.38816448E-01 0.18588899E+03</pdfrwt>
<pdfrwt beam="1">  1       -1 0.27005242E-01 0.18588899E+03</pdfrwt>
<totfact> 0.13252521E+03</totfact>
</mgrwt>
</event>
<event>
 7    1  0.6008063E-006  0.1260324E+03  0.7546771E-02  0.1258831E+00
         -2   -1    0    0    0  501 -0.00000000000E+00  0.00000000000E+00  0.10852629813E+03  0.10852629813E+03  0.00000000000E+00 0.  1.
          2   -1    0    0  501    0  0.00000000000E+00 -0.00000000000E+00 -0.15483032054E+03  0.15483032054E+03  0.00000000000E+00 0. -1.
         23    2    1    2    0    0 -0.88891178639E+01  0.11312471084E+02 -0.10779703726E+03  0.16584437245E+03  0.12520849098E+03 0.  0.
          5    1    3    3  502    0  0.37103203152E+02  0.35138147377E+02 -0.10113483015E+03  0.11340935126E+03  0.47000000000E+01 0. -1.
         -5    1    3    3    0  502 -0.45992321016E+02 -0.23825676293E+02 -0.66622071111E+01  0.52435021187E+02  0.47000000000E+01 0.  1.
        -11    1    1    2    0    0 -0.25552697783E+02 -0.26473825337E+02  0.21575989014E+02  0.42653570705E+02  0.00000000000E+00 0. -1.
         11    1    1    2    0    0  0.34441815647E+02  0.15161354252E+02  0.39917025833E+02  0.54858675514E+02  0.00000000000E+00 0.  1.
<mgrwt>
<rscale>  0 0.11094425E+03</rscale>
<asrwt>0</asrwt>
<pdfrwt beam="2">  1        2 0.23820049E-01 0.12603236E+03</pdfrwt>
<pdfrwt beam="1">  1       -2 0.16696354E-01 0.12603236E+03</pdfrwt>
<totfact> 0.61473630E+03</totfact>
</mgrwt>
</event>
<event>
 7    1  0.6008063E-006  0.1282928E+03  0.7546771E-02  0.1244736E+00
          2   -1    0    0  501    0  0.00000000000E+00  0.00000000000E+00  0.88515428847E+03  0.88515428847E+03  0.00000000000E+00 0. -1.
         -2   -1    0    0    0  501 -0.00000000000E+00 -0.00000000000E+00 -0.15366342638E+02  0.15366342638E+02  0.00000000000E+00 0.  1.
         23    2    1    2    0    0  0.26383997359E+02 -0.11624357921E+02  0.62308877644E+03  0.63615930246E+03  0.12501117459E+03 0.  0.
          5    1    3    3  502    0 -0.91095045882E+01 -0.70459489593E+01  0.57920391903E+03  0.57933746494E+03  0.47000000000E+01 0. -1.
         -5    1    3    3    0  502  0.35493501947E+02 -0.45784089618E+01  0.43884857410E+02  0.56821837519E+02  0.47000000000E+01 0. -1.
        -11    1    1    2    0    0 -0.25722717588E+02  0.44146067259E+02  0.83030517071E+02  0.97491539221E+02  0.00000000000E+00 0.  1.
         11    1    1    2    0    0 -0.66127977071E+00 -0.32521709338E+02  0.16366865232E+03  0.16686978942E+03  0.00000000000E+00 0. -1.
<mgrwt>
<rscale>  0 0.11901211E+03</rscale>
<asrwt>0</asrwt>
<pdfrwt beam="1">  1        2 0.13617754E+00 0.12829277E+03</pdfrwt>
<pdfrwt beam="2">  1       -2 0.23640534E-02 0.12829277E+03</pdfrwt>
<totfact> 0.17794252E+04</totfact>
</mgrwt>
</event>
<event>
 7    1  0.6008063E-006  0.1303457E+03  0.7546771E-02  0.1242215E+00
          4   -1    0    0  501    0  0.00000000000E+00  0.00000000000E+00  0.22462459924E+03  0.22462459924E+03  0.00000000000E+00 0. -1.
         -4   -1    0    0    0  501 -0.00000000000E+00 -0.00000000000E+00 -0.10338532499E+03  0.10338532499E+03  0.00000000000E+00 0.  1.
         23    2    1    2    0    0  0.32356586730E+02 -0.17827868279E+02  0.17528278447E+03  0.21843546296E+03  0.12500086143E+03 0.  0.
          5    1    3    3  502    0  0.22793395794E+02 -0.52387516079E+02  0.17294166298E+03  0.18219467480E+03  0.47000000000E+01 0.  1.
         -5    1    3    3    0  502  0.95631909354E+01  0.34559647800E+02  0.23411214916E+01  0.36240788164E+02  0.47000000000E+01 0.  1.
        -11    1    1    2    0    0 -0.14052950948E+02  0.53445695166E+02 -0.32185908836E+02  0.63952017089E+02  0.00000000000E+00 0. -1.
         11    1    1    2    0    0 -0.18303635782E+02 -0.35617826888E+02 -0.21857601382E+02  0.45622444183E+02  0.00000000000E+00 0.  1.
<mgrwt>
<rscale>  0 0.12053641E+03</rscale>
<asrwt>0</asrwt>
<pdfrwt beam="1">  1        4 0.34557631E-01 0.13034568E+03</pdfrwt>
<pdfrwt beam="2">  1       -4 0.15905435E-01 0.13034568E+03</pdfrwt>
<totfact> 0.45360097E+02</totfact>
</mgrwt>
</event>
<event>
 7    1  0.6008063E-006  0.2731152E+03  0.7546771E-02  0.1129725E+00
         -2   -1    0    0    0  501 -0.00000000000E+00  0.00000000000E+00  0.17850771601E+02  0.17850771601E+02  0.00000000000E+00 0.  1.
          2   -1    0    0  501    0  0.00000000000E+00 -0.00000000000E+00 -0.22455436208E+04  0.22455436208E+04  0.00000000000E+00 0. -1.
         23    2    1    2    0    0  0.21423560484E+02  0.11120027530E+02 -0.70989215312E+03  0.72121708054E+03  0.12499833694E+03 0.  0.
          5    1    3    3  502    0  0.13508330882E+01  0.12786483413E+02 -0.69637353866E+03  0.69650808628E+03  0.47000000000E+01 0.  1.
         -5    1    3    3    0  502  0.20072727396E+02 -0.16664558828E+01 -0.13518614466E+02  0.24708994261E+02  0.47000000000E+01 0.  1.
        -11    1    1    2    0    0  0.38236355382E+02  0.12161676593E+03 -0.72975130426E+03  0.74080336305E+03  0.00000000000E+00 0.  1.
         11    1    1    2    0    0 -0.59659915866E+02 -0.13273679346E+03 -0.78804939181E+03  0.80137394881E+03  0.00000000000E+00 0. -1.
<mgrwt>
<rscale>  0 0.22566953E+03</rscale>
<asrwt>0</asrwt>
<pdfrwt beam="2">  1        2 0.34546813E+00 0.27311519E+03</pdfrwt>
<pdfrwt beam="1">  1       -2 0.27462735E-02 0.27311519E+03</pdfrwt>
<totfact> 0.26583688E+03</totfact>
</mgrwt>
</event>
